                         Program Version 4.2.0 -  RELEASE  -
|  1> # ORCA input file
|  2> # BDTN-Th.out: Geometry 94
|  3> ! B3LYP def2-TZVP def2/J RIJCOSX Grid4 TightSCF
|  4>
|  5> %maxcore 6000
|  6> %tddft
|  7>   maxdim 5
|  8>   nroots 50
|  9>   end
| 10> %pal
| 11>   nprocs 6
| 12>   end
| 13>
| 14>
| 15> * xyz 0 1
| 16>    C        4.04773         3.62165         1.38163
| 17>    O        4.28809         4.30183         0.40761
| 18>    C        3.81223         4.06102         2.78038
| 19>    C        3.52430         2.91413         3.59437
| 20>    C        3.48288         1.71533         2.74205
| 21>    C        2.87850         0.52168         3.11075
| 22>    C        2.47439         0.29657         4.46165
| 23>    N        2.18187         0.12519         5.57395
| 24>    C        2.52052        -0.48228         2.16710
| 25>    N        2.20750        -1.29318         1.39505
| 26>    C        3.98754         2.11022         1.43512
| 27>    C        4.54172         1.42294         0.37368
| 28>    C       13.16907       -14.68822         1.56074
| 29>    O       12.68498       -13.83857         2.28691
| 30>    C       13.98682       -15.85554         1.96280
| 31>    C       14.38215       -16.58190         0.79128
| 32>    C       13.81530       -15.92984        -0.39955
| 33>    C       14.03779       -16.36880        -1.69613
| 34>    C       14.87843       -17.49603        -1.94757
| 35>    N       15.57182       -18.41150        -2.12965
| 36>    C       13.48142       -15.74987        -2.85565
| 37>    N       13.02271       -15.25175        -3.80136
| 38>    C       13.04787       -14.77435         0.07614
| 39>    C       12.30646       -13.91766        -0.71297
| 40>    C        5.05719         0.10713         0.26203
| 41>    C        5.34663        -0.83295         1.26028
| 42>    C        6.01115        -1.94981         0.74955
| 43>    C        6.23187        -1.90824        -0.65662
| 44>    S        5.62472        -0.44168        -1.33783
| 45>    N        6.50273        -3.13772         1.27706
| 46>    C        7.04761        -3.82925         0.20633
| 47>    C        6.85463        -3.12902        -0.99611
| 48>    C        7.69621        -5.09424         0.05318
| 49>    C        7.78107        -5.44963        -1.33598
| 50>    S        7.32989        -4.06912        -2.39194
| 51>    C        8.28795        -5.91591         1.02850
| 52>    C        8.81950        -7.13215         0.61789
| 53>    C        8.75169        -7.59557        -0.73819
| 54>    C        8.23631        -6.71735        -1.73450
| 55>    S        9.63701        -8.21887         1.73542
| 56>    C        9.90409        -9.33183         0.42125
| 57>    C        9.35568        -8.90650        -0.81677
| 58>    C       10.53322       -10.57205         0.21626
| 59>    C       10.34046       -10.87958        -1.15309
| 60>    N        9.61214        -9.87789        -1.77999
| 61>    S       11.43486       -11.79799         1.04832
| 62>    C       11.58186       -12.72510        -0.46935
| 63>    C       10.92760       -12.08281        -1.54098
| 64>    O        8.36973        -5.55512         2.34230
| 65>    O        8.24859        -7.17044        -3.01444
| 66>    C        9.25243        -4.45870         2.65948
| 67>    C       10.71011        -4.87900         2.69193
| 68>    C        7.29489        -6.68516        -3.96964
| 69>    C        7.02000        -7.75016        -5.01232
| 70>    C        8.87007       -10.18907        -3.00118
| 71>    C        7.64653       -11.08257        -2.72567
| 72>    C        6.55712       -10.33080        -1.91694
| 73>    C        6.48376       -10.71094        -0.43780
| 74>    C        7.09850       -11.70190        -4.02373
| 75>    C        6.19986       -12.91025        -3.75981
| 76>    C        5.86357        -3.82184         2.41516
| 77>    C        4.88176        -4.91813         1.95985
| 78>    C        4.30349        -5.65814         3.17531
| 79>    C        5.31406        -6.49022         3.96837
| 80>    C        3.79473        -4.35151         1.03429
| 81>    C        2.96179        -5.40382         0.30554
| 82>    C        3.82201         5.23940         3.47431
| 83>    S        3.49213         4.94707         5.15377
| 84>    C        3.32163         3.23610         4.91589
| 85>    C       14.44697       -16.39347         3.13147
| 86>    S       15.38539       -17.81669         2.80116
| 87>    C       15.16144       -17.67818         1.08624
| 88>    H        4.70926         2.07296        -0.49573
| 89>    H       12.25572       -14.18162        -1.76977
| 90>    H        5.12227        -0.66783         2.31137
| 91>    H       10.93576       -12.50137        -2.54704
| 92>    H        8.92101        -4.10608         3.64788
| 93>    H        9.08987        -3.63790         1.94236
| 94>    H       10.86998        -5.69410         3.41309
| 95>    H       11.33707        -4.02404         2.99140
| 96>    H       11.05110        -5.22395         1.70398
| 97>    H        7.69927        -5.77693        -4.44725
| 98>    H        6.36355        -6.41289        -3.45003
| 99>    H        7.94679        -8.08807        -5.50053
|100>    H        6.35963        -7.33286        -5.78827
|101>    H        6.51814        -8.62165        -4.56876
|102>    H        9.56973       -10.70457        -3.67733
|103>    H        8.58307        -9.24794        -3.47195
|104>    H        8.01049       -11.92437        -2.10999
|105>    H        5.57183       -10.51319        -2.37748
|106>    H        6.72375        -9.24483        -2.00725
|107>    H        6.20614       -11.77080        -0.31687
|108>    H        5.73378       -10.10595         0.09428
|109>    H        7.44676       -10.56038         0.07207
|110>    H        7.93959       -12.01567        -4.66596
|111>    H        6.54507       -10.93716        -4.59731
|112>    H        6.76223       -13.70811        -3.24670
|113>    H        5.79663       -13.33179        -4.69349
|114>    H        5.34378       -12.64876        -3.11823
|115>    H        5.33530        -3.05192         2.99609
|116>    H        6.63984        -4.25832         3.05140
|117>    H        5.46732        -5.65380         1.37973
|118>    H        3.50406        -6.32773         2.82020
|119>    H        3.80556        -4.92808         3.84003
|120>    H        5.86019        -7.18736         3.31165
|121>    H        4.80585        -7.08535         4.74324
|122>    H        6.06905        -5.87056         4.47542
|123>    H        4.26346        -3.71522         0.26786
|124>    H        3.13313        -3.67813         1.60352
|125>    H        3.60392        -6.08469        -0.28037
|126>    H        2.26232        -4.91667        -0.39161
|127>    H        2.35924        -6.02200         0.99005
|128>    H        4.00485         6.24578         3.10176
|129>    H        3.08294         2.58717         5.75536
|130>    H       14.29077       -16.03839         4.14887
|131>    H       15.60839       -18.40856         0.41642
|132> *
|133>
|134>                          ****END OF INPUT****

CARTESIAN COORDINATES (ANGSTROEM)
---------------------------------
  C      4.047730    3.621650    1.381630
  O      4.288090    4.301830    0.407610
  C      3.812230    4.061020    2.780380
  C      3.524300    2.914130    3.594370
  C      3.482880    1.715330    2.742050
  C      2.878500    0.521680    3.110750
  C      2.474390    0.296570    4.461650
  N      2.181870    0.125190    5.573950
  C      2.520520   -0.482280    2.167100
  N      2.207500   -1.293180    1.395050
  C      3.987540    2.110220    1.435120
  C      4.541720    1.422940    0.373680
  C     13.169070  -14.688220    1.560740
  O     12.684980  -13.838570    2.286910
  C     13.986820  -15.855540    1.962800
  C     14.382150  -16.581900    0.791280
  C     13.815300  -15.929840   -0.399550
  C     14.037790  -16.368800   -1.696130
  C     14.878430  -17.496030   -1.947570
  N     15.571820  -18.411500   -2.129650
  C     13.481420  -15.749870   -2.855650
  N     13.022710  -15.251750   -3.801360
  C     13.047870  -14.774350    0.076140
  C     12.306460  -13.917660   -0.712970
  C      5.057190    0.107130    0.262030
  C      5.346630   -0.832950    1.260280
  C      6.011150   -1.949810    0.749550
  C      6.231870   -1.908240   -0.656620
  S      5.624720   -0.441680   -1.337830
  N      6.502730   -3.137720    1.277060
  C      7.047610   -3.829250    0.206330
  C      6.854630   -3.129020   -0.996110
  C      7.696210   -5.094240    0.053180
  C      7.781070   -5.449630   -1.335980
  S      7.329890   -4.069120   -2.391940
  C      8.287950   -5.915910    1.028500
  C      8.819500   -7.132150    0.617890
  C      8.751690   -7.595570   -0.738190
  C      8.236310   -6.717350   -1.734500
  S      9.637010   -8.218870    1.735420
  C      9.904090   -9.331830    0.421250
  C      9.355680   -8.906500   -0.816770
  C     10.533220  -10.572050    0.216260
  C     10.340460  -10.879580   -1.153090
  N      9.612140   -9.877890   -1.779990
  S     11.434860  -11.797990    1.048320
  C     11.581860  -12.725100   -0.469350
  C     10.927600  -12.082810   -1.540980
  O      8.369730   -5.555120    2.342300
  O      8.248590   -7.170440   -3.014440
  C      9.252430   -4.458700    2.659480
  C     10.710110   -4.879000    2.691930
  C      7.294890   -6.685160   -3.969640
  C      7.020000   -7.750160   -5.012320
  C      8.870070  -10.189070   -3.001180
  C      7.646530  -11.082570   -2.725670
  C      6.557120  -10.330800   -1.916940
  C      6.483760  -10.710940   -0.437800
  C      7.098500  -11.701900   -4.023730
  C      6.199860  -12.910250   -3.759810
  C      5.863570   -3.821840    2.415160
  C      4.881760   -4.918130    1.959850
  C      4.303490   -5.658140    3.175310
  C      5.314060   -6.490220    3.968370
  C      3.794730   -4.351510    1.034290
  C      2.961790   -5.403820    0.305540
  C      3.822010    5.239400    3.474310
  S      3.492130    4.947070    5.153770
  C      3.321630    3.236100    4.915890
  C     14.446970  -16.393470    3.131470
  S     15.385390  -17.816690    2.801160
  C     15.161440  -17.678180    1.086240
  H      4.709260    2.072960   -0.495730
  H     12.255720  -14.181620   -1.769770
  H      5.122270   -0.667830    2.311370
  H     10.935760  -12.501370   -2.547040
  H      8.921010   -4.106080    3.647880
  H      9.089870   -3.637900    1.942360
  H     10.869980   -5.694100    3.413090
  H     11.337070   -4.024040    2.991400
  H     11.051100   -5.223950    1.703980
  H      7.699270   -5.776930   -4.447250
  H      6.363550   -6.412890   -3.450030
  H      7.946790   -8.088070   -5.500530
  H      6.359630   -7.332860   -5.788270
  H      6.518140   -8.621650   -4.568760
  H      9.569730  -10.704570   -3.677330
  H      8.583070   -9.247940   -3.471950
  H      8.010490  -11.924370   -2.109990
  H      5.571830  -10.513190   -2.377480
  H      6.723750   -9.244830   -2.007250
  H      6.206140  -11.770800   -0.316870
  H      5.733780  -10.105950    0.094280
  H      7.446760  -10.560380    0.072070
  H      7.939590  -12.015670   -4.665960
  H      6.545070  -10.937160   -4.597310
  H      6.762230  -13.708110   -3.246700
  H      5.796630  -13.331790   -4.693490
  H      5.343780  -12.648760   -3.118230
  H      5.335300   -3.051920    2.996090
  H      6.639840   -4.258320    3.051400
  H      5.467320   -5.653800    1.379730
  H      3.504060   -6.327730    2.820200
  H      3.805560   -4.928080    3.840030
  H      5.860190   -7.187360    3.311650
  H      4.805850   -7.085350    4.743240
  H      6.069050   -5.870560    4.475420
  H      4.263460   -3.715220    0.267860
  H      3.133130   -3.678130    1.603520
  H      3.603920   -6.084690   -0.280370
  H      2.262320   -4.916670   -0.391610
  H      2.359240   -6.022000    0.990050
  H      4.004850    6.245780    3.101760
  H      3.082940    2.587170    5.755360
  H     14.290770  -16.038390    4.148870
  H     15.608390  -18.408560    0.416420

 Total Charge           Charge          ....    0
 Multiplicity           Mult            ....    1
 Number of Electrons    NEL             ....  550
 Basis Dimension        Dim             .... 2532

ORBITAL ENERGIES
----------------

  NO   OCC          E(Eh)            E(eV)
   0   2.0000     -88.919000     -2419.6090
   1   2.0000     -88.914781     -2419.4942
   2   2.0000     -88.910092     -2419.3666
   3   2.0000     -88.908202     -2419.3152
   4   2.0000     -88.900472     -2419.1048
   5   2.0000     -88.899709     -2419.0841
   6   2.0000     -19.187188      -522.1099
   7   2.0000     -19.172705      -521.7158
   8   2.0000     -19.126515      -520.4589
   9   2.0000     -19.125696      -520.4366
  10   2.0000     -14.391893      -391.6233
  11   2.0000     -14.389614      -391.5613
  12   2.0000     -14.330754      -389.9596
  13   2.0000     -14.330565      -389.9545
  14   2.0000     -14.326754      -389.8508
  15   2.0000     -14.322688      -389.7401
  16   2.0000     -10.278044      -279.6798
  17   2.0000     -10.277518      -279.6655
  18   2.0000     -10.274301      -279.5779
  19   2.0000     -10.261801      -279.2378
  20   2.0000     -10.257271      -279.1145
  21   2.0000     -10.256264      -279.0871
  22   2.0000     -10.256073      -279.0819
  23   2.0000     -10.251754      -278.9644
  24   2.0000     -10.249948      -278.9153
  25   2.0000     -10.249530      -278.9039
  26   2.0000     -10.247527      -278.8494
  27   2.0000     -10.246041      -278.8089
  28   2.0000     -10.242402      -278.7099
  29   2.0000     -10.242073      -278.7010
  30   2.0000     -10.240554      -278.6596
  31   2.0000     -10.238886      -278.6143
  32   2.0000     -10.235773      -278.5295
  33   2.0000     -10.235511      -278.5224
  34   2.0000     -10.234952      -278.5072
  35   2.0000     -10.234341      -278.4906
  36   2.0000     -10.234193      -278.4865
  37   2.0000     -10.232738      -278.4469
  38   2.0000     -10.230924      -278.3976
  39   2.0000     -10.230667      -278.3906
  40   2.0000     -10.230613      -278.3891
  41   2.0000     -10.229799      -278.3670
  42   2.0000     -10.229584      -278.3611
  43   2.0000     -10.227924      -278.3160
  44   2.0000     -10.227881      -278.3148
  45   2.0000     -10.226895      -278.2880
  46   2.0000     -10.225872      -278.2601
  47   2.0000     -10.225173      -278.2411
  48   2.0000     -10.225131      -278.2400
  49   2.0000     -10.224981      -278.2359
  50   2.0000     -10.224737      -278.2292
  51   2.0000     -10.223282      -278.1897
  52   2.0000     -10.219696      -278.0921
  53   2.0000     -10.219273      -278.0806
  54   2.0000     -10.214520      -277.9512
  55   2.0000     -10.214337      -277.9463
  56   2.0000     -10.214272      -277.9445
  57   2.0000     -10.209902      -277.8255
  58   2.0000     -10.207400      -277.7575
  59   2.0000     -10.201829      -277.6059
  60   2.0000     -10.194188      -277.3980
  61   2.0000     -10.191239      -277.3177
  62   2.0000     -10.184632      -277.1379
  63   2.0000     -10.184216      -277.1266
  64   2.0000     -10.182354      -277.0759
  65   2.0000     -10.180656      -277.0297
  66   2.0000     -10.174401      -276.8595
  67   2.0000     -10.172850      -276.8173
  68   2.0000     -10.168277      -276.6929
  69   2.0000     -10.165391      -276.6144
  70   2.0000     -10.165207      -276.6093
  71   2.0000     -10.161873      -276.5186
  72   2.0000      -7.994187      -217.5329
  73   2.0000      -7.989990      -217.4187
  74   2.0000      -7.985427      -217.2945
  75   2.0000      -7.983524      -217.2427
  76   2.0000      -7.976144      -217.0419
  77   2.0000      -7.973861      -216.9798
  78   2.0000      -5.956614      -162.0877
  79   2.0000      -5.952413      -161.9734
  80   2.0000      -5.952366      -161.9721
  81   2.0000      -5.951650      -161.9526
  82   2.0000      -5.948196      -161.8586
  83   2.0000      -5.948155      -161.8575
  84   2.0000      -5.947463      -161.8387
  85   2.0000      -5.946747      -161.8192
  86   2.0000      -5.944499      -161.7580
  87   2.0000      -5.942991      -161.7170
  88   2.0000      -5.941614      -161.6795
  89   2.0000      -5.939143      -161.6123
  90   2.0000      -5.938770      -161.6021
  91   2.0000      -5.936907      -161.5514
  92   2.0000      -5.935434      -161.5114
  93   2.0000      -5.932815      -161.4401
  94   2.0000      -5.931779      -161.4119
  95   2.0000      -5.929848      -161.3594
  96   2.0000      -1.099103       -29.9081
  97   2.0000      -1.085367       -29.5343
  98   2.0000      -1.054993       -28.7078
  99   2.0000      -1.053233       -28.6599
 100   2.0000      -1.022102       -27.8128
 101   2.0000      -1.016334       -27.6558
 102   2.0000      -0.936320       -25.4786
 103   2.0000      -0.930884       -25.3306
 104   2.0000      -0.921268       -25.0690
 105   2.0000      -0.917630       -24.9700
 106   2.0000      -0.917248       -24.9596
 107   2.0000      -0.916064       -24.9274
 108   2.0000      -0.911283       -24.7973
 109   2.0000      -0.903509       -24.5857
 110   2.0000      -0.895627       -24.3713
 111   2.0000      -0.891579       -24.2611
 112   2.0000      -0.872939       -23.7539
 113   2.0000      -0.867999       -23.6194
 114   2.0000      -0.849543       -23.1172
 115   2.0000      -0.836633       -22.7660
 116   2.0000      -0.826548       -22.4915
 117   2.0000      -0.820337       -22.3225
 118   2.0000      -0.815573       -22.1929
 119   2.0000      -0.815042       -22.1784
 120   2.0000      -0.806203       -21.9379
 121   2.0000      -0.799006       -21.7421
 122   2.0000      -0.787883       -21.4394
 123   2.0000      -0.780361       -21.2347
 124   2.0000      -0.776568       -21.1315
 125   2.0000      -0.770480       -20.9658
 126   2.0000      -0.765128       -20.8202
 127   2.0000      -0.762487       -20.7483
 128   2.0000      -0.759674       -20.6718
 129   2.0000      -0.758725       -20.6459
 130   2.0000      -0.754958       -20.5434
 131   2.0000      -0.753759       -20.5108
 132   2.0000      -0.746865       -20.3232
 133   2.0000      -0.732759       -19.9394
 134   2.0000      -0.725505       -19.7420
 135   2.0000      -0.717991       -19.5375
 136   2.0000      -0.703956       -19.1556
 137   2.0000      -0.702156       -19.1066
 138   2.0000      -0.684885       -18.6367
 139   2.0000      -0.672359       -18.2958
 140   2.0000      -0.671953       -18.2848
 141   2.0000      -0.666984       -18.1496
 142   2.0000      -0.662929       -18.0392
 143   2.0000      -0.658919       -17.9301
 144   2.0000      -0.649443       -17.6722
 145   2.0000      -0.640575       -17.4309
 146   2.0000      -0.624201       -16.9854
 147   2.0000      -0.621802       -16.9201
 148   2.0000      -0.616161       -16.7666
 149   2.0000      -0.614403       -16.7188
 150   2.0000      -0.610960       -16.6251
 151   2.0000      -0.606288       -16.4979
 152   2.0000      -0.600153       -16.3310
 153   2.0000      -0.594538       -16.1782
 154   2.0000      -0.590558       -16.0699
 155   2.0000      -0.586514       -15.9599
 156   2.0000      -0.585074       -15.9207
 157   2.0000      -0.583649       -15.8819
 158   2.0000      -0.572960       -15.5910
 159   2.0000      -0.570093       -15.5130
 160   2.0000      -0.564962       -15.3734
 161   2.0000      -0.561066       -15.2674
 162   2.0000      -0.559214       -15.2170
 163   2.0000      -0.546698       -14.8764
 164   2.0000      -0.543304       -14.7841
 165   2.0000      -0.541163       -14.7258
 166   2.0000      -0.530956       -14.4481
 167   2.0000      -0.527712       -14.3598
 168   2.0000      -0.523191       -14.2368
 169   2.0000      -0.521563       -14.1924
 170   2.0000      -0.517033       -14.0692
 171   2.0000      -0.515738       -14.0339
 172   2.0000      -0.508661       -13.8414
 173   2.0000      -0.504897       -13.7389
 174   2.0000      -0.495095       -13.4722
 175   2.0000      -0.492184       -13.3930
 176   2.0000      -0.490664       -13.3517
 177   2.0000      -0.483125       -13.1465
 178   2.0000      -0.480130       -13.0650
 179   2.0000      -0.476393       -12.9633
 180   2.0000      -0.472344       -12.8531
 181   2.0000      -0.469514       -12.7761
 182   2.0000      -0.468442       -12.7470
 183   2.0000      -0.458970       -12.4892
 184   2.0000      -0.456228       -12.4146
 185   2.0000      -0.455448       -12.3934
 186   2.0000      -0.454177       -12.3588
 187   2.0000      -0.452318       -12.3082
 188   2.0000      -0.451477       -12.2853
 189   2.0000      -0.451273       -12.2798
 190   2.0000      -0.448804       -12.2126
 191   2.0000      -0.444915       -12.1068
 192   2.0000      -0.441643       -12.0177
 193   2.0000      -0.440857       -11.9963
 194   2.0000      -0.437852       -11.9146
 195   2.0000      -0.435487       -11.8502
 196   2.0000      -0.434311       -11.8182
 197   2.0000      -0.433294       -11.7905
 198   2.0000      -0.431708       -11.7474
 199   2.0000      -0.427645       -11.6368
 200   2.0000      -0.426647       -11.6097
 201   2.0000      -0.424940       -11.5632
 202   2.0000      -0.424072       -11.5396
 203   2.0000      -0.421575       -11.4716
 204   2.0000      -0.421423       -11.4675
 205   2.0000      -0.419003       -11.4016
 206   2.0000      -0.416093       -11.3225
 207   2.0000      -0.415292       -11.3007
 208   2.0000      -0.413967       -11.2646
 209   2.0000      -0.412686       -11.2298
 210   2.0000      -0.412200       -11.2165
 211   2.0000      -0.406322       -11.0566
 212   2.0000      -0.405084       -11.0229
 213   2.0000      -0.404723       -11.0131
 214   2.0000      -0.403110       -10.9692
 215   2.0000      -0.400803       -10.9064
 216   2.0000      -0.399758       -10.8780
 217   2.0000      -0.396377       -10.7860
 218   2.0000      -0.395009       -10.7487
 219   2.0000      -0.392597       -10.6831
 220   2.0000      -0.391646       -10.6572
 221   2.0000      -0.387906       -10.5555
 222   2.0000      -0.385444       -10.4885
 223   2.0000      -0.384644       -10.4667
 224   2.0000      -0.383108       -10.4249
 225   2.0000      -0.382163       -10.3992
 226   2.0000      -0.381055       -10.3690
 227   2.0000      -0.379520       -10.3273
 228   2.0000      -0.377027       -10.2594
 229   2.0000      -0.376744       -10.2517
 230   2.0000      -0.373848       -10.1729
 231   2.0000      -0.372972       -10.1491
 232   2.0000      -0.372692       -10.1415
 233   2.0000      -0.368847       -10.0368
 234   2.0000      -0.368729       -10.0336
 235   2.0000      -0.364330        -9.9139
 236   2.0000      -0.364101        -9.9077
 237   2.0000      -0.360777        -9.8172
 238   2.0000      -0.360302        -9.8043
 239   2.0000      -0.360158        -9.8004
 240   2.0000      -0.357585        -9.7304
 241   2.0000      -0.356581        -9.7031
 242   2.0000      -0.353858        -9.6290
 243   2.0000      -0.353670        -9.6238
 244   2.0000      -0.352516        -9.5924
 245   2.0000      -0.349657        -9.5147
 246   2.0000      -0.346368        -9.4251
 247   2.0000      -0.345676        -9.4063
 248   2.0000      -0.344792        -9.3823
 249   2.0000      -0.343815        -9.3557
 250   2.0000      -0.338478        -9.2105
 251   2.0000      -0.335462        -9.1284
 252   2.0000      -0.334143        -9.0925
 253   2.0000      -0.330704        -8.9989
 254   2.0000      -0.327836        -8.9209
 255   2.0000      -0.325987        -8.8706
 256   2.0000      -0.322220        -8.7681
 257   2.0000      -0.320228        -8.7139
 258   2.0000      -0.313610        -8.5338
 259   2.0000      -0.308842        -8.4040
 260   2.0000      -0.297118        -8.0850
 261   2.0000      -0.290829        -7.9138
 262   2.0000      -0.281702        -7.6655
 263   2.0000      -0.278130        -7.5683
 264   2.0000      -0.275039        -7.4842
 265   2.0000      -0.273533        -7.4432
 266   2.0000      -0.272257        -7.4085
 267   2.0000      -0.268806        -7.3146
 268   2.0000      -0.259228        -7.0540
 269   2.0000      -0.255687        -6.9576
 270   2.0000      -0.252142        -6.8611
 271   2.0000      -0.238562        -6.4916
 272   2.0000      -0.228147        -6.2082
 273   2.0000      -0.223113        -6.0712
 274   2.0000      -0.200651        -5.4600
 275   0.0000      -0.131890        -3.5889
 276   0.0000      -0.119556        -3.2533
 277   0.0000      -0.091846        -2.4992
 278   0.0000      -0.087645        -2.3849
 279   0.0000      -0.068980        -1.8770

MULLIKEN ATOMIC CHARGES
-----------------------
   0 C :    0.188568
   1 O :   -0.288895
   2 C :   -0.118897
   3 C :    0.080713
   4 C :    0.045978
   5 C :    0.032678
   6 C :   -0.214854
   7 N :   -0.010385
   8 C :   -0.162708
   9 N :   -0.014589
  10 C :   -0.021854
  11 C :   -0.189940
  12 C :    0.166335
  13 O :   -0.331989
  14 C :   -0.041939
  15 C :    0.069097
  16 C :    0.016317
  17 C :    0.122992
  18 C :   -0.209910
  19 N :   -0.013620
  20 C :   -0.187773
  21 N :   -0.005384
  22 C :   -0.037100
  23 C :   -0.151082
  24 C :    0.203914
  25 C :   -0.423220
  26 C :    0.247713
  27 C :   -0.046008
  28 S :    0.045574
  29 N :   -0.082773
  30 C :    0.306371
  31 C :   -0.134961
  32 C :   -0.092233
  33 C :   -0.051639
  34 S :   -0.003380
  35 C :    0.132104
  36 C :    0.045525
  37 C :   -0.084012
  38 C :    0.120425
  39 S :    0.022521
  40 C :   -0.041548
  41 C :    0.110266
  42 C :   -0.084577
  43 C :    0.237585
  44 N :   -0.026674
  45 S :    0.082885
  46 C :    0.050915
  47 C :   -0.304272
  48 O :   -0.372454
  49 O :   -0.328358
  50 C :   -0.025479
  51 C :   -0.337509
  52 C :   -0.054978
  53 C :   -0.348531
  54 C :   -0.215178
  55 C :    0.017601
  56 C :   -0.188286
  57 C :   -0.375142
  58 C :   -0.173315
  59 C :   -0.343195
  60 C :   -0.151532
  61 C :    0.014626
  62 C :   -0.192947
  63 C :   -0.338321
  64 C :   -0.138119
  65 C :   -0.370944
  66 C :   -0.139306
  67 S :    0.118878
  68 C :   -0.174724
  69 C :   -0.135848
  70 S :    0.115259
  71 C :   -0.176301
  72 H :    0.150178
  73 H :    0.159354
  74 H :    0.171363
  75 H :    0.149123
  76 H :    0.107692
  77 H :    0.107563
  78 H :    0.121598
  79 H :    0.117411
  80 H :    0.127552
  81 H :    0.114979
  82 H :    0.124819
  83 H :    0.125327
  84 H :    0.129171
  85 H :    0.121534
  86 H :    0.116030
  87 H :    0.170025
  88 H :    0.082349
  89 H :    0.094803
  90 H :    0.102892
  91 H :    0.112015
  92 H :    0.110351
  93 H :    0.139670
  94 H :    0.089636
  95 H :    0.088416
  96 H :    0.111189
  97 H :    0.117085
  98 H :    0.107546
  99 H :    0.115526
 100 H :    0.136835
 101 H :    0.067533
 102 H :    0.093744
 103 H :    0.090384
 104 H :    0.107690
 105 H :    0.115873
 106 H :    0.101145
 107 H :    0.109293
 108 H :    0.110352
 109 H :    0.095163
 110 H :    0.123776
 111 H :    0.106108
 112 H :    0.170673
 113 H :    0.187168
 114 H :    0.169273
 115 H :    0.191632
Sum of atomic charges:   -0.0000000

LOEWDIN ATOMIC CHARGES
----------------------
   0 C :   -0.253012
   1 O :    0.127561
   2 C :   -0.130743
   3 C :   -0.114121
   4 C :    0.001941
   5 C :   -0.155645
   6 C :   -0.152947
   7 N :    0.062618
   8 C :   -0.156795
   9 N :    0.079176
  10 C :   -0.079125
  11 C :   -0.069403
  12 C :   -0.256268
  13 O :    0.117173
  14 C :   -0.131714
  15 C :   -0.113189
  16 C :    0.011510
  17 C :   -0.144184
  18 C :   -0.149695
  19 N :    0.061010
  20 C :   -0.159739
  21 N :    0.056540
  22 C :   -0.085441
  23 C :   -0.058019
  24 C :   -0.323367
  25 C :   -0.093045
  26 C :   -0.185695
  27 C :   -0.335285
  28 S :    0.748591
  29 N :    0.286905
  30 C :   -0.146210
  31 C :   -0.339751
  32 C :   -0.101795
  33 C :   -0.252984
  34 S :    0.698857
  35 C :   -0.251527
  36 C :   -0.268722
  37 C :   -0.083265
  38 C :   -0.228455
  39 S :    0.736784
  40 C :   -0.349331
  41 C :   -0.122729
  42 C :   -0.334162
  43 C :   -0.186649
  44 N :    0.292937
  45 S :    0.765482
  46 C :   -0.315473
  47 C :   -0.100954
  48 O :    0.237892
  49 O :    0.254573
  50 C :   -0.316159
  51 C :   -0.311055
  52 C :   -0.334879
  53 C :   -0.306594
  54 C :   -0.214014
  55 C :   -0.247790
  56 C :   -0.262343
  57 C :   -0.306824
  58 C :   -0.265599
  59 C :   -0.305083
  60 C :   -0.198178
  61 C :   -0.256865
  62 C :   -0.257848
  63 C :   -0.308473
  64 C :   -0.260298
  65 C :   -0.307013
  66 C :   -0.313909
  67 S :    0.747035
  68 C :   -0.323967
  69 C :   -0.315464
  70 S :    0.746733
  71 C :   -0.320609
  72 H :    0.172918
  73 H :    0.180650
  74 H :    0.158388
  75 H :    0.155963
  76 H :    0.128138
  77 H :    0.130065
  78 H :    0.122980
  79 H :    0.127688
  80 H :    0.125083
  81 H :    0.123376
  82 H :    0.130547
  83 H :    0.125731
  84 H :    0.131862
  85 H :    0.119825
  86 H :    0.140349
  87 H :    0.144013
  88 H :    0.158904
  89 H :    0.135798
  90 H :    0.138937
  91 H :    0.119473
  92 H :    0.119667
  93 H :    0.125759
  94 H :    0.135684
  95 H :    0.131670
  96 H :    0.120804
  97 H :    0.119977
  98 H :    0.118276
  99 H :    0.143362
 100 H :    0.140275
 101 H :    0.159987
 102 H :    0.139332
 103 H :    0.137128
 104 H :    0.120383
 105 H :    0.119707
 106 H :    0.114566
 107 H :    0.147793
 108 H :    0.142965
 109 H :    0.115430
 110 H :    0.123689
 111 H :    0.114686
 112 H :    0.140305
 113 H :    0.143212
 114 H :    0.139643
 115 H :    0.144098

  Mayer bond orders larger than 0.100000
B(  0-C ,  1-O ) :   2.1742 B(  0-C ,  2-C ) :   0.9742 B(  0-C , 10-C ) :   0.9820
B(  1-O ,  2-C ) :  -0.1044 B(  1-O , 10-C ) :  -0.1155 B(  2-C ,  3-C ) :   1.1463
B(  2-C , 66-C ) :   1.6236 B(  3-C ,  4-C ) :   1.0318 B(  3-C , 68-C ) :   1.5782
B(  4-C ,  5-C ) :   1.3735 B(  4-C , 10-C ) :   1.1433 B(  5-C ,  6-C ) :   1.0554
B(  5-C ,  8-C ) :   1.0672 B(  6-C ,  7-N ) :   2.9911 B(  8-C ,  9-N ) :   2.9156
B( 10-C , 11-C ) :   1.5053 B( 11-C , 24-C ) :   1.1455 B( 11-C , 72-H ) :   0.9318
B( 12-C , 13-O ) :   2.0707 B( 12-C , 14-C ) :   1.0535 B( 12-C , 22-C ) :   0.9749
B( 13-O , 14-C ) :  -0.1094 B( 14-C , 15-C ) :   1.1553 B( 14-C , 69-C ) :   1.6260
B( 15-C , 16-C ) :   1.0358 B( 15-C , 71-C ) :   1.5894 B( 16-C , 17-C ) :   1.4458
B( 16-C , 22-C ) :   1.1379 B( 17-C , 18-C ) :   1.0248 B( 17-C , 20-C ) :   1.0361
B( 18-C , 19-N ) :   2.9854 B( 20-C , 21-N ) :   2.9767 B( 22-C , 23-C ) :   1.3825
B( 23-C , 46-C ) :   1.2914 B( 23-C , 73-H ) :   0.8998 B( 24-C , 25-C ) :   1.4602
B( 24-C , 28-S ) :   1.1630 B( 25-C , 26-C ) :   1.2967 B( 25-C , 28-S ) :   0.1599
B( 25-C , 74-H ) :   0.9323 B( 26-C , 27-C ) :   1.2282 B( 26-C , 29-N ) :   1.1780
B( 27-C , 28-S ) :   1.3259 B( 27-C , 31-C ) :   1.1261 B( 29-N , 30-C ) :   1.0905
B( 29-N , 60-C ) :   0.8811 B( 30-C , 31-C ) :   1.3514 B( 30-C , 32-C ) :   1.0527
B( 31-C , 34-S ) :   1.2716 B( 32-C , 33-C ) :   1.2437 B( 32-C , 35-C ) :   1.2364
B( 33-C , 34-S ) :   1.1728 B( 33-C , 38-C ) :   1.3741 B( 35-C , 36-C ) :   1.3561
B( 35-C , 39-S ) :  -0.1087 B( 35-C , 48-O ) :   1.0106 B( 36-C , 37-C ) :   1.2794
B( 36-C , 39-S ) :   1.2861 B( 37-C , 38-C ) :   1.2567 B( 37-C , 41-C ) :   1.1386
B( 38-C , 49-O ) :   1.1319 B( 39-S , 40-C ) :   1.2336 B( 40-C , 41-C ) :   1.3237
B( 40-C , 42-C ) :   1.1021 B( 41-C , 44-N ) :   1.1900 B( 42-C , 43-C ) :   1.2354
B( 42-C , 45-S ) :   1.3675 B( 43-C , 44-N ) :   1.1311 B( 43-C , 47-C ) :   1.3643
B( 44-N , 54-C ) :   0.8960 B( 45-S , 46-C ) :   1.2629 B( 46-C , 47-C ) :   1.3318
B( 47-C , 75-H ) :   0.9465 B( 48-O , 50-C ) :   0.8784 B( 49-O , 52-C ) :   0.8880
B( 50-C , 51-C ) :   0.9883 B( 50-C , 76-H ) :   0.9613 B( 50-C , 77-H ) :   0.9604
B( 51-C , 78-H ) :   0.9712 B( 51-C , 79-H ) :   0.9619 B( 51-C , 80-H ) :   0.9706
B( 52-C , 53-C ) :   0.9726 B( 52-C , 81-H ) :   0.9538 B( 52-C , 82-H ) :   0.9569
B( 53-C , 83-H ) :   0.9694 B( 53-C , 84-H ) :   0.9631 B( 53-C , 85-H ) :   0.9763
B( 54-C , 55-C ) :   0.9289 B( 54-C , 86-H ) :   0.9750 B( 54-C , 87-H ) :   0.9558
B( 55-C , 56-C ) :   0.9047 B( 55-C , 58-C ) :   0.9298 B( 55-C , 88-H ) :   0.9773
B( 56-C , 57-C ) :   0.9550 B( 56-C , 89-H ) :   0.9668 B( 56-C , 90-H ) :   0.9678
B( 57-C , 91-H ) :   0.9736 B( 57-C , 92-H ) :   0.9775 B( 57-C , 93-H ) :   0.9762
B( 58-C , 59-C ) :   0.9734 B( 58-C , 94-H ) :   0.9701 B( 58-C , 95-H ) :   0.9625
B( 59-C , 96-H ) :   0.9752 B( 59-C , 97-H ) :   0.9780 B( 59-C , 98-H ) :   0.9723
B( 60-C , 61-C ) :   0.9217 B( 60-C , 99-H ) :   0.9622 B( 60-C ,100-H ) :   0.9801
B( 61-C , 62-C ) :   0.9525 B( 61-C , 64-C ) :   0.9521 B( 61-C ,101-H ) :   0.9584
B( 62-C , 63-C ) :   0.9691 B( 62-C ,102-H ) :   0.9700 B( 62-C ,103-H ) :   0.9630
B( 63-C ,104-H ) :   0.9736 B( 63-C ,105-H ) :   0.9752 B( 63-C ,106-H ) :   0.9768
B( 64-C , 65-C ) :   0.9557 B( 64-C ,107-H ) :   0.9741 B( 64-C ,108-H ) :   0.9474
B( 65-C ,109-H ) :   0.9781 B( 65-C ,110-H ) :   0.9830 B( 65-C ,111-H ) :   0.9757
B( 66-C , 67-S ) :   1.2701 B( 66-C ,112-H ) :   0.9197 B( 67-S , 68-C ) :   1.3053
B( 68-C ,113-H ) :   0.9050 B( 69-C , 70-S ) :   1.2655 B( 69-C ,114-H ) :   0.9210
B( 70-S , 71-C ) :   1.3164 B( 71-C ,115-H ) :   0.8958

-----------------------------------------------------------------------------
         ABSORPTION SPECTRUM VIA TRANSITION ELECTRIC DIPOLE MOMENTS
-----------------------------------------------------------------------------
State   Energy    Wavelength  fosc         T2        TX        TY        TZ
        (cm-1)      (nm)                 (au**2)    (au)      (au)      (au)
-----------------------------------------------------------------------------
   1   13835.9    722.8   1.607890260  38.25813   3.15383  -5.28256  -0.63721
   2   16383.3    610.4   0.314333605   6.31634   1.32881  -2.11591   0.27120
   3   17779.3    562.5   1.068064410  19.77688   2.21391  -3.68072  -1.15230
   4   19329.2    517.4   0.121521480   2.06974   0.61242  -1.14995  -0.61017
   5   20682.6    483.5   0.164596101   2.61993   0.78863  -1.41137   0.07755
   6   21336.5    468.7   0.112638391   1.73796   0.22048  -1.03408   0.78742
   7   21616.6    462.6   0.216274153   3.29377   1.03425  -1.41841  -0.46066
   8   22191.3    450.6   0.060223238   0.89342  -0.48897   0.73276   0.34263
   9   22687.9    440.8   0.171419327   2.48737  -0.72894   1.13519  -0.81692
  10   23266.3    429.8   0.093506309   1.32309   0.64399  -0.94814  -0.09696
  11   24067.7    415.5   0.051491470   0.70433  -0.42498   0.71505   0.11144
  12   24628.6    406.0   0.013579577   0.18152  -0.34755  -0.21331   0.12339
  13   25169.6    397.3   0.024219498   0.31679   0.15750  -0.34334   0.41725
  14   25327.0    394.8   0.010103426   0.13133   0.06890  -0.05604  -0.35134
  15   25895.7    386.2   0.013755270   0.17487  -0.29871   0.28685   0.05796
  16   26296.4    380.3   0.018258363   0.22858   0.06071   0.40790   0.24189
  17   26611.4    375.8   0.023642595   0.29248   0.29074  -0.40074   0.21762
  18   26926.6    371.4   0.104596994   1.27883   0.28010  -1.08489  -0.15293
  19   26986.1    370.6   0.062367606   0.76084   0.31399  -0.49389   0.64679
  20   27493.9    363.7   0.093407188   1.11846   0.34965  -0.99513   0.07697
  21   27867.4    358.8   0.010676468   0.12613   0.20204   0.03588   0.28986
  22   28246.3    354.0   0.016028986   0.18682  -0.05716  -0.42783   0.02259
  23   28447.8    351.5   0.001429258   0.01654   0.05670  -0.00457   0.11534
  24   28771.7    347.6   0.057243563   0.65499   0.25276  -0.10796   0.76122
  25   29188.1    342.6   0.043413134   0.48966  -0.26443   0.64051  -0.09736
  26   29356.8    340.6   0.044084954   0.49438  -0.10512  -0.51842   0.46321
  27   29536.5    338.6   0.002054353   0.02290  -0.08676   0.07424   0.09929
  28   29603.4    337.8   0.012569496   0.13978  -0.01517  -0.36045   0.09813
  29   29621.4    337.6   0.029467625   0.32750   0.04254  -0.56005   0.10970
  30   29796.3    335.6   0.065789795   0.72690  -0.43750   0.73177   0.00036
  31   30076.5    332.5   0.048777146   0.53391   0.13354   0.30488   0.65048
  32   30307.3    330.0   0.042887817   0.46587  -0.06936  -0.49825  -0.46131
  33   30441.2    328.5   0.009692034   0.10482   0.12678  -0.29600  -0.03353
  34   30852.3    324.1   0.040028578   0.42713   0.27357  -0.57534  -0.14584
  35   31103.8    321.5   0.000657725   0.00696   0.06134  -0.05646   0.00320
  36   31383.1    318.6   0.005569978   0.05843   0.13060  -0.04643   0.19803
  37   31666.6    315.8   0.003457099   0.03594   0.16482  -0.09326  -0.00883
  38   31836.4    314.1   0.014290729   0.14778   0.03080  -0.35982  -0.13174
  39   32330.2    309.3   0.008918556   0.09082   0.23609   0.17751   0.05973
  40   32618.0    306.6   0.032770211   0.33075   0.11975  -0.52709  -0.19642
  41   32649.4    306.3   0.054146867   0.54598   0.01583   0.64341   0.36298
  42   32974.3    303.3   0.008027654   0.08015   0.11367  -0.17060  -0.19525
  43   33014.2    302.9   0.050737913   0.50595  -0.19120   0.64367   0.23468
  44   33223.8    301.0   0.099559956   0.98653   0.36140  -0.92052  -0.09254
  45   33692.1    296.8   0.080004760   0.78174   0.11503  -0.47085  -0.73947
  46   33984.2    294.3   0.004424330   0.04286  -0.06796  -0.15664   0.11707
  47   34072.2    293.5   0.003519323   0.03400   0.17819  -0.02159   0.04228
  48   34172.8    292.6   0.229433582   2.21030   0.10779   1.27902   0.75020
  49   34396.6    290.7   0.308863462   2.95615   0.05326   1.15780  -1.26997
  50   34598.9    289.0   0.084295111   0.80208   0.09362  -0.80066  -0.39019

FINAL SINGLE POINT ENERGY     -5177.925057132582

DIPOLE MOMENT
-------------
                                X             Y             Z
Electronic contribution:     49.33833      26.21346      24.42566
Nuclear contribution   :    -49.61477     -24.54806     -23.91198
                        -----------------------------------------
Total Dipole Moment    :     -0.27644       1.66540       0.51367
                        -----------------------------------------
Magnitude (a.u.)       :      1.76461
Magnitude (Debye)      :      4.48528

Rotational constants in cm-1:     0.002157     0.000270     0.000255
Rotational constants in MHz :    64.678422     8.080913     7.654116

                             ****ORCA TERMINATED NORMALLY****
TOTAL RUN TIME: 0 days 8 hours 43 minutes 48 seconds 402 msec
