                         Program Version 4.2.0 -  RELEASE  -
|  1> # ORCA input file
|  2> # BT6IC-HD-4Cl.out
|  3> ! B3LYP def2-TZVP def2/J RIJCOSX Grid4 TightSCF
|  4>
|  5> %maxcore 6000
|  6> %tddft
|  7>   maxdim 5
|  8>   nroots 50
|  9>   end
| 10> %pal
| 11>   nprocs 6
| 12>   end
| 13>
| 14>
| 15> * xyz 0 1
| 16>    C        2.80695         6.38277        -0.38898
| 17>    O        3.55022         7.30699        -0.62402
| 18>    C        1.32818         6.39814        -0.32327
| 19>    C        0.46016         7.44135        -0.57157
| 20>    C       -0.90494         7.20339        -0.46358
| 21>    C       -1.37599         5.93304        -0.11306
| 22>    C       -0.49804         4.88577         0.14610
| 23>    C        0.86165         5.12221         0.04226
| 24>    C        2.01105         4.25187         0.28297
| 25>    C        1.99068         3.10135         1.02723
| 26>    C        3.15237         2.43230         1.46227
| 27>    N        4.06396         1.87092         1.87648
| 28>    C        0.81185         2.49792         1.51070
| 29>    N       -0.11539         1.95167         1.90901
| 30>    C        3.18893         4.96652        -0.15334
| 31>    C        4.47308         4.57088        -0.38551
| 32>    C        5.01401         3.28082        -0.59220
| 33>    S        6.68324         3.05540        -0.07449
| 34>    C        6.67037         1.43219        -0.64125
| 35>    C        5.45120         1.12207        -1.25990
| 36>    C        4.50341         2.15367        -1.22671
| 37>    C        3.19275         2.07544        -1.94542
| 38>    C        2.33835         0.88820        -1.49960
| 39>    S        5.42148        -0.49096        -1.93777
| 40>    C        7.03077        -0.73975        -1.36172
| 41>    C        7.56355         0.35757        -0.68016
| 42>    N        8.83577         0.07853        -0.25390
| 43>    C        9.68910         1.19579         0.07332
| 44>    C       10.55692         1.66909        -1.11045
| 45>    C        9.14397        -1.21265        -0.65856
| 46>    C        8.02599        -1.72497        -1.38503
| 47>    C        8.04840        -2.97736        -2.03538
| 48>    N        7.11098        -3.54280        -2.77995
| 49>    S        7.67976        -4.95423        -3.33203
| 50>    N        9.14192        -4.89852        -2.63914
| 51>    C        9.23519        -3.77122        -1.95132
| 52>    C       10.28800        -3.32580        -1.12313
| 53>    C       10.25100        -2.07861        -0.42723
| 54>    N       11.34618        -2.03271         0.41739
| 55>    C       11.72082        -1.13759         1.48599
| 56>    C       12.79676        -0.08848         1.12074
| 57>    C       12.04763        -3.20083         0.26938
| 58>    C       11.43468        -4.00478        -0.69694
| 59>    S       12.21508        -5.52311        -0.94628
| 60>    C       13.37047        -5.11396         0.30536
| 61>    C       13.14036        -3.84378         0.85949
| 62>    S       14.26935        -3.49914         2.11310
| 63>    C       15.00984        -5.08922         1.92321
| 64>    C       14.43392        -5.81991         0.88289
| 65>    C       14.96685        -7.11692         0.37984
| 66>    C       15.00274        -7.21043        -1.14290
| 67>    C       16.10904        -5.35874         2.75664
| 68>    C       16.52916        -6.57997         3.22169
| 69>    C       17.78744        -6.84116         3.88682
| 70>    C       18.88189        -6.01550         3.91146
| 71>    C       18.95511        -4.75984         3.27255
| 72>    N       19.09407        -3.74282         2.75740
| 73>    C       20.09487        -6.32954         4.55869
| 74>    N       21.10316        -6.52494         5.07118
| 75>    C       17.72003        -8.18833         4.44694
| 76>    C       18.63617        -8.92304         5.18082
| 77>    C       18.29163       -10.21081         5.57756
| 78>    C       17.04814       -10.76186         5.25102
| 79>    C       16.12474       -10.02397         4.51997
| 80>    C       16.47294        -8.74980         4.12354
| 81>    C       15.66980        -7.77326         3.35338
| 82>    O       14.51455        -7.90425         3.00621
| 83>   Cl       16.65693       -12.35657         5.75385
| 84>   Cl       -2.01668         8.47709        -0.76373
| 85>    C       13.53557         0.35377         2.38861
| 86>    C       12.63445         1.04501         3.40591
| 87>    C       13.79510        -0.59930         0.08449
| 88>    C        9.71474         1.87458        -2.37442
| 89>    C       10.54634         2.29209        -3.58217
| 90>    C       11.25724         2.96299        -0.69857
| 91>   Cl       -3.06573         5.65143         0.00256
| 92>   Cl       19.42084       -11.13145         6.48744
| 93>    H        0.83383         8.41655        -0.84081
| 94>    H       -0.89262         3.91831         0.41137
| 95>    H        5.18640         5.38852        -0.45516
| 96>    H        3.40734         1.96167        -3.01299
| 97>    H        2.64197         3.00772        -1.81721
| 98>    H        2.81292        -0.04882        -1.77734
| 99>    H        1.36384         0.93612        -1.97900
|100>    H        2.19372         0.88417        -0.42245
|101>    H       10.31712         0.96492         0.93060
|102>    H        9.02489         2.01314         0.36706
|103>    H       11.30583         0.89882        -1.32629
|104>    H       12.12996        -1.77068         2.28041
|105>    H       10.82255        -0.65936         1.87919
|106>    H       12.31466         0.79068         0.69300
|107>    H       14.34672        -7.92304         0.78532
|108>    H       15.97515        -7.25784         0.77675
|109>    H       14.00158        -7.24742        -1.56198
|110>    H       15.52664        -8.11661        -1.43610
|111>    H       15.52724        -6.35677        -1.56669
|112>    H       16.64602        -4.48050         3.09741
|113>    H       19.60047        -8.52818         5.45579
|114>    H       15.16133       -10.43623         4.26494
|115>    H       14.32880         1.04453         2.09678
|116>    H       14.01008        -0.51535         2.84905
|117>    H       12.12496         1.89532         2.95613
|118>    H       13.22859         1.41134         4.23900
|119>    H       11.88630         0.36389         3.80312
|120>    H       14.39569        -1.40969         0.48560
|121>    H       14.46639         0.20784        -0.19849
|122>    H       13.29035        -0.94707        -0.81423
|123>    H        8.95178         2.63176        -2.17947
|124>    H        9.20580         0.94053        -2.62258
|125>    H       10.96303         3.28649        -3.45114
|126>    H        9.92392         2.30299        -4.47350
|127>    H       11.36232         1.59111        -3.74517
|128>    H       10.53513         3.77376        -0.63410
|129>    H       12.02132         3.23400        -1.42043
|130>    H       11.73662         2.86055         0.27267
|131> *
|132>
|133>                          ****END OF INPUT****

CARTESIAN COORDINATES (ANGSTROEM)
---------------------------------
  C      2.806950    6.382770   -0.388980
  O      3.550220    7.306990   -0.624020
  C      1.328180    6.398140   -0.323270
  C      0.460160    7.441350   -0.571570
  C     -0.904940    7.203390   -0.463580
  C     -1.375990    5.933040   -0.113060
  C     -0.498040    4.885770    0.146100
  C      0.861650    5.122210    0.042260
  C      2.011050    4.251870    0.282970
  C      1.990680    3.101350    1.027230
  C      3.152370    2.432300    1.462270
  N      4.063960    1.870920    1.876480
  C      0.811850    2.497920    1.510700
  N     -0.115390    1.951670    1.909010
  C      3.188930    4.966520   -0.153340
  C      4.473080    4.570880   -0.385510
  C      5.014010    3.280820   -0.592200
  S      6.683240    3.055400   -0.074490
  C      6.670370    1.432190   -0.641250
  C      5.451200    1.122070   -1.259900
  C      4.503410    2.153670   -1.226710
  C      3.192750    2.075440   -1.945420
  C      2.338350    0.888200   -1.499600
  S      5.421480   -0.490960   -1.937770
  C      7.030770   -0.739750   -1.361720
  C      7.563550    0.357570   -0.680160
  N      8.835770    0.078530   -0.253900
  C      9.689100    1.195790    0.073320
  C     10.556920    1.669090   -1.110450
  C      9.143970   -1.212650   -0.658560
  C      8.025990   -1.724970   -1.385030
  C      8.048400   -2.977360   -2.035380
  N      7.110980   -3.542800   -2.779950
  S      7.679760   -4.954230   -3.332030
  N      9.141920   -4.898520   -2.639140
  C      9.235190   -3.771220   -1.951320
  C     10.288000   -3.325800   -1.123130
  C     10.251000   -2.078610   -0.427230
  N     11.346180   -2.032710    0.417390
  C     11.720820   -1.137590    1.485990
  C     12.796760   -0.088480    1.120740
  C     12.047630   -3.200830    0.269380
  C     11.434680   -4.004780   -0.696940
  S     12.215080   -5.523110   -0.946280
  C     13.370470   -5.113960    0.305360
  C     13.140360   -3.843780    0.859490
  S     14.269350   -3.499140    2.113100
  C     15.009840   -5.089220    1.923210
  C     14.433920   -5.819910    0.882890
  C     14.966850   -7.116920    0.379840
  C     15.002740   -7.210430   -1.142900
  C     16.109040   -5.358740    2.756640
  C     16.529160   -6.579970    3.221690
  C     17.787440   -6.841160    3.886820
  C     18.881890   -6.015500    3.911460
  C     18.955110   -4.759840    3.272550
  N     19.094070   -3.742820    2.757400
  C     20.094870   -6.329540    4.558690
  N     21.103160   -6.524940    5.071180
  C     17.720030   -8.188330    4.446940
  C     18.636170   -8.923040    5.180820
  C     18.291630  -10.210810    5.577560
  C     17.048140  -10.761860    5.251020
  C     16.124740  -10.023970    4.519970
  C     16.472940   -8.749800    4.123540
  C     15.669800   -7.773260    3.353380
  O     14.514550   -7.904250    3.006210
  Cl    16.656930  -12.356570    5.753850
  Cl    -2.016680    8.477090   -0.763730
  C     13.535570    0.353770    2.388610
  C     12.634450    1.045010    3.405910
  C     13.795100   -0.599300    0.084490
  C      9.714740    1.874580   -2.374420
  C     10.546340    2.292090   -3.582170
  C     11.257240    2.962990   -0.698570
  Cl    -3.065730    5.651430    0.002560
  Cl    19.420840  -11.131450    6.487440
  H      0.833830    8.416550   -0.840810
  H     -0.892620    3.918310    0.411370
  H      5.186400    5.388520   -0.455160
  H      3.407340    1.961670   -3.012990
  H      2.641970    3.007720   -1.817210
  H      2.812920   -0.048820   -1.777340
  H      1.363840    0.936120   -1.979000
  H      2.193720    0.884170   -0.422450
  H     10.317120    0.964920    0.930600
  H      9.024890    2.013140    0.367060
  H     11.305830    0.898820   -1.326290
  H     12.129960   -1.770680    2.280410
  H     10.822550   -0.659360    1.879190
  H     12.314660    0.790680    0.693000
  H     14.346720   -7.923040    0.785320
  H     15.975150   -7.257840    0.776750
  H     14.001580   -7.247420   -1.561980
  H     15.526640   -8.116610   -1.436100
  H     15.527240   -6.356770   -1.566690
  H     16.646020   -4.480500    3.097410
  H     19.600470   -8.528180    5.455790
  H     15.161330  -10.436230    4.264940
  H     14.328800    1.044530    2.096780
  H     14.010080   -0.515350    2.849050
  H     12.124960    1.895320    2.956130
  H     13.228590    1.411340    4.239000
  H     11.886300    0.363890    3.803120
  H     14.395690   -1.409690    0.485600
  H     14.466390    0.207840   -0.198490
  H     13.290350   -0.947070   -0.814230
  H      8.951780    2.631760   -2.179470
  H      9.205800    0.940530   -2.622580
  H     10.963030    3.286490   -3.451140
  H      9.923920    2.302990   -4.473500
  H     11.362320    1.591110   -3.745170
  H     10.535130    3.773760   -0.634100
  H     12.021320    3.234000   -1.420430
  H     11.736620    2.860550    0.272670

 Total Charge           Charge          ....    0
 Multiplicity           Mult            ....    1
 Number of Electrons    NEL             ....  606
 Basis Dimension        Dim             .... 2669

ORBITAL ENERGIES
----------------

  NO   OCC          E(Eh)            E(eV)
   0   2.0000    -101.551596     -2763.3594
   1   2.0000    -101.550748     -2763.3363
   2   2.0000    -101.548316     -2763.2702
   3   2.0000    -101.546313     -2763.2156
   4   2.0000     -88.946212     -2420.3495
   5   2.0000     -88.910950     -2419.3900
   6   2.0000     -88.910484     -2419.3773
   7   2.0000     -88.907662     -2419.3005
   8   2.0000     -88.907180     -2419.2873
   9   2.0000     -19.135295      -520.6978
  10   2.0000     -19.131280      -520.5886
  11   2.0000     -14.407759      -392.0550
  12   2.0000     -14.404895      -391.9771
  13   2.0000     -14.353202      -390.5705
  14   2.0000     -14.352698      -390.5568
  15   2.0000     -14.332016      -389.9940
  16   2.0000     -14.331788      -389.9878
  17   2.0000     -14.328336      -389.8938
  18   2.0000     -14.326701      -389.8493
  19   2.0000     -10.280717      -279.7525
  20   2.0000     -10.277049      -279.6527
  21   2.0000     -10.275615      -279.6137
  22   2.0000     -10.274719      -279.5893
  23   2.0000     -10.270968      -279.4873
  24   2.0000     -10.270377      -279.4712
  25   2.0000     -10.262987      -279.2701
  26   2.0000     -10.260962      -279.2150
  27   2.0000     -10.260318      -279.1975
  28   2.0000     -10.258078      -279.1365
  29   2.0000     -10.255840      -279.0756
  30   2.0000     -10.252768      -278.9920
  31   2.0000     -10.246915      -278.8327
  32   2.0000     -10.244518      -278.7675
  33   2.0000     -10.243827      -278.7487
  34   2.0000     -10.242601      -278.7154
  35   2.0000     -10.241934      -278.6972
  36   2.0000     -10.240538      -278.6592
  37   2.0000     -10.237296      -278.5710
  38   2.0000     -10.237172      -278.5676
  39   2.0000     -10.236739      -278.5558
  40   2.0000     -10.235052      -278.5099
  41   2.0000     -10.233092      -278.4566
  42   2.0000     -10.232607      -278.4434
  43   2.0000     -10.231344      -278.4090
  44   2.0000     -10.230078      -278.3746
  45   2.0000     -10.229981      -278.3719
  46   2.0000     -10.229823      -278.3676
  47   2.0000     -10.228959      -278.3441
  48   2.0000     -10.227104      -278.2936
  49   2.0000     -10.226932      -278.2890
  50   2.0000     -10.226754      -278.2841
  51   2.0000     -10.225859      -278.2598
  52   2.0000     -10.225839      -278.2592
  53   2.0000     -10.225615      -278.2531
  54   2.0000     -10.225056      -278.2379
  55   2.0000     -10.223250      -278.1888
  56   2.0000     -10.223066      -278.1838
  57   2.0000     -10.218855      -278.0692
  58   2.0000     -10.218664      -278.0640
  59   2.0000     -10.218058      -278.0475
  60   2.0000     -10.215986      -277.9911
  61   2.0000     -10.215086      -277.9666
  62   2.0000     -10.213919      -277.9349
  63   2.0000     -10.213263      -277.9170
  64   2.0000     -10.212773      -277.9037
  65   2.0000     -10.205205      -277.6977
  66   2.0000     -10.203398      -277.6486
  67   2.0000     -10.200859      -277.5795
  68   2.0000     -10.189398      -277.2676
  69   2.0000     -10.188262      -277.2367
  70   2.0000     -10.184666      -277.1388
  71   2.0000     -10.184498      -277.1343
  72   2.0000     -10.179118      -276.9879
  73   2.0000     -10.178104      -276.9603
  74   2.0000     -10.176481      -276.9161
  75   2.0000     -10.173126      -276.8248
  76   2.0000     -10.172959      -276.8203
  77   2.0000      -9.484174      -258.0775
  78   2.0000      -9.483340      -258.0548
  79   2.0000      -9.480906      -257.9886
  80   2.0000      -9.478921      -257.9345
  81   2.0000      -8.017269      -218.1610
  82   2.0000      -7.987394      -217.3480
  83   2.0000      -7.987158      -217.3416
  84   2.0000      -7.983254      -217.2354
  85   2.0000      -7.982818      -217.2235
  86   2.0000      -7.245825      -197.1689
  87   2.0000      -7.245016      -197.1469
  88   2.0000      -7.242561      -197.0801
  89   2.0000      -7.240599      -197.0267
  90   2.0000      -7.237458      -196.9412
  91   2.0000      -7.236665      -196.9197
  92   2.0000      -7.236618      -196.9184
  93   2.0000      -7.235802      -196.8962
  94   2.0000      -7.234195      -196.8525
  95   2.0000      -7.233402      -196.8309
  96   2.0000      -7.232194      -196.7980
  97   2.0000      -7.231400      -196.7764
  98   2.0000      -5.981983      -162.7780
  99   2.0000      -5.974615      -162.5775
 100   2.0000      -5.974017      -162.5613
 101   2.0000      -5.950144      -161.9116
 102   2.0000      -5.949820      -161.9028
 103   2.0000      -5.946354      -161.8085
 104   2.0000      -5.946194      -161.8042
 105   2.0000      -5.946071      -161.8008
 106   2.0000      -5.945797      -161.7934
 107   2.0000      -5.943485      -161.7305
 108   2.0000      -5.943315      -161.7258
 109   2.0000      -5.942452      -161.7023
 110   2.0000      -5.941994      -161.6899
 111   2.0000      -5.939023      -161.6090
 112   2.0000      -5.938536      -161.5958
 113   2.0000      -1.065987       -29.0070
 114   2.0000      -1.062428       -28.9101
 115   2.0000      -1.044566       -28.4241
 116   2.0000      -1.032668       -28.1003
 117   2.0000      -1.032167       -28.0867
 118   2.0000      -0.954429       -25.9713
 119   2.0000      -0.949613       -25.8403
 120   2.0000      -0.944734       -25.7075
 121   2.0000      -0.939815       -25.5737
 122   2.0000      -0.936751       -25.4903
 123   2.0000      -0.935697       -25.4616
 124   2.0000      -0.927224       -25.2311
 125   2.0000      -0.923292       -25.1241
 126   2.0000      -0.916015       -24.9260
 127   2.0000      -0.911479       -24.8026
 128   2.0000      -0.903175       -24.5766
 129   2.0000      -0.894394       -24.3377
 130   2.0000      -0.885781       -24.1033
 131   2.0000      -0.882036       -24.0014
 132   2.0000      -0.881678       -23.9917
 133   2.0000      -0.873214       -23.7614
 134   2.0000      -0.859387       -23.3851
 135   2.0000      -0.855100       -23.2685
 136   2.0000      -0.848681       -23.0938
 137   2.0000      -0.844743       -22.9866
 138   2.0000      -0.829680       -22.5767
 139   2.0000      -0.826903       -22.5012
 140   2.0000      -0.824236       -22.4286
 141   2.0000      -0.821703       -22.3597
 142   2.0000      -0.812336       -22.1048
 143   2.0000      -0.798107       -21.7176
 144   2.0000      -0.790813       -21.5191
 145   2.0000      -0.790160       -21.5014
 146   2.0000      -0.789414       -21.4810
 147   2.0000      -0.784916       -21.3586
 148   2.0000      -0.782238       -21.2858
 149   2.0000      -0.766196       -20.8493
 150   2.0000      -0.757248       -20.6058
 151   2.0000      -0.755391       -20.5552
 152   2.0000      -0.747913       -20.3517
 153   2.0000      -0.738146       -20.0860
 154   2.0000      -0.737563       -20.0701
 155   2.0000      -0.728219       -19.8158
 156   2.0000      -0.717802       -19.5324
 157   2.0000      -0.714099       -19.4316
 158   2.0000      -0.709781       -19.3141
 159   2.0000      -0.699230       -19.0270
 160   2.0000      -0.692943       -18.8559
 161   2.0000      -0.686081       -18.6692
 162   2.0000      -0.666576       -18.1384
 163   2.0000      -0.664967       -18.0947
 164   2.0000      -0.662435       -18.0258
 165   2.0000      -0.654387       -17.8068
 166   2.0000      -0.652811       -17.7639
 167   2.0000      -0.649737       -17.6802
 168   2.0000      -0.640715       -17.4348
 169   2.0000      -0.636716       -17.3259
 170   2.0000      -0.632259       -17.2046
 171   2.0000      -0.621246       -16.9050
 172   2.0000      -0.619638       -16.8612
 173   2.0000      -0.613921       -16.7056
 174   2.0000      -0.605451       -16.4752
 175   2.0000      -0.603863       -16.4319
 176   2.0000      -0.597981       -16.2719
 177   2.0000      -0.597925       -16.2704
 178   2.0000      -0.589789       -16.0490
 179   2.0000      -0.579700       -15.7744
 180   2.0000      -0.576919       -15.6988
 181   2.0000      -0.573273       -15.5996
 182   2.0000      -0.566760       -15.4223
 183   2.0000      -0.554268       -15.0824
 184   2.0000      -0.550105       -14.9691
 185   2.0000      -0.548221       -14.9179
 186   2.0000      -0.543480       -14.7888
 187   2.0000      -0.536182       -14.5903
 188   2.0000      -0.534383       -14.5413
 189   2.0000      -0.529106       -14.3977
 190   2.0000      -0.526497       -14.3267
 191   2.0000      -0.518600       -14.1118
 192   2.0000      -0.517399       -14.0791
 193   2.0000      -0.512057       -13.9338
 194   2.0000      -0.510040       -13.8789
 195   2.0000      -0.507800       -13.8179
 196   2.0000      -0.503164       -13.6918
 197   2.0000      -0.501478       -13.6459
 198   2.0000      -0.493797       -13.4369
 199   2.0000      -0.489204       -13.3119
 200   2.0000      -0.488013       -13.2795
 201   2.0000      -0.485826       -13.2200
 202   2.0000      -0.483628       -13.1602
 203   2.0000      -0.481843       -13.1116
 204   2.0000      -0.479291       -13.0422
 205   2.0000      -0.475915       -12.9503
 206   2.0000      -0.473219       -12.8770
 207   2.0000      -0.470596       -12.8056
 208   2.0000      -0.468998       -12.7621
 209   2.0000      -0.468045       -12.7361
 210   2.0000      -0.465685       -12.6719
 211   2.0000      -0.462244       -12.5783
 212   2.0000      -0.460396       -12.5280
 213   2.0000      -0.456750       -12.4288
 214   2.0000      -0.455281       -12.3888
 215   2.0000      -0.452304       -12.3078
 216   2.0000      -0.451249       -12.2791
 217   2.0000      -0.448690       -12.2095
 218   2.0000      -0.446720       -12.1559
 219   2.0000      -0.445101       -12.1118
 220   2.0000      -0.443067       -12.0565
 221   2.0000      -0.440412       -11.9842
 222   2.0000      -0.439206       -11.9514
 223   2.0000      -0.437883       -11.9154
 224   2.0000      -0.437627       -11.9084
 225   2.0000      -0.435824       -11.8594
 226   2.0000      -0.433428       -11.7942
 227   2.0000      -0.433061       -11.7842
 228   2.0000      -0.429277       -11.6812
 229   2.0000      -0.426964       -11.6183
 230   2.0000      -0.426812       -11.6141
 231   2.0000      -0.422553       -11.4983
 232   2.0000      -0.421006       -11.4562
 233   2.0000      -0.420374       -11.4390
 234   2.0000      -0.418158       -11.3787
 235   2.0000      -0.416795       -11.3416
 236   2.0000      -0.412979       -11.2377
 237   2.0000      -0.409417       -11.1408
 238   2.0000      -0.405591       -11.0367
 239   2.0000      -0.405219       -11.0266
 240   2.0000      -0.403430       -10.9779
 241   2.0000      -0.402348       -10.9484
 242   2.0000      -0.399003       -10.8574
 243   2.0000      -0.396650       -10.7934
 244   2.0000      -0.395796       -10.7702
 245   2.0000      -0.391780       -10.6609
 246   2.0000      -0.389056       -10.5868
 247   2.0000      -0.386504       -10.5173
 248   2.0000      -0.385873       -10.5001
 249   2.0000      -0.385028       -10.4771
 250   2.0000      -0.384151       -10.4533
 251   2.0000      -0.381335       -10.3766
 252   2.0000      -0.380952       -10.3662
 253   2.0000      -0.379455       -10.3255
 254   2.0000      -0.376123       -10.2348
 255   2.0000      -0.374566       -10.1925
 256   2.0000      -0.373791       -10.1714
 257   2.0000      -0.372181       -10.1276
 258   2.0000      -0.371034       -10.0963
 259   2.0000      -0.368881       -10.0378
 260   2.0000      -0.368347       -10.0232
 261   2.0000      -0.367998       -10.0137
 262   2.0000      -0.365551        -9.9472
 263   2.0000      -0.365201        -9.9376
 264   2.0000      -0.363532        -9.8922
 265   2.0000      -0.361547        -9.8382
 266   2.0000      -0.360790        -9.8176
 267   2.0000      -0.359856        -9.7922
 268   2.0000      -0.359187        -9.7740
 269   2.0000      -0.357038        -9.7155
 270   2.0000      -0.354742        -9.6530
 271   2.0000      -0.353339        -9.6149
 272   2.0000      -0.351526        -9.5655
 273   2.0000      -0.350657        -9.5419
 274   2.0000      -0.349520        -9.5109
 275   2.0000      -0.348419        -9.4810
 276   2.0000      -0.347064        -9.4441
 277   2.0000      -0.345728        -9.4077
 278   2.0000      -0.343685        -9.3522
 279   2.0000      -0.339038        -9.2257
 280   2.0000      -0.338338        -9.2066
 281   2.0000      -0.334536        -9.1032
 282   2.0000      -0.332366        -9.0442
 283   2.0000      -0.330603        -8.9962
 284   2.0000      -0.326549        -8.8859
 285   2.0000      -0.322866        -8.7856
 286   2.0000      -0.307760        -8.3746
 287   2.0000      -0.306620        -8.3436
 288   2.0000      -0.303917        -8.2700
 289   2.0000      -0.295599        -8.0437
 290   2.0000      -0.290339        -7.9005
 291   2.0000      -0.285913        -7.7801
 292   2.0000      -0.283319        -7.7095
 293   2.0000      -0.279869        -7.6156
 294   2.0000      -0.278701        -7.5838
 295   2.0000      -0.267693        -7.2843
 296   2.0000      -0.266504        -7.2519
 297   2.0000      -0.263601        -7.1729
 298   2.0000      -0.260023        -7.0756
 299   2.0000      -0.243367        -6.6223
 300   2.0000      -0.237342        -6.4584
 301   2.0000      -0.232252        -6.3199
 302   2.0000      -0.205534        -5.5929
 303   0.0000      -0.134559        -3.6615
 304   0.0000      -0.126651        -3.4463
 305   0.0000      -0.112015        -3.0481
 306   0.0000      -0.108378        -2.9491
 307   0.0000      -0.089711        -2.4412

MULLIKEN ATOMIC CHARGES
-----------------------
   0 C :    0.223571
   1 O :   -0.284478
   2 C :   -0.004064
   3 C :   -0.298098
   4 C :    0.161243
   5 C :    0.126996
   6 C :   -0.257956
   7 C :    0.155091
   8 C :   -0.094101
   9 C :    0.078112
  10 C :   -0.225555
  11 N :    0.051516
  12 C :   -0.203889
  13 N :    0.047704
  14 C :    0.009925
  15 C :   -0.240105
  16 C :    0.143923
  17 S :   -0.026131
  18 C :   -0.224762
  19 C :    0.078708
  20 C :   -0.013564
  21 C :   -0.170921
  22 C :   -0.356363
  23 S :    0.010751
  24 C :   -0.170412
  25 C :    0.421800
  26 N :   -0.038151
  27 C :   -0.232835
  28 C :    0.023333
  29 C :   -0.018202
  30 C :    0.111523
  31 C :   -0.007310
  32 N :   -0.254001
  33 S :    0.348698
  34 N :   -0.253971
  35 C :   -0.019894
  36 C :    0.136800
  37 C :   -0.031958
  38 N :    0.027817
  39 C :   -0.329104
  40 C :    0.035891
  41 C :    0.391652
  42 C :   -0.201613
  43 S :    0.022915
  44 C :    0.033987
  45 C :   -0.183657
  46 S :   -0.048590
  47 C :    0.105015
  48 C :    0.064113
  49 C :   -0.238083
  50 C :   -0.339159
  51 C :   -0.241395
  52 C :   -0.066859
  53 C :    0.041436
  54 C :    0.146122
  55 C :   -0.239290
  56 N :    0.050861
  57 C :   -0.226869
  58 N :    0.042536
  59 C :    0.068976
  60 C :   -0.263914
  61 C :    0.120447
  62 C :    0.170997
  63 C :   -0.318708
  64 C :    0.123795
  65 C :    0.173156
  66 O :   -0.316563
  67 Cl:   -0.056995
  68 Cl:   -0.054833
  69 C :   -0.173298
  70 C :   -0.351921
  71 C :   -0.350332
  72 C :   -0.168911
  73 C :   -0.356985
  74 C :   -0.381492
  75 Cl:   -0.046839
  76 Cl:   -0.048935
  77 H :    0.141655
  78 H :    0.155796
  79 H :    0.148148
  80 H :    0.112739
  81 H :    0.124125
  82 H :    0.129005
  83 H :    0.118282
  84 H :    0.134964
  85 H :    0.131756
  86 H :    0.133304
  87 H :    0.082066
  88 H :    0.151816
  89 H :    0.168347
  90 H :    0.039130
  91 H :    0.144000
  92 H :    0.111975
  93 H :    0.120564
  94 H :    0.117578
  95 H :    0.117833
  96 H :    0.162628
  97 H :    0.159855
  98 H :    0.137274
  99 H :    0.096894
 100 H :    0.106338
 101 H :    0.104284
 102 H :    0.124904
 103 H :    0.115285
 104 H :    0.129513
 105 H :    0.120405
 106 H :    0.119957
 107 H :    0.092927
 108 H :    0.118701
 109 H :    0.117500
 110 H :    0.120314
 111 H :    0.105498
 112 H :    0.119132
 113 H :    0.131475
 114 H :    0.115686
Sum of atomic charges:   -0.0000000

LOEWDIN ATOMIC CHARGES
----------------------
   0 C :   -0.254970
   1 O :    0.138783
   2 C :   -0.057104
   3 C :   -0.071367
   4 C :   -0.430864
   5 C :   -0.427699
   6 C :   -0.077915
   7 C :   -0.044094
   8 C :   -0.004079
   9 C :   -0.142447
  10 C :   -0.159001
  11 N :    0.100935
  12 C :   -0.167209
  13 N :    0.088222
  14 C :   -0.090103
  15 C :   -0.065174
  16 C :   -0.313872
  17 S :    0.763279
  18 C :   -0.340703
  19 C :   -0.315277
  20 C :   -0.136812
  21 C :   -0.225928
  22 C :   -0.283966
  23 S :    0.764920
  24 C :   -0.293770
  25 C :   -0.191085
  26 N :    0.301140
  27 C :   -0.217858
  28 C :   -0.283993
  29 C :   -0.090948
  30 C :   -0.091299
  31 C :   -0.246339
  32 N :   -0.126182
  33 S :    0.658862
  34 N :   -0.126812
  35 C :   -0.246327
  36 C :   -0.092422
  37 C :   -0.087854
  38 N :    0.303721
  39 C :   -0.214169
  40 C :   -0.287734
  41 C :   -0.188943
  42 C :   -0.291079
  43 S :    0.768818
  44 C :   -0.310780
  45 C :   -0.340330
  46 S :    0.756663
  47 C :   -0.300878
  48 C :   -0.120631
  49 C :   -0.234173
  50 C :   -0.292948
  51 C :   -0.066521
  52 C :   -0.093110
  53 C :    0.006795
  54 C :   -0.134772
  55 C :   -0.167506
  56 N :    0.082196
  57 C :   -0.163310
  58 N :    0.084438
  59 C :   -0.044283
  60 C :   -0.076596
  61 C :   -0.428812
  62 C :   -0.431543
  63 C :   -0.074368
  64 C :   -0.057147
  65 C :   -0.262280
  66 O :    0.144084
  67 Cl:    0.447798
  68 Cl:    0.449695
  69 C :   -0.262095
  70 C :   -0.301757
  71 C :   -0.275687
  72 C :   -0.261342
  73 C :   -0.297301
  74 C :   -0.274009
  75 Cl:    0.454474
  76 Cl:    0.451262
  77 H :    0.161035
  78 H :    0.163912
  79 H :    0.169748
  80 H :    0.151727
  81 H :    0.150026
  82 H :    0.115049
  83 H :    0.123157
  84 H :    0.127639
  85 H :    0.134694
  86 H :    0.145150
  87 H :    0.151171
  88 H :    0.148463
  89 H :    0.140138
  90 H :    0.149225
  91 H :    0.160191
  92 H :    0.153229
  93 H :    0.111713
  94 H :    0.121652
  95 H :    0.122738
  96 H :    0.169581
  97 H :    0.164666
  98 H :    0.159821
  99 H :    0.139906
 100 H :    0.133531
 101 H :    0.115108
 102 H :    0.122003
 103 H :    0.116735
 104 H :    0.118093
 105 H :    0.124512
 106 H :    0.122231
 107 H :    0.135894
 108 H :    0.145505
 109 H :    0.116923
 110 H :    0.120512
 111 H :    0.118843
 112 H :    0.125046
 113 H :    0.124982
 114 H :    0.116950

  Mayer bond orders larger than 0.100000
B(  0-C ,  1-O ) :   2.1885 B(  0-C ,  2-C ) :   0.9669 B(  0-C , 14-C ) :   0.9957
B(  1-O ,  2-C ) :  -0.1576 B(  1-O , 14-C ) :  -0.1433 B(  1-O , 15-C ) :   0.1080
B(  2-C ,  3-C ) :   1.3822 B(  2-C ,  7-C ) :   1.3290 B(  3-C ,  4-C ) :   1.3424
B(  3-C , 77-H ) :   0.9816 B(  4-C ,  5-C ) :   1.2617 B(  4-C , 68-Cl) :   1.0522
B(  5-C ,  6-C ) :   1.3852 B(  5-C , 75-Cl) :   1.0906 B(  6-C ,  7-C ) :   1.3910
B(  6-C , 78-H ) :   0.9346 B(  7-C ,  8-C ) :   1.0184 B(  8-C ,  9-C ) :   1.3811
B(  8-C , 14-C ) :   1.1310 B(  9-C , 10-C ) :   1.0734 B(  9-C , 12-C ) :   1.0577
B( 10-C , 11-N ) :   2.9663 B( 12-C , 13-N ) :   2.9846 B( 14-C , 15-C ) :   1.5092
B( 15-C , 16-C ) :   1.0678 B( 15-C , 79-H ) :   0.9483 B( 16-C , 17-S ) :   1.1906
B( 16-C , 20-C ) :   1.4012 B( 17-S , 18-C ) :   1.3114 B( 17-S , 25-C ) :  -0.1423
B( 18-C , 19-C ) :   1.4382 B( 18-C , 23-S ) :   0.1235 B( 18-C , 25-C ) :   0.9916
B( 19-C , 20-C ) :   1.2421 B( 19-C , 23-S ) :   1.1675 B( 19-C , 25-C ) :  -0.1308
B( 20-C , 21-C ) :   0.9566 B( 21-C , 22-C ) :   0.9544 B( 21-C , 80-H ) :   0.9433
B( 21-C , 81-H ) :   0.9797 B( 22-C , 82-H ) :   0.9661 B( 22-C , 83-H ) :   0.9737
B( 22-C , 84-H ) :   0.9692 B( 23-S , 24-C ) :   1.3822 B( 24-C , 25-C ) :   1.2420
B( 24-C , 30-C ) :   1.1614 B( 25-C , 26-N ) :   1.1251 B( 26-N , 27-C ) :   0.8768
B( 26-N , 29-C ) :   1.2009 B( 27-C , 28-C ) :   0.9179 B( 27-C , 85-H ) :   0.9754
B( 27-C , 86-H ) :   0.9686 B( 28-C , 72-C ) :   0.9897 B( 28-C , 74-C ) :   0.9162
B( 28-C , 87-H ) :   0.9499 B( 29-C , 30-C ) :   1.2546 B( 29-C , 37-C ) :   1.3474
B( 30-C , 31-C ) :   1.0931 B( 31-C , 32-N ) :   1.5801 B( 31-C , 33-S ) :   0.1161
B( 31-C , 35-C ) :   1.1984 B( 32-N , 33-S ) :   1.2881 B( 32-N , 34-N ) :   0.1020
B( 33-S , 34-N ) :   1.2855 B( 33-S , 35-C ) :   0.1212 B( 34-N , 35-C ) :   1.5876
B( 35-C , 36-C ) :   1.1161 B( 36-C , 37-C ) :   1.2134 B( 36-C , 42-C ) :   1.1758
B( 37-C , 38-N ) :   1.2392 B( 38-N , 39-C ) :   0.8439 B( 38-N , 41-C ) :   1.0966
B( 39-C , 40-C ) :   0.8774 B( 39-C , 88-H ) :   0.9578 B( 39-C , 89-H ) :   0.9801
B( 40-C , 69-C ) :   0.9425 B( 40-C , 71-C ) :   0.9837 B( 40-C , 90-H ) :   0.9634
B( 41-C , 42-C ) :   1.2470 B( 41-C , 44-C ) :  -0.1050 B( 41-C , 45-C ) :   1.0268
B( 41-C , 46-S ) :  -0.1672 B( 42-C , 43-S ) :   1.3922 B( 43-S , 44-C ) :   1.1453
B( 43-S , 45-C ) :   0.1180 B( 44-C , 45-C ) :   1.3767 B( 44-C , 48-C ) :   1.2358
B( 45-C , 46-S ) :   1.3161 B( 46-S , 47-C ) :   1.2035 B( 47-C , 48-C ) :   1.3884
B( 47-C , 51-C ) :   1.2348 B( 48-C , 49-C ) :   0.9495 B( 49-C , 50-C ) :   0.9526
B( 49-C , 91-H ) :   0.9512 B( 49-C , 92-H ) :   0.9774 B( 50-C , 93-H ) :   0.9722
B( 50-C , 94-H ) :   0.9748 B( 50-C , 95-H ) :   0.9772 B( 51-C , 52-C ) :   1.4481
B( 51-C , 96-H ) :   0.9143 B( 52-C , 53-C ) :   1.1275 B( 52-C , 65-C ) :   1.0365
B( 53-C , 54-C ) :   1.4570 B( 53-C , 59-C ) :   1.0380 B( 54-C , 55-C ) :   1.0328
B( 54-C , 57-C ) :   1.0334 B( 55-C , 56-N ) :   3.0073 B( 57-C , 58-N ) :   2.9811
B( 59-C , 60-C ) :   1.4214 B( 59-C , 64-C ) :   1.3355 B( 60-C , 61-C ) :   1.3804
B( 60-C , 97-H ) :   0.9204 B( 61-C , 62-C ) :   1.2642 B( 61-C , 76-Cl) :   1.0970
B( 62-C , 63-C ) :   1.3375 B( 62-C , 67-Cl) :   1.0467 B( 63-C , 64-C ) :   1.3831
B( 63-C , 67-Cl) :   0.1000 B( 63-C , 98-H ) :   0.9859 B( 64-C , 65-C ) :   0.9512
B( 64-C , 66-O ) :  -0.1654 B( 65-C , 66-O ) :   2.1006 B( 69-C , 70-C ) :   0.9486
B( 69-C , 99-H ) :   0.9675 B( 69-C ,100-H ) :   0.9628 B( 70-C ,101-H ) :   0.9754
B( 70-C ,102-H ) :   0.9769 B( 70-C ,103-H ) :   0.9748 B( 71-C ,104-H ) :   0.9588
B( 71-C ,105-H ) :   0.9784 B( 71-C ,106-H ) :   0.9726 B( 72-C , 73-C ) :   0.9464
B( 72-C ,107-H ) :   0.9519 B( 72-C ,108-H ) :   0.9665 B( 73-C ,109-H ) :   0.9830
B( 73-C ,110-H ) :   0.9827 B( 73-C ,111-H ) :   0.9766 B( 74-C ,112-H ) :   0.9675
B( 74-C ,113-H ) :   0.9829 B( 74-C ,114-H ) :   0.9758

-----------------------------------------------------------------------------
         ABSORPTION SPECTRUM VIA TRANSITION ELECTRIC DIPOLE MOMENTS
-----------------------------------------------------------------------------
State   Energy    Wavelength  fosc         T2        TX        TY        TZ
        (cm-1)      (nm)                 (au**2)    (au)      (au)      (au)
-----------------------------------------------------------------------------
   1   14071.7    710.6   1.915072763  44.80381  -5.34243   3.92899  -0.90845
   2   16068.1    622.4   0.455465796   9.33182  -2.24407   1.36878  -1.55641
   3   18170.0    550.4   0.481533006   8.72463   2.02955  -2.09509   0.46494
   4   18681.3    535.3   0.019908136   0.35083  -0.39516  -0.36062  -0.25423
   5   18987.6    526.7   0.043260180   0.75006  -0.56215   0.41690  -0.51013
   6   19940.2    501.5   0.062409257   1.03038   0.71924  -0.69897  -0.15656
   7   21256.6    470.4   0.142004732   2.19930  -0.20224   0.31131   1.43578
   8   21348.1    468.4   0.051336551   0.79167   0.19767  -0.10621   0.86100
   9   21793.4    458.9   0.159147486   2.40409   1.22583  -0.55334   0.77153
  10   22615.4    442.2   0.004598766   0.06694   0.16635  -0.19054   0.05448
  11   22882.2    437.0   0.061416510   0.88361  -0.55445   0.05144  -0.75733
  12   23970.5    417.2   0.014017622   0.19252   0.43129  -0.03252   0.07382
  13   24370.7    410.3   0.012979066   0.17533  -0.10779   0.33605   0.22534
  14   24494.6    408.3   0.013466967   0.18100  -0.22285   0.32468   0.16100
  15   25117.1    398.1   0.014010930   0.18364  -0.15581   0.07950   0.39121
  16   25574.6    391.0   0.039993640   0.51482  -0.06731   0.46784  -0.53983
  17   25817.1    387.3   0.026076033   0.33251   0.31446  -0.04059  -0.48164
  18   26034.4    384.1   0.009880161   0.12494  -0.18258  -0.21232  -0.21569
  19   26256.2    380.9   0.037290812   0.46757   0.46369   0.48582  -0.12857
  20   26395.6    378.9   0.010878334   0.13568  -0.25856   0.12975  -0.22801
  21   26709.2    374.4   0.160153535   1.97402   0.99661  -0.97990   0.14343
  22   26914.9    371.5   0.048840774   0.59740   0.46079  -0.58485   0.20742
  23   27121.6    368.7   0.021056084   0.25559   0.24611  -0.34183   0.27958
  24   27463.6    364.1   0.006282347   0.07531   0.24244  -0.10065  -0.07999
  25   27468.2    364.1   0.142467919   1.70751   1.02301  -0.54243   0.60559
  26   27556.2    362.9   0.132906705   1.58783  -0.81020   0.94612  -0.19040
  27   27946.9    357.8   0.058530001   0.68948  -0.79692   0.14767  -0.18053
  28   28289.3    353.5   0.063707172   0.74138  -0.40389   0.46100  -0.60476
  29   28784.2    347.4   0.019920396   0.22783  -0.03764  -0.37627  -0.29127
  30   28817.4    347.0   0.089256753   1.01968   0.35717   0.82460   0.46060
  31   29018.5    344.6   0.029341990   0.33288   0.22150  -0.53133  -0.03876
  32   29341.2    340.8   0.032136701   0.36058   0.26785   0.31080   0.43845
  33   29720.1    336.5   0.002785419   0.03085   0.09087  -0.14784   0.02720
  34   29924.9    334.2   0.163746519   1.80142   0.75859  -1.10148   0.11270
  35   30146.8    331.7   0.074375517   0.81220   0.35803  -0.41916   0.71297
  36   30252.1    330.6   0.037132886   0.40409   0.47750   0.05868   0.41550
  37   30379.6    329.2   0.030636198   0.33199  -0.17179   0.47606   0.27540
  38   30901.9    323.6   0.012715542   0.13546  -0.36280   0.05521   0.02818
  39   31041.4    322.2   0.011170422   0.11847   0.32955   0.02422  -0.09633
  40   31251.9    320.0   0.023884743   0.25161   0.41366  -0.28311  -0.01851
  41   31328.7    319.2   0.037051479   0.38935   0.49681   0.34613   0.15076
  42   31592.6    316.5   0.084039734   0.87574   0.75110   0.52093   0.20056
  43   31787.0    314.6   0.097137025   1.00603   0.65163  -0.68944   0.32571
  44   31834.5    314.1   0.019575141   0.20243   0.26582   0.35221  -0.08788
  45   31917.7    313.3   0.147706799   1.52351  -0.45807   1.07631  -0.39401
  46   32243.5    310.1   0.350988700   3.58366  -0.78798  -1.68732   0.34014
  47   32352.5    309.1   0.265500519   2.70168  -0.52638   1.47077  -0.51131
  48   32785.1    305.0   0.034879044   0.35024  -0.37985  -0.35040   0.28839
  49   33202.7    301.2   0.013623898   0.13508  -0.01670   0.36175  -0.06279
  50   33322.4    300.1   0.015799062   0.15609  -0.22962  -0.21787   0.23643

FINAL SINGLE POINT ENERGY     -6652.089260857600

DIPOLE MOMENT
-------------
                                X             Y             Z
Electronic contribution:    -48.80665     -47.70855      34.97482
Nuclear contribution   :     48.03770      48.92527     -36.89922
                        -----------------------------------------
Total Dipole Moment    :     -0.76895       1.21671      -1.92440
                        -----------------------------------------
Magnitude (a.u.)       :      2.40312
Magnitude (Debye)      :      6.10825

Rotational constants in cm-1:     0.001727     0.000193     0.000190
Rotational constants in MHz :    51.775354     5.776986     5.694158

                             ****ORCA TERMINATED NORMALLY****
TOTAL RUN TIME: 0 days 9 hours 52 minutes 52 seconds 303 msec
