                         Program Version 4.2.0 -  RELEASE  -
|  1> # ORCA input file
|  2> # BT6IC-HD-4Cl.out
|  3> ! B3LYP def2-TZVP def2/J RIJCOSX Grid4 TightSCF
|  4> %maxcore 10000
|  5> %tddft
|  6>   maxdim 5
|  7>   nroots 50
|  8>   end
|  9> * xyz 0 1
| 10>    C        2.83575         2.53510        -2.10198
| 11>    O        1.78149         2.79335        -1.56953
| 12>    C        3.42985         3.17342        -3.30068
| 13>    C        2.95013         4.22944        -4.04768
| 14>    C        3.70435         4.66947        -5.12911
| 15>    C        4.91812         4.04895        -5.44522
| 16>    C        5.39421         2.97714        -4.69831
| 17>    C        4.64527         2.53958        -3.61984
| 18>    C        4.84727         1.42712        -2.69711
| 19>    C        5.63472         0.32928        -2.93078
| 20>    C        5.49380        -0.87046        -2.19921
| 21>    N        5.34801        -1.87495        -1.66419
| 22>    C        6.61483         0.25272        -3.93762
| 23>    N        7.46955         0.15821        -4.69864
| 24>    C        3.85081         1.54975        -1.65480
| 25>    C        3.79529         1.02752        -0.39546
| 26>    C        4.84338         0.45493         0.35763
| 27>    S        6.52503         0.82726        -0.02083
| 28>    C        7.06667        -0.15868         1.28182
| 29>    C        5.98787        -0.71314         1.98203
| 30>    C        4.73098        -0.36204         1.47622
| 31>    C        3.44974        -0.83428         2.07711
| 32>    C        3.07802         0.03065         3.28473
| 33>    S        6.48009        -1.76019         3.29177
| 34>    C        8.12780        -1.46740         2.86806
| 35>    C        8.29429        -0.59215         1.78764
| 36>    N        9.61834        -0.45132         1.48946
| 37>    C        9.97976         0.28478         0.30088
| 38>    C       10.32991        -0.60248        -0.90728
| 39>    C       10.34015        -1.26287         2.35403
| 40>    C        9.40557        -1.90865         3.22333
| 41>    C        9.79132        -2.88708         4.16187
| 42>    N        9.02633        -3.57745         4.99389
| 43>    S        9.95772        -4.63863         5.78669
| 44>    N       11.36810        -4.26440         5.08485
| 45>    C       11.16625        -3.28263         4.21771
| 46>    C       12.09636        -2.60284         3.40391
| 47>    C       11.72082        -1.56288         2.51293
| 48>    N       12.86701        -1.07130         1.93090
| 49>    C       13.11528         0.16504         1.23220
| 50>    C       12.86163         1.42874         2.07324
| 51>    C       13.96737        -1.77547         2.42085
| 52>    C       13.50091        -2.78335         3.35534
| 53>    S       14.43876        -3.88935         4.14169
| 54>    C       16.46254        -1.37729         1.83393
| 55>    C       15.22488        -1.56507         2.05962
| 56>    S       17.80718        -0.36824         2.36303
| 57>    C       18.36081        -2.85995         1.28697
| 58>    C       17.65889        -1.64747         1.02409
| 59>    C       17.71014        -1.13873        -0.40129
| 60>    C       19.13893        -0.81930        -0.82536
| 61>    C       18.96691        -3.86130         1.54723
| 62>    C       11.73662        -6.51654         2.82602
| 63>    C       10.66820        -5.69106         2.22771
| 64>    C        9.32865        -5.59216         2.38304
| 65>    C        8.60488        -4.63008         1.64569
| 66>    N        8.04476        -3.82593         1.05130
| 67>    C        8.60910        -6.40891         3.28283
| 68>    N        8.03554        -7.08640         4.00712
| 69>    C       11.66789        -5.01436         1.39168
| 70>    C       11.89364        -4.04257         0.45539
| 71>    C       13.23539        -3.87836         0.08860
| 72>    C       14.25401        -4.67081         0.61958
| 73>    C       14.01121        -5.66951         1.57875
| 74>    C       12.70481        -5.80305         1.94899
| 75>    C       11.80195        -7.37789         3.80202
| 76>    O       11.85528        -8.16455         4.64346
| 77>   Cl       15.87370        -4.41740         0.11079
| 78>   Cl        3.13969         5.98256        -6.08151
| 79>    C       13.79822         1.52887         3.28867
| 80>    C       13.28562         0.82249         4.53946
| 81>    C       13.05388         2.64819         1.17021
| 82>    C        9.14989        -1.51426        -1.25970
| 83>    C        9.42254        -2.43071        -2.44681
| 84>    C       10.70652         0.30270        -2.07800
| 85>   Cl        5.84270         4.61253        -6.77834
| 86>   Cl       13.63543        -2.64668        -1.04620
| 87>    H        2.01165         4.69894        -3.79872
| 88>    H        6.33257         2.51834        -4.96567
| 89>    H        2.84630         1.15081         0.11593
| 90>    H        3.58307        -1.86706         2.40504
| 91>    H        2.65030        -0.80857         1.33721
| 92>    H        3.85435        -0.02729         4.04339
| 93>    H        2.14445        -0.31865         3.71691
| 94>    H        2.95659         1.07046         2.98978
| 95>    H       10.78613         0.98098         0.52298
| 96>    H        9.10508         0.88572         0.03601
| 97>    H       11.19224        -1.22893        -0.65392
| 98>    H       12.54359         0.19152         0.30593
| 99>    H       14.17173         0.14446         0.94897
|100>    H       11.82857         1.41360         2.43990
|101>    H       17.08627        -0.24548        -0.48340
|102>    H       17.28930        -1.91093        -1.05207
|103>    H       19.55909        -0.04996        -0.18027
|104>    H       19.15514        -0.46024        -1.85098
|105>    H       19.76300        -1.70750        -0.75532
|106>    H       19.48417        -4.74991         1.75440
|107>    H       11.11536        -3.43431         0.02463
|108>    H       14.82412        -6.24711         1.98517
|109>    H       13.92292         2.58638         3.53124
|110>    H       14.78417         1.13873         3.02762
|111>    H       12.27640         1.15241         4.78029
|112>    H       13.92985         1.05859         5.38298
|113>    H       13.27561        -0.25762         4.42884
|114>    H       14.08953         2.71220         0.84415
|115>    H       12.80769         3.56023         1.70755
|116>    H       12.42132         2.59725         0.28574
|117>    H        8.27976        -0.89581        -1.48889
|118>    H        8.89364        -2.13056        -0.39469
|119>    H        9.45914        -1.86777        -3.37532
|120>    H        8.62299        -3.16226        -2.52898
|121>    H       10.36445        -2.96250        -2.32443
|122>    H        9.83576         0.85370        -2.42587
|123>    H       11.09146        -0.28636        -2.90398
|124>    H       11.47502         1.01814        -1.78960
|125> *
|126>
|127>                          ****END OF INPUT****

CARTESIAN COORDINATES (ANGSTROEM)
---------------------------------
  C      2.835750    2.535100   -2.101980
  O      1.781490    2.793350   -1.569530
  C      3.429850    3.173420   -3.300680
  C      2.950130    4.229440   -4.047680
  C      3.704350    4.669470   -5.129110
  C      4.918120    4.048950   -5.445220
  C      5.394210    2.977140   -4.698310
  C      4.645270    2.539580   -3.619840
  C      4.847270    1.427120   -2.697110
  C      5.634720    0.329280   -2.930780
  C      5.493800   -0.870460   -2.199210
  N      5.348010   -1.874950   -1.664190
  C      6.614830    0.252720   -3.937620
  N      7.469550    0.158210   -4.698640
  C      3.850810    1.549750   -1.654800
  C      3.795290    1.027520   -0.395460
  C      4.843380    0.454930    0.357630
  S      6.525030    0.827260   -0.020830
  C      7.066670   -0.158680    1.281820
  C      5.987870   -0.713140    1.982030
  C      4.730980   -0.362040    1.476220
  C      3.449740   -0.834280    2.077110
  C      3.078020    0.030650    3.284730
  S      6.480090   -1.760190    3.291770
  C      8.127800   -1.467400    2.868060
  C      8.294290   -0.592150    1.787640
  N      9.618340   -0.451320    1.489460
  C      9.979760    0.284780    0.300880
  C     10.329910   -0.602480   -0.907280
  C     10.340150   -1.262870    2.354030
  C      9.405570   -1.908650    3.223330
  C      9.791320   -2.887080    4.161870
  N      9.026330   -3.577450    4.993890
  S      9.957720   -4.638630    5.786690
  N     11.368100   -4.264400    5.084850
  C     11.166250   -3.282630    4.217710
  C     12.096360   -2.602840    3.403910
  C     11.720820   -1.562880    2.512930
  N     12.867010   -1.071300    1.930900
  C     13.115280    0.165040    1.232200
  C     12.861630    1.428740    2.073240
  C     13.967370   -1.775470    2.420850
  C     13.500910   -2.783350    3.355340
  S     14.438760   -3.889350    4.141690
  C     16.462540   -1.377290    1.833930
  C     15.224880   -1.565070    2.059620
  S     17.807180   -0.368240    2.363030
  C     18.360810   -2.859950    1.286970
  C     17.658890   -1.647470    1.024090
  C     17.710140   -1.138730   -0.401290
  C     19.138930   -0.819300   -0.825360
  C     18.966910   -3.861300    1.547230
  C     11.736620   -6.516540    2.826020
  C     10.668200   -5.691060    2.227710
  C      9.328650   -5.592160    2.383040
  C      8.604880   -4.630080    1.645690
  N      8.044760   -3.825930    1.051300
  C      8.609100   -6.408910    3.282830
  N      8.035540   -7.086400    4.007120
  C     11.667890   -5.014360    1.391680
  C     11.893640   -4.042570    0.455390
  C     13.235390   -3.878360    0.088600
  C     14.254010   -4.670810    0.619580
  C     14.011210   -5.669510    1.578750
  C     12.704810   -5.803050    1.948990
  C     11.801950   -7.377890    3.802020
  O     11.855280   -8.164550    4.643460
  Cl    15.873700   -4.417400    0.110790
  Cl     3.139690    5.982560   -6.081510
  C     13.798220    1.528870    3.288670
  C     13.285620    0.822490    4.539460
  C     13.053880    2.648190    1.170210
  C      9.149890   -1.514260   -1.259700
  C      9.422540   -2.430710   -2.446810
  C     10.706520    0.302700   -2.078000
  Cl     5.842700    4.612530   -6.778340
  Cl    13.635430   -2.646680   -1.046200
  H      2.011650    4.698940   -3.798720
  H      6.332570    2.518340   -4.965670
  H      2.846300    1.150810    0.115930
  H      3.583070   -1.867060    2.405040
  H      2.650300   -0.808570    1.337210
  H      3.854350   -0.027290    4.043390
  H      2.144450   -0.318650    3.716910
  H      2.956590    1.070460    2.989780
  H     10.786130    0.980980    0.522980
  H      9.105080    0.885720    0.036010
  H     11.192240   -1.228930   -0.653920
  H     12.543590    0.191520    0.305930
  H     14.171730    0.144460    0.948970
  H     11.828570    1.413600    2.439900
  H     17.086270   -0.245480   -0.483400
  H     17.289300   -1.910930   -1.052070
  H     19.559090   -0.049960   -0.180270
  H     19.155140   -0.460240   -1.850980
  H     19.763000   -1.707500   -0.755320
  H     19.484170   -4.749910    1.754400
  H     11.115360   -3.434310    0.024630
  H     14.824120   -6.247110    1.985170
  H     13.922920    2.586380    3.531240
  H     14.784170    1.138730    3.027620
  H     12.276400    1.152410    4.780290
  H     13.929850    1.058590    5.382980
  H     13.275610   -0.257620    4.428840
  H     14.089530    2.712200    0.844150
  H     12.807690    3.560230    1.707550
  H     12.421320    2.597250    0.285740
  H      8.279760   -0.895810   -1.488890
  H      8.893640   -2.130560   -0.394690
  H      9.459140   -1.867770   -3.375320
  H      8.622990   -3.162260   -2.528980
  H     10.364450   -2.962500   -2.324430
  H      9.835760    0.853700   -2.425870
  H     11.091460   -0.286360   -2.903980
  H     11.475020    1.018140   -1.789600

 Total Charge           Charge          ....    0
 Multiplicity           Mult            ....    1
 Number of Electrons    NEL             ....  606
 Basis Dimension        Dim             .... 2669

ORBITAL ENERGIES
----------------

  NO   OCC          E(Eh)            E(eV)
   0   2.0000    -101.550797     -2763.3377
   1   2.0000    -101.550669     -2763.3342
   2   2.0000    -101.550049     -2763.3173
   3   2.0000    -101.546293     -2763.2151
   4   2.0000     -88.939681     -2420.1718
   5   2.0000     -88.908744     -2419.3299
   6   2.0000     -88.905556     -2419.2432
   7   2.0000     -88.882339     -2418.6114
   8   2.0000     -88.813156     -2416.7288
   9   2.0000     -19.228737      -523.2405
  10   2.0000     -19.133675      -520.6538
  11   2.0000     -14.406816      -392.0294
  12   2.0000     -14.390437      -391.5837
  13   2.0000     -14.348184      -390.4339
  14   2.0000     -14.342424      -390.2772
  15   2.0000     -14.333921      -390.0458
  16   2.0000     -14.332532      -390.0080
  17   2.0000     -14.329715      -389.9314
  18   2.0000     -14.326577      -389.8460
  19   2.0000     -10.328135      -281.0428
  20   2.0000     -10.279604      -279.7223
  21   2.0000     -10.275021      -279.5975
  22   2.0000     -10.273771      -279.5635
  23   2.0000     -10.272891      -279.5396
  24   2.0000     -10.270976      -279.4875
  25   2.0000     -10.270505      -279.4747
  26   2.0000     -10.267448      -279.3915
  27   2.0000     -10.266369      -279.3621
  28   2.0000     -10.261748      -279.2364
  29   2.0000     -10.260035      -279.1897
  30   2.0000     -10.258971      -279.1608
  31   2.0000     -10.256250      -279.0868
  32   2.0000     -10.248290      -278.8702
  33   2.0000     -10.248173      -278.8670
  34   2.0000     -10.245309      -278.7890
  35   2.0000     -10.240635      -278.6618
  36   2.0000     -10.239082      -278.6196
  37   2.0000     -10.237127      -278.5664
  38   2.0000     -10.235694      -278.5274
  39   2.0000     -10.235050      -278.5099
  40   2.0000     -10.232413      -278.4381
  41   2.0000     -10.232017      -278.4273
  42   2.0000     -10.231961      -278.4258
  43   2.0000     -10.231708      -278.4189
  44   2.0000     -10.231603      -278.4161
  45   2.0000     -10.230627      -278.3895
  46   2.0000     -10.230261      -278.3796
  47   2.0000     -10.229791      -278.3668
  48   2.0000     -10.229580      -278.3610
  49   2.0000     -10.227335      -278.2999
  50   2.0000     -10.226255      -278.2705
  51   2.0000     -10.225439      -278.2483
  52   2.0000     -10.224170      -278.2138
  53   2.0000     -10.224022      -278.2098
  54   2.0000     -10.223201      -278.1874
  55   2.0000     -10.222425      -278.1663
  56   2.0000     -10.222204      -278.1603
  57   2.0000     -10.217968      -278.0450
  58   2.0000     -10.217197      -278.0241
  59   2.0000     -10.216725      -278.0112
  60   2.0000     -10.213878      -277.9337
  61   2.0000     -10.209718      -277.8206
  62   2.0000     -10.198475      -277.5146
  63   2.0000     -10.198385      -277.5122
  64   2.0000     -10.198039      -277.5027
  65   2.0000     -10.197764      -277.4953
  66   2.0000     -10.193681      -277.3842
  67   2.0000     -10.192993      -277.3654
  68   2.0000     -10.183882      -277.1175
  69   2.0000     -10.179830      -277.0072
  70   2.0000     -10.178757      -276.9781
  71   2.0000     -10.178309      -276.9659
  72   2.0000     -10.172891      -276.8184
  73   2.0000     -10.172441      -276.8062
  74   2.0000     -10.165852      -276.6269
  75   2.0000     -10.163500      -276.5629
  76   2.0000     -10.153905      -276.3018
  77   2.0000      -9.483376      -258.0558
  78   2.0000      -9.483268      -258.0528
  79   2.0000      -9.482896      -258.0427
  80   2.0000      -9.479132      -257.9403
  81   2.0000      -8.010869      -217.9868
  82   2.0000      -7.985770      -217.3038
  83   2.0000      -7.981132      -217.1776
  84   2.0000      -7.958970      -216.5746
  85   2.0000      -7.891395      -214.7358
  86   2.0000      -7.245013      -197.1468
  87   2.0000      -7.244922      -197.1444
  88   2.0000      -7.244452      -197.1316
  89   2.0000      -7.240744      -197.0306
  90   2.0000      -7.236661      -196.9196
  91   2.0000      -7.236548      -196.9165
  92   2.0000      -7.236101      -196.9043
  93   2.0000      -7.235867      -196.8979
  94   2.0000      -7.235742      -196.8946
  95   2.0000      -7.235558      -196.8896
  96   2.0000      -7.232418      -196.8041
  97   2.0000      -7.231600      -196.7818
  98   2.0000      -5.975577      -162.6037
  99   2.0000      -5.968128      -162.4010
 100   2.0000      -5.967677      -162.3887
 101   2.0000      -5.948478      -161.8663
 102   2.0000      -5.944697      -161.7634
 103   2.0000      -5.944135      -161.7481
 104   2.0000      -5.941792      -161.6844
 105   2.0000      -5.940312      -161.6441
 106   2.0000      -5.936886      -161.5509
 107   2.0000      -5.921718      -161.1381
 108   2.0000      -5.919475      -161.0771
 109   2.0000      -5.913096      -160.9035
 110   2.0000      -5.853317      -159.2769
 111   2.0000      -5.852437      -159.2529
 112   2.0000      -5.845782      -159.0718
 113   2.0000      -1.157114       -31.4867
 114   2.0000      -1.064288       -28.9608
 115   2.0000      -1.041277       -28.3346
 116   2.0000      -1.027052       -27.9475
 117   2.0000      -1.024034       -27.8654
 118   2.0000      -0.961004       -26.1502
 119   2.0000      -0.953629       -25.9496
 120   2.0000      -0.943731       -25.6802
 121   2.0000      -0.941958       -25.6320
 122   2.0000      -0.936509       -25.4837
 123   2.0000      -0.928519       -25.2663
 124   2.0000      -0.925820       -25.1929
 125   2.0000      -0.925583       -25.1864
 126   2.0000      -0.921283       -25.0694
 127   2.0000      -0.914723       -24.8909
 128   2.0000      -0.897050       -24.4100
 129   2.0000      -0.889165       -24.1954
 130   2.0000      -0.885197       -24.0874
 131   2.0000      -0.882551       -24.0154
 132   2.0000      -0.875542       -23.8247
 133   2.0000      -0.858486       -23.3606
 134   2.0000      -0.853742       -23.2315
 135   2.0000      -0.852276       -23.1916
 136   2.0000      -0.837744       -22.7962
 137   2.0000      -0.828935       -22.5565
 138   2.0000      -0.827732       -22.5237
 139   2.0000      -0.826052       -22.4780
 140   2.0000      -0.824314       -22.4307
 141   2.0000      -0.811446       -22.0806
 142   2.0000      -0.798898       -21.7391
 143   2.0000      -0.791046       -21.5255
 144   2.0000      -0.788954       -21.4685
 145   2.0000      -0.788597       -21.4588
 146   2.0000      -0.784230       -21.3400
 147   2.0000      -0.773491       -21.0478
 148   2.0000      -0.769537       -20.9402
 149   2.0000      -0.767543       -20.8859
 150   2.0000      -0.757145       -20.6030
 151   2.0000      -0.750448       -20.4207
 152   2.0000      -0.745949       -20.2983
 153   2.0000      -0.732991       -19.9457
 154   2.0000      -0.731610       -19.9081
 155   2.0000      -0.722601       -19.6630
 156   2.0000      -0.708149       -19.2697
 157   2.0000      -0.703045       -19.1308
 158   2.0000      -0.699775       -19.0418
 159   2.0000      -0.693162       -18.8619
 160   2.0000      -0.689488       -18.7619
 161   2.0000      -0.682029       -18.5590
 162   2.0000      -0.665020       -18.0961
 163   2.0000      -0.659139       -17.9361
 164   2.0000      -0.655326       -17.8323
 165   2.0000      -0.651746       -17.7349
 166   2.0000      -0.649626       -17.6772
 167   2.0000      -0.641754       -17.4630
 168   2.0000      -0.637232       -17.3400
 169   2.0000      -0.629383       -17.1264
 170   2.0000      -0.627895       -17.0859
 171   2.0000      -0.625356       -17.0168
 172   2.0000      -0.620855       -16.8943
 173   2.0000      -0.612263       -16.6605
 174   2.0000      -0.607046       -16.5186
 175   2.0000      -0.597731       -16.2651
 176   2.0000      -0.595050       -16.1921
 177   2.0000      -0.586482       -15.9590
 178   2.0000      -0.584599       -15.9078
 179   2.0000      -0.581436       -15.8217
 180   2.0000      -0.568126       -15.4595
 181   2.0000      -0.563837       -15.3428
 182   2.0000      -0.558653       -15.2017
 183   2.0000      -0.555073       -15.1043
 184   2.0000      -0.552963       -15.0469
 185   2.0000      -0.549982       -14.9658
 186   2.0000      -0.543139       -14.7796
 187   2.0000      -0.539532       -14.6814
 188   2.0000      -0.532635       -14.4937
 189   2.0000      -0.531851       -14.4724
 190   2.0000      -0.527658       -14.3583
 191   2.0000      -0.522248       -14.2111
 192   2.0000      -0.519949       -14.1485
 193   2.0000      -0.512967       -13.9585
 194   2.0000      -0.506757       -13.7896
 195   2.0000      -0.504544       -13.7293
 196   2.0000      -0.503391       -13.6980
 197   2.0000      -0.497657       -13.5419
 198   2.0000      -0.497471       -13.5369
 199   2.0000      -0.494392       -13.4531
 200   2.0000      -0.493735       -13.4352
 201   2.0000      -0.488727       -13.2989
 202   2.0000      -0.484777       -13.1915
 203   2.0000      -0.479531       -13.0487
 204   2.0000      -0.477826       -13.0023
 205   2.0000      -0.476510       -12.9665
 206   2.0000      -0.475349       -12.9349
 207   2.0000      -0.471169       -12.8212
 208   2.0000      -0.470536       -12.8039
 209   2.0000      -0.466574       -12.6961
 210   2.0000      -0.464278       -12.6336
 211   2.0000      -0.463260       -12.6059
 212   2.0000      -0.461765       -12.5653
 213   2.0000      -0.458813       -12.4849
 214   2.0000      -0.456511       -12.4223
 215   2.0000      -0.455013       -12.3815
 216   2.0000      -0.451668       -12.2905
 217   2.0000      -0.445898       -12.1335
 218   2.0000      -0.444161       -12.0862
 219   2.0000      -0.443645       -12.0722
 220   2.0000      -0.441082       -12.0024
 221   2.0000      -0.438820       -11.9409
 222   2.0000      -0.435078       -11.8391
 223   2.0000      -0.432386       -11.7658
 224   2.0000      -0.431684       -11.7467
 225   2.0000      -0.429341       -11.6830
 226   2.0000      -0.426930       -11.6174
 227   2.0000      -0.426467       -11.6048
 228   2.0000      -0.424965       -11.5639
 229   2.0000      -0.423118       -11.5136
 230   2.0000      -0.421972       -11.4824
 231   2.0000      -0.418493       -11.3878
 232   2.0000      -0.417117       -11.3503
 233   2.0000      -0.411738       -11.2040
 234   2.0000      -0.410125       -11.1601
 235   2.0000      -0.404703       -11.0125
 236   2.0000      -0.402858       -10.9623
 237   2.0000      -0.401448       -10.9240
 238   2.0000      -0.398744       -10.8504
 239   2.0000      -0.396365       -10.7856
 240   2.0000      -0.395137       -10.7522
 241   2.0000      -0.393617       -10.7109
 242   2.0000      -0.391808       -10.6616
 243   2.0000      -0.391596       -10.6559
 244   2.0000      -0.390465       -10.6251
 245   2.0000      -0.389337       -10.5944
 246   2.0000      -0.388577       -10.5737
 247   2.0000      -0.387797       -10.5525
 248   2.0000      -0.382982       -10.4215
 249   2.0000      -0.380689       -10.3591
 250   2.0000      -0.379174       -10.3178
 251   2.0000      -0.377348       -10.2682
 252   2.0000      -0.376132       -10.2351
 253   2.0000      -0.375168       -10.2088
 254   2.0000      -0.373788       -10.1713
 255   2.0000      -0.371536       -10.1100
 256   2.0000      -0.369890       -10.0652
 257   2.0000      -0.369508       -10.0548
 258   2.0000      -0.369277       -10.0486
 259   2.0000      -0.368151       -10.0179
 260   2.0000      -0.367701       -10.0057
 261   2.0000      -0.366590        -9.9754
 262   2.0000      -0.365189        -9.9373
 263   2.0000      -0.362302        -9.8587
 264   2.0000      -0.359541        -9.7836
 265   2.0000      -0.358828        -9.7642
 266   2.0000      -0.357121        -9.7178
 267   2.0000      -0.355023        -9.6607
 268   2.0000      -0.352851        -9.6016
 269   2.0000      -0.351109        -9.5542
 270   2.0000      -0.349888        -9.5209
 271   2.0000      -0.347564        -9.4577
 272   2.0000      -0.345315        -9.3965
 273   2.0000      -0.340966        -9.2782
 274   2.0000      -0.338752        -9.2179
 275   2.0000      -0.336358        -9.1528
 276   2.0000      -0.333022        -9.0620
 277   2.0000      -0.331477        -9.0199
 278   2.0000      -0.330080        -8.9819
 279   2.0000      -0.326474        -8.8838
 280   2.0000      -0.326196        -8.8762
 281   2.0000      -0.324590        -8.8325
 282   2.0000      -0.323807        -8.8112
 283   2.0000      -0.321889        -8.7590
 284   2.0000      -0.316793        -8.6204
 285   2.0000      -0.307821        -8.3762
 286   2.0000      -0.301822        -8.2130
 287   2.0000      -0.299543        -8.1510
 288   2.0000      -0.296750        -8.0750
 289   2.0000      -0.289863        -7.8876
 290   2.0000      -0.289242        -7.8707
 291   2.0000      -0.286066        -7.7842
 292   2.0000      -0.278744        -7.5850
 293   2.0000      -0.268374        -7.3028
 294   2.0000      -0.267081        -7.2676
 295   2.0000      -0.262806        -7.1513
 296   2.0000      -0.257499        -7.0069
 297   2.0000      -0.247893        -6.7455
 298   2.0000      -0.241798        -6.5797
 299   2.0000      -0.236048        -6.4232
 300   2.0000      -0.223463        -6.0807
 301   2.0000      -0.209232        -5.6935
 302   2.0000      -0.207287        -5.6406
 303   0.0000      -0.138241        -3.7617
 304   0.0000      -0.118763        -3.2317
 305   0.0000      -0.112616        -3.0644
 306   0.0000      -0.107038        -2.9126
 307   0.0000      -0.087596        -2.3836

MULLIKEN ATOMIC CHARGES
-----------------------
   0 C :    0.200932
   1 O :   -0.285233
   2 C :    0.004359
   3 C :   -0.296052
   4 C :    0.159658
   5 C :    0.125438
   6 C :   -0.262285
   7 C :    0.127756
   8 C :   -0.001700
   9 C :    0.117042
  10 C :   -0.229507
  11 N :    0.049219
  12 C :   -0.205342
  13 N :    0.008184
  14 C :   -0.002737
  15 C :   -0.266734
  16 C :    0.208094
  17 S :   -0.058486
  18 C :   -0.134834
  19 C :    0.045690
  20 C :    0.047689
  21 C :   -0.247658
  22 C :   -0.336606
  23 S :    0.039175
  24 C :   -0.108622
  25 C :    0.358135
  26 N :    0.016350
  27 C :   -0.262966
  28 C :    0.016243
  29 C :    0.033585
  30 C :    0.062066
  31 C :   -0.019305
  32 N :   -0.248463
  33 S :    0.351612
  34 N :   -0.215320
  35 C :   -0.156688
  36 C :    0.319785
  37 C :   -0.204875
  38 N :    0.159081
  39 C :   -0.337683
  40 C :    0.052624
  41 C :   -0.167919
  42 C :   -0.093669
  43 S :   -0.237391
  44 C :    0.092292
  45 C :    0.098398
  46 S :   -0.090073
  47 C :   -0.145221
  48 C :    0.039411
  49 C :   -0.141423
  50 C :   -0.350782
  51 C :   -0.043523
  52 C :   -0.169270
  53 C :   -0.001593
  54 C :    0.169612
  55 C :   -0.170106
  56 N :   -0.032170
  57 C :   -0.267412
  58 N :    0.072264
  59 C :    0.122110
  60 C :   -0.290709
  61 C :    0.115328
  62 C :    0.263334
  63 C :   -0.389515
  64 C :    0.154598
  65 C :    0.287601
  66 O :   -0.077714
  67 Cl:   -0.063010
  68 Cl:   -0.056650
  69 C :   -0.145213
  70 C :   -0.353135
  71 C :   -0.352498
  72 C :   -0.194771
  73 C :   -0.392285
  74 C :   -0.368699
  75 Cl:   -0.049295
  76 Cl:   -0.088056
  77 H :    0.143494
  78 H :    0.155149
  79 H :    0.150810
  80 H :    0.122315
  81 H :    0.122822
  82 H :    0.121693
  83 H :    0.120181
  84 H :    0.116258
  85 H :    0.135855
  86 H :    0.132618
  87 H :    0.048598
  88 H :    0.136837
  89 H :    0.156383
  90 H :    0.077025
  91 H :    0.097568
  92 H :    0.110213
  93 H :    0.113294
  94 H :    0.116103
  95 H :    0.126110
  96 H :    0.191406
  97 H :    0.191643
  98 H :    0.125813
  99 H :    0.092868
 100 H :    0.096369
 101 H :    0.097616
 102 H :    0.115114
 103 H :    0.142142
 104 H :    0.113808
 105 H :    0.121094
 106 H :    0.107337
 107 H :    0.070678
 108 H :    0.191913
 109 H :    0.138736
 110 H :    0.135868
 111 H :    0.100908
 112 H :    0.122239
 113 H :    0.134317
 114 H :    0.102344
Sum of atomic charges:   -0.0000000

LOEWDIN ATOMIC CHARGES
----------------------
   0 C :   -0.255256
   1 O :    0.138361
   2 C :   -0.055620
   3 C :   -0.071472
   4 C :   -0.430876
   5 C :   -0.428190
   6 C :   -0.079780
   7 C :   -0.043414
   8 C :   -0.005920
   9 C :   -0.157076
  10 C :   -0.185601
  11 N :    0.100460
  12 C :   -0.166773
  13 N :    0.081185
  14 C :   -0.088450
  15 C :   -0.052966
  16 C :   -0.302402
  17 S :    0.798209
  18 C :   -0.329867
  19 C :   -0.312399
  20 C :   -0.124856
  21 C :   -0.225482
  22 C :   -0.283961
  23 S :    0.781031
  24 C :   -0.286630
  25 C :   -0.179424
  26 N :    0.313975
  27 C :   -0.217802
  28 C :   -0.292822
  29 C :   -0.086885
  30 C :   -0.083114
  31 C :   -0.254156
  32 N :   -0.117979
  33 S :    0.684930
  34 N :   -0.109609
  35 C :   -0.248504
  36 C :   -0.110438
  37 C :   -0.088218
  38 N :    0.298425
  39 C :   -0.232325
  40 C :   -0.279524
  41 C :   -0.186795
  42 C :   -0.424055
  43 S :    0.334224
  44 C :   -0.293350
  45 C :   -0.018670
  46 S :    0.573294
  47 C :   -0.101897
  48 C :   -0.349903
  49 C :   -0.237606
  50 C :   -0.289952
  51 C :   -0.060436
  52 C :   -0.098503
  53 C :    0.036758
  54 C :   -0.147156
  55 C :   -0.140993
  56 N :    0.099580
  57 C :   -0.170255
  58 N :    0.096146
  59 C :   -0.040932
  60 C :   -0.090349
  61 C :   -0.444575
  62 C :   -0.428085
  63 C :   -0.109870
  64 C :   -0.021263
  65 C :   -0.108572
  66 O :    0.297749
  67 Cl:    0.513173
  68 Cl:    0.448255
  69 C :   -0.255970
  70 C :   -0.296186
  71 C :   -0.276634
  72 C :   -0.269043
  73 C :   -0.299550
  74 C :   -0.269792
  75 Cl:    0.451856
  76 Cl:    0.454772
  77 H :    0.161134
  78 H :    0.163011
  79 H :    0.171902
  80 H :    0.150034
  81 H :    0.145333
  82 H :    0.120403
  83 H :    0.121710
  84 H :    0.120425
  85 H :    0.139855
  86 H :    0.145469
  87 H :    0.139712
  88 H :    0.137555
  89 H :    0.157474
  90 H :    0.148812
  91 H :    0.142613
  92 H :    0.145030
  93 H :    0.119905
  94 H :    0.120026
  95 H :    0.125139
  96 H :    0.123747
  97 H :    0.156563
  98 H :    0.153202
  99 H :    0.138418
 100 H :    0.139048
 101 H :    0.117213
 102 H :    0.120681
 103 H :    0.125872
 104 H :    0.124392
 105 H :    0.123077
 106 H :    0.113448
 107 H :    0.134494
 108 H :    0.142045
 109 H :    0.120626
 110 H :    0.126268
 111 H :    0.113011
 112 H :    0.125574
 113 H :    0.127914
 114 H :    0.114670

  Mayer bond orders larger than 0.100000
B(  0-C ,  1-O ) :   2.1887 B(  0-C ,  2-C ) :   0.9629 B(  0-C , 14-C ) :   1.0035
B(  1-O ,  2-C ) :  -0.1580 B(  1-O , 14-C ) :  -0.1298 B(  2-C ,  3-C ) :   1.3805
B(  2-C ,  7-C ) :   1.3273 B(  3-C ,  4-C ) :   1.3447 B(  3-C , 77-H ) :   0.9790
B(  4-C ,  5-C ) :   1.2605 B(  4-C , 68-Cl) :   1.0505 B(  5-C ,  6-C ) :   1.3883
B(  5-C , 75-Cl) :   1.0841 B(  6-C ,  7-C ) :   1.3933 B(  6-C , 78-H ) :   0.9304
B(  7-C ,  8-C ) :   1.0534 B(  8-C ,  9-C ) :   1.3987 B(  8-C , 14-C ) :   1.1434
B(  9-C , 10-C ) :   1.0433 B(  9-C , 12-C ) :   1.0816 B( 10-C , 11-N ) :   2.9519
B( 12-C , 13-N ) :   2.9229 B( 14-C , 15-C ) :   1.5182 B( 15-C , 16-C ) :   1.0810
B( 15-C , 79-H ) :   0.9502 B( 16-C , 17-S ) :   1.1561 B( 16-C , 20-C ) :   1.4312
B( 17-S , 18-C ) :   1.2851 B( 17-S , 25-C ) :  -0.1329 B( 18-C , 19-C ) :   1.4448
B( 18-C , 23-S ) :   0.1373 B( 18-C , 25-C ) :   1.0907 B( 19-C , 20-C ) :   1.2563
B( 19-C , 23-S ) :   1.1545 B( 19-C , 25-C ) :  -0.1135 B( 20-C , 21-C ) :   0.9232
B( 21-C , 22-C ) :   0.9523 B( 21-C , 80-H ) :   0.9647 B( 21-C , 81-H ) :   0.9840
B( 22-C , 82-H ) :   0.9723 B( 22-C , 83-H ) :   0.9729 B( 22-C , 84-H ) :   0.9752
B( 23-S , 24-C ) :   1.3379 B( 24-C , 25-C ) :   1.2030 B( 24-C , 30-C ) :   1.2076
B( 25-C , 26-N ) :   1.1479 B( 26-N , 27-C ) :   0.8438 B( 26-N , 29-C ) :   1.2291
B( 27-C , 28-C ) :   0.9160 B( 27-C , 85-H ) :   0.9857 B( 27-C , 86-H ) :   0.9681
B( 28-C , 72-C ) :   0.9656 B( 28-C , 74-C ) :   0.9350 B( 28-C , 87-H ) :   0.9356
B( 29-C , 30-C ) :   1.1818 B( 29-C , 37-C ) :   1.4165 B( 30-C , 31-C ) :   1.1060
B( 31-C , 32-N ) :   1.5985 B( 31-C , 33-S ) :   0.1229 B( 31-C , 35-C ) :   1.2371
B( 32-N , 33-S ) :   1.2760 B( 33-S , 34-N ) :   1.2681 B( 33-S , 35-C ) :   0.1235
B( 34-N , 35-C ) :   1.6258 B( 35-C , 36-C ) :   0.9820 B( 36-C , 37-C ) :   1.1029
B( 36-C , 42-C ) :   1.0932 B( 37-C , 38-N ) :   1.2228 B( 38-N , 39-C ) :   0.8341
B( 38-N , 41-C ) :   1.0010 B( 39-C , 40-C ) :   0.9402 B( 39-C , 88-H ) :   0.9895
B( 39-C , 89-H ) :   0.9611 B( 40-C , 69-C ) :   0.9298 B( 40-C , 71-C ) :   0.9210
B( 40-C , 90-H ) :   0.9675 B( 41-C , 42-C ) :   1.1500 B( 41-C , 43-S ) :  -0.1680
B( 41-C , 45-C ) :   1.5920 B( 42-C , 43-S ) :   1.7758 B( 43-S , 44-C ) :   0.1140
B( 43-S , 45-C ) :   0.2082 B( 43-S , 63-C ) :   0.1305 B( 44-C , 45-C ) :   2.0254
B( 44-C , 46-S ) :   1.0443 B( 44-C , 48-C ) :   0.8173 B( 46-S , 48-C ) :   0.9222
B( 47-C , 48-C ) :   1.3483 B( 47-C , 51-C ) :   2.8118 B( 48-C , 49-C ) :   0.9461
B( 49-C , 50-C ) :   0.9583 B( 49-C , 91-H ) :   0.9561 B( 49-C , 92-H ) :   0.9527
B( 50-C , 93-H ) :   0.9730 B( 50-C , 94-H ) :   0.9765 B( 50-C , 95-H ) :   0.9718
B( 51-C , 96-H ) :   0.8842 B( 52-C , 53-C ) :   1.1671 B( 52-C , 64-C ) :   1.0977
B( 52-C , 65-C ) :   1.5616 B( 53-C , 54-C ) :   1.4597 B( 53-C , 59-C ) :   1.0072
B( 54-C , 55-C ) :   1.0661 B( 54-C , 57-C ) :   1.0133 B( 55-C , 56-N ) :   2.8035
B( 57-C , 58-N ) :   3.0163 B( 59-C , 60-C ) :   1.4698 B( 59-C , 64-C ) :   1.2242
B( 60-C , 61-C ) :   1.2943 B( 60-C , 97-H ) :   0.9054 B( 61-C , 62-C ) :   1.3130
B( 61-C , 76-Cl) :   1.0532 B( 62-C , 63-C ) :   1.3014 B( 62-C , 67-Cl) :   1.0207
B( 63-C , 64-C ) :   1.3378 B( 63-C , 67-Cl) :   0.1054 B( 63-C , 98-H ) :   0.9891
B( 65-C , 66-O ) :   2.2590 B( 69-C , 70-C ) :   0.9686 B( 69-C , 99-H ) :   0.9740
B( 69-C ,100-H ) :   0.9589 B( 70-C ,101-H ) :   0.9734 B( 70-C ,102-H ) :   0.9756
B( 70-C ,103-H ) :   0.9723 B( 71-C ,104-H ) :   0.9757 B( 71-C ,105-H ) :   0.9809
B( 71-C ,106-H ) :   0.9763 B( 72-C , 73-C ) :   0.9329 B( 72-C ,107-H ) :   0.9587
B( 72-C ,108-H ) :   0.9618 B( 73-C ,109-H ) :   0.9778 B( 73-C ,110-H ) :   0.9834
B( 73-C ,111-H ) :   0.9679 B( 74-C ,112-H ) :   0.9710 B( 74-C ,113-H ) :   0.9829
B( 74-C ,114-H ) :   0.9723

-----------------------------------------------------------------------------
         ABSORPTION SPECTRUM VIA TRANSITION ELECTRIC DIPOLE MOMENTS
-----------------------------------------------------------------------------
State   Energy    Wavelength  fosc         T2        TX        TY        TZ
        (cm-1)      (nm)                 (au**2)    (au)      (au)      (au)
-----------------------------------------------------------------------------
   1   10682.6    936.1   0.000066487   0.00205   0.03564  -0.02425   0.01381
   2   13685.2    730.7   0.221315806   5.32397   1.22849  -1.33584   1.42489
   3   15629.8    639.8   0.016490613   0.34734   0.39713  -0.39321   0.18714
   4   15684.6    637.6   0.029711239   0.62363  -0.57385   0.49854  -0.21397
   5   15991.6    625.3   0.018923933   0.38958  -0.36982   0.38779  -0.32004
   6   16549.5    604.2   0.592643169  11.78917   2.71778  -0.83835   1.92355
   7   18226.2    548.7   0.334888145   6.04894   1.45478  -1.19835   1.58004
   8   18587.8    538.0   0.008476984   0.15014  -0.05338   0.37726  -0.07045
   9   19528.9    512.1   0.005574512   0.09397   0.01795  -0.25975   0.16181
  10   19948.3    501.3   0.116510996   1.92281   1.37935  -0.03527   0.13766
  11   20063.5    498.4   0.006946193   0.11398  -0.32460  -0.02893   0.08819
  12   20150.9    496.3   0.011972393   0.19560  -0.22192   0.05433  -0.37868
  13   20225.1    494.4   0.001436433   0.02338  -0.12298  -0.01318  -0.08991
  14   20876.5    479.0   0.163255374   2.57446   1.56157  -0.29279   0.22409
  15   21439.6    466.4   0.000516199   0.00793   0.06310   0.01262   0.06152
  16   21676.4    461.3   0.002971880   0.04514  -0.18593  -0.02910  -0.09858
  17   21910.9    456.4   0.040969322   0.61557   0.68538  -0.06904   0.37557
  18   22614.5    442.2   0.000766732   0.01116  -0.00074  -0.08430   0.06367
  19   22840.4    437.8   0.061190529   0.88198   0.09197  -0.65155   0.67007
  20   22899.5    436.7   0.004328294   0.06223  -0.13097  -0.21226  -0.00399
  21   23076.8    433.3   0.068543564   0.97784   0.73281  -0.57751   0.32758
  22   23432.0    426.8   0.028311618   0.39777   0.60417  -0.18078   0.00826
  23   23513.6    425.3   0.015591997   0.21830   0.42725   0.04200  -0.18438
  24   23879.6    418.8   0.010867685   0.14983  -0.26932   0.03827  -0.27537
  25   24385.0    410.1   0.054534510   0.73625   0.75901  -0.27809  -0.28777
  26   24463.6    408.8   0.008506789   0.11448  -0.28270   0.09924   0.15719
  27   24626.5    406.1   0.023621799   0.31578  -0.48499  -0.12432   0.25517
  28   25073.4    398.8   0.035902482   0.47140  -0.65658  -0.00588   0.20065
  29   25275.0    395.6   0.047690259   0.62117  -0.33095   0.40811  -0.58745
  30   25787.9    387.8   0.065989651   0.84243  -0.08864   0.64866  -0.64329
  31   26249.3    381.0   0.139178302   1.74554  -0.89188  -0.29769   0.92815
  32   26279.6    380.5   0.052990387   0.66382  -0.59252  -0.16676   0.53379
  33   26859.8    372.3   0.007078127   0.08675   0.22157  -0.03142  -0.19150
  34   27094.2    369.1   0.054505251   0.66227   0.68882  -0.30424   0.30862
  35   27303.9    366.2   0.018606163   0.22434  -0.10116   0.40739  -0.21941
  36   27418.8    364.7   0.056158943   0.67429  -0.30537   0.52237  -0.55513
  37   27650.7    361.7   0.003442255   0.04098  -0.06176  -0.11501  -0.15473
  38   27908.7    358.3   0.005543743   0.06539   0.07857  -0.11588  -0.21399
  39   28257.8    353.9   0.003137227   0.03655   0.08649  -0.08060   0.15024
  40   28707.6    348.3   0.029648437   0.34000   0.31941   0.45992  -0.16265
  41   28804.1    347.2   0.008089828   0.09246  -0.25550  -0.04932   0.15732
  42   28830.1    346.9   0.010060959   0.11489   0.25904   0.13430  -0.17247
  43   29007.7    344.7   0.003877144   0.04400   0.02521  -0.18080   0.10334
  44   29091.8    343.7   0.043666603   0.49414   0.59661  -0.20562   0.30972
  45   29213.6    342.3   0.004349436   0.04901   0.17933  -0.08506  -0.09807
  46   29404.1    340.1   0.040756204   0.45631  -0.31315   0.54674  -0.24356
  47   29503.3    338.9   0.022425889   0.25024   0.49253  -0.00946  -0.08699
  48   29686.7    336.9   0.000576536   0.00639   0.05608   0.00278  -0.05692
  49   29735.5    336.3   0.035858509   0.39700  -0.51732   0.19757   0.30058
  50   30073.1    332.5   0.005761754   0.06307  -0.18796   0.07767   0.14735

FINAL SINGLE POINT ENERGY     -6651.851976640512

DIPOLE MOMENT
-------------
                                X             Y             Z
Electronic contribution:    -41.02608     -24.97671     -16.96808
Nuclear contribution   :     42.72594      27.25109      16.34236
                        -----------------------------------------
Total Dipole Moment    :      1.69986       2.27438      -0.62572
                        -----------------------------------------
Magnitude (a.u.)       :      2.90755
Magnitude (Debye)      :      7.39041

Rotational constants in cm-1:     0.001211     0.000452     0.000378
Rotational constants in MHz :    36.316482    13.535762    11.335027

                             ****ORCA TERMINATED NORMALLY****
TOTAL RUN TIME: 1 days 23 hours 26 minutes 0 seconds 903 msec
