                         Program Version 4.2.0 -  RELEASE  -
|  1> # ORCA input file
|  2> # BTDT2R.out
|  3> ! B3LYP def2-TZVP def2/J RIJCOSX Grid4 TightSCF
|  4> %maxcore 10000
|  5> %tddft
|  6>   maxdim 5
|  7>   nroots 50
|  8>   end
|  9> * xyz 0 1
| 10>    C        1.06622         1.91889        -0.01797
| 11>    C        2.28948         1.24158        -0.14673
| 12>    C        2.35738        -0.17822        -0.15810
| 13>    C        1.22552        -0.99446        -0.15792
| 14>    C       -0.01907        -0.32231        -0.06716
| 15>    C       -0.09171         1.10415         0.02443
| 16>    N       -1.22235        -0.88546        -0.03816
| 17>    S       -2.33868         0.25810         0.09811
| 18>    N       -1.34955         1.52863         0.12363
| 19>    O        3.40778         2.00682        -0.21691
| 20>    O        3.61264        -0.76062        -0.12632
| 21>    C        4.06782        -1.02261         1.18978
| 22>    C        4.51087         1.60269        -1.01186
| 23>    C        0.92259         3.34394         0.05948
| 24>    C        1.25176        -2.42893        -0.22113
| 25>    S       -0.66138         4.04829         0.05312
| 26>    C       -0.00013         5.65972         0.15107
| 27>    C        1.38467         5.61789         0.19721
| 28>    C        1.89533         4.32841         0.14876
| 29>    C        2.30754        -3.25617        -0.58093
| 30>    C        1.97318        -4.59660        -0.54526
| 31>    C        0.65502        -4.83470        -0.15834
| 32>    S       -0.17739        -3.33694         0.14827
| 33>    C       -0.88511         6.75736         0.18388
| 34>    C       -0.59114         8.08094         0.25885
| 35>    C        0.11548        -6.13323        -0.06476
| 36>    C       -1.14345        -6.54007         0.25844
| 37>    C       -1.64321         9.09550         0.29173
| 38>    N       -1.08255        10.36144         0.37515
| 39>    C        0.26978        10.44456         0.40673
| 40>    S        0.98387         8.83646         0.33267
| 41>    S       -1.57023        -8.24410         0.28078
| 42>    C       -3.23074        -7.88087         0.72036
| 43>    N       -3.39848        -6.53842         0.83629
| 44>    C       -2.29801        -5.73040         0.60648
| 45>    O       -2.83669         8.89547         0.25478
| 46>    C       -1.91058        11.54069         0.42745
| 47>    S        1.12084        11.83206         0.50046
| 48>    S       -4.40306        -8.98953         0.95794
| 49>    C       -4.67708        -5.97107         1.18703
| 50>    O       -2.34588        -4.51891         0.69925
| 51>    H        3.39113        -1.70516         1.71283
| 52>    H        4.16103        -0.09734         1.76805
| 53>    H        5.04559        -1.48848         1.08361
| 54>    H        4.95744         2.52823        -1.37933
| 55>    H        4.19587         0.98871        -1.85581
| 56>    H        5.25059         1.05639        -0.42368
| 57>    H        2.00147         6.49543         0.26760
| 58>    H        2.94366         4.10588         0.18912
| 59>    H        3.27107        -2.88540        -0.87713
| 60>    H        2.65346        -5.39163        -0.79588
| 61>    H       -1.94427         6.52936         0.14628
| 62>    H        0.82089        -6.92416        -0.29584
| 63>    H       -2.94701        11.20872         0.39080
| 64>    H       -1.68981        12.19081        -0.41984
| 65>    H       -1.72004        12.09017         1.35001
| 66>    H       -5.00196        -6.35271         2.15548
| 67>    H       -5.42215        -6.23972         0.43733
| 68>    H       -4.55154        -4.89020         1.22691
| 69> *
| 70>
| 71>                          ****END OF INPUT****

CARTESIAN COORDINATES (ANGSTROEM)
---------------------------------
  C      1.066220    1.918890   -0.017970
  C      2.289480    1.241580   -0.146730
  C      2.357380   -0.178220   -0.158100
  C      1.225520   -0.994460   -0.157920
  C     -0.019070   -0.322310   -0.067160
  C     -0.091710    1.104150    0.024430
  N     -1.222350   -0.885460   -0.038160
  S     -2.338680    0.258100    0.098110
  N     -1.349550    1.528630    0.123630
  O      3.407780    2.006820   -0.216910
  O      3.612640   -0.760620   -0.126320
  C      4.067820   -1.022610    1.189780
  C      4.510870    1.602690   -1.011860
  C      0.922590    3.343940    0.059480
  C      1.251760   -2.428930   -0.221130
  S     -0.661380    4.048290    0.053120
  C     -0.000130    5.659720    0.151070
  C      1.384670    5.617890    0.197210
  C      1.895330    4.328410    0.148760
  C      2.307540   -3.256170   -0.580930
  C      1.973180   -4.596600   -0.545260
  C      0.655020   -4.834700   -0.158340
  S     -0.177390   -3.336940    0.148270
  C     -0.885110    6.757360    0.183880
  C     -0.591140    8.080940    0.258850
  C      0.115480   -6.133230   -0.064760
  C     -1.143450   -6.540070    0.258440
  C     -1.643210    9.095500    0.291730
  N     -1.082550   10.361440    0.375150
  C      0.269780   10.444560    0.406730
  S      0.983870    8.836460    0.332670
  S     -1.570230   -8.244100    0.280780
  C     -3.230740   -7.880870    0.720360
  N     -3.398480   -6.538420    0.836290
  C     -2.298010   -5.730400    0.606480
  O     -2.836690    8.895470    0.254780
  C     -1.910580   11.540690    0.427450
  S      1.120840   11.832060    0.500460
  S     -4.403060   -8.989530    0.957940
  C     -4.677080   -5.971070    1.187030
  O     -2.345880   -4.518910    0.699250
  H      3.391130   -1.705160    1.712830
  H      4.161030   -0.097340    1.768050
  H      5.045590   -1.488480    1.083610
  H      4.957440    2.528230   -1.379330
  H      4.195870    0.988710   -1.855810
  H      5.250590    1.056390   -0.423680
  H      2.001470    6.495430    0.267600
  H      2.943660    4.105880    0.189120
  H      3.271070   -2.885400   -0.877130
  H      2.653460   -5.391630   -0.795880
  H     -1.944270    6.529360    0.146280
  H      0.820890   -6.924160   -0.295840
  H     -2.947010   11.208720    0.390800
  H     -1.689810   12.190810   -0.419840
  H     -1.720040   12.090170    1.350010
  H     -5.001960   -6.352710    2.155480
  H     -5.422150   -6.239720    0.437330
  H     -4.551540   -4.890200    1.226910

 Total Charge           Charge          ....    0
 Multiplicity           Mult            ....    1
 Number of Electrons    NEL             ....  346
 Basis Dimension        Dim             .... 1421

ORBITAL ENERGIES
----------------

  NO   OCC          E(Eh)            E(eV)
   0   2.0000     -88.958291     -2420.6782
   1   2.0000     -88.899260     -2419.0718
   2   2.0000     -88.896398     -2418.9940
   3   2.0000     -88.890200     -2418.8253
   4   2.0000     -88.889103     -2418.7955
   5   2.0000     -88.824387     -2417.0345
   6   2.0000     -88.823476     -2417.0097
   7   2.0000     -19.184793      -522.0448
   8   2.0000     -19.173963      -521.7501
   9   2.0000     -19.125860      -520.4411
  10   2.0000     -19.114224      -520.1245
  11   2.0000     -14.393404      -391.6644
  12   2.0000     -14.387581      -391.5060
  13   2.0000     -14.358650      -390.7187
  14   2.0000     -14.357320      -390.6825
  15   2.0000     -10.302808      -280.3537
  16   2.0000     -10.293235      -280.0932
  17   2.0000     -10.292057      -280.0611
  18   2.0000     -10.289203      -279.9835
  19   2.0000     -10.274204      -279.5753
  20   2.0000     -10.267581      -279.3951
  21   2.0000     -10.241953      -278.6977
  22   2.0000     -10.241821      -278.6941
  23   2.0000     -10.241300      -278.6799
  24   2.0000     -10.240459      -278.6570
  25   2.0000     -10.230992      -278.3994
  26   2.0000     -10.226420      -278.2750
  27   2.0000     -10.223835      -278.2047
  28   2.0000     -10.223631      -278.1991
  29   2.0000     -10.222392      -278.1654
  30   2.0000     -10.221975      -278.1541
  31   2.0000     -10.220642      -278.1178
  32   2.0000     -10.219794      -278.0947
  33   2.0000     -10.214515      -277.9511
  34   2.0000     -10.213350      -277.9194
  35   2.0000     -10.209105      -277.8039
  36   2.0000     -10.208545      -277.7886
  37   2.0000     -10.193437      -277.3775
  38   2.0000     -10.189131      -277.2603
  39   2.0000     -10.187722      -277.2220
  40   2.0000     -10.186177      -277.1800
  41   2.0000      -8.029150      -218.4843
  42   2.0000      -7.976179      -217.0429
  43   2.0000      -7.973289      -216.9642
  44   2.0000      -7.966204      -216.7714
  45   2.0000      -7.964313      -216.7200
  46   2.0000      -7.903036      -215.0525
  47   2.0000      -7.902084      -215.0266
  48   2.0000      -5.993674      -163.0962
  49   2.0000      -5.986338      -162.8965
  50   2.0000      -5.986327      -162.8962
  51   2.0000      -5.939173      -161.6131
  52   2.0000      -5.936163      -161.5312
  53   2.0000      -5.935291      -161.5075
  54   2.0000      -5.932301      -161.4261
  55   2.0000      -5.931609      -161.4073
  56   2.0000      -5.928897      -161.3335
  57   2.0000      -5.928624      -161.3261
  58   2.0000      -5.926779      -161.2758
  59   2.0000      -5.924636      -161.2175
  60   2.0000      -5.923020      -161.1736
  61   2.0000      -5.922702      -161.1649
  62   2.0000      -5.920964      -161.1176
  63   2.0000      -5.865426      -159.6064
  64   2.0000      -5.864424      -159.5791
  65   2.0000      -5.862971      -159.5396
  66   2.0000      -5.862104      -159.5160
  67   2.0000      -5.857920      -159.4021
  68   2.0000      -5.856949      -159.3757
  69   2.0000      -1.106293       -30.1038
  70   2.0000      -1.082273       -29.4501
  71   2.0000      -1.081445       -29.4276
  72   2.0000      -1.071452       -29.1557
  73   2.0000      -1.044125       -28.4121
  74   2.0000      -1.004529       -27.3346
  75   2.0000      -0.997793       -27.1513
  76   2.0000      -0.918945       -25.0058
  77   2.0000      -0.909628       -24.7522
  78   2.0000      -0.897220       -24.4146
  79   2.0000      -0.881885       -23.9973
  80   2.0000      -0.863396       -23.4942
  81   2.0000      -0.856854       -23.3162
  82   2.0000      -0.820467       -22.3260
  83   2.0000      -0.807516       -21.9736
  84   2.0000      -0.799096       -21.7445
  85   2.0000      -0.791565       -21.5396
  86   2.0000      -0.780241       -21.2314
  87   2.0000      -0.770144       -20.9567
  88   2.0000      -0.755775       -20.5657
  89   2.0000      -0.753433       -20.5020
  90   2.0000      -0.739052       -20.1106
  91   2.0000      -0.732854       -19.9420
  92   2.0000      -0.724221       -19.7070
  93   2.0000      -0.719413       -19.5762
  94   2.0000      -0.713610       -19.4183
  95   2.0000      -0.701363       -19.0851
  96   2.0000      -0.672228       -18.2923
  97   2.0000      -0.656654       -17.8685
  98   2.0000      -0.648880       -17.6569
  99   2.0000      -0.634597       -17.2683
 100   2.0000      -0.630207       -17.1488
 101   2.0000      -0.619443       -16.8559
 102   2.0000      -0.613996       -16.7077
 103   2.0000      -0.590844       -16.0777
 104   2.0000      -0.579704       -15.7745
 105   2.0000      -0.571621       -15.5546
 106   2.0000      -0.563553       -15.3351
 107   2.0000      -0.555610       -15.1189
 108   2.0000      -0.549236       -14.9455
 109   2.0000      -0.542545       -14.7634
 110   2.0000      -0.539025       -14.6676
 111   2.0000      -0.521020       -14.1777
 112   2.0000      -0.519597       -14.1390
 113   2.0000      -0.508350       -13.8329
 114   2.0000      -0.506929       -13.7942
 115   2.0000      -0.503443       -13.6994
 116   2.0000      -0.500210       -13.6114
 117   2.0000      -0.497044       -13.5252
 118   2.0000      -0.491685       -13.3794
 119   2.0000      -0.486226       -13.2309
 120   2.0000      -0.481561       -13.1039
 121   2.0000      -0.481137       -13.0924
 122   2.0000      -0.474994       -12.9253
 123   2.0000      -0.466956       -12.7065
 124   2.0000      -0.462269       -12.5790
 125   2.0000      -0.457467       -12.4483
 126   2.0000      -0.450620       -12.2620
 127   2.0000      -0.449105       -12.2208
 128   2.0000      -0.432909       -11.7801
 129   2.0000      -0.431537       -11.7427
 130   2.0000      -0.430944       -11.7266
 131   2.0000      -0.424200       -11.5431
 132   2.0000      -0.422669       -11.5014
 133   2.0000      -0.419759       -11.4222
 134   2.0000      -0.415050       -11.2941
 135   2.0000      -0.414176       -11.2703
 136   2.0000      -0.411437       -11.1958
 137   2.0000      -0.409610       -11.1460
 138   2.0000      -0.406788       -11.0693
 139   2.0000      -0.399241       -10.8639
 140   2.0000      -0.395648       -10.7661
 141   2.0000      -0.392192       -10.6721
 142   2.0000      -0.391509       -10.6535
 143   2.0000      -0.386963       -10.5298
 144   2.0000      -0.382067       -10.3966
 145   2.0000      -0.378969       -10.3123
 146   2.0000      -0.378545       -10.3007
 147   2.0000      -0.372749       -10.1430
 148   2.0000      -0.372044       -10.1238
 149   2.0000      -0.368160       -10.0181
 150   2.0000      -0.364559        -9.9202
 151   2.0000      -0.360758        -9.8167
 152   2.0000      -0.357940        -9.7400
 153   2.0000      -0.343127        -9.3370
 154   2.0000      -0.336437        -9.1549
 155   2.0000      -0.332298        -9.0423
 156   2.0000      -0.324780        -8.8377
 157   2.0000      -0.306284        -8.3344
 158   2.0000      -0.300502        -8.1771
 159   2.0000      -0.297543        -8.0966
 160   2.0000      -0.287867        -7.8333
 161   2.0000      -0.284720        -7.7476
 162   2.0000      -0.282469        -7.6864
 163   2.0000      -0.273569        -7.4442
 164   2.0000      -0.268001        -7.2927
 165   2.0000      -0.266269        -7.2455
 166   2.0000      -0.265371        -7.2211
 167   2.0000      -0.261410        -7.1133
 168   2.0000      -0.247730        -6.7411
 169   2.0000      -0.231629        -6.3029
 170   2.0000      -0.229740        -6.2516
 171   2.0000      -0.222919        -6.0659
 172   2.0000      -0.200883        -5.4663
 173   0.0000      -0.124055        -3.3757
 174   0.0000      -0.095038        -2.5861
 175   0.0000      -0.088754        -2.4151
 176   0.0000      -0.051603        -1.4042
 177   0.0000      -0.043227        -1.1763

MULLIKEN ATOMIC CHARGES
-----------------------
   0 C :    0.029458
   1 C :    0.172946
   2 C :    0.161726
   3 C :    0.141139
   4 C :    0.015012
   5 C :    0.067164
   6 N :   -0.253140
   7 S :    0.351699
   8 N :   -0.279372
   9 O :   -0.309314
  10 O :   -0.370318
  11 C :   -0.192599
  12 C :   -0.147661
  13 C :    0.020260
  14 C :   -0.043869
  15 S :    0.081412
  16 C :    0.196426
  17 C :   -0.142084
  18 C :   -0.222786
  19 C :   -0.223224
  20 C :   -0.109129
  21 C :    0.111794
  22 S :    0.142732
  23 C :   -0.285682
  24 C :    0.024836
  25 C :   -0.283669
  26 C :    0.058191
  27 C :    0.206987
  28 N :   -0.032216
  29 C :    0.089281
  30 S :    0.029380
  31 S :    0.052845
  32 C :    0.088411
  33 N :   -0.021998
  34 C :    0.251019
  35 O :   -0.333352
  36 C :   -0.258894
  37 S :   -0.287000
  38 S :   -0.288177
  39 C :   -0.257289
  40 O :   -0.367149
  41 H :    0.141492
  42 H :    0.129685
  43 H :    0.128541
  44 H :    0.127787
  45 H :    0.122848
  46 H :    0.114970
  47 H :    0.130828
  48 H :    0.139803
  49 H :    0.141924
  50 H :    0.114469
  51 H :    0.146322
  52 H :    0.120377
  53 H :    0.160401
  54 H :    0.134053
  55 H :    0.134034
  56 H :    0.136273
  57 H :    0.135632
  58 H :    0.156770
Sum of atomic charges:   -0.0000000

LOEWDIN ATOMIC CHARGES
----------------------
   0 C :   -0.100208
   1 C :   -0.178209
   2 C :   -0.179098
   3 C :   -0.100007
   4 C :   -0.233940
   5 C :   -0.232686
   6 N :   -0.126607
   7 S :    0.692048
   8 N :   -0.140675
   9 O :    0.257136
  10 O :    0.216258
  11 C :   -0.328747
  12 C :   -0.314281
  13 C :   -0.297675
  14 C :   -0.306059
  15 S :    0.810838
  16 C :   -0.358004
  17 C :   -0.154897
  18 C :   -0.148595
  19 C :   -0.153152
  20 C :   -0.147513
  21 C :   -0.346310
  22 S :    0.852287
  23 C :   -0.128007
  24 C :   -0.346118
  25 C :   -0.128136
  26 C :   -0.345625
  27 C :   -0.407231
  28 N :    0.210516
  29 C :   -0.782041
  30 S :    0.711507
  31 S :    0.712474
  32 C :   -0.787955
  33 N :    0.212425
  34 C :   -0.407719
  35 O :    0.106287
  36 C :   -0.268956
  37 S :    0.249099
  38 S :    0.244925
  39 C :   -0.269165
  40 O :    0.101289
  41 H :    0.114489
  42 H :    0.110857
  43 H :    0.113839
  44 H :    0.111653
  45 H :    0.114349
  46 H :    0.107852
  47 H :    0.137088
  48 H :    0.148929
  49 H :    0.148473
  50 H :    0.143161
  51 H :    0.168320
  52 H :    0.161990
  53 H :    0.133001
  54 H :    0.123345
  55 H :    0.123372
  56 H :    0.124035
  57 H :    0.124145
  58 H :    0.131633

  Mayer bond orders larger than 0.100000
B(  0-C ,  1-C ) :   1.3350 B(  0-C ,  5-C ) :   1.0774 B(  0-C , 13-C ) :   1.1021
B(  0-C , 15-S ) :  -0.1292 B(  1-C ,  2-C ) :   1.3508 B(  1-C ,  9-O ) :   1.1297
B(  2-C ,  3-C ) :   1.3803 B(  2-C , 10-O ) :   0.8871 B(  3-C ,  4-C ) :   1.1005
B(  3-C , 14-C ) :   1.0283 B(  3-C , 22-S ) :  -0.1318 B(  4-C ,  5-C ) :   1.2020
B(  4-C ,  6-N ) :   1.4923 B(  4-C ,  7-S ) :   0.1303 B(  5-C ,  7-S ) :   0.1224
B(  5-C ,  8-N ) :   1.4631 B(  6-N ,  7-S ) :   1.3187 B(  6-N ,  8-N ) :   0.1208
B(  7-S ,  8-N ) :   1.3020 B(  9-O , 12-C ) :   0.9042 B( 10-O , 11-C ) :   0.8916
B( 11-C , 41-H ) :   0.9675 B( 11-C , 42-H ) :   0.9654 B( 11-C , 43-H ) :   0.9749
B( 12-C , 44-H ) :   0.9666 B( 12-C , 45-H ) :   0.9708 B( 12-C , 46-H ) :   0.9700
B( 13-C , 15-S ) :   1.3598 B( 13-C , 18-C ) :   1.4321 B( 14-C , 19-C ) :   1.4046
B( 14-C , 22-S ) :   1.3857 B( 15-S , 16-C ) :   1.2190 B( 15-S , 18-C ) :   0.1009
B( 16-C , 17-C ) :   1.3915 B( 16-C , 23-C ) :   1.0991 B( 17-C , 18-C ) :   1.3903
B( 17-C , 47-H ) :   0.9450 B( 18-C , 48-H ) :   0.9384 B( 19-C , 20-C ) :   1.4211
B( 19-C , 49-H ) :   0.9418 B( 20-C , 21-C ) :   1.3199 B( 20-C , 50-H ) :   0.9623
B( 21-C , 22-S ) :   1.2971 B( 21-C , 25-C ) :   1.1827 B( 23-C , 24-C ) :   1.6033
B( 23-C , 51-H ) :   0.9360 B( 24-C , 27-C ) :   1.0274 B( 24-C , 30-S ) :   1.1109
B( 25-C , 26-C ) :   1.5170 B( 25-C , 52-H ) :   0.9534 B( 26-C , 31-S ) :   1.1154
B( 26-C , 34-C ) :   1.0617 B( 27-C , 28-N ) :   1.1253 B( 27-C , 35-O ) :   2.0215
B( 28-N , 29-C ) :   1.1962 B( 28-N , 36-C ) :   0.8996 B( 29-C , 30-S ) :   1.1947
B( 29-C , 37-S ) :   1.8388 B( 30-S , 37-S ) :   0.1112 B( 31-S , 32-C ) :   1.2087
B( 31-S , 38-S ) :   0.1167 B( 32-C , 33-N ) :   1.1812 B( 32-C , 38-S ) :   1.8366
B( 33-N , 34-C ) :   1.1437 B( 33-N , 39-C ) :   0.8985 B( 34-C , 40-O ) :   1.8616
B( 36-C , 53-H ) :   0.9513 B( 36-C , 54-H ) :   0.9607 B( 36-C , 55-H ) :   0.9605
B( 39-C , 56-H ) :   0.9603 B( 39-C , 57-H ) :   0.9605 B( 39-C , 58-H ) :   0.9521

-----------------------------------------------------------------------------
         ABSORPTION SPECTRUM VIA TRANSITION ELECTRIC DIPOLE MOMENTS
-----------------------------------------------------------------------------
State   Energy    Wavelength  fosc         T2        TX        TY        TZ
        (cm-1)      (nm)                 (au**2)    (au)      (au)      (au)
-----------------------------------------------------------------------------
   1   16090.8    621.5   1.761502457  36.03963   0.64824   5.96818  -0.01607
   2   19242.2    519.7   0.004285058   0.07331  -0.17990  -0.19779   0.04273
   3   19910.9    502.2   0.000059777   0.00099   0.01436   0.02528   0.01195
   4   19924.5    501.9   0.000013479   0.00022  -0.00291  -0.00631  -0.01321
   5   21729.0    460.2   0.611300781   9.26170   0.78269   2.93658  -0.16007
   6   23812.6    419.9   0.277868450   3.84156  -1.28645   1.44437   0.31683
   7   24524.5    407.8   0.000074379   0.00100   0.00991  -0.01914  -0.02311
   8   24765.5    403.8   0.000966482   0.01285  -0.02962   0.09963  -0.04521
   9   24954.9    400.7   0.000528797   0.00698  -0.07347   0.01317   0.03749
  10   26707.2    374.4   0.159912344   1.97119   0.75461   1.17661  -0.13167
  11   27181.9    367.9   0.273673775   3.31458   1.25381   1.30324  -0.21002
  12   27604.1    362.3   0.120450654   1.43652  -0.95620   0.67175   0.26637
  13   27809.8    359.6   0.145619454   1.72384  -0.08107   1.30810   0.07838
  14   28144.4    355.3   0.040839387   0.47771   0.41517  -0.55222   0.02003
  15   28501.6    350.9   0.033900853   0.39158   0.39753   0.48310   0.01248
  16   28566.8    350.1   0.000451482   0.00520   0.04781   0.05386  -0.00404
  17   28870.7    346.4   0.042703069   0.48694  -0.54111  -0.42820   0.10386
  18   29453.2    339.5   0.000163753   0.00183   0.01300  -0.03963   0.00954
  19   30205.0    331.1   0.055195889   0.60159   0.76618   0.08398  -0.08661
  20   30785.6    324.8   0.030180400   0.32274  -0.23287   0.50878   0.09828
  21   31046.0    322.1   0.017571717   0.18633  -0.04172   0.41689   0.10390
  22   31105.5    321.5   0.062657852   0.66315  -0.37530   0.70785   0.14580
  23   31458.8    317.9   0.003732957   0.03906  -0.19746   0.00829  -0.00237
  24   31835.8    314.1   0.003362148   0.03477   0.02471   0.18006   0.04164
  25   32300.2    309.6   0.000286816   0.00292  -0.04367  -0.01477  -0.02824
  26   32422.5    308.4   0.009733382   0.09883   0.17195   0.26143  -0.03035
  27   32829.3    304.6   0.008205065   0.08228   0.28136  -0.05320  -0.01695
  28   33207.3    301.1   0.006886664   0.06827   0.02243   0.25749   0.03832
  29   33236.7    300.9   0.006494422   0.06433   0.02335   0.25214  -0.01443
  30   33797.8    295.9   0.005986963   0.05832  -0.23017   0.05136   0.05196
  31   34124.7    293.0   0.002460914   0.02374  -0.15326   0.00403   0.01536
  32   34261.7    291.9   0.017014728   0.16349  -0.28833  -0.27553   0.06661
  33   34576.0    289.2   0.039256498   0.37378  -0.28562  -0.54021  -0.01922
  34   34942.7    286.2   0.072326757   0.68143  -0.56912   0.59394   0.06908
  35   35045.6    285.3   0.029597509   0.27803   0.15601   0.50211  -0.03980
  36   35091.2    285.0   0.007237451   0.06790   0.14415   0.21398  -0.03651
  37   35522.0    281.5   0.005802386   0.05378  -0.01495  -0.23070  -0.01811
  38   35547.5    281.3   0.002621776   0.02428  -0.00238  -0.15459  -0.01940
  39   35583.4    281.0   0.018238058   0.16874  -0.40228   0.01153   0.08229
  40   35721.8    279.9   0.006144054   0.05662   0.20111  -0.12660   0.01228
  41   36141.0    276.7   0.010523140   0.09586  -0.09162  -0.29060   0.05491
  42   36453.1    274.3   0.059872205   0.54071  -0.45192  -0.57919  -0.03190
  43   36613.0    273.1   0.001871895   0.01683   0.00384   0.12888   0.01442
  44   36733.3    272.2   0.014099139   0.12636  -0.04471  -0.33311  -0.11575
  45   37077.9    269.7   0.002189567   0.01944  -0.05518  -0.12774   0.00891
  46   37281.5    268.2   0.024076985   0.21261  -0.26250  -0.37472   0.05733
  47   37575.1    266.1   0.002660434   0.02331   0.09997   0.11516   0.00734
  48   37847.1    264.2   0.001629225   0.01417  -0.10207  -0.04560   0.04090
  49   38059.1    262.7   0.000289739   0.00251  -0.04779   0.00559  -0.01382
  50   38207.8    261.7   0.035163662   0.30298  -0.54888   0.04137   0.00253

FINAL SINGLE POINT ENERGY     -4308.208498248514

DIPOLE MOMENT
-------------
                                X             Y             Z
Electronic contribution:    -16.53494      -7.04861      -0.95512
Nuclear contribution   :     18.67940       5.83881       0.74908
                        -----------------------------------------
Total Dipole Moment    :      2.14446      -1.20980      -0.20604
                        -----------------------------------------
Magnitude (a.u.)       :      2.47078
Magnitude (Debye)      :      6.28023

Rotational constants in cm-1:     0.005295     0.000627     0.000564
Rotational constants in MHz :   158.741716    18.790646    16.898589

                             ****ORCA TERMINATED NORMALLY****
TOTAL RUN TIME: 0 days 6 hours 44 minutes 17 seconds 399 msec
