                         Program Version 4.2.0 -  RELEASE  -
|  1> # ORCA input file
|  2> # BTSe-4F.out
|  3> ! B3LYP def2-TZVP def2/J RIJCOSX Grid4 TightSCF
|  4>
|  5> %maxcore 6000
|  6> %tddft
|  7>   maxdim 5
|  8>   nroots 50
|  9>   end
| 10> %pal
| 11>   nprocs 6
| 12>   end
| 13>
| 14>
| 15> * xyz 0 1
| 16>    C        0.85050        -0.50188         0.10754
| 17>    C        1.47105         0.76645        -0.00263
| 18>    C        2.96576         0.80370        -0.02309
| 19>    C        3.63020        -0.44233         0.11639
| 20>    C        2.97160        -1.66698         0.22818
| 21>    C        1.55656        -1.69784         0.21199
| 22>    N        3.58935        -2.87051         0.33562
| 23>    S        2.30886        -3.91663         0.40696
| 24>    N        0.98749        -2.92591         0.30996
| 25>    N        3.97037         1.78052        -0.16273
| 26>    C        5.18140         1.12173        -0.09877
| 27>    C        4.98002        -0.20031         0.09296
| 28>    C       -0.51363        -0.31507         0.08715
| 29>    C       -0.75145         0.98675         0.00183
| 30>    N        0.43170         1.69786        -0.06596
| 31>   Se       -1.96741        -1.36379         0.13875
| 32>    C       -3.00423         0.18950         0.10481
| 33>    C       -2.13338         1.32370         0.00026
| 34>    C        6.59103         1.42644        -0.22359
| 35>    C        7.37286         0.30065        -0.06277
| 36>    S        6.41649        -1.09084         0.18447
| 37>    S        7.69512         2.68177        -0.61727
| 38>    C        9.19275         1.78014        -0.53230
| 39>    C        8.76892         0.44467        -0.23686
| 40>    C        0.47770         3.14857        -0.16867
| 41>    C        3.91612         3.22240        -0.35469
| 42>    C       -4.57214         0.25783         0.06024
| 43>    C       -5.50580        -0.77359         0.20630
| 44>    C       10.40784         1.88652        -1.45126
| 45>    C       11.80342         1.77537        -1.32286
| 46>    C       -5.16634        -2.16723         0.60674
| 47>    C       -6.26292        -3.05043         0.35154
| 48>    C       -7.36599        -2.32999        -0.03938
| 49>    C       -7.06264        -0.83203         0.02305
| 50>    C       12.34823         0.78789        -2.32365
| 51>    C       13.32072        -0.04352        -1.59829
| 52>    C       13.66832         0.59144        -0.44073
| 53>    C       13.00877         1.88900        -0.36640
| 54>    C       -6.24999        -4.44765         0.44198
| 55>    C       -7.39679        -5.15668         0.08025
| 56>    C       -8.52265        -4.46522        -0.37478
| 57>    C       -8.51395        -3.06469        -0.43988
| 58>    C       13.80959        -1.32458        -1.87905
| 59>    C       14.63212        -1.95682        -0.92151
| 60>    C       14.96327        -1.29954         0.27983
| 61>    C       14.49271        -0.00539         0.51865
| 62>    O       -4.15875        -2.55479         1.16110
| 63>    C       -8.07607         0.14102        -0.03636
| 64>    C       -7.80643         1.63690        -0.03189
| 65>    C       -9.50634        -0.37340        -0.04702
| 66>    F       -7.40848        -6.51136         0.14038
| 67>    F       -9.62724        -5.15083        -0.76375
| 68>    O       11.82781         0.44327        -3.37525
| 69>    C       13.70330         3.02265         0.06162
| 70>    C       13.07019         4.40452         0.05739
| 71>    C       15.21654         2.88001         0.07322
| 72>    F       15.71682        -1.92237         1.22097
| 73>    F       15.08029        -3.21733        -1.13810
| 74>    N      -10.69286        -0.80014        -0.05585
| 75>    N       -7.58275         2.87786        -0.02818
| 76>    N       16.47191         2.76168         0.08284
| 77>    N       12.54498         5.55089         0.05388
| 78>    C        9.64461        -0.78121        -0.26490
| 79>    H       -2.50412         2.33644        -0.06974
| 80>    H       -0.54285         3.58208        -0.16059
| 81>    H        0.93495         3.43705        -1.13559
| 82>    H        1.01365         3.56572         0.70879
| 83>    H        2.90662         3.60617        -0.37977
| 84>    H        4.44785         3.72350         0.48128
| 85>    H        4.41060         3.48860        -1.31183
| 86>    H       -4.97641         1.23207        -0.18923
| 87>    H       10.02678         1.58556        -2.42376
| 88>    H       -5.36286        -4.97761         0.76326
| 89>    H       -9.40465        -2.62938        -0.83349
| 90>    H       13.52629        -1.84175        -2.78416
| 91>    H       14.71980         0.49992         1.45113
| 92>    H       10.70795        -0.54501        -0.44377
| 93>    H        9.30037        -1.46416        -1.07223
| 94>    H        9.57409        -1.31327         0.70588
| 95> *
| 96>
| 97>                          ****END OF INPUT****

CARTESIAN COORDINATES (ANGSTROEM)
---------------------------------
  C      0.850500   -0.501880    0.107540
  C      1.471050    0.766450   -0.002630
  C      2.965760    0.803700   -0.023090
  C      3.630200   -0.442330    0.116390
  C      2.971600   -1.666980    0.228180
  C      1.556560   -1.697840    0.211990
  N      3.589350   -2.870510    0.335620
  S      2.308860   -3.916630    0.406960
  N      0.987490   -2.925910    0.309960
  N      3.970370    1.780520   -0.162730
  C      5.181400    1.121730   -0.098770
  C      4.980020   -0.200310    0.092960
  C     -0.513630   -0.315070    0.087150
  C     -0.751450    0.986750    0.001830
  N      0.431700    1.697860   -0.065960
  Se    -1.967410   -1.363790    0.138750
  C     -3.004230    0.189500    0.104810
  C     -2.133380    1.323700    0.000260
  C      6.591030    1.426440   -0.223590
  C      7.372860    0.300650   -0.062770
  S      6.416490   -1.090840    0.184470
  S      7.695120    2.681770   -0.617270
  C      9.192750    1.780140   -0.532300
  C      8.768920    0.444670   -0.236860
  C      0.477700    3.148570   -0.168670
  C      3.916120    3.222400   -0.354690
  C     -4.572140    0.257830    0.060240
  C     -5.505800   -0.773590    0.206300
  C     10.407840    1.886520   -1.451260
  C     11.803420    1.775370   -1.322860
  C     -5.166340   -2.167230    0.606740
  C     -6.262920   -3.050430    0.351540
  C     -7.365990   -2.329990   -0.039380
  C     -7.062640   -0.832030    0.023050
  C     12.348230    0.787890   -2.323650
  C     13.320720   -0.043520   -1.598290
  C     13.668320    0.591440   -0.440730
  C     13.008770    1.889000   -0.366400
  C     -6.249990   -4.447650    0.441980
  C     -7.396790   -5.156680    0.080250
  C     -8.522650   -4.465220   -0.374780
  C     -8.513950   -3.064690   -0.439880
  C     13.809590   -1.324580   -1.879050
  C     14.632120   -1.956820   -0.921510
  C     14.963270   -1.299540    0.279830
  C     14.492710   -0.005390    0.518650
  O     -4.158750   -2.554790    1.161100
  C     -8.076070    0.141020   -0.036360
  C     -7.806430    1.636900   -0.031890
  C     -9.506340   -0.373400   -0.047020
  F     -7.408480   -6.511360    0.140380
  F     -9.627240   -5.150830   -0.763750
  O     11.827810    0.443270   -3.375250
  C     13.703300    3.022650    0.061620
  C     13.070190    4.404520    0.057390
  C     15.216540    2.880010    0.073220
  F     15.716820   -1.922370    1.220970
  F     15.080290   -3.217330   -1.138100
  N    -10.692860   -0.800140   -0.055850
  N     -7.582750    2.877860   -0.028180
  N     16.471910    2.761680    0.082840
  N     12.544980    5.550890    0.053880
  C      9.644610   -0.781210   -0.264900
  H     -2.504120    2.336440   -0.069740
  H     -0.542850    3.582080   -0.160590
  H      0.934950    3.437050   -1.135590
  H      1.013650    3.565720    0.708790
  H      2.906620    3.606170   -0.379770
  H      4.447850    3.723500    0.481280
  H      4.410600    3.488600   -1.311830
  H     -4.976410    1.232070   -0.189230
  H     10.026780    1.585560   -2.423760
  H     -5.362860   -4.977610    0.763260
  H     -9.404650   -2.629380   -0.833490
  H     13.526290   -1.841750   -2.784160
  H     14.719800    0.499920    1.451130
  H     10.707950   -0.545010   -0.443770
  H      9.300370   -1.464160   -1.072230
  H      9.574090   -1.313270    0.705880

 Total Charge           Charge          ....    0
 Multiplicity           Mult            ....    1
 Number of Electrons    NEL             ....  476
 Basis Dimension        Dim             .... 2084

ORBITAL ENERGIES
----------------

  NO   OCC          E(Eh)            E(eV)
   0   2.0000    -453.923660    -12351.8908
   1   2.0000     -88.943236     -2420.2685
   2   2.0000     -88.911478     -2419.4043
   3   2.0000     -88.898667     -2419.0557
   4   2.0000     -58.106530     -1581.1591
   5   2.0000     -52.158830     -1419.3139
   6   2.0000     -52.157939     -1419.2897
   7   2.0000     -52.157362     -1419.2740
   8   2.0000     -24.739342      -673.1917
   9   2.0000     -24.738767      -673.1761
  10   2.0000     -24.725757      -672.8221
  11   2.0000     -24.725242      -672.8080
  12   2.0000     -19.154196      -521.2122
  13   2.0000     -19.137189      -520.7494
  14   2.0000     -14.412508      -392.1843
  15   2.0000     -14.406608      -392.0237
  16   2.0000     -14.373919      -391.1342
  17   2.0000     -14.373423      -391.1207
  18   2.0000     -14.369412      -391.0116
  19   2.0000     -14.365669      -390.9097
  20   2.0000     -14.365346      -390.9009
  21   2.0000     -14.364542      -390.8791
  22   2.0000     -10.324110      -280.9333
  23   2.0000     -10.323621      -280.9200
  24   2.0000     -10.309776      -280.5433
  25   2.0000     -10.308149      -280.4990
  26   2.0000     -10.306366      -280.4505
  27   2.0000     -10.305834      -280.4360
  28   2.0000     -10.299145      -280.2540
  29   2.0000     -10.293543      -280.1016
  30   2.0000     -10.288325      -279.9595
  31   2.0000     -10.282442      -279.7995
  32   2.0000     -10.278128      -279.6821
  33   2.0000     -10.276455      -279.6365
  34   2.0000     -10.274018      -279.5702
  35   2.0000     -10.271527      -279.5024
  36   2.0000     -10.269767      -279.4546
  37   2.0000     -10.268296      -279.4145
  38   2.0000     -10.268180      -279.4114
  39   2.0000     -10.268002      -279.4065
  40   2.0000     -10.259107      -279.1645
  41   2.0000     -10.258974      -279.1609
  42   2.0000     -10.253108      -279.0012
  43   2.0000     -10.252246      -278.9778
  44   2.0000     -10.249764      -278.9103
  45   2.0000     -10.248238      -278.8687
  46   2.0000     -10.246295      -278.8159
  47   2.0000     -10.244786      -278.7748
  48   2.0000     -10.243785      -278.7476
  49   2.0000     -10.243461      -278.7387
  50   2.0000     -10.242327      -278.7079
  51   2.0000     -10.240878      -278.6685
  52   2.0000     -10.238238      -278.5966
  53   2.0000     -10.237364      -278.5728
  54   2.0000     -10.235933      -278.5339
  55   2.0000     -10.231400      -278.4106
  56   2.0000     -10.229241      -278.3518
  57   2.0000     -10.226448      -278.2758
  58   2.0000     -10.225879      -278.2603
  59   2.0000     -10.223837      -278.2047
  60   2.0000     -10.221843      -278.1505
  61   2.0000     -10.217529      -278.0331
  62   2.0000     -10.214311      -277.9455
  63   2.0000     -10.207856      -277.7699
  64   2.0000     -10.203161      -277.6421
  65   2.0000     -10.202311      -277.6190
  66   2.0000     -10.202249      -277.6173
  67   2.0000      -8.013800      -218.0666
  68   2.0000      -7.987111      -217.3403
  69   2.0000      -7.976148      -217.0420
  70   2.0000      -7.845645      -213.4909
  71   2.0000      -5.977973      -162.6689
  72   2.0000      -5.971529      -162.4936
  73   2.0000      -5.970660      -162.4699
  74   2.0000      -5.949718      -161.9001
  75   2.0000      -5.946037      -161.7999
  76   2.0000      -5.943463      -161.7299
  77   2.0000      -5.938914      -161.6061
  78   2.0000      -5.934992      -161.4993
  79   2.0000      -5.932089      -161.4203
  80   2.0000      -5.789601      -157.5431
  81   2.0000      -5.785773      -157.4389
  82   2.0000      -5.782286      -157.3440
  83   2.0000      -2.143174       -58.3187
  84   2.0000      -2.142544       -58.3016
  85   2.0000      -2.138792       -58.1995
  86   2.0000      -2.135648       -58.1139
  87   2.0000      -2.135551       -58.1113
  88   2.0000      -1.274118       -34.6705
  89   2.0000      -1.262183       -34.3457
  90   2.0000      -1.260907       -34.3110
  91   2.0000      -1.248631       -33.9770
  92   2.0000      -1.079885       -29.3852
  93   2.0000      -1.072797       -29.1923
  94   2.0000      -1.037543       -28.2330
  95   2.0000      -1.027881       -27.9701
  96   2.0000      -1.019240       -27.7349
  97   2.0000      -0.955510       -26.0007
  98   2.0000      -0.938886       -25.5484
  99   2.0000      -0.929491       -25.2927
 100   2.0000      -0.909931       -24.7605
 101   2.0000      -0.904879       -24.6230
 102   2.0000      -0.902890       -24.5689
 103   2.0000      -0.895815       -24.3764
 104   2.0000      -0.893678       -24.3182
 105   2.0000      -0.891799       -24.2671
 106   2.0000      -0.887915       -24.1614
 107   2.0000      -0.883334       -24.0367
 108   2.0000      -0.871250       -23.7079
 109   2.0000      -0.868293       -23.6275
 110   2.0000      -0.838885       -22.8272
 111   2.0000      -0.832568       -22.6553
 112   2.0000      -0.820659       -22.3313
 113   2.0000      -0.817042       -22.2329
 114   2.0000      -0.808545       -22.0016
 115   2.0000      -0.807811       -21.9817
 116   2.0000      -0.801064       -21.7981
 117   2.0000      -0.794143       -21.6097
 118   2.0000      -0.793172       -21.5833
 119   2.0000      -0.770193       -20.9580
 120   2.0000      -0.758745       -20.6465
 121   2.0000      -0.754692       -20.5362
 122   2.0000      -0.741050       -20.1650
 123   2.0000      -0.730184       -19.8693
 124   2.0000      -0.719156       -19.5692
 125   2.0000      -0.714042       -19.4301
 126   2.0000      -0.708710       -19.2850
 127   2.0000      -0.705319       -19.1927
 128   2.0000      -0.692392       -18.8410
 129   2.0000      -0.691044       -18.8043
 130   2.0000      -0.673441       -18.3253
 131   2.0000      -0.658727       -17.9249
 132   2.0000      -0.652022       -17.7424
 133   2.0000      -0.646598       -17.5948
 134   2.0000      -0.639543       -17.4029
 135   2.0000      -0.632870       -17.2213
 136   2.0000      -0.629014       -17.1164
 137   2.0000      -0.622477       -16.9385
 138   2.0000      -0.613096       -16.6832
 139   2.0000      -0.603618       -16.4253
 140   2.0000      -0.596457       -16.2304
 141   2.0000      -0.592708       -16.1284
 142   2.0000      -0.588850       -16.0234
 143   2.0000      -0.584859       -15.9148
 144   2.0000      -0.583133       -15.8679
 145   2.0000      -0.574949       -15.6452
 146   2.0000      -0.571376       -15.5479
 147   2.0000      -0.561107       -15.2685
 148   2.0000      -0.557238       -15.1632
 149   2.0000      -0.551872       -15.0172
 150   2.0000      -0.547960       -14.9107
 151   2.0000      -0.542768       -14.7695
 152   2.0000      -0.537496       -14.6260
 153   2.0000      -0.529079       -14.3970
 154   2.0000      -0.528492       -14.3810
 155   2.0000      -0.527749       -14.3608
 156   2.0000      -0.521152       -14.1813
 157   2.0000      -0.518973       -14.1220
 158   2.0000      -0.517431       -14.0800
 159   2.0000      -0.515585       -14.0298
 160   2.0000      -0.512378       -13.9425
 161   2.0000      -0.507410       -13.8073
 162   2.0000      -0.505106       -13.7446
 163   2.0000      -0.497979       -13.5507
 164   2.0000      -0.494795       -13.4641
 165   2.0000      -0.493308       -13.4236
 166   2.0000      -0.485605       -13.2140
 167   2.0000      -0.481805       -13.1106
 168   2.0000      -0.481446       -13.1008
 169   2.0000      -0.479958       -13.0603
 170   2.0000      -0.477046       -12.9811
 171   2.0000      -0.473567       -12.8864
 172   2.0000      -0.469960       -12.7883
 173   2.0000      -0.468642       -12.7524
 174   2.0000      -0.464336       -12.6352
 175   2.0000      -0.462803       -12.5935
 176   2.0000      -0.460294       -12.5252
 177   2.0000      -0.458292       -12.4707
 178   2.0000      -0.453454       -12.3391
 179   2.0000      -0.449760       -12.2386
 180   2.0000      -0.447487       -12.1767
 181   2.0000      -0.446169       -12.1409
 182   2.0000      -0.442055       -12.0289
 183   2.0000      -0.440482       -11.9861
 184   2.0000      -0.438447       -11.9307
 185   2.0000      -0.436721       -11.8838
 186   2.0000      -0.432534       -11.7698
 187   2.0000      -0.430588       -11.7169
 188   2.0000      -0.428243       -11.6531
 189   2.0000      -0.421852       -11.4792
 190   2.0000      -0.421091       -11.4585
 191   2.0000      -0.418226       -11.3805
 192   2.0000      -0.415757       -11.3133
 193   2.0000      -0.412417       -11.2224
 194   2.0000      -0.411473       -11.1968
 195   2.0000      -0.407780       -11.0963
 196   2.0000      -0.403687       -10.9849
 197   2.0000      -0.403588       -10.9822
 198   2.0000      -0.402638       -10.9563
 199   2.0000      -0.401014       -10.9121
 200   2.0000      -0.399603       -10.8737
 201   2.0000      -0.397066       -10.8047
 202   2.0000      -0.395124       -10.7519
 203   2.0000      -0.389886       -10.6093
 204   2.0000      -0.385851       -10.4995
 205   2.0000      -0.378816       -10.3081
 206   2.0000      -0.373919       -10.1748
 207   2.0000      -0.373104       -10.1527
 208   2.0000      -0.357212        -9.7202
 209   2.0000      -0.354836        -9.6556
 210   2.0000      -0.352949        -9.6042
 211   2.0000      -0.351251        -9.5580
 212   2.0000      -0.349416        -9.5081
 213   2.0000      -0.348493        -9.4830
 214   2.0000      -0.348046        -9.4708
 215   2.0000      -0.347343        -9.4517
 216   2.0000      -0.343361        -9.3433
 217   2.0000      -0.342485        -9.3195
 218   2.0000      -0.341068        -9.2809
 219   2.0000      -0.340234        -9.2582
 220   2.0000      -0.337896        -9.1946
 221   2.0000      -0.334164        -9.0931
 222   2.0000      -0.323772        -8.8103
 223   2.0000      -0.310822        -8.4579
 224   2.0000      -0.309234        -8.4147
 225   2.0000      -0.307088        -8.3563
 226   2.0000      -0.297478        -8.0948
 227   2.0000      -0.293982        -7.9997
 228   2.0000      -0.289749        -7.8845
 229   2.0000      -0.284729        -7.7479
 230   2.0000      -0.282817        -7.6958
 231   2.0000      -0.281362        -7.6562
 232   2.0000      -0.274285        -7.4637
 233   2.0000      -0.264709        -7.2031
 234   2.0000      -0.253662        -6.9025
 235   2.0000      -0.238394        -6.4870
 236   2.0000      -0.227611        -6.1936
 237   2.0000      -0.214971        -5.8497
 238   0.0000      -0.141391        -3.8475
 239   0.0000      -0.135883        -3.6976
 240   0.0000      -0.127530        -3.4703
 241   0.0000      -0.113678        -3.0933
 242   0.0000      -0.094874        -2.5816

MULLIKEN ATOMIC CHARGES
-----------------------
   0 C :    0.110966
   1 C :   -0.051213
   2 C :   -0.032924
   3 C :    0.187578
   4 C :    0.020521
   5 C :    0.018150
   6 N :   -0.271644
   7 S :    0.319835
   8 N :   -0.278664
   9 N :   -0.082811
  10 C :    0.331220
  11 C :   -0.173136
  12 C :   -0.171678
  13 C :    0.230962
  14 N :   -0.070788
  15 Se:    0.314990
  16 C :    0.034047
  17 C :   -0.282523
  18 C :   -0.216654
  19 C :    0.070382
  20 S :    0.014716
  21 S :    0.028917
  22 C :   -0.008516
  23 C :   -0.048362
  24 C :   -0.342942
  25 C :   -0.300641
  26 C :   -0.236090
  27 C :   -0.040879
  28 C :   -0.075540
  29 C :   -0.080970
  30 C :    0.221478
  31 C :    0.093066
  32 C :    0.104916
  33 C :    0.006126
  34 C :    0.220324
  35 C :   -0.037066
  36 C :    0.185730
  37 C :    0.065499
  38 C :   -0.313149
  39 C :    0.295642
  40 C :    0.243436
  41 C :   -0.239719
  42 C :   -0.253292
  43 C :    0.269908
  44 C :    0.282604
  45 C :   -0.259383
  46 O :   -0.323646
  47 C :    0.197689
  48 C :   -0.077215
  49 C :   -0.069567
  50 F :   -0.182529
  51 F :   -0.178433
  52 O :   -0.295892
  53 C :    0.138197
  54 C :   -0.071630
  55 C :   -0.076280
  56 F :   -0.174433
  57 F :   -0.175943
  58 N :   -0.139321
  59 N :   -0.136646
  60 N :   -0.121269
  61 N :   -0.120520
  62 C :   -0.373591
  63 H :    0.119685
  64 H :    0.155935
  65 H :    0.144807
  66 H :    0.148343
  67 H :    0.147890
  68 H :    0.148108
  69 H :    0.145335
  70 H :    0.160442
  71 H :    0.172813
  72 H :    0.156029
  73 H :    0.158428
  74 H :    0.161600
  75 H :    0.156916
  76 H :    0.130916
  77 H :    0.134280
  78 H :    0.137072
Sum of atomic charges:   -0.0000000

LOEWDIN ATOMIC CHARGES
----------------------
   0 C :   -0.109159
   1 C :   -0.064315
   2 C :   -0.067378
   3 C :   -0.110267
   4 C :   -0.244004
   5 C :   -0.243812
   6 N :   -0.118995
   7 S :    0.646245
   8 N :   -0.117717
   9 N :    0.263877
  10 C :   -0.178240
  11 C :   -0.332715
  12 C :   -0.319980
  13 C :   -0.206361
  14 N :    0.263636
  15 Se:    0.779069
  16 C :   -0.284790
  17 C :   -0.120117
  18 C :   -0.346840
  19 C :   -0.380099
  20 S :    0.795293
  21 S :    0.734556
  22 C :   -0.330668
  23 C :   -0.184553
  24 C :   -0.269143
  25 C :   -0.262473
  26 C :   -0.031033
  27 C :   -0.070150
  28 C :   -0.025190
  29 C :   -0.036708
  30 C :   -0.283380
  31 C :   -0.085572
  32 C :   -0.038181
  33 C :    0.047658
  34 C :   -0.243684
  35 C :   -0.076490
  36 C :   -0.076392
  37 C :    0.022566
  38 C :   -0.032142
  39 C :   -0.205715
  40 C :   -0.203256
  41 C :   -0.045749
  42 C :   -0.029444
  43 C :   -0.194971
  44 C :   -0.194334
  45 C :   -0.035487
  46 O :    0.149872
  47 C :   -0.133545
  48 C :   -0.093049
  49 C :   -0.091825
  50 F :    0.193361
  51 F :    0.195345
  52 O :    0.138737
  53 C :   -0.115375
  54 C :   -0.086609
  55 C :   -0.093514
  56 F :    0.198316
  57 F :    0.197319
  58 N :    0.027725
  59 N :    0.028313
  60 N :    0.039513
  61 N :    0.044497
  62 C :   -0.255710
  63 H :    0.139809
  64 H :    0.134358
  65 H :    0.123080
  66 H :    0.124879
  67 H :    0.118672
  68 H :    0.130650
  69 H :    0.129359
  70 H :    0.157055
  71 H :    0.175931
  72 H :    0.165846
  73 H :    0.162589
  74 H :    0.164875
  75 H :    0.168064
  76 H :    0.131995
  77 H :    0.138789
  78 H :    0.137283

  Mayer bond orders larger than 0.100000
B(  0-C ,  1-C ) :   1.2561 B(  0-C ,  5-C ) :   1.0661 B(  0-C , 12-C ) :   1.2744
B(  1-C ,  2-C ) :   1.2277 B(  1-C , 14-N ) :   1.2516 B(  2-C ,  3-C ) :   1.2343
B(  2-C ,  9-N ) :   1.2371 B(  3-C ,  4-C ) :   1.0908 B(  3-C , 11-C ) :   1.1665
B(  4-C ,  5-C ) :   1.2420 B(  4-C ,  6-N ) :   1.5168 B(  4-C ,  7-S ) :   0.1081
B(  5-C ,  7-S ) :   0.1107 B(  5-C ,  8-N ) :   1.4895 B(  6-N ,  7-S ) :   1.2934
B(  6-N ,  8-N ) :   0.1420 B(  7-S ,  8-N ) :   1.2894 B(  9-N , 10-C ) :   1.1147
B(  9-N , 25-C ) :   0.9106 B( 10-C , 11-C ) :   1.3243 B( 10-C , 18-C ) :   1.0408
B( 11-C , 20-S ) :   1.3941 B( 12-C , 13-C ) :   1.3266 B( 12-C , 15-Se) :   1.3105
B( 13-C , 14-N ) :   1.0989 B( 13-C , 17-C ) :   1.2522 B( 14-N , 24-C ) :   0.9148
B( 15-Se, 16-C ) :   1.1874 B( 15-Se, 17-C ) :   0.1348 B( 16-C , 17-C ) :   1.4600
B( 16-C , 26-C ) :   1.1325 B( 17-C , 63-H ) :   0.9531 B( 18-C , 19-C ) :   1.4071
B( 18-C , 20-S ) :   0.1240 B( 18-C , 21-S ) :   1.3314 B( 19-C , 20-S ) :   1.1770
B( 19-C , 23-C ) :   1.1756 B( 21-S , 22-C ) :   1.2029 B( 22-C , 23-C ) :   1.5456
B( 22-C , 28-C ) :   0.9928 B( 23-C , 62-C ) :   0.9334 B( 24-C , 64-H ) :   0.9671
B( 24-C , 65-H ) :   0.9590 B( 24-C , 66-H ) :   0.9606 B( 25-C , 67-H ) :   0.9623
B( 25-C , 68-H ) :   0.9612 B( 25-C , 69-H ) :   0.9595 B( 26-C , 27-C ) :   1.5399
B( 26-C , 70-H ) :   0.9333 B( 27-C , 30-C ) :   1.0166 B( 27-C , 33-C ) :   1.0854
B( 28-C , 29-C ) :   1.6854 B( 28-C , 71-H ) :   0.9195 B( 29-C , 34-C ) :   0.9883
B( 29-C , 37-C ) :   1.0372 B( 30-C , 31-C ) :   1.0204 B( 30-C , 46-O ) :   2.0085
B( 31-C , 32-C ) :   1.3289 B( 31-C , 38-C ) :   1.2881 B( 31-C , 46-O ) :  -0.1644
B( 32-C , 33-C ) :   0.9782 B( 32-C , 41-C ) :   1.2639 B( 33-C , 47-C ) :   1.5246
B( 34-C , 35-C ) :   0.9710 B( 34-C , 52-O ) :   2.0483 B( 35-C , 36-C ) :   1.2559
B( 35-C , 42-C ) :   1.3005 B( 35-C , 52-O ) :  -0.1076 B( 36-C , 37-C ) :   0.9543
B( 36-C , 45-C ) :   1.2619 B( 37-C , 53-C ) :   1.5508 B( 38-C , 39-C ) :   1.3685
B( 38-C , 72-H ) :   0.9711 B( 39-C , 40-C ) :   1.3231 B( 39-C , 50-F ) :   1.0627
B( 40-C , 41-C ) :   1.4028 B( 40-C , 51-F ) :   1.0824 B( 41-C , 73-H ) :   0.9474
B( 42-C , 43-C ) :   1.3724 B( 42-C , 74-H ) :   0.9717 B( 43-C , 44-C ) :   1.3195
B( 43-C , 57-F ) :   1.0676 B( 44-C , 45-C ) :   1.3778 B( 44-C , 56-F ) :   1.0734
B( 45-C , 75-H ) :   0.9692 B( 47-C , 48-C ) :   0.9619 B( 47-C , 49-C ) :   0.9603
B( 48-C , 59-N ) :   2.9596 B( 49-C , 58-N ) :   2.9213 B( 53-C , 54-C ) :   1.0083
B( 53-C , 55-C ) :   0.9721 B( 54-C , 61-N ) :   2.9542 B( 55-C , 60-N ) :   2.9413
B( 62-C , 76-H ) :   0.9899 B( 62-C , 77-H ) :   0.9493 B( 62-C , 78-H ) :   0.9690

-----------------------------------------------------------------------------
         ABSORPTION SPECTRUM VIA TRANSITION ELECTRIC DIPOLE MOMENTS
-----------------------------------------------------------------------------
State   Energy    Wavelength  fosc         T2        TX        TY        TZ
        (cm-1)      (nm)                 (au**2)    (au)      (au)      (au)
-----------------------------------------------------------------------------
   1   13498.9    740.8   0.136668657   3.33307   1.80449   0.26477  -0.08239
   2   15952.4    626.9   0.543117331  11.20838   3.31689   0.43910  -0.11754
   3   16221.6    616.5   0.249513014   5.06378  -2.21567  -0.39210  -0.02897
   4   16466.0    607.3   0.047310453   0.94590   0.97175   0.00637   0.03953
   5   17076.8    585.6   0.227002361   4.37623  -2.08706   0.14271  -0.00602
   6   18676.3    535.4   0.013086902   0.23069   0.46045   0.12673  -0.05112
   7   19194.8    521.0   0.004453699   0.07639   0.26348   0.06351  -0.05416
   8   19650.4    508.9   0.464559440   7.78298   2.71624   0.62909  -0.09637
   9   19806.0    504.9   0.043336794   0.72034  -0.83509  -0.15141   0.00635
  10   21220.2    471.2   0.004245936   0.06587  -0.17897   0.18236   0.02429
  11   21469.9    465.8   0.003300990   0.05062   0.21275   0.01733  -0.07110
  12   21810.0    458.5   0.000152866   0.00231  -0.00422   0.04036   0.02571
  13   22623.2    442.0   0.164707345   2.39682   1.51232   0.32938  -0.03502
  14   23656.5    422.7   0.114975007   1.60003   1.26040   0.10616   0.01276
  15   24289.7    411.7   0.000501536   0.00680  -0.06385  -0.01546   0.04982
  16   24437.2    409.2   0.021347971   0.28759   0.51919  -0.12950   0.03556
  17   24573.6    406.9   0.015663890   0.20985   0.45060   0.08203  -0.00900
  18   25347.2    394.5   0.136886059   1.77789  -1.33249  -0.04788   0.00768
  19   26435.7    378.3   0.008025792   0.09995  -0.18809  -0.22587   0.11642
  20   26629.7    375.5   0.076135842   0.94123  -0.62199   0.74318  -0.04518
  21   26924.4    371.4   0.043060605   0.52651  -0.10694   0.71475  -0.06493
  22   27111.9    368.8   0.036258946   0.44028  -0.53708  -0.38223   0.07568
  23   27346.1    365.7   0.016956902   0.20414   0.42983   0.13340  -0.03984
  24   27374.0    365.3   0.057961228   0.69707  -0.83035  -0.04658   0.07365
  25   27517.9    363.4   0.007105353   0.08501   0.06406  -0.28410   0.01380
  26   27699.8    361.0   0.014621513   0.17378  -0.14671  -0.39009  -0.00899
  27   28124.3    355.6   0.152611777   1.78641  -1.29119  -0.33045  -0.10015
  28   28638.9    349.2   0.057086838   0.65623   0.77506   0.21728  -0.09113
  29   28864.8    346.4   0.127617766   1.45552  -0.77450  -0.92313   0.05918
  30   29005.1    344.8   0.046381473   0.52644  -0.71549   0.09291   0.07665
  31   29229.6    342.1   0.002215382   0.02495   0.05767   0.14689   0.00699
  32   29333.0    340.9   0.036785242   0.41285  -0.22954  -0.59614   0.06912
  33   29625.0    337.6   0.447762349   4.97582  -2.11799  -0.69973  -0.01753
  34   29766.5    335.9   0.117779321   1.30262  -0.86713  -0.74017  -0.05350
  35   30193.9    331.2   0.006039084   0.06585  -0.14195   0.09799   0.18998
  36   30264.6    330.4   0.031437432   0.34197   0.37976  -0.44469  -0.00159
  37   30513.1    327.7   0.020058040   0.21641   0.43932  -0.15296  -0.00395
  38   30609.0    326.7   0.034820611   0.37451  -0.13910  -0.57548  -0.15488
  39   30617.9    326.6   0.000790725   0.00850   0.08802   0.02253  -0.01575
  40   30770.6    325.0   0.110749360   1.18490  -0.15350  -1.03176  -0.31114
  41   31016.2    322.4   0.041915305   0.44490   0.64957   0.14480   0.04459
  42   31125.1    321.3   0.073837786   0.78099  -0.16562  -0.84950  -0.17865
  43   31292.4    319.6   0.011612134   0.12217  -0.27121  -0.18676  -0.11719
  44   31503.9    317.4   0.060746166   0.63479   0.51764  -0.59692  -0.10259
  45   31825.7    314.2   0.001047090   0.01083  -0.01454  -0.10268   0.00875
  46   31925.1    313.2   0.008921971   0.09200   0.26949  -0.11912  -0.07204
  47   31962.5    312.9   0.003462347   0.03566  -0.16644  -0.08140  -0.03651
  48   32030.5    312.2   0.001280945   0.01317  -0.06560  -0.09132   0.02286
  49   32115.8    311.4   0.106403099   1.09071  -0.35483  -0.81382  -0.55001
  50   32170.5    310.8   0.015251355   0.15607  -0.22413  -0.28419  -0.15834

FINAL SINGLE POINT ENERGY     -6307.236879429317

DIPOLE MOMENT
-------------
                                X             Y             Z
Electronic contribution:    -58.21460     -43.33333       6.74497
Nuclear contribution   :     59.38437      43.53749      -7.07753
                        -----------------------------------------
Total Dipole Moment    :      1.16976       0.20416      -0.33256
                        -----------------------------------------
Magnitude (a.u.)       :      1.23314
Magnitude (Debye)      :      3.13438

Rotational constants in cm-1:     0.003287     0.000267     0.000250
Rotational constants in MHz :    98.532210     7.996598     7.497880

                             ****ORCA TERMINATED NORMALLY****
TOTAL RUN TIME: 0 days 7 hours 46 minutes 55 seconds 119 msec
