                         Program Version 4.2.0 -  RELEASE  -
|  1> # ORCA input file
|  2> # BTSe-4F.out: Geometry 118
|  3> ! B3LYP def2-TZVP def2/J RIJCOSX Grid4 TightSCF
|  4>
|  5> %maxcore 6000
|  6> %tddft
|  7>   maxdim 5
|  8>   nroots 50
|  9>   end
| 10> %pal
| 11>   nprocs 6
| 12>   end
| 13>
| 14>
| 15> * xyz 0 1
| 16>    C        1.10865        -2.12712        -0.90107
| 17>    C        1.74995        -1.04664        -1.58778
| 18>    C        3.18056        -0.99374        -1.63986
| 19>    C        3.95030        -2.10759        -1.17947
| 20>    C        3.31357        -3.24243        -0.57672
| 21>    C        1.87257        -3.22797        -0.39075
| 22>    N        3.90531        -4.32056        -0.08075
| 23>    S        2.71450        -5.25977         0.58300
| 24>    N        1.41085        -4.29637         0.24373
| 25>    N        4.05694         0.03308        -1.99726
| 26>    C        5.34506        -0.42772        -1.79931
| 27>    C        5.30826        -1.74174        -1.30222
| 28>    C       -0.27260        -1.83844        -0.87622
| 29>    C       -0.45859        -0.63160        -1.58226
| 30>    N        0.76874        -0.17289        -2.04369
| 31>   Se       -1.86231        -2.46700        -0.12050
| 32>    C       -2.68398        -0.89681        -0.87984
| 33>    C       -1.76104        -0.12979        -1.61728
| 34>    C        6.65564         0.09750        -1.85465
| 35>    C        7.59849        -0.82949        -1.36962
| 36>    S        6.88476        -2.36889        -0.88933
| 37>    S        7.41132         1.58891        -2.29944
| 38>    C        8.98245         0.99460        -1.73375
| 39>    C        8.92025        -0.33812        -1.29229
| 40>    C        0.86640         0.90140        -3.01121
| 41>    C        3.76872         1.45508        -2.09878
| 42>    C       -3.98692        -0.38283        -0.67525
| 43>    C       -5.02991        -0.74222         0.15807
| 44>    C       10.09634         1.88232        -1.79855
| 45>    C       11.19068         1.97142        -0.97316
| 46>    C       -5.04772        -1.93276         1.03426
| 47>    C       -6.27592        -1.83036         1.85993
| 48>    C       -7.01124        -0.69499         1.46505
| 49>    C       -6.25871         0.01636         0.39983
| 50>    C       12.42572         2.66637        -1.47524
| 51>    C       13.48963         2.35280        -0.48402
| 52>    C       12.93988         1.60906         0.58161
| 53>    C       11.47540         1.48607         0.37351
| 54>    C       -6.67109        -2.65899         2.90468
| 55>    C       -7.84663        -2.32920         3.57037
| 56>    C       -8.60905        -1.21852         3.16864
| 57>    C       -8.21119        -0.39081         2.12257
| 58>    C       14.83621         2.69921        -0.53675
| 59>    C       15.65304         2.26519         0.50140
| 60>    C       15.12425         1.49660         1.55622
| 61>    C       13.77165         1.17082         1.62069
| 62>    O       -4.22641        -2.83597         1.08409
| 63>    C       -6.66005         1.20790        -0.18217
| 64>    C       -5.86444         1.94160        -1.11722
| 65>    C       -7.90342         1.84406         0.12456
| 66>    F       -8.27180        -3.04612         4.60578
| 67>    F       -9.73389        -0.96024         3.83049
| 68>    O       12.53926         3.31234        -2.49526
| 69>    C       10.56045         1.17856         1.36398
| 70>    C        9.14986         1.35867         1.22011
| 71>    C       10.95265         0.74345         2.66832
| 72>    F       15.95367         1.07939         2.50828
| 73>    F       16.94854         2.56216         0.51805
| 74>    N       -8.91095         2.37774         0.35186
| 75>    N       -5.22701         2.56661        -1.86250
| 76>    N       11.24592         0.36832         3.72850
| 77>    N        7.99944         1.51111         1.16544
| 78>    C       10.07902        -1.17010        -0.84687
| 79>    H       -2.06103         0.80366        -2.09601
| 80>    H       -0.03161         0.88869        -3.64530
| 81>    H        1.73404         0.74641        -3.66167
| 82>    H        0.93809         1.88987        -2.53050
| 83>    H        2.90861         1.70949        -1.46852
| 84>    H        4.63199         2.01637        -1.71789
| 85>    H        3.57259         1.77519        -3.13218
| 86>    H       -4.13859         0.52516        -1.25799
| 87>    H       10.13085         2.57857        -2.64819
| 88>    H       -6.07562        -3.52072         3.21024
| 89>    H       -8.84210         0.45945         1.87392
| 90>    H       15.24196         3.28928        -1.36041
| 91>    H       13.42053         0.58900         2.47127
| 92>    H       11.03347        -0.75549        -1.19432
| 93>    H        9.97996        -2.19589        -1.23317
| 94>    H       10.12391        -1.23316         0.25330
| 95> *
| 96>
| 97>                          ****END OF INPUT****

CARTESIAN COORDINATES (ANGSTROEM)
---------------------------------
  C      1.108650   -2.127120   -0.901070
  C      1.749950   -1.046640   -1.587780
  C      3.180560   -0.993740   -1.639860
  C      3.950300   -2.107590   -1.179470
  C      3.313570   -3.242430   -0.576720
  C      1.872570   -3.227970   -0.390750
  N      3.905310   -4.320560   -0.080750
  S      2.714500   -5.259770    0.583000
  N      1.410850   -4.296370    0.243730
  N      4.056940    0.033080   -1.997260
  C      5.345060   -0.427720   -1.799310
  C      5.308260   -1.741740   -1.302220
  C     -0.272600   -1.838440   -0.876220
  C     -0.458590   -0.631600   -1.582260
  N      0.768740   -0.172890   -2.043690
  Se    -1.862310   -2.467000   -0.120500
  C     -2.683980   -0.896810   -0.879840
  C     -1.761040   -0.129790   -1.617280
  C      6.655640    0.097500   -1.854650
  C      7.598490   -0.829490   -1.369620
  S      6.884760   -2.368890   -0.889330
  S      7.411320    1.588910   -2.299440
  C      8.982450    0.994600   -1.733750
  C      8.920250   -0.338120   -1.292290
  C      0.866400    0.901400   -3.011210
  C      3.768720    1.455080   -2.098780
  C     -3.986920   -0.382830   -0.675250
  C     -5.029910   -0.742220    0.158070
  C     10.096340    1.882320   -1.798550
  C     11.190680    1.971420   -0.973160
  C     -5.047720   -1.932760    1.034260
  C     -6.275920   -1.830360    1.859930
  C     -7.011240   -0.694990    1.465050
  C     -6.258710    0.016360    0.399830
  C     12.425720    2.666370   -1.475240
  C     13.489630    2.352800   -0.484020
  C     12.939880    1.609060    0.581610
  C     11.475400    1.486070    0.373510
  C     -6.671090   -2.658990    2.904680
  C     -7.846630   -2.329200    3.570370
  C     -8.609050   -1.218520    3.168640
  C     -8.211190   -0.390810    2.122570
  C     14.836210    2.699210   -0.536750
  C     15.653040    2.265190    0.501400
  C     15.124250    1.496600    1.556220
  C     13.771650    1.170820    1.620690
  O     -4.226410   -2.835970    1.084090
  C     -6.660050    1.207900   -0.182170
  C     -5.864440    1.941600   -1.117220
  C     -7.903420    1.844060    0.124560
  F     -8.271800   -3.046120    4.605780
  F     -9.733890   -0.960240    3.830490
  O     12.539260    3.312340   -2.495260
  C     10.560450    1.178560    1.363980
  C      9.149860    1.358670    1.220110
  C     10.952650    0.743450    2.668320
  F     15.953670    1.079390    2.508280
  F     16.948540    2.562160    0.518050
  N     -8.910950    2.377740    0.351860
  N     -5.227010    2.566610   -1.862500
  N     11.245920    0.368320    3.728500
  N      7.999440    1.511110    1.165440
  C     10.079020   -1.170100   -0.846870
  H     -2.061030    0.803660   -2.096010
  H     -0.031610    0.888690   -3.645300
  H      1.734040    0.746410   -3.661670
  H      0.938090    1.889870   -2.530500
  H      2.908610    1.709490   -1.468520
  H      4.631990    2.016370   -1.717890
  H      3.572590    1.775190   -3.132180
  H     -4.138590    0.525160   -1.257990
  H     10.130850    2.578570   -2.648190
  H     -6.075620   -3.520720    3.210240
  H     -8.842100    0.459450    1.873920
  H     15.241960    3.289280   -1.360410
  H     13.420530    0.589000    2.471270
  H     11.033470   -0.755490   -1.194320
  H      9.979960   -2.195890   -1.233170
  H     10.123910   -1.233160    0.253300

 Total Charge           Charge          ....    0
 Multiplicity           Mult            ....    1
 Number of Electrons    NEL             ....  476
 Basis Dimension        Dim             .... 2084

ORBITAL ENERGIES
----------------

  NO   OCC          E(Eh)            E(eV)
   0   2.0000    -453.932189    -12352.1228
   1   2.0000     -88.946109     -2420.3467
   2   2.0000     -88.918817     -2419.6040
   3   2.0000     -88.913435     -2419.4576
   4   2.0000     -58.113741     -1581.3553
   5   2.0000     -52.166238     -1419.5155
   6   2.0000     -52.165248     -1419.4886
   7   2.0000     -52.164440     -1419.4666
   8   2.0000     -24.733019      -673.0197
   9   2.0000     -24.732166      -672.9965
  10   2.0000     -24.726379      -672.8390
  11   2.0000     -24.724271      -672.7816
  12   2.0000     -19.141765      -520.8739
  13   2.0000     -19.139039      -520.7997
  14   2.0000     -14.414871      -392.2486
  15   2.0000     -14.410083      -392.1183
  16   2.0000     -14.361282      -390.7904
  17   2.0000     -14.359914      -390.7531
  18   2.0000     -14.340921      -390.2363
  19   2.0000     -14.340851      -390.2344
  20   2.0000     -14.336800      -390.1242
  21   2.0000     -14.332353      -390.0032
  22   2.0000     -10.308368      -280.5050
  23   2.0000     -10.307643      -280.4852
  24   2.0000     -10.300106      -280.2801
  25   2.0000     -10.299249      -280.2568
  26   2.0000     -10.288608      -279.9672
  27   2.0000     -10.282109      -279.7904
  28   2.0000     -10.271923      -279.5132
  29   2.0000     -10.269009      -279.4339
  30   2.0000     -10.268737      -279.4265
  31   2.0000     -10.265500      -279.3385
  32   2.0000     -10.262970      -279.2696
  33   2.0000     -10.261717      -279.2355
  34   2.0000     -10.254740      -279.0457
  35   2.0000     -10.254108      -279.0285
  36   2.0000     -10.253449      -279.0105
  37   2.0000     -10.249360      -278.8993
  38   2.0000     -10.247203      -278.8406
  39   2.0000     -10.246232      -278.8142
  40   2.0000     -10.245225      -278.7867
  41   2.0000     -10.242878      -278.7229
  42   2.0000     -10.242432      -278.7107
  43   2.0000     -10.242017      -278.6995
  44   2.0000     -10.240304      -278.6528
  45   2.0000     -10.239574      -278.6330
  46   2.0000     -10.239558      -278.6325
  47   2.0000     -10.238574      -278.6058
  48   2.0000     -10.237615      -278.5797
  49   2.0000     -10.236948      -278.5615
  50   2.0000     -10.235980      -278.5352
  51   2.0000     -10.233894      -278.4784
  52   2.0000     -10.232811      -278.4490
  53   2.0000     -10.232602      -278.4433
  54   2.0000     -10.229849      -278.3683
  55   2.0000     -10.229612      -278.3619
  56   2.0000     -10.227165      -278.2953
  57   2.0000     -10.226825      -278.2861
  58   2.0000     -10.226122      -278.2669
  59   2.0000     -10.224674      -278.2275
  60   2.0000     -10.222321      -278.1635
  61   2.0000     -10.222318      -278.1634
  62   2.0000     -10.221155      -278.1318
  63   2.0000     -10.219247      -278.0798
  64   2.0000     -10.218383      -278.0563
  65   2.0000     -10.217099      -278.0214
  66   2.0000     -10.205487      -277.7054
  67   2.0000      -8.016539      -218.1411
  68   2.0000      -7.994527      -217.5421
  69   2.0000      -7.988328      -217.3735
  70   2.0000      -7.851487      -213.6498
  71   2.0000      -5.981285      -162.7590
  72   2.0000      -5.974209      -162.5665
  73   2.0000      -5.972953      -162.5323
  74   2.0000      -5.957348      -162.1077
  75   2.0000      -5.953526      -162.0037
  76   2.0000      -5.951427      -161.9466
  77   2.0000      -5.950663      -161.9258
  78   2.0000      -5.947611      -161.8427
  79   2.0000      -5.944013      -161.7448
  80   2.0000      -5.795499      -157.7036
  81   2.0000      -5.791748      -157.6015
  82   2.0000      -5.787596      -157.4885
  83   2.0000      -2.148796       -58.4717
  84   2.0000      -2.148394       -58.4608
  85   2.0000      -2.144140       -58.3450
  86   2.0000      -2.141161       -58.2639
  87   2.0000      -2.140811       -58.2544
  88   2.0000      -1.279044       -34.8046
  89   2.0000      -1.272019       -34.6134
  90   2.0000      -1.264831       -34.4178
  91   2.0000      -1.257366       -34.2147
  92   2.0000      -1.069374       -29.0991
  93   2.0000      -1.064677       -28.9713
  94   2.0000      -1.040487       -28.3131
  95   2.0000      -1.026645       -27.9364
  96   2.0000      -1.022242       -27.8166
  97   2.0000      -0.947347       -25.7786
  98   2.0000      -0.939847       -25.5745
  99   2.0000      -0.935242       -25.4492
 100   2.0000      -0.928214       -25.2580
 101   2.0000      -0.926493       -25.2112
 102   2.0000      -0.923084       -25.1184
 103   2.0000      -0.919345       -25.0167
 104   2.0000      -0.903607       -24.5884
 105   2.0000      -0.889256       -24.1979
 106   2.0000      -0.886063       -24.1110
 107   2.0000      -0.881035       -23.9742
 108   2.0000      -0.872913       -23.7532
 109   2.0000      -0.869673       -23.6650
 110   2.0000      -0.837360       -22.7857
 111   2.0000      -0.831010       -22.6129
 112   2.0000      -0.823599       -22.4113
 113   2.0000      -0.816122       -22.2078
 114   2.0000      -0.813529       -22.1372
 115   2.0000      -0.804093       -21.8805
 116   2.0000      -0.800911       -21.7939
 117   2.0000      -0.796407       -21.6713
 118   2.0000      -0.793914       -21.6035
 119   2.0000      -0.775036       -21.0898
 120   2.0000      -0.759169       -20.6581
 121   2.0000      -0.754946       -20.5431
 122   2.0000      -0.742753       -20.2113
 123   2.0000      -0.731712       -19.9109
 124   2.0000      -0.722137       -19.6504
 125   2.0000      -0.717710       -19.5299
 126   2.0000      -0.709725       -19.3126
 127   2.0000      -0.704709       -19.1761
 128   2.0000      -0.697752       -18.9868
 129   2.0000      -0.693295       -18.8655
 130   2.0000      -0.672637       -18.3034
 131   2.0000      -0.658942       -17.9307
 132   2.0000      -0.655323       -17.8322
 133   2.0000      -0.645943       -17.5770
 134   2.0000      -0.638805       -17.3828
 135   2.0000      -0.634659       -17.2699
 136   2.0000      -0.626673       -17.0526
 137   2.0000      -0.620472       -16.8839
 138   2.0000      -0.614591       -16.7239
 139   2.0000      -0.601852       -16.3772
 140   2.0000      -0.594108       -16.1665
 141   2.0000      -0.592191       -16.1143
 142   2.0000      -0.587745       -15.9933
 143   2.0000      -0.580968       -15.8089
 144   2.0000      -0.579838       -15.7782
 145   2.0000      -0.574865       -15.6429
 146   2.0000      -0.573021       -15.5927
 147   2.0000      -0.567826       -15.4513
 148   2.0000      -0.555632       -15.1195
 149   2.0000      -0.548773       -14.9329
 150   2.0000      -0.546767       -14.8783
 151   2.0000      -0.543804       -14.7977
 152   2.0000      -0.536102       -14.5881
 153   2.0000      -0.531012       -14.4496
 154   2.0000      -0.528209       -14.3733
 155   2.0000      -0.525971       -14.3124
 156   2.0000      -0.522563       -14.2197
 157   2.0000      -0.521198       -14.1825
 158   2.0000      -0.520937       -14.1754
 159   2.0000      -0.514461       -13.9992
 160   2.0000      -0.513117       -13.9626
 161   2.0000      -0.504572       -13.7301
 162   2.0000      -0.499105       -13.5813
 163   2.0000      -0.493477       -13.4282
 164   2.0000      -0.490616       -13.3504
 165   2.0000      -0.488299       -13.2873
 166   2.0000      -0.486214       -13.2306
 167   2.0000      -0.482654       -13.1337
 168   2.0000      -0.481469       -13.1014
 169   2.0000      -0.475286       -12.9332
 170   2.0000      -0.471444       -12.8286
 171   2.0000      -0.469857       -12.7855
 172   2.0000      -0.468472       -12.7478
 173   2.0000      -0.466503       -12.6942
 174   2.0000      -0.464454       -12.6384
 175   2.0000      -0.462665       -12.5898
 176   2.0000      -0.461811       -12.5665
 177   2.0000      -0.460472       -12.5301
 178   2.0000      -0.454640       -12.3714
 179   2.0000      -0.450197       -12.2505
 180   2.0000      -0.448674       -12.2090
 181   2.0000      -0.443832       -12.0773
 182   2.0000      -0.438293       -11.9266
 183   2.0000      -0.437098       -11.8941
 184   2.0000      -0.435726       -11.8567
 185   2.0000      -0.434470       -11.8225
 186   2.0000      -0.430871       -11.7246
 187   2.0000      -0.429096       -11.6763
 188   2.0000      -0.428254       -11.6534
 189   2.0000      -0.423969       -11.5368
 190   2.0000      -0.423659       -11.5284
 191   2.0000      -0.422546       -11.4981
 192   2.0000      -0.420498       -11.4423
 193   2.0000      -0.416496       -11.3334
 194   2.0000      -0.409065       -11.1312
 195   2.0000      -0.405877       -11.0445
 196   2.0000      -0.400969       -10.9109
 197   2.0000      -0.399265       -10.8645
 198   2.0000      -0.396263       -10.7829
 199   2.0000      -0.393705       -10.7133
 200   2.0000      -0.392668       -10.6850
 201   2.0000      -0.391759       -10.6603
 202   2.0000      -0.391171       -10.6443
 203   2.0000      -0.388764       -10.5788
 204   2.0000      -0.388473       -10.5709
 205   2.0000      -0.385628       -10.4935
 206   2.0000      -0.382505       -10.4085
 207   2.0000      -0.380151       -10.3444
 208   2.0000      -0.370529       -10.0826
 209   2.0000      -0.369450       -10.0533
 210   2.0000      -0.367975       -10.0131
 211   2.0000      -0.364608        -9.9215
 212   2.0000      -0.362549        -9.8655
 213   2.0000      -0.362148        -9.8545
 214   2.0000      -0.352519        -9.5925
 215   2.0000      -0.350936        -9.5495
 216   2.0000      -0.350091        -9.5265
 217   2.0000      -0.346590        -9.4312
 218   2.0000      -0.343934        -9.3589
 219   2.0000      -0.342544        -9.3211
 220   2.0000      -0.336000        -9.1430
 221   2.0000      -0.334620        -9.1055
 222   2.0000      -0.314358        -8.5541
 223   2.0000      -0.313547        -8.5321
 224   2.0000      -0.309455        -8.4207
 225   2.0000      -0.300284        -8.1711
 226   2.0000      -0.295404        -8.0383
 227   2.0000      -0.292931        -7.9711
 228   2.0000      -0.286298        -7.7906
 229   2.0000      -0.281429        -7.6581
 230   2.0000      -0.278579        -7.5805
 231   2.0000      -0.274518        -7.4700
 232   2.0000      -0.269481        -7.3330
 233   2.0000      -0.265495        -7.2245
 234   2.0000      -0.248083        -6.7507
 235   2.0000      -0.245983        -6.6935
 236   2.0000      -0.236016        -6.4223
 237   2.0000      -0.212180        -5.7737
 238   0.0000      -0.138852        -3.7783
 239   0.0000      -0.127796        -3.4775
 240   0.0000      -0.114317        -3.1107
 241   0.0000      -0.108793        -2.9604
 242   0.0000      -0.091507        -2.4900

MULLIKEN ATOMIC CHARGES
-----------------------
   0 C :    0.021568
   1 C :   -0.014383
   2 C :    0.093120
   3 C :    0.069085
   4 C :    0.004882
   5 C :   -0.013211
   6 N :   -0.251239
   7 S :    0.334821
   8 N :   -0.253012
   9 N :   -0.088385
  10 C :    0.386289
  11 C :   -0.142152
  12 C :   -0.130353
  13 C :    0.209597
  14 N :   -0.067670
  15 Se:    0.295703
  16 C :   -0.013663
  17 C :   -0.278080
  18 C :   -0.250918
  19 C :    0.089779
  20 S :    0.046691
  21 S :    0.013186
  22 C :    0.147623
  23 C :   -0.044856
  24 C :   -0.306739
  25 C :   -0.308348
  26 C :   -0.192020
  27 C :   -0.031486
  28 C :   -0.205971
  29 C :   -0.084714
  30 C :    0.217578
  31 C :    0.105607
  32 C :    0.078490
  33 C :    0.028350
  34 C :    0.241094
  35 C :   -0.018985
  36 C :    0.140290
  37 C :    0.017117
  38 C :   -0.305071
  39 C :    0.281965
  40 C :    0.255066
  41 C :   -0.264791
  42 C :   -0.288865
  43 C :    0.280984
  44 C :    0.256889
  45 C :   -0.263416
  46 O :   -0.361475
  47 C :    0.143201
  48 C :   -0.186281
  49 C :   -0.197253
  50 F :   -0.175083
  51 F :   -0.172937
  52 O :   -0.285293
  53 C :    0.075317
  54 C :   -0.174512
  55 C :   -0.188612
  56 F :   -0.170441
  57 F :   -0.173286
  58 N :    0.006654
  59 N :   -0.003009
  60 N :    0.012517
  61 N :    0.009299
  62 C :   -0.390939
  63 H :    0.155227
  64 H :    0.154176
  65 H :    0.143620
  66 H :    0.140865
  67 H :    0.146219
  68 H :    0.159900
  69 H :    0.138322
  70 H :    0.160339
  71 H :    0.155441
  72 H :    0.151834
  73 H :    0.167707
  74 H :    0.154505
  75 H :    0.167638
  76 H :    0.142161
  77 H :    0.141917
  78 H :    0.154816
Sum of atomic charges:   -0.0000000

LOEWDIN ATOMIC CHARGES
----------------------
   0 C :   -0.090410
   1 C :   -0.087631
   2 C :   -0.092787
   3 C :   -0.084454
   4 C :   -0.241803
   5 C :   -0.240339
   6 N :   -0.118979
   7 S :    0.644668
   8 N :   -0.117055
   9 N :    0.264581
  10 C :   -0.177191
  11 C :   -0.283110
  12 C :   -0.255430
  13 C :   -0.186395
  14 N :    0.262812
  15 Se:    0.727805
  16 C :   -0.281313
  17 C :   -0.107448
  18 C :   -0.336712
  19 C :   -0.317656
  20 S :    0.747278
  21 S :    0.754993
  22 C :   -0.311263
  23 C :   -0.158808
  24 C :   -0.264690
  25 C :   -0.260167
  26 C :   -0.055454
  27 C :   -0.088202
  28 C :   -0.065078
  29 C :   -0.085713
  30 C :   -0.246480
  31 C :   -0.060123
  32 C :   -0.039314
  33 C :    0.018216
  34 C :   -0.248158
  35 C :   -0.061996
  36 C :   -0.040317
  37 C :    0.005163
  38 C :   -0.048404
  39 C :   -0.233062
  40 C :   -0.231084
  41 C :   -0.052579
  42 C :   -0.046902
  43 C :   -0.231758
  44 C :   -0.228664
  45 C :   -0.053855
  46 O :    0.127863
  47 C :   -0.137097
  48 C :   -0.155394
  49 C :   -0.153760
  50 F :    0.225765
  51 F :    0.225959
  52 O :    0.135804
  53 C :   -0.140997
  54 C :   -0.143468
  55 C :   -0.154583
  56 F :    0.228442
  57 F :    0.226997
  58 N :    0.071660
  59 N :    0.062609
  60 N :    0.077729
  61 N :    0.087977
  62 C :   -0.239017
  63 H :    0.155621
  64 H :    0.132412
  65 H :    0.127318
  66 H :    0.120135
  67 H :    0.129133
  68 H :    0.131090
  69 H :    0.118491
  70 H :    0.179539
  71 H :    0.171694
  72 H :    0.166400
  73 H :    0.170597
  74 H :    0.167541
  75 H :    0.170086
  76 H :    0.139386
  77 H :    0.136069
  78 H :    0.143271

  Mayer bond orders larger than 0.100000
B(  0-C ,  1-C ) :   1.2507 B(  0-C ,  5-C ) :   1.0937 B(  0-C , 12-C ) :   1.2910
B(  1-C ,  2-C ) :   1.2467 B(  1-C , 14-N ) :   1.2179 B(  2-C ,  3-C ) :   1.2662
B(  2-C ,  9-N ) :   1.2009 B(  3-C ,  4-C ) :   1.1050 B(  3-C , 11-C ) :   1.2071
B(  4-C ,  5-C ) :   1.1751 B(  4-C ,  6-N ) :   1.6076 B(  4-C ,  7-S ) :   0.1170
B(  5-C ,  7-S ) :   0.1117 B(  5-C ,  8-N ) :   1.5923 B(  6-N ,  7-S ) :   1.2573
B(  6-N ,  8-N ) :   0.1095 B(  7-S ,  8-N ) :   1.2547 B(  9-N , 10-C ) :   1.1358
B(  9-N , 25-C ) :   0.9160 B( 10-C , 11-C ) :   1.2789 B( 10-C , 18-C ) :   1.0539
B( 10-C , 21-S ) :  -0.1191 B( 11-C , 20-S ) :   1.3193 B( 12-C , 13-C ) :   1.2362
B( 12-C , 15-Se) :   1.2335 B( 13-C , 14-N ) :   1.1149 B( 13-C , 17-C ) :   1.3423
B( 14-N , 24-C ) :   0.9123 B( 15-Se, 16-C ) :   1.1713 B( 15-Se, 17-C ) :   0.1068
B( 16-C , 17-C ) :   1.4026 B( 16-C , 26-C ) :   1.3096 B( 17-C , 63-H ) :   0.9330
B( 18-C , 19-C ) :   1.4247 B( 18-C , 20-S ) :   0.1127 B( 18-C , 21-S ) :   1.3207
B( 19-C , 20-S ) :   1.1790 B( 19-C , 23-C ) :   1.2649 B( 21-S , 22-C ) :   1.1800
B( 21-S , 23-C ) :   0.1149 B( 22-C , 23-C ) :   1.4477 B( 22-C , 28-C ) :   1.0782
B( 23-C , 62-C ) :   0.9040 B( 24-C , 64-H ) :   0.9614 B( 24-C , 65-H ) :   0.9678
B( 24-C , 66-H ) :   0.9546 B( 25-C , 67-H ) :   0.9642 B( 25-C , 68-H ) :   0.9581
B( 25-C , 69-H ) :   0.9553 B( 26-C , 27-C ) :   1.3949 B( 26-C , 70-H ) :   0.9027
B( 27-C , 30-C ) :   1.0253 B( 27-C , 33-C ) :   1.1609 B( 28-C , 29-C ) :   1.5235
B( 28-C , 52-O ) :   0.1011 B( 28-C , 71-H ) :   0.9432 B( 29-C , 34-C ) :   0.9922
B( 29-C , 37-C ) :   1.1380 B( 29-C , 52-O ) :  -0.1292 B( 30-C , 31-C ) :   1.0328
B( 30-C , 46-O ) :   1.9687 B( 31-C , 32-C ) :   1.3355 B( 31-C , 38-C ) :   1.2952
B( 31-C , 46-O ) :  -0.1568 B( 32-C , 33-C ) :   1.0318 B( 32-C , 41-C ) :   1.3111
B( 33-C , 47-C ) :   1.4646 B( 34-C , 35-C ) :   0.9619 B( 34-C , 52-O ) :   2.1715
B( 35-C , 36-C ) :   1.3267 B( 35-C , 42-C ) :   1.3064 B( 35-C , 52-O ) :  -0.1412
B( 36-C , 37-C ) :   1.0072 B( 36-C , 45-C ) :   1.2972 B( 37-C , 53-C ) :   1.3821
B( 38-C , 39-C ) :   1.3644 B( 38-C , 72-H ) :   0.9780 B( 39-C , 40-C ) :   1.3305
B( 39-C , 50-F ) :   1.0673 B( 40-C , 41-C ) :   1.4000 B( 40-C , 51-F ) :   1.0846
B( 41-C , 73-H ) :   0.9256 B( 42-C , 43-C ) :   1.3679 B( 42-C , 74-H ) :   0.9770
B( 43-C , 44-C ) :   1.3256 B( 43-C , 57-F ) :   1.0679 B( 44-C , 45-C ) :   1.4029
B( 44-C , 56-F ) :   1.0802 B( 45-C , 75-H ) :   0.9345 B( 47-C , 48-C ) :   1.0268
B( 47-C , 49-C ) :   1.0208 B( 48-C , 59-N ) :   2.9692 B( 49-C , 58-N ) :   2.9760
B( 53-C , 54-C ) :   1.0560 B( 53-C , 55-C ) :   1.0541 B( 54-C , 61-N ) :   2.9689
B( 55-C , 60-N ) :   2.9750 B( 62-C , 76-H ) :   0.9849 B( 62-C , 77-H ) :   0.9665
B( 62-C , 78-H ) :   0.9556

-----------------------------------------------------------------------------
         ABSORPTION SPECTRUM VIA TRANSITION ELECTRIC DIPOLE MOMENTS
-----------------------------------------------------------------------------
State   Energy    Wavelength  fosc         T2        TX        TY        TZ
        (cm-1)      (nm)                 (au**2)    (au)      (au)      (au)
-----------------------------------------------------------------------------
   1   14654.3    682.4   1.527170416  34.30820   5.78862   0.87304   0.19469
   2   17267.7    579.1   0.887245158  16.91552   4.05207  -0.33692  -0.61865
   3   18637.9    536.5   0.053397654   0.94319   0.84000  -0.37317   0.31359
   4   19081.3    524.1   0.269507420   4.64983  -2.00341  -0.75966   0.24309
   5   20076.0    498.1   0.135430289   2.22083   1.47063   0.20569  -0.12561
   6   20366.3    491.0   0.012495043   0.20198   0.23613   0.38093  -0.03331
   7   21301.5    469.4   0.014091332   0.21778  -0.21249  -0.40515  -0.09209
   8   22496.4    444.5   0.222293024   3.25303   0.91743  -1.02762  -1.16419
   9   22864.1    437.4   0.007547690   0.10868  -0.24753  -0.11334  -0.18590
  10   23248.1    430.1   0.001868463   0.02646  -0.11078  -0.11599   0.02711
  11   24177.1    413.6   0.027083969   0.36879   0.16700  -0.35487  -0.46365
  12   24282.5    411.8   0.155345346   2.10611   1.32232  -0.55218  -0.22953
  13   24903.0    401.6   0.121080702   1.60066  -0.85761   0.84736   0.38360
  14   25550.3    391.4   0.004494147   0.05791  -0.18692  -0.12446   0.08647
  15   25851.8    386.8   0.027203053   0.34642   0.02151  -0.41254   0.41925
  16   26324.1    379.9   0.003499345   0.04376  -0.11466   0.07529   0.15794
  17   26355.0    379.4   0.014118115   0.17636   0.16055   0.00602   0.38800
  18   26542.2    376.8   0.003799442   0.04713   0.14515  -0.15975  -0.02313
  19   26813.8    372.9   0.006241514   0.07663   0.10368  -0.04877  -0.25200
  20   27054.5    369.6   0.021507369   0.26171   0.17028  -0.27889  -0.39362
  21   27304.7    366.2   0.020723904   0.24987  -0.45803  -0.08037  -0.18336
  22   27603.7    362.3   0.025421347   0.30318  -0.53375  -0.10860   0.08066
  23   27884.7    358.6   0.010051943   0.11868  -0.32182  -0.11834   0.03316
  24   28004.7    357.1   0.003335827   0.03921   0.15147  -0.12302  -0.03375
  25   28272.6    353.7   0.307372940   3.57911   1.81858   0.50312  -0.13687
  26   28351.1    352.7   0.038054170   0.44188   0.41470   0.51819  -0.03722
  27   28739.3    348.0   0.026080657   0.29876  -0.07646   0.11542  -0.52876
  28   29358.6    340.6   0.094527001   1.05998   0.01011  -0.91132   0.47893
  29   29717.6    336.5   0.012375754   0.13710   0.22868   0.28849  -0.03967
  30   29990.9    333.4   0.033252589   0.36502   0.55018   0.05692  -0.24306
  31   30263.6    330.4   0.030844190   0.33553  -0.51707  -0.25478  -0.05706
  32   30544.0    327.4   0.068542813   0.73877   0.70428   0.44313  -0.21539
  33   30720.1    325.5   0.042641335   0.45697   0.36742   0.55842  -0.10066
  34   30764.8    325.0   0.019769579   0.21155   0.40588  -0.16438  -0.14068
  35   31019.2    322.4   0.031090239   0.32997  -0.51672  -0.01500   0.25049
  36   31243.6    320.1   0.076249382   0.80344  -0.77192  -0.08095   0.44836
  37   31496.2    317.5   0.019040090   0.19902  -0.43301  -0.10266  -0.03131
  38   31831.5    314.2   0.016432031   0.16995  -0.37439  -0.09109   0.14656
  39   31862.0    313.9   0.008416856   0.08697   0.28231  -0.03091  -0.07946
  40   32154.3    311.0   0.040884739   0.41860   0.64057   0.08824   0.02199
  41   32621.4    306.5   0.178175517   1.79813   1.07887   0.52334  -0.60023
  42   32646.5    306.3   0.217336873   2.19165   0.72180  -1.15512   0.57998
  43   32845.9    304.5   0.009699025   0.09721   0.15433   0.17457  -0.20717
  44   33123.5    301.9   0.201003638   1.99776   0.05463  -1.12755   0.85053
  45   33453.4    298.9   0.147716637   1.45367   0.81571   0.77344  -0.43598
  46   33544.1    298.1   0.051507954   0.50552   0.48514   0.33867  -0.39428
  47   33840.5    295.5   0.149076372   1.45027   1.09070   0.25709  -0.44107
  48   33896.4    295.0   0.040856391   0.39681   0.37030  -0.41466   0.29622
  49   34242.4    292.0   0.041700323   0.40091   0.55947   0.09573  -0.28061
  50   34258.8    291.9   0.011598752   0.11146   0.05708   0.32137   0.07016

FINAL SINGLE POINT ENERGY     -6307.515645876168

DIPOLE MOMENT
-------------
                                X             Y             Z
Electronic contribution:    -58.58381     -35.60863      24.15420
Nuclear contribution   :     60.79640      35.31028     -26.33645
                        -----------------------------------------
Total Dipole Moment    :      2.21259      -0.29836      -2.18225
                        -----------------------------------------
Magnitude (a.u.)       :      3.12198
Magnitude (Debye)      :      7.93545

Rotational constants in cm-1:     0.002713     0.000288     0.000282
Rotational constants in MHz :    81.329883     8.630072     8.468103

                             ****ORCA TERMINATED NORMALLY****
TOTAL RUN TIME: 0 days 6 hours 21 minutes 9 seconds 19 msec
