                         Program Version 4.2.0 -  RELEASE  -
|  1> # ORCA input file
|  2> # BTTPC.out
|  3> ! B3LYP def2-TZVP def2/J RIJCOSX Grid4 TightSCF
|  4> %maxcore 1000
|  5> %tddft
|  6>   maxdim 5
|  7>   nroots 50
|  8>   end
|  9> * xyz 0 1
| 10>    C       -3.04954        -1.03564        -0.62360
| 11>    O       -2.61405        -0.14899        -1.33144
| 12>    C       -2.36503        -2.29382        -0.27255
| 13>    C       -1.13277        -2.73078        -0.69329
| 14>    C       -0.67081        -3.95548        -0.20042
| 15>    C       -1.47835        -4.68538         0.70395
| 16>    C       -2.72526        -4.24370         1.13088
| 17>    C       -3.16731        -3.03346         0.63219
| 18>    C       -4.39732        -2.29213         0.87278
| 19>    C       -5.48947        -2.74162         1.56993
| 20>    C       -5.54729        -3.98479         2.23163
| 21>    N       -5.64953        -4.98103         2.79321
| 22>    C       -6.70954        -2.04223         1.67542
| 23>    N       -7.73776        -1.54026         1.77591
| 24>    C       -4.30465        -1.03609         0.15549
| 25>    C       -5.10238         0.05499         0.36515
| 26>    C       -5.15037         1.26403        -0.36307
| 27>    S       -5.47123         2.70044         0.62415
| 28>    C       -5.36609         3.71106        -0.76349
| 29>    C       -5.17470         2.95137        -1.92428
| 30>    C       -5.05390         1.57059        -1.71654
| 31>    C       -4.95423         0.61855        -2.86065
| 32>    C       -6.01733        -0.47770        -2.82870
| 33>    S       -5.09224         3.92611        -3.37586
| 34>    C       -5.26667         5.34685        -2.40613
| 35>    C       -5.40240         5.07961        -1.03845
| 36>    N       -5.49263         6.25347        -0.33315
| 37>    C       -6.19642         6.27439         0.93246
| 38>    C       -7.62886         5.76390         0.77749
| 39>    C       -5.37728         7.28753        -1.24595
| 40>    C       -5.28890         6.74386        -2.55679
| 41>    C       -5.28875         7.58165        -3.69498
| 42>    N       -5.28687         7.23671        -4.97244
| 43>    S       -5.35637         8.58175        -5.86986
| 44>    N       -5.38210         9.66009        -4.66294
| 45>    C       -5.34079         9.00672        -3.51311
| 46>    C       -5.24627         9.53491        -2.20485
| 47>    C       -5.20261         8.68113        -1.06661
| 48>    N       -4.89259         9.43841         0.04414
| 49>    C       -4.42733         9.03243         1.35173
| 50>    C       -5.39514         9.44835         2.45875
| 51>    C       -4.75636        10.73793        -0.36316
| 52>    C       -4.99705        10.83468        -1.73923
| 53>    S       -4.78437        12.43166        -2.36701
| 54>    C       -4.31856        12.97913        -0.77115
| 55>    C       -4.34315        11.95571         0.18504
| 56>    S       -3.76138        12.51389         1.70380
| 57>    C       -3.53820        14.13794         1.05812
| 58>    C       -3.87814        14.21935        -0.28704
| 59>    C       -3.65338        15.39419        -1.18630
| 60>    C       -4.92911        15.83433        -1.90631
| 61>    C       -2.92534        15.06003         1.94071
| 62>    C       -2.98477        16.41812         2.00924
| 63>    C       -3.90143        17.39250         1.46365
| 64>    C       -5.22381        17.17049         1.17495
| 65>    C       -6.11207        18.17373         0.74181
| 66>    N       -6.86783        18.95378         0.36989
| 67>    C       -5.84562        15.92022         1.35939
| 68>    N       -6.39422        14.92606         1.53030
| 69>    C       -3.25256        18.69591         1.54505
| 70>    C       -3.61897        19.92011         1.02280
| 71>    C       -2.78648        20.99860         1.30096
| 72>    C       -1.61526        20.88329         2.08761
| 73>    C       -1.25875        19.63475         2.60712
| 74>    C       -2.07367        18.56574         2.32415
| 75>    C       -1.90565        17.15530         2.72140
| 76>    O       -1.05119        16.67741         3.43345
| 77>    C       -0.94802        22.13342         2.22401
| 78>    C       -1.57976        23.13393         1.57278
| 79>    S       -3.01893        22.62968         0.75615
| 80>    S       -0.70268        -6.16044         1.18939
| 81>    C        0.66584        -5.79588         0.19662
| 82>    C        0.55534        -4.62609        -0.47001
| 83>    H        1.48211        -6.49152         0.17435
| 84>    H       -1.29142        24.16526         1.51233
| 85>    H       -0.54270        -2.14506        -1.38112
| 86>    H       -3.30095        -4.82994         1.82773
| 87>    H       -5.72838         0.04658         1.25171
| 88>    H       -3.95743         0.16972        -2.85612
| 89>    H       -5.05598         1.19588        -3.78244
| 90>    H       -5.90393        -1.11459        -1.95570
| 91>    H       -5.93213        -1.09650        -3.71824
| 92>    H       -7.01333        -0.04064        -2.80637
| 93>    H       -6.23433         7.29432         1.29962
| 94>    H       -5.65296         5.64573         1.64491
| 95>    H       -8.16174         6.35750         0.03746
| 96>    H       -8.14697         5.84437         1.72900
| 97>    H       -7.64336         4.72334         0.46622
| 98>    H       -3.46575         9.52799         1.52891
| 99>    H       -4.25034         7.95676         1.34910
|100>    H       -6.39986         9.07153         2.28069
|101>    H       -5.45179        10.53155         2.51948
|102>    H       -5.04293         9.06853         3.41343
|103>    H       -2.91736        15.09899        -1.94111
|104>    H       -3.23094        16.22392        -0.61931
|105>    H       -5.73688        16.02060        -1.20345
|106>    H       -5.25862        15.06464        -2.59893
|107>    H       -4.74105        16.74636        -2.46739
|108>    H       -2.24438        14.61254         2.66137
|109>    H       -4.49949        20.05049         0.41506
|110>    H       -0.37255        19.51111         3.21001
|111>    H       -0.03961        22.25872         2.78499
|112>    H        1.30767        -4.23687        -1.13204
|113> *
|114>
|115>                          ****END OF INPUT****

CARTESIAN COORDINATES (ANGSTROEM)
---------------------------------
  C     -3.049540   -1.035640   -0.623600
  O     -2.614050   -0.148990   -1.331440
  C     -2.365030   -2.293820   -0.272550
  C     -1.132770   -2.730780   -0.693290
  C     -0.670810   -3.955480   -0.200420
  C     -1.478350   -4.685380    0.703950
  C     -2.725260   -4.243700    1.130880
  C     -3.167310   -3.033460    0.632190
  C     -4.397320   -2.292130    0.872780
  C     -5.489470   -2.741620    1.569930
  C     -5.547290   -3.984790    2.231630
  N     -5.649530   -4.981030    2.793210
  C     -6.709540   -2.042230    1.675420
  N     -7.737760   -1.540260    1.775910
  C     -4.304650   -1.036090    0.155490
  C     -5.102380    0.054990    0.365150
  C     -5.150370    1.264030   -0.363070
  S     -5.471230    2.700440    0.624150
  C     -5.366090    3.711060   -0.763490
  C     -5.174700    2.951370   -1.924280
  C     -5.053900    1.570590   -1.716540
  C     -4.954230    0.618550   -2.860650
  C     -6.017330   -0.477700   -2.828700
  S     -5.092240    3.926110   -3.375860
  C     -5.266670    5.346850   -2.406130
  C     -5.402400    5.079610   -1.038450
  N     -5.492630    6.253470   -0.333150
  C     -6.196420    6.274390    0.932460
  C     -7.628860    5.763900    0.777490
  C     -5.377280    7.287530   -1.245950
  C     -5.288900    6.743860   -2.556790
  C     -5.288750    7.581650   -3.694980
  N     -5.286870    7.236710   -4.972440
  S     -5.356370    8.581750   -5.869860
  N     -5.382100    9.660090   -4.662940
  C     -5.340790    9.006720   -3.513110
  C     -5.246270    9.534910   -2.204850
  C     -5.202610    8.681130   -1.066610
  N     -4.892590    9.438410    0.044140
  C     -4.427330    9.032430    1.351730
  C     -5.395140    9.448350    2.458750
  C     -4.756360   10.737930   -0.363160
  C     -4.997050   10.834680   -1.739230
  S     -4.784370   12.431660   -2.367010
  C     -4.318560   12.979130   -0.771150
  C     -4.343150   11.955710    0.185040
  S     -3.761380   12.513890    1.703800
  C     -3.538200   14.137940    1.058120
  C     -3.878140   14.219350   -0.287040
  C     -3.653380   15.394190   -1.186300
  C     -4.929110   15.834330   -1.906310
  C     -2.925340   15.060030    1.940710
  C     -2.984770   16.418120    2.009240
  C     -3.901430   17.392500    1.463650
  C     -5.223810   17.170490    1.174950
  C     -6.112070   18.173730    0.741810
  N     -6.867830   18.953780    0.369890
  C     -5.845620   15.920220    1.359390
  N     -6.394220   14.926060    1.530300
  C     -3.252560   18.695910    1.545050
  C     -3.618970   19.920110    1.022800
  C     -2.786480   20.998600    1.300960
  C     -1.615260   20.883290    2.087610
  C     -1.258750   19.634750    2.607120
  C     -2.073670   18.565740    2.324150
  C     -1.905650   17.155300    2.721400
  O     -1.051190   16.677410    3.433450
  C     -0.948020   22.133420    2.224010
  C     -1.579760   23.133930    1.572780
  S     -3.018930   22.629680    0.756150
  S     -0.702680   -6.160440    1.189390
  C      0.665840   -5.795880    0.196620
  C      0.555340   -4.626090   -0.470010
  H      1.482110   -6.491520    0.174350
  H     -1.291420   24.165260    1.512330
  H     -0.542700   -2.145060   -1.381120
  H     -3.300950   -4.829940    1.827730
  H     -5.728380    0.046580    1.251710
  H     -3.957430    0.169720   -2.856120
  H     -5.055980    1.195880   -3.782440
  H     -5.903930   -1.114590   -1.955700
  H     -5.932130   -1.096500   -3.718240
  H     -7.013330   -0.040640   -2.806370
  H     -6.234330    7.294320    1.299620
  H     -5.652960    5.645730    1.644910
  H     -8.161740    6.357500    0.037460
  H     -8.146970    5.844370    1.729000
  H     -7.643360    4.723340    0.466220
  H     -3.465750    9.527990    1.528910
  H     -4.250340    7.956760    1.349100
  H     -6.399860    9.071530    2.280690
  H     -5.451790   10.531550    2.519480
  H     -5.042930    9.068530    3.413430
  H     -2.917360   15.098990   -1.941110
  H     -3.230940   16.223920   -0.619310
  H     -5.736880   16.020600   -1.203450
  H     -5.258620   15.064640   -2.598930
  H     -4.741050   16.746360   -2.467390
  H     -2.244380   14.612540    2.661370
  H     -4.499490   20.050490    0.415060
  H     -0.372550   19.511110    3.210010
  H     -0.039610   22.258720    2.784990
  H      1.307670   -4.236870   -1.132040

 Total Charge           Charge          ....    0
 Multiplicity           Mult            ....    1
 Number of Electrons    NEL             ....  550
 Basis Dimension        Dim             .... 2485

ORBITAL ENERGIES
----------------

  NO   OCC          E(Eh)            E(eV)
   0   2.0000     -88.940884     -2420.2045
   1   2.0000     -88.905058     -2419.2296
   2   2.0000     -88.904704     -2419.2200
   3   2.0000     -88.904496     -2419.2143
   4   2.0000     -88.903207     -2419.1792
   5   2.0000     -88.903009     -2419.1739
   6   2.0000     -88.902354     -2419.1560
   7   2.0000     -19.124162      -520.3949
   8   2.0000     -19.124151      -520.3946
   9   2.0000     -14.402066      -391.9001
  10   2.0000     -14.398243      -391.7961
  11   2.0000     -14.347958      -390.4278
  12   2.0000     -14.347527      -390.4160
  13   2.0000     -14.323840      -389.7715
  14   2.0000     -14.323059      -389.7502
  15   2.0000     -14.320650      -389.6847
  16   2.0000     -14.320490      -389.6804
  17   2.0000     -10.269343      -279.4430
  18   2.0000     -10.269114      -279.4368
  19   2.0000     -10.253481      -279.0114
  20   2.0000     -10.252783      -278.9924
  21   2.0000     -10.249218      -278.8954
  22   2.0000     -10.248190      -278.8674
  23   2.0000     -10.247609      -278.8516
  24   2.0000     -10.247268      -278.8423
  25   2.0000     -10.245703      -278.7997
  26   2.0000     -10.244549      -278.7684
  27   2.0000     -10.237566      -278.5783
  28   2.0000     -10.237197      -278.5683
  29   2.0000     -10.235435      -278.5203
  30   2.0000     -10.235270      -278.5158
  31   2.0000     -10.234868      -278.5049
  32   2.0000     -10.233834      -278.4768
  33   2.0000     -10.233427      -278.4657
  34   2.0000     -10.232313      -278.4354
  35   2.0000     -10.230713      -278.3918
  36   2.0000     -10.229497      -278.3588
  37   2.0000     -10.226224      -278.2697
  38   2.0000     -10.224775      -278.2303
  39   2.0000     -10.224638      -278.2265
  40   2.0000     -10.224469      -278.2219
  41   2.0000     -10.224085      -278.2115
  42   2.0000     -10.224055      -278.2107
  43   2.0000     -10.223963      -278.2082
  44   2.0000     -10.222190      -278.1599
  45   2.0000     -10.222187      -278.1599
  46   2.0000     -10.220434      -278.1122
  47   2.0000     -10.219589      -278.0891
  48   2.0000     -10.219406      -278.0842
  49   2.0000     -10.218997      -278.0730
  50   2.0000     -10.218257      -278.0529
  51   2.0000     -10.217319      -278.0274
  52   2.0000     -10.214990      -277.9640
  53   2.0000     -10.214229      -277.9433
  54   2.0000     -10.212413      -277.8939
  55   2.0000     -10.212218      -277.8886
  56   2.0000     -10.210458      -277.8407
  57   2.0000     -10.209576      -277.8167
  58   2.0000     -10.208738      -277.7939
  59   2.0000     -10.207960      -277.7727
  60   2.0000     -10.206765      -277.7402
  61   2.0000     -10.206243      -277.7260
  62   2.0000     -10.205627      -277.7092
  63   2.0000     -10.203038      -277.6388
  64   2.0000     -10.200540      -277.5708
  65   2.0000     -10.200424      -277.5677
  66   2.0000     -10.198928      -277.5269
  67   2.0000     -10.194159      -277.3972
  68   2.0000     -10.193253      -277.3725
  69   2.0000     -10.187777      -277.2235
  70   2.0000     -10.180667      -277.0300
  71   2.0000     -10.171837      -276.7897
  72   2.0000     -10.165264      -276.6109
  73   2.0000      -8.012000      -218.0176
  74   2.0000      -7.981643      -217.1915
  75   2.0000      -7.981123      -217.1774
  76   2.0000      -7.981034      -217.1750
  77   2.0000      -7.979783      -217.1409
  78   2.0000      -7.978527      -217.1068
  79   2.0000      -7.977948      -217.0910
  80   2.0000      -5.976735      -162.6352
  81   2.0000      -5.969349      -162.4342
  82   2.0000      -5.968721      -162.4172
  83   2.0000      -5.944268      -161.7517
  84   2.0000      -5.943828      -161.7398
  85   2.0000      -5.943764      -161.7380
  86   2.0000      -5.942408      -161.7011
  87   2.0000      -5.941499      -161.6764
  88   2.0000      -5.940919      -161.6606
  89   2.0000      -5.940228      -161.6418
  90   2.0000      -5.940073      -161.6376
  91   2.0000      -5.939932      -161.6338
  92   2.0000      -5.938368      -161.5912
  93   2.0000      -5.938229      -161.5874
  94   2.0000      -5.937729      -161.5738
  95   2.0000      -5.937272      -161.5614
  96   2.0000      -5.937190      -161.5592
  97   2.0000      -5.937137      -161.5577
  98   2.0000      -5.936367      -161.5368
  99   2.0000      -5.934301      -161.4805
 100   2.0000      -5.933728      -161.4649
 101   2.0000      -1.054799       -28.7026
 102   2.0000      -1.054515       -28.6948
 103   2.0000      -1.041001       -28.3271
 104   2.0000      -1.027695       -27.9650
 105   2.0000      -1.027056       -27.9476
 106   2.0000      -0.940773       -25.5997
 107   2.0000      -0.937432       -25.5088
 108   2.0000      -0.930940       -25.3322
 109   2.0000      -0.929581       -25.2952
 110   2.0000      -0.927227       -25.2311
 111   2.0000      -0.925216       -25.1764
 112   2.0000      -0.919196       -25.0126
 113   2.0000      -0.916551       -24.9406
 114   2.0000      -0.902887       -24.5688
 115   2.0000      -0.900902       -24.5148
 116   2.0000      -0.897819       -24.4309
 117   2.0000      -0.887151       -24.1406
 118   2.0000      -0.874786       -23.8041
 119   2.0000      -0.866767       -23.5859
 120   2.0000      -0.849553       -23.1175
 121   2.0000      -0.847201       -23.0535
 122   2.0000      -0.833091       -22.6696
 123   2.0000      -0.821703       -22.3597
 124   2.0000      -0.818073       -22.2609
 125   2.0000      -0.815777       -22.1984
 126   2.0000      -0.814219       -22.1560
 127   2.0000      -0.810402       -22.0522
 128   2.0000      -0.803413       -21.8620
 129   2.0000      -0.801079       -21.7985
 130   2.0000      -0.790432       -21.5087
 131   2.0000      -0.788433       -21.4543
 132   2.0000      -0.779727       -21.2175
 133   2.0000      -0.770520       -20.9669
 134   2.0000      -0.756104       -20.5746
 135   2.0000      -0.752453       -20.4753
 136   2.0000      -0.745767       -20.2933
 137   2.0000      -0.743796       -20.2397
 138   2.0000      -0.742403       -20.2018
 139   2.0000      -0.728811       -19.8319
 140   2.0000      -0.726549       -19.7704
 141   2.0000      -0.718805       -19.5597
 142   2.0000      -0.706226       -19.2174
 143   2.0000      -0.689050       -18.7500
 144   2.0000      -0.681117       -18.5341
 145   2.0000      -0.679401       -18.4875
 146   2.0000      -0.676750       -18.4153
 147   2.0000      -0.675361       -18.3775
 148   2.0000      -0.656895       -17.8750
 149   2.0000      -0.651747       -17.7349
 150   2.0000      -0.647477       -17.6187
 151   2.0000      -0.643236       -17.5033
 152   2.0000      -0.634634       -17.2693
 153   2.0000      -0.627458       -17.0740
 154   2.0000      -0.623056       -16.9542
 155   2.0000      -0.613215       -16.6864
 156   2.0000      -0.611339       -16.6354
 157   2.0000      -0.606814       -16.5123
 158   2.0000      -0.600250       -16.3336
 159   2.0000      -0.590302       -16.0629
 160   2.0000      -0.588827       -16.0228
 161   2.0000      -0.587112       -15.9761
 162   2.0000      -0.584524       -15.9057
 163   2.0000      -0.578499       -15.7418
 164   2.0000      -0.567036       -15.4298
 165   2.0000      -0.560020       -15.2389
 166   2.0000      -0.559640       -15.2286
 167   2.0000      -0.547470       -14.8974
 168   2.0000      -0.545672       -14.8485
 169   2.0000      -0.544557       -14.8181
 170   2.0000      -0.535981       -14.5848
 171   2.0000      -0.526375       -14.3234
 172   2.0000      -0.523158       -14.2359
 173   2.0000      -0.521346       -14.1865
 174   2.0000      -0.517631       -14.0855
 175   2.0000      -0.512613       -13.9489
 176   2.0000      -0.510552       -13.8928
 177   2.0000      -0.508015       -13.8238
 178   2.0000      -0.502318       -13.6688
 179   2.0000      -0.497949       -13.5499
 180   2.0000      -0.489980       -13.3330
 181   2.0000      -0.484662       -13.1883
 182   2.0000      -0.482434       -13.1277
 183   2.0000      -0.481531       -13.1031
 184   2.0000      -0.477369       -12.9899
 185   2.0000      -0.475669       -12.9436
 186   2.0000      -0.474115       -12.9013
 187   2.0000      -0.470375       -12.7996
 188   2.0000      -0.464263       -12.6332
 189   2.0000      -0.463705       -12.6181
 190   2.0000      -0.462682       -12.5902
 191   2.0000      -0.462244       -12.5783
 192   2.0000      -0.460819       -12.5395
 193   2.0000      -0.456835       -12.4311
 194   2.0000      -0.455475       -12.3941
 195   2.0000      -0.453985       -12.3536
 196   2.0000      -0.453521       -12.3409
 197   2.0000      -0.446436       -12.1481
 198   2.0000      -0.444893       -12.1062
 199   2.0000      -0.442594       -12.0436
 200   2.0000      -0.439505       -11.9595
 201   2.0000      -0.434806       -11.8317
 202   2.0000      -0.434263       -11.8169
 203   2.0000      -0.431967       -11.7544
 204   2.0000      -0.425978       -11.5914
 205   2.0000      -0.425372       -11.5750
 206   2.0000      -0.424409       -11.5488
 207   2.0000      -0.423249       -11.5172
 208   2.0000      -0.421518       -11.4701
 209   2.0000      -0.420354       -11.4384
 210   2.0000      -0.418548       -11.3893
 211   2.0000      -0.416283       -11.3276
 212   2.0000      -0.415904       -11.3173
 213   2.0000      -0.414010       -11.2658
 214   2.0000      -0.411385       -11.1944
 215   2.0000      -0.407190       -11.0802
 216   2.0000      -0.405908       -11.0453
 217   2.0000      -0.402015       -10.9394
 218   2.0000      -0.401677       -10.9302
 219   2.0000      -0.399701       -10.8764
 220   2.0000      -0.395413       -10.7597
 221   2.0000      -0.394130       -10.7248
 222   2.0000      -0.391186       -10.6447
 223   2.0000      -0.390253       -10.6193
 224   2.0000      -0.387462       -10.5434
 225   2.0000      -0.386169       -10.5082
 226   2.0000      -0.385008       -10.4766
 227   2.0000      -0.383597       -10.4382
 228   2.0000      -0.381873       -10.3913
 229   2.0000      -0.379678       -10.3316
 230   2.0000      -0.379356       -10.3228
 231   2.0000      -0.376797       -10.2532
 232   2.0000      -0.373268       -10.1571
 233   2.0000      -0.373185       -10.1549
 234   2.0000      -0.369044       -10.0422
 235   2.0000      -0.368608       -10.0303
 236   2.0000      -0.366768        -9.9803
 237   2.0000      -0.366534        -9.9739
 238   2.0000      -0.364671        -9.9232
 239   2.0000      -0.362549        -9.8655
 240   2.0000      -0.360668        -9.8143
 241   2.0000      -0.359647        -9.7865
 242   2.0000      -0.356582        -9.7031
 243   2.0000      -0.355711        -9.6794
 244   2.0000      -0.353335        -9.6147
 245   2.0000      -0.353029        -9.6064
 246   2.0000      -0.351575        -9.5668
 247   2.0000      -0.348851        -9.4927
 248   2.0000      -0.344225        -9.3668
 249   2.0000      -0.342153        -9.3105
 250   2.0000      -0.340308        -9.2603
 251   2.0000      -0.337773        -9.1913
 252   2.0000      -0.335393        -9.1265
 253   2.0000      -0.330715        -8.9992
 254   2.0000      -0.329692        -8.9714
 255   2.0000      -0.327602        -8.9145
 256   2.0000      -0.315121        -8.5749
 257   2.0000      -0.312858        -8.5133
 258   2.0000      -0.302417        -8.2292
 259   2.0000      -0.297741        -8.1019
 260   2.0000      -0.297603        -8.0982
 261   2.0000      -0.285480        -7.7683
 262   2.0000      -0.279496        -7.6055
 263   2.0000      -0.272591        -7.4176
 264   2.0000      -0.269776        -7.3410
 265   2.0000      -0.262557        -7.1445
 266   2.0000      -0.261724        -7.1219
 267   2.0000      -0.259387        -7.0583
 268   2.0000      -0.258046        -7.0218
 269   2.0000      -0.245196        -6.6721
 270   2.0000      -0.242985        -6.6120
 271   2.0000      -0.238549        -6.4913
 272   2.0000      -0.231019        -6.2863
 273   2.0000      -0.227680        -6.1955
 274   2.0000      -0.199463        -5.4277
 275   0.0000      -0.126471        -3.4415
 276   0.0000      -0.118987        -3.2378
 277   0.0000      -0.099658        -2.7118
 278   0.0000      -0.096691        -2.6311
 279   0.0000      -0.083722        -2.2782

MULLIKEN ATOMIC CHARGES
-----------------------
   0 C :    0.178683
   1 O :   -0.333802
   2 C :    0.141609
   3 C :   -0.333077
   4 C :    0.195116
   5 C :    0.063314
   6 C :   -0.246989
   7 C :    0.073043
   8 C :    0.067556
   9 C :    0.123482
  10 C :   -0.228248
  11 N :    0.037145
  12 C :   -0.238460
  13 N :    0.051065
  14 C :   -0.136730
  15 C :   -0.209676
  16 C :    0.142084
  17 S :   -0.023054
  18 C :   -0.267252
  19 C :    0.043220
  20 C :    0.049481
  21 C :   -0.225379
  22 C :   -0.345795
  23 S :    0.027776
  24 C :   -0.153787
  25 C :    0.394879
  26 N :   -0.104179
  27 C :   -0.119531
  28 C :   -0.348288
  29 C :   -0.048458
  30 C :    0.105421
  31 C :   -0.019925
  32 N :   -0.253041
  33 S :    0.346530
  34 N :   -0.250601
  35 C :   -0.010104
  36 C :    0.072392
  37 C :    0.107040
  38 N :   -0.046542
  39 C :   -0.227696
  40 C :   -0.317826
  41 C :    0.389578
  42 C :   -0.166880
  43 S :    0.014062
  44 C :    0.061998
  45 C :   -0.205112
  46 S :   -0.023237
  47 C :    0.142609
  48 C :   -0.003622
  49 C :   -0.176047
  50 C :   -0.349377
  51 C :   -0.227305
  52 C :    0.020815
  53 C :   -0.124544
  54 C :    0.092237
  55 C :   -0.207263
  56 N :    0.040865
  57 C :   -0.235503
  58 N :    0.049696
  59 C :    0.136042
  60 C :   -0.238486
  61 C :    0.059038
  62 C :    0.195711
  63 C :   -0.319487
  64 C :    0.038970
  65 C :    0.194319
  66 O :   -0.293930
  67 C :   -0.218770
  68 C :   -0.120147
  69 S :    0.074993
  70 S :    0.075105
  71 C :   -0.122360
  72 C :   -0.213668
  73 H :    0.148973
  74 H :    0.150251
  75 H :    0.120917
  76 H :    0.160871
  77 H :    0.155987
  78 H :    0.155288
  79 H :    0.091636
  80 H :    0.131280
  81 H :    0.113135
  82 H :    0.111381
  83 H :    0.092459
  84 H :    0.127858
  85 H :    0.123865
  86 H :    0.120780
  87 H :    0.140921
  88 H :    0.134610
  89 H :    0.167948
  90 H :    0.120079
  91 H :    0.143471
  92 H :    0.121962
  93 H :    0.110807
  94 H :    0.128875
  95 H :    0.133874
  96 H :    0.125881
  97 H :    0.115629
  98 H :    0.145382
  99 H :    0.155430
 100 H :    0.124369
 101 H :    0.127842
 102 H :    0.126547
Sum of atomic charges:    0.0000000

LOEWDIN ATOMIC CHARGES
----------------------
   0 C :   -0.257819
   1 O :    0.132624
   2 C :   -0.063282
   3 C :   -0.033429
   4 C :   -0.131811
   5 C :   -0.297473
   6 C :   -0.074347
   7 C :   -0.049395
   8 C :    0.006246
   9 C :   -0.138582
  10 C :   -0.163227
  11 N :    0.077563
  12 C :   -0.170597
  13 N :    0.079212
  14 C :   -0.089671
  15 C :   -0.070386
  16 C :   -0.293050
  17 S :    0.751013
  18 C :   -0.348106
  19 C :   -0.318999
  20 C :   -0.124045
  21 C :   -0.230746
  22 C :   -0.284372
  23 S :    0.759301
  24 C :   -0.288339
  25 C :   -0.188775
  26 N :    0.286458
  27 C :   -0.269854
  28 C :   -0.287027
  29 C :   -0.095684
  30 C :   -0.088962
  31 C :   -0.244825
  32 N :   -0.127344
  33 S :    0.654306
  34 N :   -0.127707
  35 C :   -0.244103
  36 C :   -0.091179
  37 C :   -0.094158
  38 N :    0.298096
  39 C :   -0.267077
  40 C :   -0.297223
  41 C :   -0.182969
  42 C :   -0.289648
  43 S :    0.760610
  44 C :   -0.315587
  45 C :   -0.340370
  46 S :    0.767705
  47 C :   -0.311385
  48 C :   -0.136296
  49 C :   -0.226134
  50 C :   -0.283615
  51 C :   -0.068872
  52 C :   -0.087492
  53 C :   -0.006644
  54 C :   -0.147139
  55 C :   -0.167398
  56 N :    0.079854
  57 C :   -0.163187
  58 N :    0.093399
  59 C :   -0.049573
  60 C :   -0.076718
  61 C :   -0.296904
  62 C :   -0.131503
  63 C :   -0.031153
  64 C :   -0.063528
  65 C :   -0.255340
  66 O :    0.130720
  67 C :   -0.155454
  68 C :   -0.360422
  69 S :    0.742425
  70 S :    0.742431
  71 C :   -0.360923
  72 C :   -0.156161
  73 H :    0.129151
  74 H :    0.129358
  75 H :    0.157220
  76 H :    0.161406
  77 H :    0.170182
  78 H :    0.156966
  79 H :    0.139264
  80 H :    0.122603
  81 H :    0.119781
  82 H :    0.121944
  83 H :    0.140340
  84 H :    0.136813
  85 H :    0.125419
  86 H :    0.125296
  87 H :    0.122909
  88 H :    0.141223
  89 H :    0.141902
  90 H :    0.117008
  91 H :    0.120052
  92 H :    0.126131
  93 H :    0.150489
  94 H :    0.150520
  95 H :    0.128126
  96 H :    0.115006
  97 H :    0.122419
  98 H :    0.169846
  99 H :    0.160394
 100 H :    0.158253
 101 H :    0.147210
 102 H :    0.146817

  Mayer bond orders larger than 0.100000
B(  0-C ,  1-O ) :   2.0967 B(  0-C ,  2-C ) :   0.9792 B(  0-C , 14-C ) :   1.0170
B(  1-O ,  2-C ) :  -0.1845 B(  1-O ,  3-C ) :   0.1049 B(  2-C ,  3-C ) :   1.4415
B(  2-C ,  7-C ) :   1.2678 B(  3-C ,  4-C ) :   1.1849 B(  3-C , 75-H ) :   1.0105
B(  4-C ,  5-C ) :   1.2258 B(  4-C , 72-C ) :   1.1483 B(  5-C ,  6-C ) :   1.3107
B(  5-C , 70-S ) :   1.2675 B(  6-C ,  7-C ) :   1.4618 B(  6-C , 76-H ) :   0.9096
B(  7-C ,  8-C ) :   1.0656 B(  8-C ,  9-C ) :   1.4485 B(  8-C , 14-C ) :   1.0870
B(  9-C , 10-C ) :   1.0437 B(  9-C , 12-C ) :   1.0272 B( 10-C , 11-N ) :   2.9871
B( 12-C , 13-N ) :   3.0154 B( 14-C , 15-C ) :   1.4878 B( 15-C , 16-C ) :   1.1929
B( 15-C , 77-H ) :   0.9236 B( 16-C , 17-S ) :   1.1728 B( 16-C , 20-C ) :   1.4151
B( 17-S , 18-C ) :   1.3713 B( 17-S , 20-C ) :   0.1011 B( 17-S , 25-C ) :  -0.1567
B( 18-C , 19-C ) :   1.3455 B( 18-C , 23-S ) :   0.1215 B( 18-C , 25-C ) :   1.0379
B( 19-C , 20-C ) :   1.2276 B( 19-C , 23-S ) :   1.1957 B( 20-C , 21-C ) :   0.9427
B( 21-C , 22-C ) :   0.9467 B( 21-C , 78-H ) :   0.9528 B( 21-C , 79-H ) :   0.9680
B( 22-C , 80-H ) :   0.9771 B( 22-C , 81-H ) :   0.9758 B( 22-C , 82-H ) :   0.9717
B( 23-S , 24-C ) :   1.3597 B( 24-C , 25-C ) :   1.2705 B( 24-C , 30-C ) :   1.1414
B( 25-C , 26-N ) :   1.1149 B( 26-N , 27-C ) :   0.8884 B( 26-N , 29-C ) :   1.1891
B( 27-C , 28-C ) :   0.9674 B( 27-C , 83-H ) :   0.9533 B( 27-C , 84-H ) :   0.9623
B( 28-C , 85-H ) :   0.9681 B( 28-C , 86-H ) :   0.9693 B( 28-C , 87-H ) :   0.9740
B( 29-C , 30-C ) :   1.3027 B( 29-C , 37-C ) :   1.2568 B( 30-C , 31-C ) :   1.1085
B( 31-C , 32-N ) :   1.5875 B( 31-C , 33-S ) :   0.1140 B( 31-C , 35-C ) :   1.1833
B( 32-N , 33-S ) :   1.2887 B( 33-S , 34-N ) :   1.2857 B( 33-S , 35-C ) :   0.1206
B( 34-N , 35-C ) :   1.5873 B( 35-C , 36-C ) :   1.1284 B( 36-C , 37-C ) :   1.2485
B( 36-C , 42-C ) :   1.1915 B( 37-C , 38-N ) :   1.2288 B( 38-N , 39-C ) :   0.8770
B( 38-N , 41-C ) :   1.1284 B( 39-C , 40-C ) :   0.9408 B( 39-C , 88-H ) :   0.9588
B( 39-C , 89-H ) :   0.9637 B( 40-C , 90-H ) :   0.9660 B( 40-C , 91-H ) :   0.9618
B( 40-C , 92-H ) :   0.9700 B( 41-C , 42-C ) :   1.2563 B( 41-C , 44-C ) :  -0.1001
B( 41-C , 45-C ) :   1.0420 B( 41-C , 46-S ) :  -0.1468 B( 42-C , 43-S ) :   1.3555
B( 43-S , 44-C ) :   1.1658 B( 43-S , 45-C ) :   0.1204 B( 44-C , 45-C ) :   1.4297
B( 44-C , 48-C ) :   1.2334 B( 45-C , 46-S ) :   1.3198 B( 46-S , 47-C ) :   1.1960
B( 47-C , 48-C ) :   1.4102 B( 47-C , 51-C ) :   1.0476 B( 48-C , 49-C ) :   0.9486
B( 49-C , 50-C ) :   0.9553 B( 49-C , 93-H ) :   0.9435 B( 49-C , 94-H ) :   0.9842
B( 50-C , 95-H ) :   0.9696 B( 50-C , 96-H ) :   0.9656 B( 50-C , 97-H ) :   0.9743
B( 51-C , 52-C ) :   1.5181 B( 51-C , 66-O ) :   0.1075 B( 51-C , 98-H ) :   0.9502
B( 52-C , 53-C ) :   1.1303 B( 52-C , 65-C ) :   0.9991 B( 52-C , 66-O ) :  -0.1434
B( 53-C , 54-C ) :   1.3648 B( 53-C , 59-C ) :   1.0401 B( 54-C , 55-C ) :   1.0564
B( 54-C , 57-C ) :   1.0755 B( 55-C , 56-N ) :   2.9932 B( 57-C , 58-N ) :   2.9776
B( 59-C , 60-C ) :   1.4276 B( 59-C , 64-C ) :   1.2648 B( 60-C , 61-C ) :   1.3118
B( 60-C , 99-H ) :   0.9267 B( 61-C , 62-C ) :   1.2304 B( 61-C , 69-S ) :   1.2583
B( 62-C , 63-C ) :   1.1864 B( 62-C , 67-C ) :   1.1477 B( 63-C , 64-C ) :   1.4354
B( 63-C , 66-O ) :   0.1016 B( 63-C ,100-H ) :   1.0082 B( 64-C , 65-C ) :   0.9790
B( 64-C , 66-O ) :  -0.1740 B( 65-C , 66-O ) :   2.1928 B( 67-C , 68-C ) :   1.7345
B( 67-C , 69-S ) :   0.1457 B( 67-C ,101-H ) :   0.9560 B( 68-C , 69-S ) :   1.1886
B( 68-C , 74-H ) :   0.9381 B( 70-S , 71-C ) :   1.1932 B( 70-S , 72-C ) :   0.1429
B( 71-C , 72-C ) :   1.7294 B( 71-C , 73-H ) :   0.9394 B( 72-C ,102-H ) :   0.9579

-----------------------------------------------------------------------------
         ABSORPTION SPECTRUM VIA TRANSITION ELECTRIC DIPOLE MOMENTS
-----------------------------------------------------------------------------
State   Energy    Wavelength  fosc         T2        TX        TY        TZ
        (cm-1)      (nm)                 (au**2)    (au)      (au)      (au)
-----------------------------------------------------------------------------
   1   14473.8    690.9   2.319154876  52.75000   0.07678   7.25074   0.41335
   2   16469.7    607.2   0.171294258   3.42398   0.29780  -1.49597   1.04755
   3   19373.3    516.2   0.428416150   7.28009   0.06824   2.68764   0.22807
   4   19557.1    511.3   0.023462890   0.39496   0.01272   0.33283   0.53294
   5   19981.4    500.5   0.012200347   0.20101   0.40037   0.11573   0.16531
   6   20670.5    483.8   0.087763538   1.39778   0.03505  -1.14515  -0.29185
   7   21778.8    459.2   0.145445081   2.19857   0.34367   1.03553   1.00406
   8   21808.3    458.5   0.171046880   2.58207  -0.43080   0.89480  -1.26326
   9   22213.8    450.2   0.023392423   0.34668  -0.15019   0.46922  -0.32242
  10   22936.1    436.0   0.059165948   0.84924   0.37396  -0.76694   0.34814
  11   23267.9    429.8   0.036836393   0.52119  -0.64455   0.29179  -0.14354
  12   23331.1    428.6   0.025006873   0.35286  -0.14840  -0.47092   0.33026
  13   23582.7    424.0   0.035437645   0.49471  -0.47121  -0.47821  -0.20972
  14   25014.3    399.8   0.005391029   0.07095  -0.13429  -0.15485   0.17011
  15   25309.6    395.1   0.032163958   0.41837  -0.19999   0.61215   0.06035
  16   25319.0    395.0   0.002818656   0.03665  -0.00541   0.19102  -0.01145
  17   25705.1    389.0   0.014573541   0.18665  -0.07582  -0.22548   0.36064
  18   25874.4    386.5   0.002395547   0.03048  -0.13013  -0.03131   0.11209
  19   26053.3    383.8   0.033415894   0.42225  -0.04501  -0.64752   0.03073
  20   26154.7    382.3   0.017386946   0.21885  -0.14954  -0.08836  -0.43438
  21   26398.4    378.8   0.029556266   0.36859   0.23142  -0.38559   0.40787
  22   26551.4    376.6   0.031227231   0.38719   0.60656   0.00213   0.13881
  23   26718.4    374.3   0.010599376   0.13060   0.32224   0.16313  -0.01222
  24   26907.8    371.6   0.020178176   0.24688  -0.30391  -0.24820  -0.30482
  25   27380.9    365.2   0.445642571   5.35814   0.26072  -2.29689  -0.12023
  26   27789.5    359.8   0.027399168   0.32459   0.11794  -0.54452   0.11906
  27   28078.4    356.1   0.094381002   1.10659  -0.03869  -1.05072   0.03287
  28   28160.8    355.1   0.018226440   0.21308   0.06812   0.45543  -0.03197
  29   28269.3    353.7   0.041092205   0.47854   0.50303   0.08951   0.46636
  30   28506.2    350.8   0.023229521   0.26827   0.19821   0.02164   0.47804
  31   28547.9    350.3   0.010268192   0.11841   0.31404   0.14067   0.00160
  32   28858.2    346.5   0.048964062   0.55858   0.48214   0.08590   0.56457
  33   28986.5    345.0   0.074036055   0.84086   0.89787   0.04135  -0.18161
  34   29162.9    342.9   0.016322855   0.18426   0.26163   0.03814   0.33817
  35   29266.9    341.7   0.064172632   0.72185   0.11345   0.08971   0.83722
  36   29495.0    339.0   0.050621980   0.56502   0.05686  -0.51527   0.54432
  37   29756.7    336.1   0.192490931   2.12961  -1.20798  -0.24123  -0.78243
  38   30183.6    331.3   0.158964269   1.73382   0.03586  -1.29041  -0.25959
  39   30489.6    328.0   0.011607664   0.12533  -0.32783   0.01512   0.13278
  40   30628.1    326.5   0.074814675   0.80416   0.47884  -0.71474  -0.25301
  41   30850.3    324.1   0.269852269   2.87967   1.60489   0.02316  -0.55087
  42   30993.8    322.6   0.100929658   1.07206   0.57889   0.85570  -0.06871
  43   31114.5    321.4   0.127975270   1.35406   1.08517   0.28013  -0.31303
  44   31238.0    320.1   0.154140401   1.62446   0.87808   0.91387   0.13515
  45   31471.9    317.7   0.006844263   0.07159  -0.18331   0.18503   0.06131
  46   31957.7    312.9   0.013812634   0.14229   0.13861  -0.24208  -0.25392
  47   32253.1    310.0   0.231918450   2.36723  -0.02325   1.53840  -0.00021
  48   32467.0    308.0   0.033157205   0.33621   0.15504  -0.53743  -0.15279
  49   32675.7    306.0   0.009850958   0.09925   0.22849   0.17236   0.13166
  50   32824.7    304.6   0.057864773   0.58035  -0.15394  -0.50410  -0.55003

FINAL SINGLE POINT ENERGY     -5526.788225412605

DIPOLE MOMENT
-------------
                                X             Y             Z
Electronic contribution:      4.59570       1.40523      -8.76942
Nuclear contribution   :     -1.13952      -0.03402       8.29736
                        -----------------------------------------
Total Dipole Moment    :      3.45618       1.37121      -0.47205
                        -----------------------------------------
Magnitude (a.u.)       :      3.74810
Magnitude (Debye)      :      9.52690

Rotational constants in cm-1:     0.002015     0.000211     0.000204
Rotational constants in MHz :    60.410535     6.335785     6.120096

                             ****ORCA TERMINATED NORMALLY****
TOTAL RUN TIME: 3 days 1 hours 16 minutes 39 seconds 409 msec
