                         Program Version 4.2.0 -  RELEASE  -
|  1> # ORCA input file
|  2> # BTTPC-Br.out: Geometry 93
|  3> ! B3LYP def2-TZVP def2/J RIJCOSX Grid4 TightSCF
|  4>
|  5> %maxcore 6000
|  6> %tddft
|  7>   maxdim 5
|  8>   nroots 50
|  9>   end
| 10> %pal
| 11>   nprocs 6
| 12>   end
| 13>
| 14>
| 15> * xyz 0 1
| 16>    C       -3.41386        -1.38753        -0.65858
| 17>    O       -2.96078        -0.59725        -1.46209
| 18>    C       -2.74576        -2.62331        -0.16900
| 19>    C       -1.47224        -3.06169        -0.47769
| 20>    C       -1.01387        -4.24383         0.13954
| 21>    C       -1.88973        -4.93852         1.03019
| 22>    C       -3.18297        -4.49616         1.33479
| 23>    C       -3.60740        -3.31300         0.72815
| 24>    C       -4.86275        -2.54723         0.85654
| 25>    C       -6.01591        -2.96052         1.49801
| 26>    C       -6.10251        -4.20722         2.19138
| 27>    N       -6.16665        -5.21804         2.76144
| 28>    C       -7.22715        -2.19832         1.48033
| 29>    N       -8.22541        -1.60294         1.47693
| 30>    C       -4.69430        -1.29622         0.11655
| 31>    C       -5.35439        -0.11655         0.36773
| 32>    C       -5.22058         1.11276        -0.34855
| 33>    S       -5.13854         2.60019         0.62207
| 34>    C       -4.95690         3.55303        -0.80896
| 35>    C       -5.03002         2.75637        -1.96890
| 36>    C       -5.16249         1.36784        -1.72528
| 37>    C       -5.38935         0.35023        -2.80625
| 38>    C       -6.74507         0.52898        -3.50690
| 39>    S       -4.90860         3.69971        -3.45763
| 40>    C       -4.73880         5.15396        -2.50645
| 41>    C       -4.75021         4.91418        -1.12556
| 42>    N       -4.62476         6.10769        -0.43243
| 43>    C       -5.19359         6.19593         0.91356
| 44>    C       -6.70497         6.38799         0.89479
| 45>    C       -4.55757         7.13368        -1.38355
| 46>    C       -4.65429         6.55634        -2.68581
| 47>    C       -4.76481         7.38608        -3.84933
| 48>    N       -4.90295         6.98764        -5.10656
| 49>    S       -5.09387         8.35132        -6.02624
| 50>    N       -5.00070         9.48705        -4.82441
| 51>    C       -4.81860         8.83020        -3.68720
| 52>    C       -4.62101         9.39563        -2.38607
| 53>    C       -4.42445         8.55598        -1.24607
| 54>    N       -4.10709         9.36325        -0.15265
| 55>    C       -3.40828         8.99656         1.07982
| 56>    C       -4.22226         9.24304         2.34833
| 57>    C       -4.14043        10.68092        -0.57907
| 58>    C       -4.46530        10.72912        -1.94394
| 59>    S       -4.47694        12.34775        -2.59367
| 60>    C       -4.01396        12.97391        -1.00669
| 61>    C       -3.84931        11.95496        -0.04395
| 62>    S       -3.32243        12.60397         1.46678
| 63>    C       -3.36706        14.25765         0.81687
| 64>    C       -3.75550        14.28277        -0.53697
| 65>    C       -3.74547        15.49044        -1.43549
| 66>    C       -5.06508        15.74983        -2.18073
| 67>    C       -2.89446        15.26153         1.70973
| 68>    C       -3.08809        16.61723         1.84420
| 69>    C       -4.05647        17.58464         1.34924
| 70>    C       -5.34006        17.30575         0.90551
| 71>    C       -6.22086        18.31464         0.40985
| 72>    N       -6.93159        19.12724        -0.02205
| 73>    C       -5.91190        16.00428         1.01689
| 74>    N       -6.39947        14.95425         1.12248
| 75>    C       -3.52945        18.93945         1.64810
| 76>    C       -3.98686        20.21107         1.29838
| 77>    C       -3.30656        21.30836         1.84839
| 78>    C       -2.20305        21.17400         2.74660
| 79>    C       -1.74731        19.88113         3.07125
| 80>    C       -2.40394        18.80363         2.50852
| 81>    C       -2.09657        17.36467         2.69141
| 82>    O       -1.20216        16.88489         3.35829
| 83>    C       -1.70555        22.44423         3.19563
| 84>    C       -2.39776        23.48687         2.64922
| 85>    S       -3.68718        22.99481         1.56866
| 86>    S       -1.12615        -6.37120         1.68187
| 87>    C        0.33607        -6.02391         0.78099
| 88>    C        0.26150        -4.89326         0.01762
| 89>   Br        1.80930        -7.17066         0.94760
| 90>   Br       -2.09633        25.31141         2.94938
| 91>    H       -0.84675        -2.49212        -1.16856
| 92>    H       -3.81020        -5.05426         2.02784
| 93>    H       -5.97561        -0.07128         1.26804
| 94>    H       -5.32937        -0.65778        -2.38267
| 95>    H       -4.56390         0.42675        -3.53299
| 96>    H       -7.57075         0.38548        -2.79310
| 97>    H       -6.86159        -0.21086        -4.31343
| 98>    H       -6.85273         1.52984        -3.95176
| 99>    H       -4.70946         6.99890         1.46677
|100>    H       -4.91946         5.26649         1.43410
|101>    H       -6.97228         7.32706         0.38602
|102>    H       -7.10005         6.42900         1.92118
|103>    H       -7.20075         5.55867         0.36919
|104>    H       -2.47795         9.58628         1.11838
|105>    H       -3.09363         7.94941         0.98728
|106>    H       -5.18395         8.71110         2.33060
|107>    H       -4.44535        10.31161         2.48034
|108>    H       -3.65255         8.90466         3.22787
|109>    H       -2.94865        15.32888        -2.18370
|110>    H       -3.44568        16.37632        -0.86415
|111>    H       -5.91774        15.82400        -1.49449
|112>    H       -5.29405        14.94193        -2.89154
|113>    H       -5.00119        16.68665        -2.75395
|114>    H       -2.16858        14.89752         2.45225
|115>    H       -4.83787        20.36298         0.63667
|116>    H       -0.90449        19.71930         3.74607
|117>    H       -0.87263        22.56710         3.88728
|118>    H        1.07995        -4.52634        -0.60081
|119> *
|120>
|121>                          ****END OF INPUT****

CARTESIAN COORDINATES (ANGSTROEM)
---------------------------------
  C     -3.413860   -1.387530   -0.658580
  O     -2.960780   -0.597250   -1.462090
  C     -2.745760   -2.623310   -0.169000
  C     -1.472240   -3.061690   -0.477690
  C     -1.013870   -4.243830    0.139540
  C     -1.889730   -4.938520    1.030190
  C     -3.182970   -4.496160    1.334790
  C     -3.607400   -3.313000    0.728150
  C     -4.862750   -2.547230    0.856540
  C     -6.015910   -2.960520    1.498010
  C     -6.102510   -4.207220    2.191380
  N     -6.166650   -5.218040    2.761440
  C     -7.227150   -2.198320    1.480330
  N     -8.225410   -1.602940    1.476930
  C     -4.694300   -1.296220    0.116550
  C     -5.354390   -0.116550    0.367730
  C     -5.220580    1.112760   -0.348550
  S     -5.138540    2.600190    0.622070
  C     -4.956900    3.553030   -0.808960
  C     -5.030020    2.756370   -1.968900
  C     -5.162490    1.367840   -1.725280
  C     -5.389350    0.350230   -2.806250
  C     -6.745070    0.528980   -3.506900
  S     -4.908600    3.699710   -3.457630
  C     -4.738800    5.153960   -2.506450
  C     -4.750210    4.914180   -1.125560
  N     -4.624760    6.107690   -0.432430
  C     -5.193590    6.195930    0.913560
  C     -6.704970    6.387990    0.894790
  C     -4.557570    7.133680   -1.383550
  C     -4.654290    6.556340   -2.685810
  C     -4.764810    7.386080   -3.849330
  N     -4.902950    6.987640   -5.106560
  S     -5.093870    8.351320   -6.026240
  N     -5.000700    9.487050   -4.824410
  C     -4.818600    8.830200   -3.687200
  C     -4.621010    9.395630   -2.386070
  C     -4.424450    8.555980   -1.246070
  N     -4.107090    9.363250   -0.152650
  C     -3.408280    8.996560    1.079820
  C     -4.222260    9.243040    2.348330
  C     -4.140430   10.680920   -0.579070
  C     -4.465300   10.729120   -1.943940
  S     -4.476940   12.347750   -2.593670
  C     -4.013960   12.973910   -1.006690
  C     -3.849310   11.954960   -0.043950
  S     -3.322430   12.603970    1.466780
  C     -3.367060   14.257650    0.816870
  C     -3.755500   14.282770   -0.536970
  C     -3.745470   15.490440   -1.435490
  C     -5.065080   15.749830   -2.180730
  C     -2.894460   15.261530    1.709730
  C     -3.088090   16.617230    1.844200
  C     -4.056470   17.584640    1.349240
  C     -5.340060   17.305750    0.905510
  C     -6.220860   18.314640    0.409850
  N     -6.931590   19.127240   -0.022050
  C     -5.911900   16.004280    1.016890
  N     -6.399470   14.954250    1.122480
  C     -3.529450   18.939450    1.648100
  C     -3.986860   20.211070    1.298380
  C     -3.306560   21.308360    1.848390
  C     -2.203050   21.174000    2.746600
  C     -1.747310   19.881130    3.071250
  C     -2.403940   18.803630    2.508520
  C     -2.096570   17.364670    2.691410
  O     -1.202160   16.884890    3.358290
  C     -1.705550   22.444230    3.195630
  C     -2.397760   23.486870    2.649220
  S     -3.687180   22.994810    1.568660
  S     -1.126150   -6.371200    1.681870
  C      0.336070   -6.023910    0.780990
  C      0.261500   -4.893260    0.017620
  Br     1.809300   -7.170660    0.947600
  Br    -2.096330   25.311410    2.949380
  H     -0.846750   -2.492120   -1.168560
  H     -3.810200   -5.054260    2.027840
  H     -5.975610   -0.071280    1.268040
  H     -5.329370   -0.657780   -2.382670
  H     -4.563900    0.426750   -3.532990
  H     -7.570750    0.385480   -2.793100
  H     -6.861590   -0.210860   -4.313430
  H     -6.852730    1.529840   -3.951760
  H     -4.709460    6.998900    1.466770
  H     -4.919460    5.266490    1.434100
  H     -6.972280    7.327060    0.386020
  H     -7.100050    6.429000    1.921180
  H     -7.200750    5.558670    0.369190
  H     -2.477950    9.586280    1.118380
  H     -3.093630    7.949410    0.987280
  H     -5.183950    8.711100    2.330600
  H     -4.445350   10.311610    2.480340
  H     -3.652550    8.904660    3.227870
  H     -2.948650   15.328880   -2.183700
  H     -3.445680   16.376320   -0.864150
  H     -5.917740   15.824000   -1.494490
  H     -5.294050   14.941930   -2.891540
  H     -5.001190   16.686650   -2.753950
  H     -2.168580   14.897520    2.452250
  H     -4.837870   20.362980    0.636670
  H     -0.904490   19.719300    3.746070
  H     -0.872630   22.567100    3.887280
  H      1.079950   -4.526340   -0.600810

 Total Charge           Charge          ....    0
 Multiplicity           Mult            ....    1
 Number of Electrons    NEL             ....  618
 Basis Dimension        Dim             .... 2569

ORBITAL ENERGIES
----------------

  NO   OCC          E(Eh)            E(eV)
   0   2.0000    -482.891054    -13140.1336
   1   2.0000    -482.889668    -13140.0959
   2   2.0000     -88.941812     -2420.2297
   3   2.0000     -88.916193     -2419.5326
   4   2.0000     -88.914823     -2419.4953
   5   2.0000     -88.909754     -2419.3574
   6   2.0000     -88.909452     -2419.3492
   7   2.0000     -88.906367     -2419.2652
   8   2.0000     -88.905776     -2419.2492
   9   2.0000     -62.537963     -1701.7445
  10   2.0000     -62.536602     -1701.7075
  11   2.0000     -56.353572     -1533.4586
  12   2.0000     -56.352206     -1533.4215
  13   2.0000     -56.350943     -1533.3871
  14   2.0000     -56.350881     -1533.3854
  15   2.0000     -56.349582     -1533.3501
  16   2.0000     -56.349524     -1533.3485
  17   2.0000     -19.130898      -520.5782
  18   2.0000     -19.127699      -520.4911
  19   2.0000     -14.404704      -391.9719
  20   2.0000     -14.401421      -391.8826
  21   2.0000     -14.356587      -390.6626
  22   2.0000     -14.356159      -390.6509
  23   2.0000     -14.330934      -389.9645
  24   2.0000     -14.330453      -389.9515
  25   2.0000     -14.329229      -389.9181
  26   2.0000     -14.329189      -389.9171
  27   2.0000     -10.280237      -279.7395
  28   2.0000     -10.278428      -279.6903
  29   2.0000     -10.278423      -279.6901
  30   2.0000     -10.273379      -279.5529
  31   2.0000     -10.259975      -279.1881
  32   2.0000     -10.259795      -279.1832
  33   2.0000     -10.258047      -279.1357
  34   2.0000     -10.257283      -279.1149
  35   2.0000     -10.255933      -279.0781
  36   2.0000     -10.255664      -279.0708
  37   2.0000     -10.253610      -279.0149
  38   2.0000     -10.247492      -278.8484
  39   2.0000     -10.245002      -278.7807
  40   2.0000     -10.244368      -278.7634
  41   2.0000     -10.243871      -278.7499
  42   2.0000     -10.242691      -278.7178
  43   2.0000     -10.242617      -278.7158
  44   2.0000     -10.241537      -278.6864
  45   2.0000     -10.241169      -278.6764
  46   2.0000     -10.240847      -278.6676
  47   2.0000     -10.238855      -278.6134
  48   2.0000     -10.235130      -278.5120
  49   2.0000     -10.233861      -278.4775
  50   2.0000     -10.231410      -278.4108
  51   2.0000     -10.230912      -278.3973
  52   2.0000     -10.230902      -278.3970
  53   2.0000     -10.230365      -278.3824
  54   2.0000     -10.229577      -278.3610
  55   2.0000     -10.229326      -278.3541
  56   2.0000     -10.229007      -278.3454
  57   2.0000     -10.228539      -278.3327
  58   2.0000     -10.228079      -278.3202
  59   2.0000     -10.227725      -278.3106
  60   2.0000     -10.227259      -278.2979
  61   2.0000     -10.226276      -278.2711
  62   2.0000     -10.226188      -278.2687
  63   2.0000     -10.225153      -278.2405
  64   2.0000     -10.223510      -278.1958
  65   2.0000     -10.219999      -278.1003
  66   2.0000     -10.219052      -278.0745
  67   2.0000     -10.217784      -278.0400
  68   2.0000     -10.217381      -278.0291
  69   2.0000     -10.215840      -277.9871
  70   2.0000     -10.215657      -277.9822
  71   2.0000     -10.214595      -277.9533
  72   2.0000     -10.214114      -277.9402
  73   2.0000     -10.213965      -277.9361
  74   2.0000     -10.212938      -277.9082
  75   2.0000     -10.210506      -277.8420
  76   2.0000     -10.208188      -277.7789
  77   2.0000     -10.201219      -277.5893
  78   2.0000     -10.199515      -277.5429
  79   2.0000     -10.194980      -277.4195
  80   2.0000     -10.189548      -277.2717
  81   2.0000     -10.176230      -276.9093
  82   2.0000     -10.173106      -276.8243
  83   2.0000      -8.728909      -237.5257
  84   2.0000      -8.727566      -237.4891
  85   2.0000      -8.012291      -218.0255
  86   2.0000      -7.992003      -217.4735
  87   2.0000      -7.990599      -217.4353
  88   2.0000      -7.985582      -217.2987
  89   2.0000      -7.985429      -217.2946
  90   2.0000      -7.981297      -217.1821
  91   2.0000      -7.980665      -217.1649
  92   2.0000      -6.558815      -178.4744
  93   2.0000      -6.557474      -178.4379
  94   2.0000      -6.547276      -178.1604
  95   2.0000      -6.546873      -178.1495
  96   2.0000      -6.545940      -178.1241
  97   2.0000      -6.545515      -178.1125
  98   2.0000      -5.977040      -162.6435
  99   2.0000      -5.969967      -162.4511
 100   2.0000      -5.968707      -162.4168
 101   2.0000      -5.954931      -162.0419
 102   2.0000      -5.953534      -162.0039
 103   2.0000      -5.950824      -161.9301
 104   2.0000      -5.949433      -161.8923
 105   2.0000      -5.948390      -161.8639
 106   2.0000      -5.948193      -161.8586
 107   2.0000      -5.948095      -161.8559
 108   2.0000      -5.946675      -161.8172
 109   2.0000      -5.944581      -161.7603
 110   2.0000      -5.944383      -161.7549
 111   2.0000      -5.944353      -161.7541
 112   2.0000      -5.943702      -161.7363
 113   2.0000      -5.941708      -161.6821
 114   2.0000      -5.941589      -161.6788
 115   2.0000      -5.940575      -161.6513
 116   2.0000      -5.939944      -161.6341
 117   2.0000      -5.937004      -161.5541
 118   2.0000      -5.936395      -161.5375
 119   2.0000      -2.673453       -72.7484
 120   2.0000      -2.672118       -72.7120
 121   2.0000      -2.670142       -72.6583
 122   2.0000      -2.669803       -72.6490
 123   2.0000      -2.668749       -72.6204
 124   2.0000      -2.668513       -72.6139
 125   2.0000      -2.660338       -72.3915
 126   2.0000      -2.660324       -72.3911
 127   2.0000      -2.658991       -72.3548
 128   2.0000      -2.658985       -72.3547
 129   2.0000      -1.059156       -28.8211
 130   2.0000      -1.055428       -28.7196
 131   2.0000      -1.032956       -28.1082
 132   2.0000      -1.020082       -27.7578
 133   2.0000      -1.017750       -27.6944
 134   2.0000      -0.936940       -25.4954
 135   2.0000      -0.936138       -25.4736
 136   2.0000      -0.928583       -25.2680
 137   2.0000      -0.928014       -25.2525
 138   2.0000      -0.926414       -25.2090
 139   2.0000      -0.925212       -25.1763
 140   2.0000      -0.916898       -24.9501
 141   2.0000      -0.916425       -24.9372
 142   2.0000      -0.904529       -24.6135
 143   2.0000      -0.902427       -24.5563
 144   2.0000      -0.899286       -24.4708
 145   2.0000      -0.882274       -24.0079
 146   2.0000      -0.872403       -23.7393
 147   2.0000      -0.864832       -23.5333
 148   2.0000      -0.858848       -23.3704
 149   2.0000      -0.855933       -23.2911
 150   2.0000      -0.830689       -22.6042
 151   2.0000      -0.827332       -22.5128
 152   2.0000      -0.826103       -22.4794
 153   2.0000      -0.817582       -22.2475
 154   2.0000      -0.814937       -22.1756
 155   2.0000      -0.812602       -22.1120
 156   2.0000      -0.809744       -22.0343
 157   2.0000      -0.806595       -21.9486
 158   2.0000      -0.804655       -21.8958
 159   2.0000      -0.803361       -21.8606
 160   2.0000      -0.781294       -21.2601
 161   2.0000      -0.781005       -21.2522
 162   2.0000      -0.775605       -21.1053
 163   2.0000      -0.767526       -20.8854
 164   2.0000      -0.753470       -20.5030
 165   2.0000      -0.750265       -20.4157
 166   2.0000      -0.749796       -20.4030
 167   2.0000      -0.748449       -20.3663
 168   2.0000      -0.737992       -20.0818
 169   2.0000      -0.726387       -19.7660
 170   2.0000      -0.724033       -19.7019
 171   2.0000      -0.716658       -19.5013
 172   2.0000      -0.699968       -19.0471
 173   2.0000      -0.686215       -18.6729
 174   2.0000      -0.679589       -18.4926
 175   2.0000      -0.678986       -18.4761
 176   2.0000      -0.675321       -18.3764
 177   2.0000      -0.673292       -18.3212
 178   2.0000      -0.652381       -17.7522
 179   2.0000      -0.648451       -17.6452
 180   2.0000      -0.645056       -17.5529
 181   2.0000      -0.641722       -17.4621
 182   2.0000      -0.631529       -17.1848
 183   2.0000      -0.624853       -17.0031
 184   2.0000      -0.622434       -16.9373
 185   2.0000      -0.614372       -16.7179
 186   2.0000      -0.611222       -16.6322
 187   2.0000      -0.606652       -16.5079
 188   2.0000      -0.596191       -16.2232
 189   2.0000      -0.589449       -16.0397
 190   2.0000      -0.585848       -15.9417
 191   2.0000      -0.584932       -15.9168
 192   2.0000      -0.581643       -15.8273
 193   2.0000      -0.577524       -15.7152
 194   2.0000      -0.564583       -15.3631
 195   2.0000      -0.556477       -15.1425
 196   2.0000      -0.556041       -15.1306
 197   2.0000      -0.547805       -14.9065
 198   2.0000      -0.546177       -14.8622
 199   2.0000      -0.540382       -14.7045
 200   2.0000      -0.536413       -14.5965
 201   2.0000      -0.525012       -14.2863
 202   2.0000      -0.524603       -14.2752
 203   2.0000      -0.521325       -14.1860
 204   2.0000      -0.518134       -14.0992
 205   2.0000      -0.511151       -13.9091
 206   2.0000      -0.508016       -13.8238
 207   2.0000      -0.506583       -13.7848
 208   2.0000      -0.501671       -13.6512
 209   2.0000      -0.499987       -13.6053
 210   2.0000      -0.489734       -13.3263
 211   2.0000      -0.484601       -13.1867
 212   2.0000      -0.480714       -13.0809
 213   2.0000      -0.479585       -13.0502
 214   2.0000      -0.475253       -12.9323
 215   2.0000      -0.472113       -12.8468
 216   2.0000      -0.469655       -12.7800
 217   2.0000      -0.469124       -12.7655
 218   2.0000      -0.466734       -12.7005
 219   2.0000      -0.463840       -12.6217
 220   2.0000      -0.463487       -12.6121
 221   2.0000      -0.459738       -12.5101
 222   2.0000      -0.458370       -12.4729
 223   2.0000      -0.456777       -12.4295
 224   2.0000      -0.455964       -12.4074
 225   2.0000      -0.455206       -12.3868
 226   2.0000      -0.449376       -12.2282
 227   2.0000      -0.448111       -12.1937
 228   2.0000      -0.441411       -12.0114
 229   2.0000      -0.441311       -12.0087
 230   2.0000      -0.440749       -11.9934
 231   2.0000      -0.436075       -11.8662
 232   2.0000      -0.434331       -11.8188
 233   2.0000      -0.433036       -11.7835
 234   2.0000      -0.431632       -11.7453
 235   2.0000      -0.429077       -11.6758
 236   2.0000      -0.428391       -11.6571
 237   2.0000      -0.426745       -11.6123
 238   2.0000      -0.424790       -11.5591
 239   2.0000      -0.423357       -11.5201
 240   2.0000      -0.420338       -11.4380
 241   2.0000      -0.419682       -11.4201
 242   2.0000      -0.415701       -11.3118
 243   2.0000      -0.414660       -11.2835
 244   2.0000      -0.413487       -11.2516
 245   2.0000      -0.410611       -11.1733
 246   2.0000      -0.408528       -11.1166
 247   2.0000      -0.407665       -11.0931
 248   2.0000      -0.403325       -10.9750
 249   2.0000      -0.400488       -10.8978
 250   2.0000      -0.399241       -10.8639
 251   2.0000      -0.395597       -10.7647
 252   2.0000      -0.393672       -10.7124
 253   2.0000      -0.392584       -10.6827
 254   2.0000      -0.392015       -10.6673
 255   2.0000      -0.388631       -10.5752
 256   2.0000      -0.386658       -10.5215
 257   2.0000      -0.385829       -10.4989
 258   2.0000      -0.384665       -10.4673
 259   2.0000      -0.383725       -10.4417
 260   2.0000      -0.380761       -10.3610
 261   2.0000      -0.379589       -10.3292
 262   2.0000      -0.379209       -10.3188
 263   2.0000      -0.376922       -10.2566
 264   2.0000      -0.374988       -10.2040
 265   2.0000      -0.374276       -10.1846
 266   2.0000      -0.373190       -10.1550
 267   2.0000      -0.371173       -10.1001
 268   2.0000      -0.366274        -9.9668
 269   2.0000      -0.363576        -9.8934
 270   2.0000      -0.360688        -9.8148
 271   2.0000      -0.359991        -9.7959
 272   2.0000      -0.358376        -9.7519
 273   2.0000      -0.357169        -9.7191
 274   2.0000      -0.356412        -9.6985
 275   2.0000      -0.353723        -9.6253
 276   2.0000      -0.353573        -9.6212
 277   2.0000      -0.350804        -9.5459
 278   2.0000      -0.349710        -9.5161
 279   2.0000      -0.345705        -9.4071
 280   2.0000      -0.344155        -9.3649
 281   2.0000      -0.343743        -9.3537
 282   2.0000      -0.342048        -9.3076
 283   2.0000      -0.337710        -9.1895
 284   2.0000      -0.333641        -9.0788
 285   2.0000      -0.332351        -9.0437
 286   2.0000      -0.326479        -8.8840
 287   2.0000      -0.325291        -8.8516
 288   2.0000      -0.319568        -8.6959
 289   2.0000      -0.318286        -8.6610
 290   2.0000      -0.315311        -8.5800
 291   2.0000      -0.313255        -8.5241
 292   2.0000      -0.310399        -8.4464
 293   2.0000      -0.296414        -8.0658
 294   2.0000      -0.293690        -7.9917
 295   2.0000      -0.285022        -7.7558
 296   2.0000      -0.281863        -7.6699
 297   2.0000      -0.276940        -7.5359
 298   2.0000      -0.271901        -7.3988
 299   2.0000      -0.265492        -7.2244
 300   2.0000      -0.263738        -7.1767
 301   2.0000      -0.262318        -7.1380
 302   2.0000      -0.259377        -7.0580
 303   2.0000      -0.246356        -6.7037
 304   2.0000      -0.244995        -6.6667
 305   2.0000      -0.241176        -6.5627
 306   2.0000      -0.234013        -6.3678
 307   2.0000      -0.231444        -6.2979
 308   2.0000      -0.202924        -5.5218
 309   0.0000      -0.130276        -3.5450
 310   0.0000      -0.123572        -3.3626
 311   0.0000      -0.104317        -2.8386
 312   0.0000      -0.100764        -2.7419
 313   0.0000      -0.089225        -2.4279

MULLIKEN ATOMIC CHARGES
-----------------------
   0 C :    0.165338
   1 O :   -0.309848
   2 C :    0.142133
   3 C :   -0.322492
   4 C :    0.207829
   5 C :    0.058408
   6 C :   -0.238697
   7 C :    0.060790
   8 C :    0.057084
   9 C :    0.130278
  10 C :   -0.196293
  11 N :    0.003176
  12 C :   -0.224604
  13 N :    0.019380
  14 C :   -0.101847
  15 C :   -0.201263
  16 C :    0.096614
  17 S :   -0.025265
  18 C :   -0.216707
  19 C :    0.025075
  20 C :    0.058706
  21 C :   -0.189749
  22 C :   -0.342349
  23 S :    0.039722
  24 C :   -0.130272
  25 C :    0.337745
  26 N :   -0.115164
  27 C :   -0.129952
  28 C :   -0.338584
  29 C :    0.070325
  30 C :    0.069946
  31 C :   -0.016511
  32 N :   -0.250225
  33 S :    0.329490
  34 N :   -0.251295
  35 C :   -0.013783
  36 C :    0.089525
  37 C :    0.024480
  38 N :   -0.050323
  39 C :   -0.232791
  40 C :   -0.333222
  41 C :    0.341216
  42 C :   -0.141243
  43 S :    0.024083
  44 C :    0.084336
  45 C :   -0.213043
  46 S :   -0.016745
  47 C :    0.184171
  48 C :   -0.066278
  49 C :   -0.189484
  50 C :   -0.361855
  51 C :   -0.185448
  52 C :   -0.045132
  53 C :   -0.110619
  54 C :    0.127322
  55 C :   -0.180080
  56 N :    0.002494
  57 C :   -0.227834
  58 N :    0.023732
  59 C :    0.123312
  60 C :   -0.244181
  61 C :    0.061811
  62 C :    0.208617
  63 C :   -0.318171
  64 C :    0.027664
  65 C :    0.233401
  66 O :   -0.301071
  67 C :   -0.269005
  68 C :    0.041076
  69 S :    0.080109
  70 S :    0.082425
  71 C :    0.036431
  72 C :   -0.262938
  73 Br:   -0.006426
  74 Br:   -0.008579
  75 H :    0.128098
  76 H :    0.166220
  77 H :    0.160148
  78 H :    0.109982
  79 H :    0.115817
  80 H :    0.122322
  81 H :    0.115653
  82 H :    0.117584
  83 H :    0.103902
  84 H :    0.125795
  85 H :    0.131443
  86 H :    0.122946
  87 H :    0.137704
  88 H :    0.140261
  89 H :    0.163588
  90 H :    0.124314
  91 H :    0.142512
  92 H :    0.124021
  93 H :    0.114905
  94 H :    0.133988
  95 H :    0.142916
  96 H :    0.124969
  97 H :    0.119478
  98 H :    0.149036
  99 H :    0.165682
 100 H :    0.130424
 101 H :    0.138685
 102 H :    0.138725
Sum of atomic charges:   -0.0000000

LOEWDIN ATOMIC CHARGES
----------------------
   0 C :   -0.251867
   1 O :    0.146904
   2 C :   -0.064376
   3 C :   -0.036183
   4 C :   -0.125569
   5 C :   -0.289940
   6 C :   -0.077174
   7 C :   -0.046415
   8 C :    0.011176
   9 C :   -0.137369
  10 C :   -0.151083
  11 N :    0.068618
  12 C :   -0.158062
  13 N :    0.072019
  14 C :   -0.085381
  15 C :   -0.065252
  16 C :   -0.296260
  17 S :    0.732833
  18 C :   -0.341635
  19 C :   -0.310070
  20 C :   -0.122042
  21 C :   -0.235374
  22 C :   -0.293450
  23 S :    0.744245
  24 C :   -0.285956
  25 C :   -0.184372
  26 N :    0.278938
  27 C :   -0.268672
  28 C :   -0.296057
  29 C :   -0.092467
  30 C :   -0.087534
  31 C :   -0.241860
  32 N :   -0.120148
  33 S :    0.638968
  34 N :   -0.120652
  35 C :   -0.242353
  36 C :   -0.090126
  37 C :   -0.090435
  38 N :    0.286230
  39 C :   -0.268518
  40 C :   -0.307055
  41 C :   -0.179167
  42 C :   -0.285435
  43 S :    0.745122
  44 C :   -0.307019
  45 C :   -0.337048
  46 S :    0.752421
  47 C :   -0.300859
  48 C :   -0.125848
  49 C :   -0.229513
  50 C :   -0.290806
  51 C :   -0.072356
  52 C :   -0.089403
  53 C :   -0.000952
  54 C :   -0.147051
  55 C :   -0.155481
  56 N :    0.067816
  57 C :   -0.157599
  58 N :    0.083746
  59 C :   -0.043084
  60 C :   -0.080414
  61 C :   -0.287673
  62 C :   -0.127501
  63 C :   -0.034737
  64 C :   -0.066823
  65 C :   -0.250325
  66 O :    0.124762
  67 C :   -0.157060
  68 C :   -0.632952
  69 S :    0.737249
  70 S :    0.740182
  71 C :   -0.631612
  72 C :   -0.157046
  73 Br:    0.375275
  74 Br:    0.375113
  75 H :    0.160344
  76 H :    0.163225
  77 H :    0.169346
  78 H :    0.150335
  79 H :    0.151446
  80 H :    0.124648
  81 H :    0.122183
  82 H :    0.116682
  83 H :    0.136217
  84 H :    0.138029
  85 H :    0.127528
  86 H :    0.128214
  87 H :    0.129212
  88 H :    0.142727
  89 H :    0.141537
  90 H :    0.122092
  91 H :    0.120535
  92 H :    0.129868
  93 H :    0.153251
  94 H :    0.150515
  95 H :    0.128937
  96 H :    0.116427
  97 H :    0.124976
  98 H :    0.174532
  99 H :    0.161987
 100 H :    0.160861
 101 H :    0.152157
 102 H :    0.152039

  Mayer bond orders larger than 0.100000
B(  0-C ,  1-O ) :   2.0973 B(  0-C ,  2-C ) :   0.9800 B(  0-C , 14-C ) :   1.0005
B(  1-O ,  2-C ) :  -0.1539 B(  2-C ,  3-C ) :   1.4400 B(  2-C ,  7-C ) :   1.2635
B(  3-C ,  4-C ) :   1.1844 B(  3-C , 75-H ) :   1.0032 B(  4-C ,  5-C ) :   1.2361
B(  4-C , 72-C ) :   1.1236 B(  5-C ,  6-C ) :   1.3122 B(  5-C , 70-S ) :   1.2251
B(  6-C ,  7-C ) :   1.4416 B(  6-C , 76-H ) :   0.9103 B(  7-C ,  8-C ) :   1.0389
B(  8-C ,  9-C ) :   1.4517 B(  8-C , 14-C ) :   1.0961 B(  9-C , 10-C ) :   1.0443
B(  9-C , 12-C ) :   1.0154 B( 10-C , 11-N ) :   2.9733 B( 12-C , 13-N ) :   3.0122
B( 14-C , 15-C ) :   1.5283 B( 15-C , 16-C ) :   1.1464 B( 15-C , 77-H ) :   0.9237
B( 16-C , 17-S ) :   1.1771 B( 16-C , 20-C ) :   1.4782 B( 17-S , 18-C ) :   1.3215
B( 17-S , 25-C ) :  -0.1306 B( 18-C , 19-C ) :   1.3998 B( 18-C , 23-S ) :   0.1102
B( 18-C , 25-C ) :   1.0437 B( 19-C , 20-C ) :   1.1950 B( 19-C , 23-S ) :   1.1757
B( 20-C , 21-C ) :   0.9480 B( 21-C , 22-C ) :   0.9356 B( 21-C , 78-H ) :   0.9848
B( 21-C , 79-H ) :   0.9623 B( 22-C , 80-H ) :   0.9713 B( 22-C , 81-H ) :   0.9733
B( 22-C , 82-H ) :   0.9747 B( 23-S , 24-C ) :   1.3219 B( 24-C , 25-C ) :   1.2997
B( 24-C , 30-C ) :   1.1876 B( 25-C , 26-N ) :   1.1486 B( 26-N , 27-C ) :   0.8996
B( 26-N , 29-C ) :   1.1635 B( 27-C , 28-C ) :   0.9627 B( 27-C , 83-H ) :   0.9631
B( 27-C , 84-H ) :   0.9594 B( 28-C , 85-H ) :   0.9672 B( 28-C , 86-H ) :   0.9676
B( 28-C , 87-H ) :   0.9680 B( 29-C , 30-C ) :   1.2954 B( 29-C , 37-C ) :   1.2598
B( 30-C , 31-C ) :   1.1053 B( 31-C , 32-N ) :   1.6121 B( 31-C , 33-S ) :   0.1157
B( 31-C , 35-C ) :   1.1631 B( 32-N , 33-S ) :   1.2567 B( 32-N , 34-N ) :   0.1093
B( 33-S , 34-N ) :   1.2555 B( 33-S , 35-C ) :   0.1122 B( 34-N , 35-C ) :   1.6122
B( 35-C , 36-C ) :   1.1004 B( 36-C , 37-C ) :   1.2488 B( 36-C , 42-C ) :   1.1723
B( 37-C , 38-N ) :   1.2180 B( 38-N , 39-C ) :   0.8681 B( 38-N , 41-C ) :   1.1264
B( 39-C , 40-C ) :   0.9340 B( 39-C , 88-H ) :   0.9566 B( 39-C , 89-H ) :   0.9700
B( 40-C , 90-H ) :   0.9742 B( 40-C , 91-H ) :   0.9588 B( 40-C , 92-H ) :   0.9693
B( 41-C , 42-C ) :   1.2738 B( 41-C , 45-C ) :   1.0748 B( 41-C , 46-S ) :  -0.1222
B( 42-C , 43-S ) :   1.3480 B( 43-S , 44-C ) :   1.1618 B( 43-S , 45-C ) :   0.1109
B( 44-C , 45-C ) :   1.3936 B( 44-C , 48-C ) :   1.2293 B( 45-C , 46-S ) :   1.3178
B( 46-S , 47-C ) :   1.1929 B( 46-S , 48-C ) :   0.1058 B( 47-C , 48-C ) :   1.4009
B( 47-C , 51-C ) :   1.0646 B( 48-C , 49-C ) :   0.9553 B( 49-C , 50-C ) :   0.9561
B( 49-C , 93-H ) :   0.9432 B( 49-C , 94-H ) :   0.9859 B( 50-C , 95-H ) :   0.9716
B( 50-C , 96-H ) :   0.9618 B( 50-C , 97-H ) :   0.9718 B( 51-C , 52-C ) :   1.5027
B( 51-C , 98-H ) :   0.9359 B( 52-C , 53-C ) :   1.1562 B( 52-C , 65-C ) :   1.0109
B( 52-C , 66-O ) :  -0.1249 B( 53-C , 54-C ) :   1.3827 B( 53-C , 59-C ) :   1.0462
B( 54-C , 55-C ) :   1.0387 B( 54-C , 57-C ) :   1.0482 B( 55-C , 56-N ) :   2.9781
B( 57-C , 58-N ) :   2.9788 B( 59-C , 60-C ) :   1.4276 B( 59-C , 64-C ) :   1.2750
B( 60-C , 61-C ) :   1.3113 B( 60-C , 99-H ) :   0.9145 B( 61-C , 62-C ) :   1.2394
B( 61-C , 69-S ) :   1.2229 B( 62-C , 63-C ) :   1.1910 B( 62-C , 67-C ) :   1.1245
B( 63-C , 64-C ) :   1.4307 B( 63-C , 66-O ) :   0.1012 B( 63-C ,100-H ) :   0.9993
B( 64-C , 65-C ) :   0.9800 B( 64-C , 66-O ) :  -0.1664 B( 65-C , 66-O ) :   2.1523
B( 67-C , 68-C ) :   1.6471 B( 67-C , 69-S ) :   0.1121 B( 67-C ,101-H ) :   0.9624
B( 68-C , 69-S ) :   1.1866 B( 68-C , 74-Br) :   1.0947 B( 70-S , 71-C ) :   1.1920
B( 70-S , 72-C ) :   0.1084 B( 71-C , 72-C ) :   1.6371 B( 71-C , 73-Br) :   1.1028
B( 72-C ,102-H ) :   0.9639

-----------------------------------------------------------------------------
         ABSORPTION SPECTRUM VIA TRANSITION ELECTRIC DIPOLE MOMENTS
-----------------------------------------------------------------------------
State   Energy    Wavelength  fosc         T2        TX        TY        TZ
        (cm-1)      (nm)                 (au**2)    (au)      (au)      (au)
-----------------------------------------------------------------------------
   1   14324.2    698.1   2.425963425  55.75560   0.02117   7.45892   0.34588
   2   16200.3    617.3   0.074794532   1.51993   0.10585  -0.29687   1.19189
   3   19098.1    523.6   0.460452185   7.93727  -0.00354   2.81571   0.09490
   4   19543.9    511.7   0.016356082   0.27551   0.06263   0.04510   0.51919
   5   19876.8    503.1   0.046545632   0.77092  -0.32268  -0.77062  -0.27007
   6   20531.4    487.1   0.090238509   1.44694   0.03073  -1.15967  -0.31806
   7   21394.2    467.4   0.152403351   2.34516   0.00082  -1.50780  -0.26779
   8   21582.8    463.3   0.199759681   3.04702   0.36744   0.07541   1.70479
   9   22009.6    454.3   0.022104417   0.33063  -0.17415   0.09804  -0.53916
  10   22508.9    444.3   0.095310875   1.39400  -0.22545   1.15096   0.13589
  11   23008.9    434.6   0.032497295   0.46497   0.04955  -0.59157   0.33551
  12   23115.8    432.6   0.064373766   0.91680   0.74085   0.55819   0.23741
  13   23483.6    425.8   0.054379498   0.76233   0.79877  -0.34142  -0.08796
  14   24911.9    401.4   0.014557567   0.19238   0.19830  -0.39022  -0.02793
  15   25003.4    399.9   0.023368228   0.30768   0.15394   0.51269   0.14537
  16   25201.7    396.8   0.033107572   0.43249   0.54052  -0.34486  -0.14628
  17   25377.9    394.0   0.008374498   0.10864   0.28214  -0.11934   0.12163
  18   25428.0    393.3   0.016155339   0.20916   0.03699  -0.08697  -0.44747
  19   25712.4    388.9   0.003514243   0.04500   0.13867   0.09891   0.12642
  20   25937.5    385.5   0.003435931   0.04361  -0.09427  -0.13260   0.13093
  21   26036.1    384.1   0.048939627   0.61882   0.12978   0.77504  -0.03575
  22   26176.4    382.0   0.040044611   0.50363  -0.68392   0.05141  -0.18231
  23   26346.5    379.6   0.009683739   0.12100   0.16218  -0.30734   0.01558
  24   26511.9    377.2   0.028869375   0.35849  -0.12894  -0.21025  -0.54558
  25   27046.6    369.7   0.467080837   5.68532   0.09717  -2.36944  -0.24828
  26   27361.9    365.5   0.008312633   0.10002  -0.02759  -0.31493  -0.00865
  27   27699.7    361.0   0.031659184   0.37627  -0.04097   0.54398  -0.28049
  28   27742.8    360.5   0.100266692   1.18982  -0.14381   1.01632  -0.36911
  29   27935.3    358.0   0.023540065   0.27741   0.27699  -0.03281   0.44678
  30   28182.5    354.8   0.021690361   0.25337   0.21758   0.37848  -0.25057
  31   28317.9    353.1   0.052347107   0.60856  -0.53091  -0.26282  -0.50756
  32   28430.4    351.7   0.145725463   1.68744   1.12279   0.24706   0.60478
  33   28612.9    349.5   0.011034380   0.12696  -0.06403  -0.08697  -0.33955
  34   28839.0    346.8   0.078445954   0.89550  -0.05867   0.13338   0.93502
  35   28941.2    345.5   0.075185190   0.85525  -0.63988  -0.63043  -0.21990
  36   29009.4    344.7   0.105298527   1.19498   0.69809  -0.71290   0.44657
  37   29241.1    342.0   0.092033396   1.03616   0.10010   0.64507   0.78104
  38   29523.6    338.7   0.159368534   1.77709  -0.27312  -1.28678  -0.21607
  39   29842.7    335.1   0.023012864   0.25387  -0.10023   0.43017   0.24244
  40   29953.5    333.9   0.210278329   2.31112   1.44862   0.08076  -0.45397
  41   30082.1    332.4   0.201076224   2.20053   1.41534   0.38712  -0.21794
  42   30265.1    330.4   0.020577427   0.22383  -0.37838   0.15214   0.23982
  43   30547.4    327.4   0.046936635   0.50584  -0.45503  -0.54563  -0.03283
  44   30748.4    325.2   0.007535359   0.08068  -0.12896  -0.25121   0.03069
  45   31279.7    319.7   0.017365715   0.18277   0.40551   0.09121  -0.10007
  46   31392.6    318.5   0.019649349   0.20606  -0.01865  -0.31773   0.32367
  47   31576.9    316.7   0.296231061   3.08842  -0.38163   1.65622   0.44689
  48   31970.1    312.8   0.001120119   0.01153   0.01873   0.07144   0.07797
  49   32097.9    311.5   0.024163079   0.24783   0.25233  -0.39463   0.16860
  50   32199.2    310.6   0.013943055   0.14256   0.27470  -0.03258   0.25697

FINAL SINGLE POINT ENERGY    -10673.671736363793

DIPOLE MOMENT
-------------
                                X             Y             Z
Electronic contribution:     87.11567      21.70128      36.20359
Nuclear contribution   :    -83.85990     -20.95568     -36.03758
                        -----------------------------------------
Total Dipole Moment    :      3.25577       0.74561       0.16601
                        -----------------------------------------
Magnitude (a.u.)       :      3.34418
Magnitude (Debye)      :      8.50022

Rotational constants in cm-1:     0.001472     0.000134     0.000129
Rotational constants in MHz :    44.118479     4.028049     3.880075

                             ****ORCA TERMINATED NORMALLY****
TOTAL RUN TIME: 0 days 11 hours 31 minutes 58 seconds 338 msec
