                         Program Version 4.2.0 -  RELEASE  -
|  1> # ORCA input file
|  2> # CH1007.out
|  3> ! B3LYP def2-TZVP def2/J RIJCOSX Grid4 TightSCF
|  4>
|  5> %maxcore 6000
|  6> %tddft
|  7>   maxdim 5
|  8>   nroots 50
|  9>   end
| 10> %pal
| 11>   nprocs 6
| 12>   end
| 13>
| 14>
| 15> * xyz 0 1
| 16>    C        4.61551         0.59006         1.01237
| 17>    O        4.37956         0.96819         2.14228
| 18>    C        5.62069         1.16581         0.08985
| 19>    C        6.43396         2.26310         0.28956
| 20>    C        7.31890         2.59933        -0.72255
| 21>    F        8.12460         3.65795        -0.57305
| 22>    C        7.38018         1.84499        -1.89435
| 23>    F        8.24869         2.18968        -2.85162
| 24>    C        6.56488         0.74043        -2.09339
| 25>    C        5.67594         0.40006        -1.08634
| 26>    C        4.69659        -0.68068        -0.98589
| 27>    C        4.37260        -1.56256        -1.98398
| 28>    C        3.33887        -2.52002        -1.90556
| 29>    N        2.49836        -3.30252        -1.92090
| 30>    C        5.01216        -1.60300        -3.24057
| 31>    N        5.49989        -1.68678        -4.27589
| 32>    C        4.06649        -0.58258         0.31382
| 33>    C        3.26942        -1.54797         0.87888
| 34>    C        2.48927        -1.50077         2.04721
| 35>   Se        2.31617        -3.18318         2.95207
| 36>    C        1.32214        -2.27096         4.22871
| 37>    C        1.14695        -0.92745         3.85903
| 38>    C        1.76171        -0.49260         2.67679
| 39>    C        1.50360         0.88258         2.15904
| 40>    C        0.97000         0.90103         0.72806
| 41>    S        0.16152        -0.02483         4.99268
| 42>    C        0.01668        -1.44176         5.96527
| 43>    C        0.68858        -2.55155         5.44186
| 44>    N        0.53620        -3.63287         6.27335
| 45>    C        0.68358        -4.95102         5.69606
| 46>    C       -0.44793        -5.25015         4.71359
| 47>    C       -0.23260        -3.22220         7.35134
| 48>    C       -0.59769        -1.85890         7.15576
| 49>    C       -1.48183        -1.19183         8.03220
| 50>    N       -1.94954         0.04398         7.95202
| 51>    S       -2.98316         0.28233         9.17354
| 52>    N       -2.87098        -1.18013         9.85648
| 53>    C       -2.01970        -1.90881         9.15174
| 54>    C       -1.54603        -3.21318         9.41610
| 55>    C       -0.60312        -3.85753         8.56361
| 56>    N       -0.19480        -5.02835         9.17388
| 57>    C        0.93566        -5.88561         8.90528
| 58>    C        0.50195        -7.26727         8.41402
| 59>    C       -0.86647        -5.14217        10.36224
| 60>    C       -1.72360        -4.04793        10.52802
| 61>    S       -2.58156        -4.06430        12.02280
| 62>    C       -1.74735        -5.53749        12.47044
| 63>    C       -0.87554        -5.99818        11.46879
| 64>   Se       -0.05448        -7.58692        11.98211
| 65>    C       -0.97402        -7.39375        13.63947
| 66>    C       -1.81506        -6.28888        13.65408
| 67>    C       -2.83169        -6.00747        14.71602
| 68>    C       -2.68120        -4.61838        15.33704
| 69>    C       -0.76393        -8.40970        14.59644
| 70>    C       -0.66870        -8.24556        15.95259
| 71>    C       -0.64064        -9.29314        16.94802
| 72>    C       -0.99616       -10.60351        16.75920
| 73>    C       -0.96252       -11.58560        17.77068
| 74>    N       -0.94618       -12.42619        18.55189
| 75>    C       -1.46229       -11.13396        15.53783
| 76>    N       -1.86848       -11.62097        14.58050
| 77>    C       -0.24643        -8.68530        18.21780
| 78>    C       -0.05766        -9.23656        19.47545
| 79>    C        0.31855        -8.38907        20.50686
| 80>    F        0.50698        -8.89954        21.72854
| 81>    C        0.50810        -7.02216        20.30055
| 82>    F        0.86920        -6.24148        21.32586
| 83>    C        0.32740        -6.46529        19.04477
| 84>    C       -0.05316        -7.30791        18.01941
| 85>    C       -0.29306        -6.96932        16.59828
| 86>    O       -0.09236        -5.89804        16.06953
| 87>    H        6.38657         2.84265         1.19770
| 88>    H        6.65362         0.18601        -3.01320
| 89>    H        3.28884        -2.52435         0.40155
| 90>    H        2.43124         1.45852         2.21851
| 91>    H        0.77591         1.35870         2.82030
| 92>    H        1.69227         0.49070         0.02752
| 93>    H        0.74942         1.92376         0.43360
| 94>    H        0.05480         0.31685         0.65828
| 95>    H        0.68918        -5.70685         6.47083
| 96>    H        1.64612        -4.97377         5.16980
| 97>    H       -1.41065        -5.19530         5.21772
| 98>    H       -0.32221        -6.24800         4.30288
| 99>    H       -0.44497        -4.53668         3.89219
|100>    H        1.48469        -6.01051         9.84806
|101>    H        1.60423        -5.38710         8.20211
|102>    H        0.00956        -7.81130         9.21991
|103>    H        1.37084        -7.83786         8.09808
|104>    H       -0.19986        -7.19907         7.58567
|105>    H       -2.76763        -6.76834        15.49488
|106>    H       -3.82099        -6.08031        14.25196
|107>    H       -1.67702        -4.49086        15.73039
|108>    H       -3.39526        -4.50385        16.14864
|109>    H       -2.86790        -3.84243        14.60014
|110>    H       -0.60160        -9.40358        14.19067
|111>    H       -0.18444       -10.28642        19.68300
|112>    H        0.47728        -5.41007        18.88107
|113> *
|114>
|115>                          ****END OF INPUT****

CARTESIAN COORDINATES (ANGSTROEM)
---------------------------------
  C      4.615510    0.590060    1.012370
  O      4.379560    0.968190    2.142280
  C      5.620690    1.165810    0.089850
  C      6.433960    2.263100    0.289560
  C      7.318900    2.599330   -0.722550
  F      8.124600    3.657950   -0.573050
  C      7.380180    1.844990   -1.894350
  F      8.248690    2.189680   -2.851620
  C      6.564880    0.740430   -2.093390
  C      5.675940    0.400060   -1.086340
  C      4.696590   -0.680680   -0.985890
  C      4.372600   -1.562560   -1.983980
  C      3.338870   -2.520020   -1.905560
  N      2.498360   -3.302520   -1.920900
  C      5.012160   -1.603000   -3.240570
  N      5.499890   -1.686780   -4.275890
  C      4.066490   -0.582580    0.313820
  C      3.269420   -1.547970    0.878880
  C      2.489270   -1.500770    2.047210
  Se     2.316170   -3.183180    2.952070
  C      1.322140   -2.270960    4.228710
  C      1.146950   -0.927450    3.859030
  C      1.761710   -0.492600    2.676790
  C      1.503600    0.882580    2.159040
  C      0.970000    0.901030    0.728060
  S      0.161520   -0.024830    4.992680
  C      0.016680   -1.441760    5.965270
  C      0.688580   -2.551550    5.441860
  N      0.536200   -3.632870    6.273350
  C      0.683580   -4.951020    5.696060
  C     -0.447930   -5.250150    4.713590
  C     -0.232600   -3.222200    7.351340
  C     -0.597690   -1.858900    7.155760
  C     -1.481830   -1.191830    8.032200
  N     -1.949540    0.043980    7.952020
  S     -2.983160    0.282330    9.173540
  N     -2.870980   -1.180130    9.856480
  C     -2.019700   -1.908810    9.151740
  C     -1.546030   -3.213180    9.416100
  C     -0.603120   -3.857530    8.563610
  N     -0.194800   -5.028350    9.173880
  C      0.935660   -5.885610    8.905280
  C      0.501950   -7.267270    8.414020
  C     -0.866470   -5.142170   10.362240
  C     -1.723600   -4.047930   10.528020
  S     -2.581560   -4.064300   12.022800
  C     -1.747350   -5.537490   12.470440
  C     -0.875540   -5.998180   11.468790
  Se    -0.054480   -7.586920   11.982110
  C     -0.974020   -7.393750   13.639470
  C     -1.815060   -6.288880   13.654080
  C     -2.831690   -6.007470   14.716020
  C     -2.681200   -4.618380   15.337040
  C     -0.763930   -8.409700   14.596440
  C     -0.668700   -8.245560   15.952590
  C     -0.640640   -9.293140   16.948020
  C     -0.996160  -10.603510   16.759200
  C     -0.962520  -11.585600   17.770680
  N     -0.946180  -12.426190   18.551890
  C     -1.462290  -11.133960   15.537830
  N     -1.868480  -11.620970   14.580500
  C     -0.246430   -8.685300   18.217800
  C     -0.057660   -9.236560   19.475450
  C      0.318550   -8.389070   20.506860
  F      0.506980   -8.899540   21.728540
  C      0.508100   -7.022160   20.300550
  F      0.869200   -6.241480   21.325860
  C      0.327400   -6.465290   19.044770
  C     -0.053160   -7.307910   18.019410
  C     -0.293060   -6.969320   16.598280
  O     -0.092360   -5.898040   16.069530
  H      6.386570    2.842650    1.197700
  H      6.653620    0.186010   -3.013200
  H      3.288840   -2.524350    0.401550
  H      2.431240    1.458520    2.218510
  H      0.775910    1.358700    2.820300
  H      1.692270    0.490700    0.027520
  H      0.749420    1.923760    0.433600
  H      0.054800    0.316850    0.658280
  H      0.689180   -5.706850    6.470830
  H      1.646120   -4.973770    5.169800
  H     -1.410650   -5.195300    5.217720
  H     -0.322210   -6.248000    4.302880
  H     -0.444970   -4.536680    3.892190
  H      1.484690   -6.010510    9.848060
  H      1.604230   -5.387100    8.202110
  H      0.009560   -7.811300    9.219910
  H      1.370840   -7.837860    8.098080
  H     -0.199860   -7.199070    7.585670
  H     -2.767630   -6.768340   15.494880
  H     -3.820990   -6.080310   14.251960
  H     -1.677020   -4.490860   15.730390
  H     -3.395260   -4.503850   16.148640
  H     -2.867900   -3.842430   14.600140
  H     -0.601600   -9.403580   14.190670
  H     -0.184440  -10.286420   19.683000
  H      0.477280   -5.410070   18.881070

 Total Charge           Charge          ....    0
 Multiplicity           Mult            ....    1
 Number of Electrons    NEL             ....  562
 Basis Dimension        Dim             .... 2409

ORBITAL ENERGIES
----------------

  NO   OCC          E(Eh)            E(eV)
   0   2.0000    -453.943514    -12352.4310
   1   2.0000    -453.942819    -12352.4121
   2   2.0000     -88.949385     -2420.4358
   3   2.0000     -88.911275     -2419.3988
   4   2.0000     -88.910506     -2419.3779
   5   2.0000     -58.126034     -1581.6898
   6   2.0000     -58.125394     -1581.6724
   7   2.0000     -52.178344     -1419.8449
   8   2.0000     -52.177692     -1419.8272
   9   2.0000     -52.177664     -1419.8264
  10   2.0000     -52.177019     -1419.8089
  11   2.0000     -52.176860     -1419.8045
  12   2.0000     -52.176229     -1419.7874
  13   2.0000     -24.728493      -672.8965
  14   2.0000     -24.727085      -672.8582
  15   2.0000     -24.726218      -672.8346
  16   2.0000     -24.724682      -672.7928
  17   2.0000     -19.137508      -520.7581
  18   2.0000     -19.135652      -520.7076
  19   2.0000     -14.411125      -392.1466
  20   2.0000     -14.408163      -392.0660
  21   2.0000     -14.356059      -390.6482
  22   2.0000     -14.355850      -390.6425
  23   2.0000     -14.331780      -389.9876
  24   2.0000     -14.330920      -389.9642
  25   2.0000     -14.330831      -389.9617
  26   2.0000     -14.329520      -389.9261
  27   2.0000     -10.303765      -280.3797
  28   2.0000     -10.303225      -280.3650
  29   2.0000     -10.301123      -280.3078
  30   2.0000     -10.300512      -280.2912
  31   2.0000     -10.283715      -279.8341
  32   2.0000     -10.280589      -279.7490
  33   2.0000     -10.264677      -279.3160
  34   2.0000     -10.264209      -279.3033
  35   2.0000     -10.260095      -279.1914
  36   2.0000     -10.258803      -279.1562
  37   2.0000     -10.258494      -279.1478
  38   2.0000     -10.257526      -279.1215
  39   2.0000     -10.255963      -279.0789
  40   2.0000     -10.254821      -279.0479
  41   2.0000     -10.247011      -278.8353
  42   2.0000     -10.246213      -278.8136
  43   2.0000     -10.244690      -278.7722
  44   2.0000     -10.244402      -278.7643
  45   2.0000     -10.241479      -278.6848
  46   2.0000     -10.241065      -278.6736
  47   2.0000     -10.238013      -278.5905
  48   2.0000     -10.236374      -278.5459
  49   2.0000     -10.234892      -278.5056
  50   2.0000     -10.234127      -278.4848
  51   2.0000     -10.234043      -278.4825
  52   2.0000     -10.233987      -278.4809
  53   2.0000     -10.233786      -278.4755
  54   2.0000     -10.232818      -278.4491
  55   2.0000     -10.230874      -278.3962
  56   2.0000     -10.230827      -278.3949
  57   2.0000     -10.230279      -278.3800
  58   2.0000     -10.229599      -278.3615
  59   2.0000     -10.229143      -278.3491
  60   2.0000     -10.228290      -278.3259
  61   2.0000     -10.227891      -278.3151
  62   2.0000     -10.227815      -278.3130
  63   2.0000     -10.224166      -278.2137
  64   2.0000     -10.223009      -278.1822
  65   2.0000     -10.221409      -278.1387
  66   2.0000     -10.220730      -278.1202
  67   2.0000     -10.220503      -278.1140
  68   2.0000     -10.219374      -278.0833
  69   2.0000     -10.217924      -278.0438
  70   2.0000     -10.217726      -278.0385
  71   2.0000     -10.217249      -278.0255
  72   2.0000     -10.215183      -277.9692
  73   2.0000     -10.205706      -277.7114
  74   2.0000     -10.197033      -277.4754
  75   2.0000     -10.195501      -277.4337
  76   2.0000     -10.188789      -277.2510
  77   2.0000     -10.173573      -276.8370
  78   2.0000     -10.167055      -276.6596
  79   2.0000      -8.020434      -218.2471
  80   2.0000      -7.986861      -217.3335
  81   2.0000      -7.986195      -217.3154
  82   2.0000      -7.864202      -213.9958
  83   2.0000      -7.863533      -213.9776
  84   2.0000      -5.985136      -162.8638
  85   2.0000      -5.977755      -162.6630
  86   2.0000      -5.977207      -162.6481
  87   2.0000      -5.949774      -161.9016
  88   2.0000      -5.949088      -161.8829
  89   2.0000      -5.946045      -161.8001
  90   2.0000      -5.945326      -161.7805
  91   2.0000      -5.942700      -161.7091
  92   2.0000      -5.942057      -161.6916
  93   2.0000      -5.808230      -158.0500
  94   2.0000      -5.807529      -158.0309
  95   2.0000      -5.804799      -157.9566
  96   2.0000      -5.804154      -157.9391
  97   2.0000      -5.800484      -157.8392
  98   2.0000      -5.799801      -157.8206
  99   2.0000      -2.161756       -58.8244
 100   2.0000      -2.161359       -58.8136
 101   2.0000      -2.161072       -58.8058
 102   2.0000      -2.160678       -58.7950
 103   2.0000      -2.157044       -58.6962
 104   2.0000      -2.156320       -58.6764
 105   2.0000      -2.154269       -58.6206
 106   2.0000      -2.153790       -58.6076
 107   2.0000      -2.153616       -58.6029
 108   2.0000      -2.153104       -58.5889
 109   2.0000      -1.271171       -34.5903
 110   2.0000      -1.268722       -34.5237
 111   2.0000      -1.257775       -34.2258
 112   2.0000      -1.255349       -34.1598
 113   2.0000      -1.069877       -29.1128
 114   2.0000      -1.066423       -29.0188
 115   2.0000      -1.049535       -28.5593
 116   2.0000      -1.036816       -28.2132
 117   2.0000      -1.035606       -28.1803
 118   2.0000      -0.948334       -25.8055
 119   2.0000      -0.947028       -25.7699
 120   2.0000      -0.930586       -25.3225
 121   2.0000      -0.929523       -25.2936
 122   2.0000      -0.928519       -25.2663
 123   2.0000      -0.927799       -25.2467
 124   2.0000      -0.926903       -25.2223
 125   2.0000      -0.925751       -25.1910
 126   2.0000      -0.905558       -24.6415
 127   2.0000      -0.894804       -24.3489
 128   2.0000      -0.886992       -24.1363
 129   2.0000      -0.884825       -24.0773
 130   2.0000      -0.874643       -23.8003
 131   2.0000      -0.867545       -23.6071
 132   2.0000      -0.842414       -22.9233
 133   2.0000      -0.832033       -22.6408
 134   2.0000      -0.829514       -22.5722
 135   2.0000      -0.822242       -22.3743
 136   2.0000      -0.814719       -22.1696
 137   2.0000      -0.813996       -22.1500
 138   2.0000      -0.808085       -21.9891
 139   2.0000      -0.805462       -21.9177
 140   2.0000      -0.803996       -21.8779
 141   2.0000      -0.801689       -21.8151
 142   2.0000      -0.787616       -21.4321
 143   2.0000      -0.779537       -21.2123
 144   2.0000      -0.761858       -20.7312
 145   2.0000      -0.761406       -20.7189
 146   2.0000      -0.753747       -20.5105
 147   2.0000      -0.743108       -20.2210
 148   2.0000      -0.729806       -19.8590
 149   2.0000      -0.721736       -19.6394
 150   2.0000      -0.717028       -19.5113
 151   2.0000      -0.705172       -19.1887
 152   2.0000      -0.703324       -19.1384
 153   2.0000      -0.696869       -18.9628
 154   2.0000      -0.691296       -18.8111
 155   2.0000      -0.686495       -18.6805
 156   2.0000      -0.673223       -18.3193
 157   2.0000      -0.661611       -18.0033
 158   2.0000      -0.659490       -17.9456
 159   2.0000      -0.648686       -17.6516
 160   2.0000      -0.643886       -17.5210
 161   2.0000      -0.641337       -17.4517
 162   2.0000      -0.639228       -17.3943
 163   2.0000      -0.636055       -17.3079
 164   2.0000      -0.631922       -17.1955
 165   2.0000      -0.621988       -16.9251
 166   2.0000      -0.611876       -16.6500
 167   2.0000      -0.603223       -16.4145
 168   2.0000      -0.596895       -16.2423
 169   2.0000      -0.596213       -16.2238
 170   2.0000      -0.595360       -16.2006
 171   2.0000      -0.586608       -15.9624
 172   2.0000      -0.577872       -15.7247
 173   2.0000      -0.575614       -15.6633
 174   2.0000      -0.574989       -15.6463
 175   2.0000      -0.567743       -15.4491
 176   2.0000      -0.565019       -15.3750
 177   2.0000      -0.555297       -15.1104
 178   2.0000      -0.550095       -14.9688
 179   2.0000      -0.545339       -14.8394
 180   2.0000      -0.540623       -14.7111
 181   2.0000      -0.532067       -14.4783
 182   2.0000      -0.528083       -14.3699
 183   2.0000      -0.526055       -14.3147
 184   2.0000      -0.523281       -14.2392
 185   2.0000      -0.522001       -14.2044
 186   2.0000      -0.520789       -14.1714
 187   2.0000      -0.518463       -14.1081
 188   2.0000      -0.514935       -14.0121
 189   2.0000      -0.510143       -13.8817
 190   2.0000      -0.504517       -13.7286
 191   2.0000      -0.494895       -13.4668
 192   2.0000      -0.492393       -13.3987
 193   2.0000      -0.492387       -13.3985
 194   2.0000      -0.488403       -13.2901
 195   2.0000      -0.487884       -13.2760
 196   2.0000      -0.485968       -13.2239
 197   2.0000      -0.485578       -13.2133
 198   2.0000      -0.484648       -13.1879
 199   2.0000      -0.482046       -13.1171
 200   2.0000      -0.480656       -13.0793
 201   2.0000      -0.477209       -12.9855
 202   2.0000      -0.470161       -12.7937
 203   2.0000      -0.469456       -12.7745
 204   2.0000      -0.467647       -12.7253
 205   2.0000      -0.466791       -12.7020
 206   2.0000      -0.465781       -12.6746
 207   2.0000      -0.464845       -12.6491
 208   2.0000      -0.461933       -12.5698
 209   2.0000      -0.460210       -12.5230
 210   2.0000      -0.459133       -12.4936
 211   2.0000      -0.449397       -12.2287
 212   2.0000      -0.447199       -12.1689
 213   2.0000      -0.444149       -12.0859
 214   2.0000      -0.440646       -11.9906
 215   2.0000      -0.438104       -11.9214
 216   2.0000      -0.435229       -11.8432
 217   2.0000      -0.432486       -11.7686
 218   2.0000      -0.431864       -11.7516
 219   2.0000      -0.431494       -11.7416
 220   2.0000      -0.428930       -11.6718
 221   2.0000      -0.428209       -11.6522
 222   2.0000      -0.427202       -11.6247
 223   2.0000      -0.422644       -11.5007
 224   2.0000      -0.420507       -11.4426
 225   2.0000      -0.419902       -11.4261
 226   2.0000      -0.419020       -11.4021
 227   2.0000      -0.410297       -11.1648
 228   2.0000      -0.407547       -11.0899
 229   2.0000      -0.404312       -11.0019
 230   2.0000      -0.403425       -10.9778
 231   2.0000      -0.401586       -10.9277
 232   2.0000      -0.399521       -10.8715
 233   2.0000      -0.397957       -10.8290
 234   2.0000      -0.396277       -10.7832
 235   2.0000      -0.395786       -10.7699
 236   2.0000      -0.393380       -10.7044
 237   2.0000      -0.391622       -10.6566
 238   2.0000      -0.391283       -10.6473
 239   2.0000      -0.389256       -10.5922
 240   2.0000      -0.388239       -10.5645
 241   2.0000      -0.384254       -10.4561
 242   2.0000      -0.382994       -10.4218
 243   2.0000      -0.381920       -10.3926
 244   2.0000      -0.380932       -10.3657
 245   2.0000      -0.373864       -10.1734
 246   2.0000      -0.373567       -10.1653
 247   2.0000      -0.367198        -9.9920
 248   2.0000      -0.366123        -9.9627
 249   2.0000      -0.365656        -9.9500
 250   2.0000      -0.364833        -9.9276
 251   2.0000      -0.364102        -9.9077
 252   2.0000      -0.362719        -9.8701
 253   2.0000      -0.357610        -9.7311
 254   2.0000      -0.354351        -9.6424
 255   2.0000      -0.351968        -9.5775
 256   2.0000      -0.351484        -9.5644
 257   2.0000      -0.350267        -9.5312
 258   2.0000      -0.349399        -9.5076
 259   2.0000      -0.347009        -9.4426
 260   2.0000      -0.345305        -9.3962
 261   2.0000      -0.339828        -9.2472
 262   2.0000      -0.339149        -9.2287
 263   2.0000      -0.337674        -9.1886
 264   2.0000      -0.310482        -8.4486
 265   2.0000      -0.309840        -8.4312
 266   2.0000      -0.305569        -8.3150
 267   2.0000      -0.300923        -8.1885
 268   2.0000      -0.298349        -8.1185
 269   2.0000      -0.291931        -7.9438
 270   2.0000      -0.287101        -7.8124
 271   2.0000      -0.283015        -7.7012
 272   2.0000      -0.282263        -7.6808
 273   2.0000      -0.273481        -7.4418
 274   2.0000      -0.269354        -7.3295
 275   2.0000      -0.264662        -7.2018
 276   2.0000      -0.260781        -7.0962
 277   2.0000      -0.244807        -6.6615
 278   2.0000      -0.238907        -6.5010
 279   2.0000      -0.235488        -6.4079
 280   2.0000      -0.208982        -5.6867
 281   0.0000      -0.137291        -3.7359
 282   0.0000      -0.128081        -3.4853
 283   0.0000      -0.113325        -3.0837
 284   0.0000      -0.110021        -2.9938
 285   0.0000      -0.092443        -2.5155

MULLIKEN ATOMIC CHARGES
-----------------------
   0 C :    0.202983
   1 O :   -0.327457
   2 C :    0.088361
   3 C :   -0.300084
   4 C :    0.284133
   5 F :   -0.179782
   6 C :    0.256691
   7 F :   -0.176489
   8 C :   -0.266926
   9 C :    0.070058
  10 C :    0.066062
  11 C :    0.139004
  12 C :   -0.237458
  13 N :    0.052500
  14 C :   -0.225873
  15 N :    0.043265
  16 C :   -0.129004
  17 C :   -0.229938
  18 C :    0.116219
  19 Se:    0.162124
  20 C :   -0.307203
  21 C :    0.089999
  22 C :    0.017307
  23 C :   -0.232888
  24 C :   -0.346610
  25 S :    0.032942
  26 C :   -0.149289
  27 C :    0.310022
  28 N :   -0.102905
  29 C :   -0.136114
  30 C :   -0.334122
  31 C :   -0.023220
  32 C :    0.099927
  33 C :   -0.017609
  34 N :   -0.253585
  35 S :    0.352903
  36 N :   -0.250703
  37 C :   -0.003186
  38 C :    0.083335
  39 C :    0.080688
  40 N :   -0.042046
  41 C :   -0.240169
  42 C :   -0.327031
  43 C :    0.292000
  44 C :   -0.172017
  45 S :    0.021902
  46 C :    0.056617
  47 C :   -0.255544
  48 Se:    0.158869
  49 C :    0.090610
  50 C :    0.026504
  51 C :   -0.172616
  52 C :   -0.374083
  53 C :   -0.240129
  54 C :   -0.065006
  55 C :    0.050961
  56 C :    0.129325
  57 C :   -0.218276
  58 N :    0.043353
  59 C :   -0.243480
  60 N :    0.053560
  61 C :    0.049357
  62 C :   -0.260071
  63 C :    0.255664
  64 F :   -0.174864
  65 C :    0.283277
  66 F :   -0.179321
  67 C :   -0.302411
  68 C :    0.099251
  69 C :    0.184427
  70 O :   -0.325496
  71 H :    0.147732
  72 H :    0.166874
  73 H :    0.153712
  74 H :    0.161970
  75 H :    0.092924
  76 H :    0.130018
  77 H :    0.116194
  78 H :    0.112965
  79 H :    0.103408
  80 H :    0.124323
  81 H :    0.122723
  82 H :    0.122230
  83 H :    0.141994
  84 H :    0.141560
  85 H :    0.165827
  86 H :    0.135955
  87 H :    0.127164
  88 H :    0.121871
  89 H :    0.115110
  90 H :    0.112706
  91 H :    0.159250
  92 H :    0.108363
  93 H :    0.115850
  94 H :    0.164004
  95 H :    0.165707
  96 H :    0.148375
Sum of atomic charges:   -0.0000000

LOEWDIN ATOMIC CHARGES
----------------------
   0 C :   -0.259365
   1 O :    0.135865
   2 C :   -0.058180
   3 C :   -0.046757
   4 C :   -0.224290
   5 F :    0.213424
   6 C :   -0.223812
   7 F :    0.216745
   8 C :   -0.048397
   9 C :   -0.045207
  10 C :    0.007148
  11 C :   -0.134935
  12 C :   -0.168826
  13 N :    0.083768
  14 C :   -0.162632
  15 N :    0.085112
  16 C :   -0.093646
  17 C :   -0.069951
  18 C :   -0.256346
  19 Se:    0.686411
  20 C :   -0.310113
  21 C :   -0.315607
  22 C :   -0.121596
  23 C :   -0.230853
  24 C :   -0.283623
  25 S :    0.767118
  26 C :   -0.289725
  27 C :   -0.189076
  28 N :    0.290024
  29 C :   -0.268732
  30 C :   -0.288271
  31 C :   -0.091728
  32 C :   -0.088149
  33 C :   -0.245056
  34 N :   -0.125973
  35 S :    0.661142
  36 N :   -0.126444
  37 C :   -0.244773
  38 C :   -0.090230
  39 C :   -0.091060
  40 N :    0.297093
  41 C :   -0.269092
  42 C :   -0.300224
  43 C :   -0.184953
  44 C :   -0.292317
  45 S :    0.773202
  46 C :   -0.311948
  47 C :   -0.305031
  48 Se:    0.686796
  49 C :   -0.267078
  50 C :   -0.125123
  51 C :   -0.225929
  52 C :   -0.296652
  53 C :   -0.061687
  54 C :   -0.092345
  55 C :    0.006476
  56 C :   -0.134346
  57 C :   -0.162718
  58 N :    0.085629
  59 C :   -0.166167
  60 N :    0.084868
  61 C :   -0.044185
  62 C :   -0.047740
  63 C :   -0.222827
  64 F :    0.218155
  65 C :   -0.224039
  66 F :    0.214520
  67 C :   -0.046054
  68 C :   -0.058447
  69 C :   -0.257802
  70 O :    0.148513
  71 H :    0.163968
  72 H :    0.169201
  73 H :    0.171333
  74 H :    0.158246
  75 H :    0.139016
  76 H :    0.122727
  77 H :    0.120982
  78 H :    0.122434
  79 H :    0.138326
  80 H :    0.138633
  81 H :    0.124147
  82 H :    0.125635
  83 H :    0.125969
  84 H :    0.143966
  85 H :    0.140072
  86 H :    0.118795
  87 H :    0.126799
  88 H :    0.119808
  89 H :    0.148458
  90 H :    0.149515
  91 H :    0.127881
  92 H :    0.119366
  93 H :    0.109763
  94 H :    0.169471
  95 H :    0.169432
  96 H :    0.164104

  Mayer bond orders larger than 0.100000
B(  0-C ,  1-O ) :   2.0814 B(  0-C ,  2-C ) :   0.9639 B(  0-C , 16-C ) :   1.0267
B(  1-O ,  2-C ) :  -0.1552 B(  2-C ,  3-C ) :   1.3095 B(  2-C ,  9-C ) :   1.3294
B(  3-C ,  4-C ) :   1.3519 B(  3-C , 71-H ) :   0.9859 B(  4-C ,  5-F ) :   1.0633
B(  4-C ,  6-C ) :   1.3464 B(  6-C ,  7-F ) :   1.0813 B(  6-C ,  8-C ) :   1.3894
B(  8-C ,  9-C ) :   1.3241 B(  8-C , 72-H ) :   0.9298 B(  9-C , 10-C ) :   1.0466
B( 10-C , 11-C ) :   1.4610 B( 10-C , 16-C ) :   1.0942 B( 11-C , 12-C ) :   1.0253
B( 11-C , 14-C ) :   1.0337 B( 12-C , 13-N ) :   3.0060 B( 14-C , 15-N ) :   2.9827
B( 16-C , 17-C ) :   1.4379 B( 17-C , 18-C ) :   1.2582 B( 17-C , 73-H ) :   0.9262
B( 18-C , 19-Se) :   1.0897 B( 18-C , 22-C ) :   1.3958 B( 19-Se, 20-C ) :   1.2626
B( 19-Se, 22-C ) :   0.1053 B( 20-C , 21-C ) :   1.3535 B( 20-C , 25-S ) :   0.1208
B( 20-C , 27-C ) :   1.1868 B( 21-C , 22-C ) :   1.2209 B( 21-C , 25-S ) :   1.1938
B( 22-C , 23-C ) :   0.9498 B( 23-C , 24-C ) :   0.9470 B( 23-C , 74-H ) :   0.9525
B( 23-C , 75-H ) :   0.9619 B( 24-C , 76-H ) :   0.9765 B( 24-C , 77-H ) :   0.9763
B( 24-C , 78-H ) :   0.9715 B( 25-S , 26-C ) :   1.3778 B( 26-C , 27-C ) :   1.2479
B( 26-C , 32-C ) :   1.1495 B( 27-C , 28-N ) :   1.1175 B( 28-N , 29-C ) :   0.8906
B( 28-N , 31-C ) :   1.1983 B( 29-C , 30-C ) :   0.9628 B( 29-C , 79-H ) :   0.9636
B( 29-C , 80-H ) :   0.9596 B( 30-C , 81-H ) :   0.9681 B( 30-C , 82-H ) :   0.9702
B( 30-C , 83-H ) :   0.9703 B( 31-C , 32-C ) :   1.2918 B( 31-C , 39-C ) :   1.2504
B( 32-C , 33-C ) :   1.1122 B( 33-C , 34-N ) :   1.5792 B( 33-C , 35-S ) :   0.1132
B( 33-C , 37-C ) :   1.1853 B( 34-N , 35-S ) :   1.2908 B( 34-N , 36-N ) :   0.1008
B( 35-S , 36-N ) :   1.2873 B( 35-S , 37-C ) :   0.1220 B( 36-N , 37-C ) :   1.5850
B( 37-C , 38-C ) :   1.1225 B( 38-C , 39-C ) :   1.2416 B( 38-C , 44-C ) :   1.1699
B( 39-C , 40-N ) :   1.2293 B( 40-N , 41-C ) :   0.8706 B( 40-N , 43-C ) :   1.1256
B( 41-C , 42-C ) :   0.9306 B( 41-C , 84-H ) :   0.9586 B( 41-C , 85-H ) :   0.9693
B( 42-C , 86-H ) :   0.9589 B( 42-C , 87-H ) :   0.9726 B( 42-C , 88-H ) :   0.9741
B( 43-C , 44-C ) :   1.2552 B( 43-C , 47-C ) :   1.1687 B( 44-C , 45-S ) :   1.3790
B( 45-S , 46-C ) :   1.1633 B( 45-S , 47-C ) :   0.1202 B( 46-C , 47-C ) :   1.3814
B( 46-C , 50-C ) :   1.2307 B( 47-C , 48-Se) :   1.2616 B( 48-Se, 49-C ) :   1.1051
B( 49-C , 50-C ) :   1.4154 B( 49-C , 53-C ) :   1.2237 B( 50-C , 51-C ) :   0.9539
B( 51-C , 52-C ) :   0.9535 B( 51-C , 89-H ) :   0.9745 B( 51-C , 90-H ) :   0.9436
B( 52-C , 91-H ) :   0.9697 B( 52-C , 92-H ) :   0.9720 B( 52-C , 93-H ) :   0.9654
B( 53-C , 54-C ) :   1.4762 B( 53-C , 94-H ) :   0.9100 B( 54-C , 55-C ) :   1.1336
B( 54-C , 69-C ) :   1.0281 B( 55-C , 56-C ) :   1.4446 B( 55-C , 61-C ) :   1.0297
B( 56-C , 57-C ) :   1.0369 B( 56-C , 59-C ) :   1.0382 B( 57-C , 58-N ) :   2.9804
B( 59-C , 60-N ) :   3.0052 B( 61-C , 62-C ) :   1.3255 B( 61-C , 68-C ) :   1.3334
B( 62-C , 63-C ) :   1.3904 B( 62-C , 95-H ) :   0.9306 B( 63-C , 64-F ) :   1.0838
B( 63-C , 65-C ) :   1.3433 B( 65-C , 66-F ) :   1.0634 B( 65-C , 67-C ) :   1.3591
B( 67-C , 68-C ) :   1.3096 B( 67-C , 96-H ) :   0.9825 B( 68-C , 69-C ) :   0.9556
B( 68-C , 70-O ) :  -0.1468 B( 69-C , 70-O ) :   2.0640

-----------------------------------------------------------------------------
         ABSORPTION SPECTRUM VIA TRANSITION ELECTRIC DIPOLE MOMENTS
-----------------------------------------------------------------------------
State   Energy    Wavelength  fosc         T2        TX        TY        TZ
        (cm-1)      (nm)                 (au**2)    (au)      (au)      (au)
-----------------------------------------------------------------------------
   1   14618.5    684.1   2.656732290  59.83038  -1.89151  -3.29776   6.73627
   2   16674.7    599.7   0.089752075   1.77200   1.02166  -0.53187  -0.66732
   3   18453.3    541.9   0.193685242   3.45540  -0.22720  -0.81406   1.65562
   4   18903.3    529.0   0.032598672   0.56773  -0.42689   0.48619   0.38615
   5   19254.2    519.4   0.074895955   1.28058   0.63708   0.59905  -0.71823
   6   20194.6    495.2   0.091986693   1.49957   0.31802   0.62215  -1.00567
   7   21313.6    469.2   0.068096639   1.05183  -0.84583   0.57402  -0.08299
   8   21488.7    465.4   0.187334813   2.87001   1.48673  -0.71471  -0.38580
   9   21955.5    455.5   0.161907727   2.42773  -0.56291  -0.54187   1.34805
  10   22696.1    440.6   0.023517386   0.34112  -0.51029   0.24231   0.14839
  11   22944.0    435.8   0.024656776   0.35379   0.30241   0.05738  -0.50896
  12   24094.8    415.0   0.004795084   0.06552   0.13027   0.04730  -0.21519
  13   24186.8    413.4   0.010030576   0.13653  -0.12922   0.32481   0.11969
  14   24624.3    406.1   0.001062971   0.01421   0.02583   0.11228   0.03060
  15   24836.1    402.6   0.010098630   0.13386   0.12518  -0.33678   0.06908
  16   25209.1    396.7   0.002000453   0.02612  -0.10314  -0.00834   0.12416
  17   25388.2    393.9   0.000621994   0.00807   0.05388   0.00896   0.07129
  18   26349.7    379.5   0.012625858   0.15775  -0.35035   0.18687   0.00914
  19   26465.9    377.8   0.015804464   0.19659  -0.23116   0.17541   0.33524
  20   26849.2    372.5   0.017313489   0.21229  -0.11777   0.07381  -0.43928
  21   26876.5    372.1   0.039344980   0.48194   0.21917   0.39501  -0.52713
  22   26905.0    371.7   0.053312353   0.65233   0.62537   0.43207   0.27306
  23   27150.6    368.3   0.082558445   1.00105   0.92727   0.30327  -0.22192
  24   27502.0    363.6   0.086496340   1.03540  -0.53570   0.36542   0.78416
  25   27763.2    360.2   0.352384938   4.17853  -0.20510  -0.99089   1.77612
  26   27892.1    358.5   0.014323612   0.16906   0.00602   0.01838   0.41072
  27   28290.2    353.5   0.063137151   0.73473  -0.03496   0.79555  -0.31719
  28   28799.9    347.2   0.053271888   0.60895  -0.47194   0.60947   0.12152
  29   28842.2    346.7   0.019646426   0.22425   0.37891  -0.05253  -0.27914
  30   29210.1    342.3   0.032424984   0.36545  -0.26976   0.21604   0.49598
  31   29268.9    341.7   0.007203931   0.08103  -0.27504   0.05113  -0.05259
  32   29458.1    339.5   0.037226992   0.41603   0.01531  -0.34354   0.54570
  33   29641.8    337.4   0.037218769   0.41336  -0.53254   0.34243  -0.11185
  34   29998.3    333.4   0.050953098   0.55918  -0.18066  -0.33852   0.64183
  35   30285.7    330.2   0.042131961   0.45798  -0.44748   0.50621   0.03861
  36   30659.8    326.2   0.003507652   0.03766  -0.14202   0.13103   0.01805
  37   30708.5    325.6   0.012152096   0.13028  -0.23561   0.15144   0.22766
  38   30963.2    323.0   0.003224803   0.03429   0.08025   0.16651  -0.01098
  39   31012.2    322.5   0.011109376   0.11793   0.08148  -0.12085   0.31095
  40   31108.8    321.5   0.011445347   0.12112   0.11347   0.28445   0.16533
  41   31370.5    318.8   0.011861103   0.12447   0.27994   0.17503  -0.12439
  42   31411.7    318.4   0.002509319   0.02630   0.08982   0.03350  -0.13080
  43   31573.3    316.7   0.023317451   0.24313  -0.47616  -0.12738  -0.01305
  44   31628.3    316.2   0.014442703   0.15033   0.08235  -0.04348  -0.37638
  45   32039.7    312.1   0.044573685   0.45800  -0.18948  -0.23219   0.60678
  46   32602.6    306.7   0.050149597   0.50640   0.00971   0.65878   0.26890
  47   32908.8    303.9   0.005528586   0.05531   0.21964   0.07014   0.04631
  48   33203.2    301.2   0.013669640   0.13554   0.32544  -0.03648   0.16820
  49   33258.7    300.7   0.442513756   4.38024   0.75838   1.63796   1.05933
  50   33348.7    299.9   0.268048223   2.64612  -0.58180  -1.39579  -0.59949

FINAL SINGLE POINT ENERGY     -8981.632885397679

DIPOLE MOMENT
-------------
                                X             Y             Z
Electronic contribution:     28.56434     -19.23324       2.87061
Nuclear contribution   :    -28.68078      20.49990      -2.05548
                        -----------------------------------------
Total Dipole Moment    :     -0.11644       1.26666       0.81512
                        -----------------------------------------
Magnitude (a.u.)       :      1.51076
Magnitude (Debye)      :      3.84005

Rotational constants in cm-1:     0.001929     0.000222     0.000218
Rotational constants in MHz :    57.832676     6.653206     6.541043

                             ****ORCA TERMINATED NORMALLY****
TOTAL RUN TIME: 0 days 6 hours 26 minutes 51 seconds 250 msec
