                         Program Version 4.2.0 -  RELEASE  -
|  1> # ORCA input file
|  2> # CH1007.out
|  3> ! B3LYP def2-TZVP def2/J RIJCOSX Grid4 TightSCF
|  4> %maxcore 1000
|  5> %tddft
|  6>   maxdim 5
|  7>   nroots 50
|  8>   end
|  9> * xyz 0 1
| 10>    C        5.54516         2.90251        -1.76395
| 11>    O        6.65977         2.39299        -1.76954
| 12>    C        5.01277         3.82663        -2.78320
| 13>    C        5.62726         4.30199        -3.92398
| 14>    C        4.90344         5.16802        -4.72857
| 15>    F        5.45905         5.65451        -5.84548
| 16>    C        3.60299         5.53633        -4.38620
| 17>    F        2.92654         6.37230        -5.18240
| 18>    C        2.98687         5.05872        -3.23759
| 19>    C        3.70333         4.19385        -2.42704
| 20>    C        3.35343         3.52334        -1.17134
| 21>    C        2.14910         3.64487        -0.52564
| 22>    C        1.79043         3.00320         0.67802
| 23>    N        1.41519         2.52056         1.65117
| 24>    C        1.08122         4.44332        -0.98705
| 25>    N        0.17336         5.07104        -1.30213
| 26>    C        4.49779         2.73225        -0.77436
| 27>    C        4.57918         1.94862         0.36100
| 28>    C        5.59666         1.12882         0.84274
| 29>   Se        7.30024         0.83239         0.03046
| 30>    C        7.64617        -0.34213         1.43672
| 31>    C        6.55488        -0.40724         2.32700
| 32>    C        5.45329         0.37967         2.03045
| 33>    C        4.22597         0.34706         2.88427
| 34>    C        3.20760        -0.65614         2.33489
| 35>    S        6.79986        -1.51781         3.66768
| 36>    C        8.35701        -1.89483         3.02850
| 37>    C        8.67094        -1.19206         1.85866
| 38>    N        9.91742        -1.55674         1.41803
| 39>    C       10.32738        -1.21168         0.07548
| 40>    C       10.33093        -2.42984        -0.84348
| 41>    C       10.41534        -2.50956         2.28519
| 42>    C        9.43213        -2.74973         3.29566
| 43>    C        9.58103        -3.76914         4.25968
| 44>    N        8.75477        -4.12446         5.23181
| 45>    S        9.36906        -5.41788         5.98388
| 46>    N       10.71504        -5.57873         5.10072
| 47>    C       10.73137        -4.61904         4.18797
| 48>    C       11.73356        -4.33291         3.23822
| 49>    C       11.63582        -3.22973         2.33368
| 50>    N       12.82933        -3.13445         1.60182
| 51>    C       13.40109        -2.01295         0.88201
| 52>    C       13.45225        -0.76264         1.75289
| 53>    C       13.60812        -4.16580         1.98925
| 54>    C       12.95861        -4.94128         2.95394
| 55>    S       16.50450        -3.59119         0.06649
| 56>    C       16.02416        -4.83459         1.06862
| 57>    C       14.84468        -4.84323         1.77091
| 58>   Se       14.46333        -6.10319         3.26037
| 59>    C       15.97093        -7.13001         0.96213
| 60>    C       16.77616        -6.11911         1.17998
| 61>    C       18.22526        -6.13081         1.52313
| 62>    C       18.80471        -7.53758         1.53557
| 63>    C       14.98845        -7.83661         0.47071
| 64>    C       13.78776        -8.29624         1.23989
| 65>    C       13.26114        -9.71747         0.96880
| 66>    C       13.81236       -10.92998         1.18414
| 67>    C       13.14335       -12.12596         0.83523
| 68>    N       12.59230       -13.08776         0.54706
| 69>    C       15.09750       -11.03302         1.76739
| 70>    N       16.14262       -11.07661         2.23436
| 71>    C       12.03163        -9.17653         0.42274
| 72>    C       10.80625        -9.48760        -0.13502
| 73>    C       10.02296        -8.38690        -0.46697
| 74>    F        8.81596        -8.59050        -1.00456
| 75>    C       10.44727        -7.06938        -0.26309
| 76>    F        9.63578        -6.06261        -0.60756
| 77>    C       11.68962        -6.75909         0.29539
| 78>    C       12.44533        -7.84763         0.62734
| 79>    C       13.73726        -7.94416         2.68454
| 80>    O       13.26450        -8.55868         3.57753
| 81>    H        6.63286         4.01362        -4.18530
| 82>    H        1.98021         5.37540        -3.01972
| 83>    H        3.69900         1.95991         0.99005
| 84>    H        3.76361         1.33261         2.95291
| 85>    H        4.51808         0.03867         3.89048
| 86>    H        2.90075        -0.38355         1.32774
| 87>    H        2.32679        -0.66916         2.97017
| 88>    H        3.63682        -1.65509         2.30963
| 89>    H        9.59541        -0.48526        -0.29696
| 90>    H       11.29561        -0.71025         0.08606
| 91>    H        9.33680        -2.86887        -0.88894
| 92>    H       11.02003        -3.19225        -0.48798
| 93>    H       10.62391        -2.13307        -1.84672
| 94>    H       12.86303        -1.83552        -0.04899
| 95>    H       14.41956        -2.31566         0.61524
| 96>    H       12.46011        -0.46446         2.08532
| 97>    H       13.89606         0.05428         1.19073
| 98>    H       14.06522        -0.94746         2.63224
| 99>    H       18.35906        -5.65265         2.49898
|100>    H       18.74095        -5.50516         0.78813
|101>    H       18.28411        -8.16059         2.26023
|102>    H       19.85868        -7.50769         1.79821
|103>    H       18.70355        -7.99921         0.55606
|104>    H       14.97401        -8.10619        -0.57885
|105>    H       10.45099       -10.49012        -0.30907
|106>    H       11.98891        -5.73379         0.43458
|107> *
|108>
|109>                          ****END OF INPUT****

CARTESIAN COORDINATES (ANGSTROEM)
---------------------------------
  C      5.545160    2.902510   -1.763950
  O      6.659770    2.392990   -1.769540
  C      5.012770    3.826630   -2.783200
  C      5.627260    4.301990   -3.923980
  C      4.903440    5.168020   -4.728570
  F      5.459050    5.654510   -5.845480
  C      3.602990    5.536330   -4.386200
  F      2.926540    6.372300   -5.182400
  C      2.986870    5.058720   -3.237590
  C      3.703330    4.193850   -2.427040
  C      3.353430    3.523340   -1.171340
  C      2.149100    3.644870   -0.525640
  C      1.790430    3.003200    0.678020
  N      1.415190    2.520560    1.651170
  C      1.081220    4.443320   -0.987050
  N      0.173360    5.071040   -1.302130
  C      4.497790    2.732250   -0.774360
  C      4.579180    1.948620    0.361000
  C      5.596660    1.128820    0.842740
  Se     7.300240    0.832390    0.030460
  C      7.646170   -0.342130    1.436720
  C      6.554880   -0.407240    2.327000
  C      5.453290    0.379670    2.030450
  C      4.225970    0.347060    2.884270
  C      3.207600   -0.656140    2.334890
  S      6.799860   -1.517810    3.667680
  C      8.357010   -1.894830    3.028500
  C      8.670940   -1.192060    1.858660
  N      9.917420   -1.556740    1.418030
  C     10.327380   -1.211680    0.075480
  C     10.330930   -2.429840   -0.843480
  C     10.415340   -2.509560    2.285190
  C      9.432130   -2.749730    3.295660
  C      9.581030   -3.769140    4.259680
  N      8.754770   -4.124460    5.231810
  S      9.369060   -5.417880    5.983880
  N     10.715040   -5.578730    5.100720
  C     10.731370   -4.619040    4.187970
  C     11.733560   -4.332910    3.238220
  C     11.635820   -3.229730    2.333680
  N     12.829330   -3.134450    1.601820
  C     13.401090   -2.012950    0.882010
  C     13.452250   -0.762640    1.752890
  C     13.608120   -4.165800    1.989250
  C     12.958610   -4.941280    2.953940
  S     16.504500   -3.591190    0.066490
  C     16.024160   -4.834590    1.068620
  C     14.844680   -4.843230    1.770910
  Se    14.463330   -6.103190    3.260370
  C     15.970930   -7.130010    0.962130
  C     16.776160   -6.119110    1.179980
  C     18.225260   -6.130810    1.523130
  C     18.804710   -7.537580    1.535570
  C     14.988450   -7.836610    0.470710
  C     13.787760   -8.296240    1.239890
  C     13.261140   -9.717470    0.968800
  C     13.812360  -10.929980    1.184140
  C     13.143350  -12.125960    0.835230
  N     12.592300  -13.087760    0.547060
  C     15.097500  -11.033020    1.767390
  N     16.142620  -11.076610    2.234360
  C     12.031630   -9.176530    0.422740
  C     10.806250   -9.487600   -0.135020
  C     10.022960   -8.386900   -0.466970
  F      8.815960   -8.590500   -1.004560
  C     10.447270   -7.069380   -0.263090
  F      9.635780   -6.062610   -0.607560
  C     11.689620   -6.759090    0.295390
  C     12.445330   -7.847630    0.627340
  C     13.737260   -7.944160    2.684540
  O     13.264500   -8.558680    3.577530
  H      6.632860    4.013620   -4.185300
  H      1.980210    5.375400   -3.019720
  H      3.699000    1.959910    0.990050
  H      3.763610    1.332610    2.952910
  H      4.518080    0.038670    3.890480
  H      2.900750   -0.383550    1.327740
  H      2.326790   -0.669160    2.970170
  H      3.636820   -1.655090    2.309630
  H      9.595410   -0.485260   -0.296960
  H     11.295610   -0.710250    0.086060
  H      9.336800   -2.868870   -0.888940
  H     11.020030   -3.192250   -0.487980
  H     10.623910   -2.133070   -1.846720
  H     12.863030   -1.835520   -0.048990
  H     14.419560   -2.315660    0.615240
  H     12.460110   -0.464460    2.085320
  H     13.896060    0.054280    1.190730
  H     14.065220   -0.947460    2.632240
  H     18.359060   -5.652650    2.498980
  H     18.740950   -5.505160    0.788130
  H     18.284110   -8.160590    2.260230
  H     19.858680   -7.507690    1.798210
  H     18.703550   -7.999210    0.556060
  H     14.974010   -8.106190   -0.578850
  H     10.450990  -10.490120   -0.309070
  H     11.988910   -5.733790    0.434580

 Total Charge           Charge          ....    0
 Multiplicity           Mult            ....    1
 Number of Electrons    NEL             ....  562
 Basis Dimension        Dim             .... 2409

ORBITAL ENERGIES
----------------

  NO   OCC          E(Eh)            E(eV)
   0   2.0000    -454.007443    -12354.1706
   1   2.0000    -453.928534    -12352.0234
   2   2.0000     -88.952720     -2420.5266
   3   2.0000     -88.903940     -2419.1992
   4   2.0000     -88.810800     -2416.6647
   5   2.0000     -58.187079     -1583.3509
   6   2.0000     -58.110195     -1581.2588
   7   2.0000     -52.239283     -1421.5032
   8   2.0000     -52.238812     -1421.4903
   9   2.0000     -52.238117     -1421.4714
  10   2.0000     -52.162719     -1419.4197
  11   2.0000     -52.161624     -1419.3899
  12   2.0000     -52.160888     -1419.3699
  13   2.0000     -24.750779      -673.5029
  14   2.0000     -24.744093      -673.3210
  15   2.0000     -24.722994      -672.7469
  16   2.0000     -24.721117      -672.6958
  17   2.0000     -19.215180      -522.8716
  18   2.0000     -19.138775      -520.7925
  19   2.0000     -14.416446      -392.2914
  20   2.0000     -14.405181      -391.9849
  21   2.0000     -14.360293      -390.7634
  22   2.0000     -14.356920      -390.6717
  23   2.0000     -14.351680      -390.5291
  24   2.0000     -14.350243      -390.4900
  25   2.0000     -14.328984      -389.9115
  26   2.0000     -14.323576      -389.7643
  27   2.0000     -10.355730      -281.7937
  28   2.0000     -10.329165      -281.0709
  29   2.0000     -10.324321      -280.9391
  30   2.0000     -10.297169      -280.2002
  31   2.0000     -10.296575      -280.1841
  32   2.0000     -10.288594      -279.9669
  33   2.0000     -10.288197      -279.9561
  34   2.0000     -10.284089      -279.8443
  35   2.0000     -10.278657      -279.6965
  36   2.0000     -10.263402      -279.2814
  37   2.0000     -10.262470      -279.2560
  38   2.0000     -10.261169      -279.2206
  39   2.0000     -10.258449      -279.1466
  40   2.0000     -10.253001      -278.9983
  41   2.0000     -10.252502      -278.9848
  42   2.0000     -10.251414      -278.9552
  43   2.0000     -10.249668      -278.9076
  44   2.0000     -10.249457      -278.9019
  45   2.0000     -10.248686      -278.8809
  46   2.0000     -10.247640      -278.8525
  47   2.0000     -10.246288      -278.8157
  48   2.0000     -10.243219      -278.7322
  49   2.0000     -10.242431      -278.7107
  50   2.0000     -10.241697      -278.6907
  51   2.0000     -10.239525      -278.6316
  52   2.0000     -10.239309      -278.6258
  53   2.0000     -10.235425      -278.5201
  54   2.0000     -10.233626      -278.4711
  55   2.0000     -10.229951      -278.3711
  56   2.0000     -10.229454      -278.3576
  57   2.0000     -10.228847      -278.3411
  58   2.0000     -10.228498      -278.3316
  59   2.0000     -10.228088      -278.3204
  60   2.0000     -10.227967      -278.3171
  61   2.0000     -10.227827      -278.3133
  62   2.0000     -10.226941      -278.2892
  63   2.0000     -10.225158      -278.2407
  64   2.0000     -10.224815      -278.2314
  65   2.0000     -10.222684      -278.1734
  66   2.0000     -10.222403      -278.1657
  67   2.0000     -10.220965      -278.1266
  68   2.0000     -10.218521      -278.0601
  69   2.0000     -10.216498      -278.0050
  70   2.0000     -10.214153      -277.9412
  71   2.0000     -10.213988      -277.9367
  72   2.0000     -10.207178      -277.7514
  73   2.0000     -10.197455      -277.4869
  74   2.0000     -10.195892      -277.4443
  75   2.0000     -10.192866      -277.3620
  76   2.0000     -10.191182      -277.3162
  77   2.0000     -10.171769      -276.7879
  78   2.0000     -10.170574      -276.7554
  79   2.0000      -8.023711      -218.3363
  80   2.0000      -7.979708      -217.1389
  81   2.0000      -7.924381      -215.6334
  82   2.0000      -7.889122      -214.6739
  83   2.0000      -7.848402      -213.5659
  84   2.0000      -5.988386      -162.9523
  85   2.0000      -5.980989      -162.7510
  86   2.0000      -5.980576      -162.7397
  87   2.0000      -5.942618      -161.7069
  88   2.0000      -5.938925      -161.6064
  89   2.0000      -5.935489      -161.5129
  90   2.0000      -5.866545      -159.6368
  91   2.0000      -5.865379      -159.6051
  92   2.0000      -5.861598      -159.5022
  93   2.0000      -5.851736      -159.2338
  94   2.0000      -5.848094      -159.1347
  95   2.0000      -5.844866      -159.0469
  96   2.0000      -5.792666      -157.6264
  97   2.0000      -5.788569      -157.5150
  98   2.0000      -5.784456      -157.4030
  99   2.0000      -2.220107       -60.4122
 100   2.0000      -2.219917       -60.4070
 101   2.0000      -2.216894       -60.3248
 102   2.0000      -2.215833       -60.2959
 103   2.0000      -2.214898       -60.2704
 104   2.0000      -2.146125       -58.3990
 105   2.0000      -2.145401       -58.3793
 106   2.0000      -2.141278       -58.2671
 107   2.0000      -2.137990       -58.1777
 108   2.0000      -2.137708       -58.1700
 109   2.0000      -1.291882       -35.1539
 110   2.0000      -1.276866       -34.7453
 111   2.0000      -1.265300       -34.4306
 112   2.0000      -1.251932       -34.0668
 113   2.0000      -1.150724       -31.3128
 114   2.0000      -1.066504       -29.0211
 115   2.0000      -1.049776       -28.5658
 116   2.0000      -1.038495       -28.2589
 117   2.0000      -1.034598       -28.1529
 118   2.0000      -0.983797       -26.7705
 119   2.0000      -0.956625       -26.0311
 120   2.0000      -0.945398       -25.7256
 121   2.0000      -0.943266       -25.6676
 122   2.0000      -0.925830       -25.1931
 123   2.0000      -0.921650       -25.0794
 124   2.0000      -0.920523       -25.0487
 125   2.0000      -0.916691       -24.9444
 126   2.0000      -0.907427       -24.6924
 127   2.0000      -0.904880       -24.6230
 128   2.0000      -0.891193       -24.2506
 129   2.0000      -0.880200       -23.9515
 130   2.0000      -0.875541       -23.8247
 131   2.0000      -0.866072       -23.5670
 132   2.0000      -0.862895       -23.4806
 133   2.0000      -0.836353       -22.7583
 134   2.0000      -0.832183       -22.6448
 135   2.0000      -0.826199       -22.4820
 136   2.0000      -0.819802       -22.3079
 137   2.0000      -0.817728       -22.2515
 138   2.0000      -0.808356       -21.9965
 139   2.0000      -0.800304       -21.7774
 140   2.0000      -0.797703       -21.7066
 141   2.0000      -0.793179       -21.5835
 142   2.0000      -0.787299       -21.4235
 143   2.0000      -0.776357       -21.1257
 144   2.0000      -0.766229       -20.8501
 145   2.0000      -0.755878       -20.5685
 146   2.0000      -0.753421       -20.5016
 147   2.0000      -0.743286       -20.2258
 148   2.0000      -0.735304       -20.0086
 149   2.0000      -0.722238       -19.6531
 150   2.0000      -0.713524       -19.4160
 151   2.0000      -0.704403       -19.1678
 152   2.0000      -0.700297       -19.0560
 153   2.0000      -0.691873       -18.8268
 154   2.0000      -0.687563       -18.7095
 155   2.0000      -0.686498       -18.6806
 156   2.0000      -0.684457       -18.6250
 157   2.0000      -0.665101       -18.0983
 158   2.0000      -0.662474       -18.0268
 159   2.0000      -0.651879       -17.7385
 160   2.0000      -0.650047       -17.6887
 161   2.0000      -0.641933       -17.4679
 162   2.0000      -0.639507       -17.4019
 163   2.0000      -0.638005       -17.3610
 164   2.0000      -0.633333       -17.2339
 165   2.0000      -0.630134       -17.1468
 166   2.0000      -0.626457       -17.0468
 167   2.0000      -0.615294       -16.7430
 168   2.0000      -0.601079       -16.3562
 169   2.0000      -0.600310       -16.3353
 170   2.0000      -0.595015       -16.1912
 171   2.0000      -0.591894       -16.1063
 172   2.0000      -0.587100       -15.9758
 173   2.0000      -0.579151       -15.7595
 174   2.0000      -0.573476       -15.6051
 175   2.0000      -0.573234       -15.5985
 176   2.0000      -0.567133       -15.4325
 177   2.0000      -0.554593       -15.0912
 178   2.0000      -0.550508       -14.9801
 179   2.0000      -0.549456       -14.9515
 180   2.0000      -0.546149       -14.8615
 181   2.0000      -0.546100       -14.8601
 182   2.0000      -0.542350       -14.7581
 183   2.0000      -0.536741       -14.6055
 184   2.0000      -0.532477       -14.4894
 185   2.0000      -0.525045       -14.2872
 186   2.0000      -0.522341       -14.2136
 187   2.0000      -0.521328       -14.1860
 188   2.0000      -0.517470       -14.0811
 189   2.0000      -0.516532       -14.0556
 190   2.0000      -0.514774       -14.0077
 191   2.0000      -0.510301       -13.8860
 192   2.0000      -0.507198       -13.8016
 193   2.0000      -0.506157       -13.7732
 194   2.0000      -0.501727       -13.6527
 195   2.0000      -0.493324       -13.4240
 196   2.0000      -0.489119       -13.3096
 197   2.0000      -0.487354       -13.2616
 198   2.0000      -0.482556       -13.1310
 199   2.0000      -0.482282       -13.1236
 200   2.0000      -0.479548       -13.0492
 201   2.0000      -0.477860       -13.0032
 202   2.0000      -0.476337       -12.9618
 203   2.0000      -0.475297       -12.9335
 204   2.0000      -0.470610       -12.8060
 205   2.0000      -0.467224       -12.7138
 206   2.0000      -0.465120       -12.6566
 207   2.0000      -0.464124       -12.6295
 208   2.0000      -0.463143       -12.6028
 209   2.0000      -0.460898       -12.5417
 210   2.0000      -0.460275       -12.5247
 211   2.0000      -0.454302       -12.3622
 212   2.0000      -0.453443       -12.3388
 213   2.0000      -0.448030       -12.1915
 214   2.0000      -0.445711       -12.1284
 215   2.0000      -0.443779       -12.0758
 216   2.0000      -0.439906       -11.9704
 217   2.0000      -0.436689       -11.8829
 218   2.0000      -0.432847       -11.7784
 219   2.0000      -0.430494       -11.7143
 220   2.0000      -0.429031       -11.6745
 221   2.0000      -0.426382       -11.6024
 222   2.0000      -0.425822       -11.5872
 223   2.0000      -0.424935       -11.5631
 224   2.0000      -0.420065       -11.4305
 225   2.0000      -0.419756       -11.4221
 226   2.0000      -0.417751       -11.3676
 227   2.0000      -0.414379       -11.2758
 228   2.0000      -0.410130       -11.1602
 229   2.0000      -0.407741       -11.0952
 230   2.0000      -0.405192       -11.0258
 231   2.0000      -0.403260       -10.9733
 232   2.0000      -0.401787       -10.9332
 233   2.0000      -0.400429       -10.8962
 234   2.0000      -0.399604       -10.8738
 235   2.0000      -0.396445       -10.7878
 236   2.0000      -0.394842       -10.7442
 237   2.0000      -0.391346       -10.6491
 238   2.0000      -0.389792       -10.6068
 239   2.0000      -0.386229       -10.5098
 240   2.0000      -0.385701       -10.4955
 241   2.0000      -0.385067       -10.4782
 242   2.0000      -0.384189       -10.4543
 243   2.0000      -0.382805       -10.4166
 244   2.0000      -0.380656       -10.3582
 245   2.0000      -0.377315       -10.2673
 246   2.0000      -0.376862       -10.2549
 247   2.0000      -0.374694       -10.1959
 248   2.0000      -0.373582       -10.1657
 249   2.0000      -0.369946       -10.0667
 250   2.0000      -0.364972        -9.9314
 251   2.0000      -0.364079        -9.9071
 252   2.0000      -0.360749        -9.8165
 253   2.0000      -0.360270        -9.8034
 254   2.0000      -0.359413        -9.7801
 255   2.0000      -0.356688        -9.7060
 256   2.0000      -0.351694        -9.5701
 257   2.0000      -0.349623        -9.5137
 258   2.0000      -0.345823        -9.4103
 259   2.0000      -0.343959        -9.3596
 260   2.0000      -0.339150        -9.2287
 261   2.0000      -0.337805        -9.1921
 262   2.0000      -0.332745        -9.0544
 263   2.0000      -0.331823        -9.0294
 264   2.0000      -0.323856        -8.8126
 265   2.0000      -0.312780        -8.5112
 266   2.0000      -0.308579        -8.3969
 267   2.0000      -0.306078        -8.3288
 268   2.0000      -0.296430        -8.0663
 269   2.0000      -0.292757        -7.9663
 270   2.0000      -0.287702        -7.8288
 271   2.0000      -0.286128        -7.7859
 272   2.0000      -0.281016        -7.6468
 273   2.0000      -0.278758        -7.5854
 274   2.0000      -0.267460        -7.2779
 275   2.0000      -0.259519        -7.0619
 276   2.0000      -0.257016        -6.9938
 277   2.0000      -0.233620        -6.3571
 278   2.0000      -0.225696        -6.1415
 279   2.0000      -0.217547        -5.9198
 280   2.0000      -0.194027        -5.2797
 281   0.0000      -0.140258        -3.8166
 282   0.0000      -0.126600        -3.4450
 283   0.0000      -0.117550        -3.1987
 284   0.0000      -0.108764        -2.9596
 285   0.0000      -0.095627        -2.6021

MULLIKEN ATOMIC CHARGES
-----------------------
   0 C :    0.212224
   1 O :   -0.381534
   2 C :    0.111351
   3 C :   -0.318164
   4 C :    0.284974
   5 F :   -0.181854
   6 C :    0.253046
   7 F :   -0.176799
   8 C :   -0.264961
   9 C :    0.083108
  10 C :   -0.016765
  11 C :    0.151939
  12 C :   -0.205355
  13 N :    0.019834
  14 C :   -0.227547
  15 N :    0.041698
  16 C :   -0.040766
  17 C :   -0.168849
  18 C :    0.027141
  19 Se:    0.257841
  20 C :   -0.244278
  21 C :    0.047042
  22 C :    0.022320
  23 C :   -0.217380
  24 C :   -0.318085
  25 S :    0.014876
  26 C :   -0.168605
  27 C :    0.235155
  28 N :   -0.051258
  29 C :   -0.171632
  30 C :   -0.331152
  31 C :    0.119699
  32 C :    0.064565
  33 C :    0.007186
  34 N :   -0.248787
  35 S :    0.356559
  36 N :   -0.252795
  37 C :   -0.058275
  38 C :    0.086009
  39 C :   -0.065705
  40 N :   -0.048353
  41 C :   -0.151038
  42 C :   -0.342365
  43 C :    0.121910
  44 C :   -0.224824
  45 S :   -0.362600
  46 C :    0.003048
  47 C :   -0.154020
  48 Se:    0.473153
  49 C :    0.068189
  50 C :   -0.051206
  51 C :   -0.134061
  52 C :   -0.326758
  53 C :   -0.318159
  54 C :    0.523485
  55 C :   -0.125006
  56 C :    0.154399
  57 C :   -0.247450
  58 N :    0.068461
  59 C :   -0.222341
  60 N :    0.052594
  61 C :    0.148106
  62 C :   -0.266710
  63 C :    0.280662
  64 F :   -0.173449
  65 C :    0.299683
  66 F :   -0.176606
  67 C :   -0.309906
  68 C :   -0.176807
  69 C :    0.089836
  70 O :   -0.162311
  71 H :    0.144940
  72 H :    0.165832
  73 H :    0.135055
  74 H :    0.128421
  75 H :    0.107009
  76 H :    0.117017
  77 H :    0.123271
  78 H :    0.114599
  79 H :    0.123010
  80 H :    0.139395
  81 H :    0.132211
  82 H :    0.112935
  83 H :    0.128847
  84 H :    0.123052
  85 H :    0.130849
  86 H :    0.125843
  87 H :    0.127713
  88 H :    0.123941
  89 H :    0.098156
  90 H :    0.127978
  91 H :    0.119199
  92 H :    0.117403
  93 H :    0.110682
  94 H :    0.142736
  95 H :    0.163086
  96 H :    0.221246
Sum of atomic charges:   -0.0000000

LOEWDIN ATOMIC CHARGES
----------------------
   0 C :   -0.249312
   1 O :    0.118592
   2 C :   -0.057798
   3 C :   -0.048653
   4 C :   -0.226347
   5 F :    0.211489
   6 C :   -0.224259
   7 F :    0.215559
   8 C :   -0.049119
   9 C :   -0.042101
  10 C :    0.009610
  11 C :   -0.138239
  12 C :   -0.168000
  13 N :    0.077234
  14 C :   -0.165770
  15 N :    0.080719
  16 C :   -0.096020
  17 C :   -0.054276
  18 C :   -0.263084
  19 Se:    0.685735
  20 C :   -0.301267
  21 C :   -0.322457
  22 C :   -0.130214
  23 C :   -0.231974
  24 C :   -0.283018
  25 S :    0.751098
  26 C :   -0.291100
  27 C :   -0.189623
  28 N :    0.297602
  29 C :   -0.260613
  30 C :   -0.291965
  31 C :   -0.095339
  32 C :   -0.094852
  33 C :   -0.244249
  34 N :   -0.125672
  35 S :    0.664950
  36 N :   -0.125472
  37 C :   -0.249576
  38 C :   -0.096325
  39 C :   -0.096088
  40 N :    0.303635
  41 C :   -0.269444
  42 C :   -0.293289
  43 C :   -0.202361
  44 C :   -0.226740
  45 S :    0.189547
  46 C :   -0.480826
  47 C :   -0.238531
  48 Se:    1.017744
  49 C :   -0.015423
  50 C :   -0.135529
  51 C :   -0.233200
  52 C :   -0.287041
  53 C :   -0.105224
  54 C :   -0.148682
  55 C :    0.052440
  56 C :   -0.129281
  57 C :   -0.142871
  58 N :    0.105712
  59 C :   -0.143334
  60 N :    0.105914
  61 C :   -0.045288
  62 C :   -0.040078
  63 C :   -0.221243
  64 F :    0.220108
  65 C :   -0.208216
  66 F :    0.221682
  67 C :   -0.056556
  68 C :   -0.006565
  69 C :   -0.348314
  70 O :    0.240659
  71 H :    0.162754
  72 H :    0.169516
  73 H :    0.177643
  74 H :    0.146486
  75 H :    0.142431
  76 H :    0.120723
  77 H :    0.124482
  78 H :    0.118993
  79 H :    0.143809
  80 H :    0.135191
  81 H :    0.127651
  82 H :    0.117432
  83 H :    0.127095
  84 H :    0.131221
  85 H :    0.133710
  86 H :    0.120287
  87 H :    0.127971
  88 H :    0.126017
  89 H :    0.148487
  90 H :    0.155412
  91 H :    0.123243
  92 H :    0.120289
  93 H :    0.123212
  94 H :    0.166286
  95 H :    0.165161
  96 H :    0.165281

  Mayer bond orders larger than 0.100000
B(  0-C ,  1-O ) :   1.9293 B(  0-C ,  2-C ) :   1.0597 B(  0-C , 16-C ) :   1.0391
B(  1-O ,  2-C ) :  -0.1789 B(  1-O , 19-Se) :   0.1252 B(  2-C ,  3-C ) :   1.3041
B(  2-C ,  9-C ) :   1.3320 B(  3-C ,  4-C ) :   1.3535 B(  3-C , 71-H ) :   0.9863
B(  4-C ,  5-F ) :   1.0605 B(  4-C ,  6-C ) :   1.3496 B(  6-C ,  7-F ) :   1.0834
B(  6-C ,  8-C ) :   1.3844 B(  8-C ,  9-C ) :   1.3405 B(  8-C , 72-H ) :   0.9260
B(  9-C , 10-C ) :   1.0407 B( 10-C , 11-C ) :   1.4450 B( 10-C , 16-C ) :   1.1712
B( 11-C , 12-C ) :   1.0626 B( 11-C , 14-C ) :   1.0233 B( 12-C , 13-N ) :   2.9165
B( 14-C , 15-N ) :   2.9866 B( 16-C , 17-C ) :   1.4243 B( 17-C , 18-C ) :   1.3402
B( 17-C , 73-H ) :   0.8516 B( 18-C , 19-Se) :   1.1615 B( 18-C , 22-C ) :   1.3161
B( 19-Se, 20-C ) :   1.2316 B( 20-C , 21-C ) :   1.3611 B( 20-C , 25-S ) :   0.1073
B( 20-C , 27-C ) :   1.3009 B( 21-C , 22-C ) :   1.3534 B( 21-C , 25-S ) :   1.1786
B( 21-C , 27-C ) :  -0.1131 B( 22-C , 23-C ) :   0.9552 B( 23-C , 24-C ) :   0.9661
B( 23-C , 74-H ) :   0.9500 B( 23-C , 75-H ) :   0.9697 B( 24-C , 76-H ) :   0.9736
B( 24-C , 77-H ) :   0.9730 B( 24-C , 78-H ) :   0.9701 B( 25-S , 26-C ) :   1.3699
B( 26-C , 27-C ) :   1.2476 B( 26-C , 32-C ) :   1.2025 B( 27-C , 28-N ) :   1.1062
B( 28-N , 29-C ) :   0.8813 B( 28-N , 31-C ) :   1.2034 B( 29-C , 30-C ) :   0.9573
B( 29-C , 79-H ) :   0.9565 B( 29-C , 80-H ) :   0.9612 B( 30-C , 81-H ) :   0.9658
B( 30-C , 82-H ) :   0.9732 B( 30-C , 83-H ) :   0.9711 B( 31-C , 32-C ) :   1.2275
B( 31-C , 39-C ) :   1.2602 B( 32-C , 33-C ) :   1.1215 B( 33-C , 34-N ) :   1.5920
B( 33-C , 35-S ) :   0.1162 B( 33-C , 37-C ) :   1.1919 B( 34-N , 35-S ) :   1.2905
B( 34-N , 36-N ) :   0.1034 B( 35-S , 36-N ) :   1.2981 B( 35-S , 37-C ) :   0.1215
B( 36-N , 37-C ) :   1.5945 B( 37-C , 38-C ) :   1.1256 B( 38-C , 39-C ) :   1.3278
B( 38-C , 44-C ) :   1.1666 B( 39-C , 40-N ) :   1.1320 B( 40-N , 41-C ) :   0.8759
B( 40-N , 43-C ) :   1.2074 B( 41-C , 42-C ) :   0.9515 B( 41-C , 84-H ) :   0.9572
B( 41-C , 85-H ) :   0.9190 B( 42-C , 86-H ) :   0.9694 B( 42-C , 87-H ) :   0.9705
B( 42-C , 88-H ) :   0.9698 B( 43-C , 44-C ) :   1.2601 B( 43-C , 47-C ) :   1.0966
B( 43-C , 48-Se) :  -0.1110 B( 44-C , 48-Se) :   0.9866 B( 45-S , 46-C ) :   1.6596
B( 45-S , 47-C ) :   0.1005 B( 45-S , 85-H ) :   0.1593 B( 46-C , 47-C ) :   1.3340
B( 46-C , 50-C ) :   0.9053 B( 47-C , 48-Se) :   1.0849 B( 48-Se, 69-C ) :   0.8948
B( 49-C , 50-C ) :   1.6948 B( 49-C , 53-C ) :   1.8796 B( 50-C , 51-C ) :   1.0393
B( 51-C , 52-C ) :   0.9920 B( 51-C , 89-H ) :   0.9344 B( 51-C , 90-H ) :   0.9472
B( 52-C , 91-H ) :   0.9691 B( 52-C , 92-H ) :   0.9769 B( 52-C , 93-H ) :   0.9727
B( 53-C , 54-C ) :   0.9007 B( 53-C , 94-H ) :   0.9466 B( 54-C , 55-C ) :   0.7711
B( 54-C , 68-C ) :   0.8843 B( 54-C , 69-C ) :   0.8219 B( 55-C , 56-C ) :   1.5502
B( 55-C , 61-C ) :   1.0502 B( 56-C , 57-C ) :   1.0168 B( 56-C , 59-C ) :   1.0351
B( 57-C , 58-N ) :   3.0074 B( 59-C , 60-N ) :   2.9703 B( 61-C , 62-C ) :   1.2706
B( 61-C , 68-C ) :   1.3247 B( 62-C , 63-C ) :   1.4177 B( 62-C , 95-H ) :   0.9629
B( 63-C , 64-F ) :   1.0617 B( 63-C , 65-C ) :   1.3569 B( 65-C , 66-F ) :   1.0285
B( 65-C , 67-C ) :   1.3451 B( 67-C , 68-C ) :   1.3412 B( 67-C , 96-H ) :   0.9198
B( 69-C , 70-O ) :   2.1176

-----------------------------------------------------------------------------
         ABSORPTION SPECTRUM VIA TRANSITION ELECTRIC DIPOLE MOMENTS
-----------------------------------------------------------------------------
State   Energy    Wavelength  fosc         T2        TX        TY        TZ
        (cm-1)      (nm)                 (au**2)    (au)      (au)      (au)
-----------------------------------------------------------------------------
   1    8381.4   1193.1   0.000875161   0.03438   0.05475   0.17586  -0.02122
   2   11993.9    833.8   0.022840334   0.62693  -0.61727   0.49079  -0.07092
   3   13583.6    736.2   0.089563047   2.17066   0.89482  -1.15037   0.21583
   4   14280.8    700.2   0.961539982  22.16615   3.60759  -2.85392   1.00329
   5   16045.3    623.2   0.002920548   0.05992   0.05734   0.23646   0.02686
   6   16546.7    604.3   0.125229045   2.49155   1.12257  -1.04450   0.37471
   7   16953.5    589.8   0.114864307   2.23049   1.00696  -0.97083   0.52345
   8   17468.1    572.5   0.127356723   2.40023  -1.26718   0.86066  -0.23185
   9   17899.7    558.7   0.067201972   1.23598   0.73908  -0.77299   0.30368
  10   18011.2    555.2   0.000074744   0.00137   0.02546  -0.01341   0.02319
  11   18451.0    542.0   0.127795469   2.28019  -1.25261   0.84292  -0.02522
  12   20019.7    499.5   0.060630837   0.99704  -0.12440   0.66489  -0.73450
  13   20182.3    495.5   0.054050367   0.88167   0.75732  -0.55510  -0.00128
  14   20857.6    479.4   0.613908297   9.68981  -2.07106   2.00742  -1.17082
  15   21304.1    469.4   0.047420288   0.73279  -0.61924   0.51919  -0.28245
  16   22021.4    454.1   0.088841459   1.32814  -0.56749   0.83164  -0.56078
  17   22438.3    445.7   0.000322988   0.00474  -0.05731   0.03593  -0.01277
  18   22597.7    442.5   0.011481194   0.16726   0.16803  -0.36432  -0.07937
  19   22915.9    436.4   0.012516815   0.17982   0.19085  -0.33866   0.16942
  20   22974.9    435.3   0.055714819   0.79835  -0.37008   0.53747  -0.61034
  21   23242.9    430.2   0.000066426   0.00094  -0.01790   0.01643   0.01873
  22   23660.4    422.6   0.000685172   0.00953  -0.05977  -0.07720  -0.00086
  23   23976.5    417.1   0.173481090   2.38200   1.25125  -0.88464   0.18383
  24   24465.0    408.7   0.010069790   0.13550  -0.35325  -0.01361   0.10264
  25   24866.3    402.2   0.058774767   0.77814  -0.52198  -0.26357   0.66046
  26   25231.4    396.3   0.022643012   0.29544  -0.47124   0.26663   0.04782
  27   26077.2    383.5   0.002690495   0.03397   0.15955  -0.04923   0.07802
  28   26086.7    383.3   0.017374189   0.21926   0.04940  -0.23941   0.39938
  29   26323.5    379.9   0.071989059   0.90032   0.35371   0.28474  -0.83315
  30   26549.7    376.7   0.046896268   0.58151  -0.63059   0.09576   0.41796
  31   26614.7    375.7   0.031661356   0.39164   0.35943  -0.33653   0.38626
  32   26939.7    371.2   0.102004004   1.24652  -0.12988   0.77011  -0.79787
  33   27052.9    369.6   0.019330574   0.23524   0.35591  -0.18034   0.27576
  34   27277.2    366.6   0.000377971   0.00456  -0.02904   0.06089   0.00320
  35   27342.1    365.7   0.004980178   0.05996  -0.02349  -0.02371   0.24259
  36   27425.9    364.6   0.007627889   0.09156   0.30042  -0.03318   0.01444
  37   27804.9    359.6   0.097829385   1.15831   0.13872  -0.72093   0.78697
  38   27955.3    357.7   0.054532842   0.64220   0.34124  -0.61481   0.38441
  39   27975.5    357.5   0.000031984   0.00038  -0.01760  -0.00809   0.00110
  40   28027.0    356.8   0.020685846   0.24298  -0.14540   0.04181   0.46914
  41   28337.8    352.9   0.006792311   0.07891   0.26608   0.02187  -0.08737
  42   28423.9    351.8   0.027554707   0.31914  -0.23640   0.45755  -0.23218
  43   28660.8    348.9   0.000031237   0.00036   0.01068   0.01409  -0.00681
  44   29318.4    341.1   0.028084733   0.31536  -0.01798   0.55584   0.07800
  45   29525.0    338.7   0.030041302   0.33497  -0.16212  -0.55553   0.00842
  46   29825.3    335.3   0.026950028   0.29747   0.45729  -0.12752  -0.26852
  47   30027.5    333.0   0.084371458   0.92502  -0.18533   0.53723  -0.77592
  48   30134.2    331.8   0.001553752   0.01697  -0.10827   0.04312  -0.05824
  49   30524.6    327.6   0.009598075   0.10352  -0.18831   0.07164   0.25085
  50   30750.0    325.2   0.049272742   0.52752   0.20946  -0.65655   0.22931

FINAL SINGLE POINT ENERGY     -8981.453703672953

DIPOLE MOMENT
-------------
                                X             Y             Z
Electronic contribution:    -10.46988       2.15313       5.81563
Nuclear contribution   :     13.09535      -3.11091      -5.76826
                        -----------------------------------------
Total Dipole Moment    :      2.62548      -0.95778       0.04736
                        -----------------------------------------
Magnitude (a.u.)       :      2.79512
Magnitude (Debye)      :      7.10464

Rotational constants in cm-1:     0.001724     0.000334     0.000321
Rotational constants in MHz :    51.688977    10.010354     9.623701

                             ****ORCA TERMINATED NORMALLY****
TOTAL RUN TIME: 4 days 23 hours 44 minutes 31 seconds 69 msec
