                         Program Version 4.2.0 -  RELEASE  -
|  1> # ORCA input file
|  2> # CPDT-4F.out
|  3> ! B3LYP def2-TZVP def2/J RIJCOSX Grid4 TightSCF
|  4> %maxcore 10000
|  5> %tddft
|  6>   maxdim 5
|  7>   nroots 50
|  8>   end
|  9> * xyz 0 1
| 10>    C       -1.09716         4.47660         1.38562
| 11>    C       -2.18496         3.65483         1.64420
| 12>    C       -2.05078         2.27049         1.74858
| 13>    C       -0.81211         1.66834         1.59500
| 14>    C        0.26841         2.48690         1.33515
| 15>    C        0.14474         3.88220         1.22844
| 16>    C        1.67915         2.10418         1.11656
| 17>    C        2.39745         3.34921         0.84506
| 18>    C        1.46340         4.45108         0.93903
| 19>    C        3.72814         3.44919         0.50542
| 20>    C        4.69399         2.45909         0.31509
| 21>    C        5.98593         2.76845        -0.15161
| 22>    C        6.76186         1.65591        -0.36094
| 23>    C        6.08335         0.47228        -0.00399
| 24>    S        4.48482         0.72625         0.54035
| 25>    C        8.14677         1.34800        -0.88293
| 26>    C        8.14947        -0.15900        -0.76978
| 27>    C        6.93867        -0.61979        -0.24759
| 28>    C        9.01083        -1.18812        -1.11959
| 29>    C        8.47220        -2.43802        -0.85013
| 30>    S        6.87519        -2.33159        -0.13529
| 31>    C        9.01658        -3.70440        -1.17351
| 32>    S       10.36777        -3.82253        -2.28386
| 33>    C       10.24566        -5.53557        -2.24913
| 34>    C        9.24062        -5.98732        -1.39014
| 35>    C        8.54238        -4.95029        -0.79002
| 36>    C       10.83078        -6.64057        -2.89570
| 37>    C       10.20403        -7.81760        -2.44406
| 38>    C        9.14472        -7.49455        -1.41681
| 39>    S       12.01626        -6.93310        -4.08476
| 40>    C       11.65968        -8.66664        -4.02373
| 41>    C       10.68672        -8.94997        -3.06272
| 42>    C       12.35016        -9.46810        -4.94065
| 43>    C       12.17788       -10.78152        -5.31333
| 44>    C       12.98334       -11.43001        -6.33249
| 45>    C       12.35635       -12.71419        -6.64614
| 46>    C       11.25208       -12.89033        -5.79876
| 47>    C       11.11123       -11.71632        -4.90843
| 48>    C       12.67060       -13.68933        -7.57999
| 49>    C       11.86625       -14.81793        -7.63848
| 50>    C       10.77294       -14.98517        -6.78833
| 51>    C       10.45324       -14.01516        -5.85249
| 52>    F       10.02430       -16.09137        -6.87998
| 53>    F       12.14869       -15.76758        -8.53756
| 54>    O       10.26290       -11.59420        -4.04762
| 55>    C       14.14973       -10.97508        -6.89081
| 56>    C       14.87002       -11.66838        -7.88729
| 57>    C       14.82733        -9.78365        -6.55333
| 58>    C        9.47718        -8.11217        -0.04726
| 59>    C        7.72729        -7.88304        -1.89154
| 60>    C        7.47302        -9.37767        -2.03319
| 61>    C       10.80124        -7.61416         0.52075
| 62>    C        9.24136         1.99215        -0.01614
| 63>    C        8.30753         1.71316        -2.37514
| 64>    C        8.18099         3.19506        -2.69978
| 65>    C        9.19749         1.52159         1.43303
| 66>    O        2.12990         0.97345         1.16130
| 67>    F       -3.39299         4.20978         1.79386
| 68>    F       -3.12859         1.51605         1.99611
| 69>    C        1.72567         5.78886         0.79020
| 70>    C        0.75026         6.80287         0.89908
| 71>    C        2.98681         6.35687         0.51389
| 72>    N        3.97523         6.89825         0.28990
| 73>    N        0.00935         7.67644         0.97235
| 74>    N       15.50067       -12.17298        -8.70260
| 75>    N       15.45671        -8.84815        -6.33431
| 76>    H       -1.25682         5.53975         1.31331
| 77>    H       -0.70286         0.59838         1.67307
| 78>    H        4.10231         4.44736         0.31332
| 79>    H        6.28746         3.78719        -0.31866
| 80>    H        9.98650        -1.06740        -1.55532
| 81>    H        7.71929        -5.06277        -0.10738
| 82>    H       10.37300        -9.95684        -2.86339
| 83>    H       13.11476        -8.92558        -5.48424
| 84>    H       13.50108       -13.60928        -8.26161
| 85>    H        9.60850       -14.13774        -5.19357
| 86>    H        9.52477        -9.19524        -0.15944
| 87>    H        8.66928        -7.87206         0.64660
| 88>    H        7.55212        -7.39882        -2.85567
| 89>    H        7.01484        -7.46436        -1.17720
| 90>    H        8.14776        -9.82744        -2.75486
| 91>    H        6.45453        -9.53323        -2.38179
| 92>    H        7.58296        -9.88973        -1.08154
| 93>    H       11.62176        -7.84215        -0.15595
| 94>    H       11.00065        -8.09848         1.47341
| 95>    H       10.77751        -6.53879         0.68270
| 96>    H        9.11383         3.07452        -0.04142
| 97>    H       10.21429         1.75125        -0.44886
| 98>    H        7.55154         1.16169        -2.93993
| 99>    H        9.28771         1.35621        -2.69833
|100>    H        7.19186         3.56531        -2.44702
|101>    H        8.33341         3.34216        -3.76649
|102>    H        8.92483         3.78301        -2.16983
|103>    H        8.23193         1.74460         1.88160
|104>    H        9.96781         2.02680         2.01041
|105>    H        9.36793         0.44940         1.49946
|106> *
|107>
|108>                          ****END OF INPUT****

CARTESIAN COORDINATES (ANGSTROEM)
---------------------------------
  C     -1.097160    4.476600    1.385620
  C     -2.184960    3.654830    1.644200
  C     -2.050780    2.270490    1.748580
  C     -0.812110    1.668340    1.595000
  C      0.268410    2.486900    1.335150
  C      0.144740    3.882200    1.228440
  C      1.679150    2.104180    1.116560
  C      2.397450    3.349210    0.845060
  C      1.463400    4.451080    0.939030
  C      3.728140    3.449190    0.505420
  C      4.693990    2.459090    0.315090
  C      5.985930    2.768450   -0.151610
  C      6.761860    1.655910   -0.360940
  C      6.083350    0.472280   -0.003990
  S      4.484820    0.726250    0.540350
  C      8.146770    1.348000   -0.882930
  C      8.149470   -0.159000   -0.769780
  C      6.938670   -0.619790   -0.247590
  C      9.010830   -1.188120   -1.119590
  C      8.472200   -2.438020   -0.850130
  S      6.875190   -2.331590   -0.135290
  C      9.016580   -3.704400   -1.173510
  S     10.367770   -3.822530   -2.283860
  C     10.245660   -5.535570   -2.249130
  C      9.240620   -5.987320   -1.390140
  C      8.542380   -4.950290   -0.790020
  C     10.830780   -6.640570   -2.895700
  C     10.204030   -7.817600   -2.444060
  C      9.144720   -7.494550   -1.416810
  S     12.016260   -6.933100   -4.084760
  C     11.659680   -8.666640   -4.023730
  C     10.686720   -8.949970   -3.062720
  C     12.350160   -9.468100   -4.940650
  C     12.177880  -10.781520   -5.313330
  C     12.983340  -11.430010   -6.332490
  C     12.356350  -12.714190   -6.646140
  C     11.252080  -12.890330   -5.798760
  C     11.111230  -11.716320   -4.908430
  C     12.670600  -13.689330   -7.579990
  C     11.866250  -14.817930   -7.638480
  C     10.772940  -14.985170   -6.788330
  C     10.453240  -14.015160   -5.852490
  F     10.024300  -16.091370   -6.879980
  F     12.148690  -15.767580   -8.537560
  O     10.262900  -11.594200   -4.047620
  C     14.149730  -10.975080   -6.890810
  C     14.870020  -11.668380   -7.887290
  C     14.827330   -9.783650   -6.553330
  C      9.477180   -8.112170   -0.047260
  C      7.727290   -7.883040   -1.891540
  C      7.473020   -9.377670   -2.033190
  C     10.801240   -7.614160    0.520750
  C      9.241360    1.992150   -0.016140
  C      8.307530    1.713160   -2.375140
  C      8.180990    3.195060   -2.699780
  C      9.197490    1.521590    1.433030
  O      2.129900    0.973450    1.161300
  F     -3.392990    4.209780    1.793860
  F     -3.128590    1.516050    1.996110
  C      1.725670    5.788860    0.790200
  C      0.750260    6.802870    0.899080
  C      2.986810    6.356870    0.513890
  N      3.975230    6.898250    0.289900
  N      0.009350    7.676440    0.972350
  N     15.500670  -12.172980   -8.702600
  N     15.456710   -8.848150   -6.334310
  H     -1.256820    5.539750    1.313310
  H     -0.702860    0.598380    1.673070
  H      4.102310    4.447360    0.313320
  H      6.287460    3.787190   -0.318660
  H      9.986500   -1.067400   -1.555320
  H      7.719290   -5.062770   -0.107380
  H     10.373000   -9.956840   -2.863390
  H     13.114760   -8.925580   -5.484240
  H     13.501080  -13.609280   -8.261610
  H      9.608500  -14.137740   -5.193570
  H      9.524770   -9.195240   -0.159440
  H      8.669280   -7.872060    0.646600
  H      7.552120   -7.398820   -2.855670
  H      7.014840   -7.464360   -1.177200
  H      8.147760   -9.827440   -2.754860
  H      6.454530   -9.533230   -2.381790
  H      7.582960   -9.889730   -1.081540
  H     11.621760   -7.842150   -0.155950
  H     11.000650   -8.098480    1.473410
  H     10.777510   -6.538790    0.682700
  H      9.113830    3.074520   -0.041420
  H     10.214290    1.751250   -0.448860
  H      7.551540    1.161690   -2.939930
  H      9.287710    1.356210   -2.698330
  H      7.191860    3.565310   -2.447020
  H      8.333410    3.342160   -3.766490
  H      8.924830    3.783010   -2.169830
  H      8.231930    1.744600    1.881600
  H      9.967810    2.026800    2.010410
  H      9.367930    0.449400    1.499460

 Total Charge           Charge          ....    0
 Multiplicity           Mult            ....    1
 Number of Electrons    NEL             ....  486
 Basis Dimension        Dim             .... 2250

ORBITAL ENERGIES
----------------

  NO   OCC          E(Eh)            E(eV)
   0   2.0000     -88.923982     -2419.7446
   1   2.0000     -88.922436     -2419.7025
   2   2.0000     -88.918598     -2419.5981
   3   2.0000     -88.911571     -2419.4068
   4   2.0000     -24.725209      -672.8071
   5   2.0000     -24.724480      -672.7873
   6   2.0000     -24.723370      -672.7571
   7   2.0000     -24.722596      -672.7361
   8   2.0000     -19.139576      -520.8143
   9   2.0000     -19.135342      -520.6991
  10   2.0000     -14.331094      -389.9689
  11   2.0000     -14.328727      -389.9045
  12   2.0000     -14.326753      -389.8508
  13   2.0000     -14.325705      -389.8223
  14   2.0000     -10.299707      -280.2693
  15   2.0000     -10.299087      -280.2524
  16   2.0000     -10.298875      -280.2466
  17   2.0000     -10.298262      -280.2300
  18   2.0000     -10.281338      -279.7694
  19   2.0000     -10.281310      -279.7687
  20   2.0000     -10.256067      -279.0818
  21   2.0000     -10.255033      -279.0536
  22   2.0000     -10.254820      -279.0478
  23   2.0000     -10.253690      -279.0171
  24   2.0000     -10.252862      -278.9946
  25   2.0000     -10.251997      -278.9710
  26   2.0000     -10.248785      -278.8836
  27   2.0000     -10.241692      -278.6906
  28   2.0000     -10.239500      -278.6310
  29   2.0000     -10.239320      -278.6261
  30   2.0000     -10.238359      -278.5999
  31   2.0000     -10.238210      -278.5959
  32   2.0000     -10.231100      -278.4024
  33   2.0000     -10.230096      -278.3751
  34   2.0000     -10.229859      -278.3686
  35   2.0000     -10.229585      -278.3612
  36   2.0000     -10.228328      -278.3269
  37   2.0000     -10.227662      -278.3088
  38   2.0000     -10.225591      -278.2525
  39   2.0000     -10.224919      -278.2342
  40   2.0000     -10.224871      -278.2329
  41   2.0000     -10.224580      -278.2250
  42   2.0000     -10.220609      -278.1169
  43   2.0000     -10.219218      -278.0790
  44   2.0000     -10.219030      -278.0739
  45   2.0000     -10.218056      -278.0474
  46   2.0000     -10.217483      -278.0318
  47   2.0000     -10.216548      -278.0064
  48   2.0000     -10.216304      -277.9998
  49   2.0000     -10.215140      -277.9681
  50   2.0000     -10.214843      -277.9600
  51   2.0000     -10.214799      -277.9588
  52   2.0000     -10.214533      -277.9516
  53   2.0000     -10.214140      -277.9409
  54   2.0000     -10.212257      -277.8896
  55   2.0000     -10.210899      -277.8527
  56   2.0000     -10.208898      -277.7982
  57   2.0000     -10.206527      -277.7337
  58   2.0000     -10.196231      -277.4536
  59   2.0000     -10.195372      -277.4302
  60   2.0000     -10.195135      -277.4237
  61   2.0000     -10.194756      -277.4134
  62   2.0000     -10.177066      -276.9321
  63   2.0000     -10.174368      -276.8586
  64   2.0000     -10.174323      -276.8574
  65   2.0000     -10.172527      -276.8085
  66   2.0000      -8.000158      -217.6954
  67   2.0000      -7.998651      -217.6544
  68   2.0000      -7.994756      -217.5484
  69   2.0000      -7.986342      -217.3194
  70   2.0000      -5.962701      -162.2534
  71   2.0000      -5.961145      -162.2110
  72   2.0000      -5.958932      -162.1508
  73   2.0000      -5.957409      -162.1094
  74   2.0000      -5.957137      -162.1019
  75   2.0000      -5.956724      -162.0907
  76   2.0000      -5.955246      -162.0505
  77   2.0000      -5.953454      -162.0017
  78   2.0000      -5.951532      -161.9494
  79   2.0000      -5.949059      -161.8821
  80   2.0000      -5.944843      -161.7674
  81   2.0000      -5.942913      -161.7149
  82   2.0000      -1.267572       -34.4924
  83   2.0000      -1.266780       -34.4708
  84   2.0000      -1.254194       -34.1284
  85   2.0000      -1.253401       -34.1068
  86   2.0000      -1.070716       -29.1357
  87   2.0000      -1.066242       -29.0139
  88   2.0000      -0.956723       -26.0337
  89   2.0000      -0.950801       -25.8726
  90   2.0000      -0.945699       -25.7338
  91   2.0000      -0.944434       -25.6993
  92   2.0000      -0.927946       -25.2507
  93   2.0000      -0.926381       -25.2081
  94   2.0000      -0.924058       -25.1449
  95   2.0000      -0.922878       -25.1128
  96   2.0000      -0.920765       -25.0553
  97   2.0000      -0.906632       -24.6707
  98   2.0000      -0.882858       -24.0238
  99   2.0000      -0.880216       -23.9519
 100   2.0000      -0.871703       -23.7203
 101   2.0000      -0.862219       -23.4622
 102   2.0000      -0.833243       -22.6737
 103   2.0000      -0.831459       -22.6251
 104   2.0000      -0.825487       -22.4627
 105   2.0000      -0.820840       -22.3362
 106   2.0000      -0.805257       -21.9122
 107   2.0000      -0.800697       -21.7881
 108   2.0000      -0.799475       -21.7548
 109   2.0000      -0.788714       -21.4620
 110   2.0000      -0.785450       -21.3732
 111   2.0000      -0.780168       -21.2294
 112   2.0000      -0.778464       -21.1831
 113   2.0000      -0.775457       -21.1013
 114   2.0000      -0.773130       -21.0379
 115   2.0000      -0.769739       -20.9457
 116   2.0000      -0.755339       -20.5538
 117   2.0000      -0.739565       -20.1246
 118   2.0000      -0.721695       -19.6383
 119   2.0000      -0.706034       -19.2122
 120   2.0000      -0.703334       -19.1387
 121   2.0000      -0.702036       -19.1034
 122   2.0000      -0.700940       -19.0735
 123   2.0000      -0.688873       -18.7452
 124   2.0000      -0.672457       -18.2985
 125   2.0000      -0.652422       -17.7533
 126   2.0000      -0.641271       -17.4499
 127   2.0000      -0.640735       -17.4353
 128   2.0000      -0.639625       -17.4051
 129   2.0000      -0.638084       -17.3632
 130   2.0000      -0.632827       -17.2201
 131   2.0000      -0.629243       -17.1226
 132   2.0000      -0.624322       -16.9887
 133   2.0000      -0.619436       -16.8557
 134   2.0000      -0.609498       -16.5853
 135   2.0000      -0.596037       -16.2190
 136   2.0000      -0.593893       -16.1606
 137   2.0000      -0.583757       -15.8848
 138   2.0000      -0.580486       -15.7958
 139   2.0000      -0.577507       -15.7148
 140   2.0000      -0.576138       -15.6775
 141   2.0000      -0.574498       -15.6329
 142   2.0000      -0.571640       -15.5551
 143   2.0000      -0.569184       -15.4883
 144   2.0000      -0.562587       -15.3088
 145   2.0000      -0.556451       -15.1418
 146   2.0000      -0.547396       -14.8954
 147   2.0000      -0.543752       -14.7963
 148   2.0000      -0.533228       -14.5099
 149   2.0000      -0.526689       -14.3319
 150   2.0000      -0.523963       -14.2578
 151   2.0000      -0.522356       -14.2140
 152   2.0000      -0.519699       -14.1417
 153   2.0000      -0.518907       -14.1202
 154   2.0000      -0.509160       -13.8550
 155   2.0000      -0.503721       -13.7070
 156   2.0000      -0.502357       -13.6698
 157   2.0000      -0.490935       -13.3590
 158   2.0000      -0.488349       -13.2886
 159   2.0000      -0.488021       -13.2797
 160   2.0000      -0.485096       -13.2001
 161   2.0000      -0.484461       -13.1828
 162   2.0000      -0.483709       -13.1624
 163   2.0000      -0.483588       -13.1591
 164   2.0000      -0.481046       -13.0899
 165   2.0000      -0.477728       -12.9996
 166   2.0000      -0.473960       -12.8971
 167   2.0000      -0.471767       -12.8374
 168   2.0000      -0.471352       -12.8261
 169   2.0000      -0.467230       -12.7140
 170   2.0000      -0.466379       -12.6908
 171   2.0000      -0.464319       -12.6348
 172   2.0000      -0.462017       -12.5721
 173   2.0000      -0.460318       -12.5259
 174   2.0000      -0.457870       -12.4593
 175   2.0000      -0.450095       -12.2477
 176   2.0000      -0.447511       -12.1774
 177   2.0000      -0.446750       -12.1567
 178   2.0000      -0.444651       -12.0996
 179   2.0000      -0.434629       -11.8268
 180   2.0000      -0.432946       -11.7810
 181   2.0000      -0.431527       -11.7424
 182   2.0000      -0.430398       -11.7117
 183   2.0000      -0.429607       -11.6902
 184   2.0000      -0.426555       -11.6072
 185   2.0000      -0.425729       -11.5847
 186   2.0000      -0.425002       -11.5649
 187   2.0000      -0.424027       -11.5383
 188   2.0000      -0.421014       -11.4564
 189   2.0000      -0.419701       -11.4206
 190   2.0000      -0.418590       -11.3904
 191   2.0000      -0.414158       -11.2698
 192   2.0000      -0.410648       -11.1743
 193   2.0000      -0.406142       -11.0517
 194   2.0000      -0.403969       -10.9926
 195   2.0000      -0.399577       -10.8731
 196   2.0000      -0.396471       -10.7885
 197   2.0000      -0.394587       -10.7373
 198   2.0000      -0.393331       -10.7031
 199   2.0000      -0.392452       -10.6791
 200   2.0000      -0.390513       -10.6264
 201   2.0000      -0.388934       -10.5834
 202   2.0000      -0.388684       -10.5766
 203   2.0000      -0.388285       -10.5658
 204   2.0000      -0.388023       -10.5586
 205   2.0000      -0.385521       -10.4906
 206   2.0000      -0.382801       -10.4165
 207   2.0000      -0.380568       -10.3558
 208   2.0000      -0.380224       -10.3464
 209   2.0000      -0.377652       -10.2764
 210   2.0000      -0.373958       -10.1759
 211   2.0000      -0.371515       -10.1094
 212   2.0000      -0.369349       -10.0505
 213   2.0000      -0.365416        -9.9435
 214   2.0000      -0.363465        -9.8904
 215   2.0000      -0.362139        -9.8543
 216   2.0000      -0.360681        -9.8146
 217   2.0000      -0.360391        -9.8067
 218   2.0000      -0.357347        -9.7239
 219   2.0000      -0.354168        -9.6374
 220   2.0000      -0.353618        -9.6224
 221   2.0000      -0.350206        -9.5296
 222   2.0000      -0.349469        -9.5095
 223   2.0000      -0.346575        -9.4308
 224   2.0000      -0.345020        -9.3885
 225   2.0000      -0.344184        -9.3657
 226   2.0000      -0.343276        -9.3410
 227   2.0000      -0.337968        -9.1966
 228   2.0000      -0.323183        -8.7942
 229   2.0000      -0.303260        -8.2521
 230   2.0000      -0.297786        -8.1032
 231   2.0000      -0.296402        -8.0655
 232   2.0000      -0.292803        -7.9676
 233   2.0000      -0.289513        -7.8781
 234   2.0000      -0.287265        -7.8169
 235   2.0000      -0.284030        -7.7289
 236   2.0000      -0.279937        -7.6175
 237   2.0000      -0.279464        -7.6046
 238   2.0000      -0.273142        -7.4326
 239   2.0000      -0.266793        -7.2598
 240   2.0000      -0.261856        -7.1255
 241   2.0000      -0.235972        -6.4211
 242   2.0000      -0.207428        -5.6444
 243   0.0000      -0.139939        -3.8079
 244   0.0000      -0.123357        -3.3567
 245   0.0000      -0.111197        -3.0258
 246   0.0000      -0.107176        -2.9164
 247   0.0000      -0.085721        -2.3326

MULLIKEN ATOMIC CHARGES
-----------------------
   0 C :   -0.260908
   1 C :    0.253571
   2 C :    0.283905
   3 C :   -0.311553
   4 C :    0.102623
   5 C :    0.069480
   6 C :    0.204261
   7 C :   -0.003185
   8 C :    0.014683
   9 C :   -0.217993
  10 C :    0.106196
  11 C :   -0.260885
  12 C :   -0.153267
  13 C :   -0.051554
  14 S :    0.113941
  15 C :    0.440196
  16 C :   -0.067204
  17 C :    0.031702
  18 C :   -0.270092
  19 C :    0.084555
  20 S :    0.026309
  21 C :    0.112520
  22 S :    0.026012
  23 C :    0.061784
  24 C :   -0.069480
  25 C :   -0.273737
  26 C :   -0.054707
  27 C :   -0.143921
  28 C :    0.452963
  29 S :    0.056654
  30 C :    0.126138
  31 C :   -0.285223
  32 C :   -0.191352
  33 C :   -0.048176
  34 C :    0.014985
  35 C :    0.085198
  36 C :    0.104799
  37 C :    0.209502
  38 C :   -0.262675
  39 C :    0.254031
  40 C :    0.287173
  41 C :   -0.316287
  42 F :   -0.181160
  43 F :   -0.176805
  44 O :   -0.361322
  45 C :    0.156132
  46 C :   -0.232845
  47 C :   -0.231966
  48 C :   -0.226956
  49 C :   -0.167143
  50 C :   -0.385395
  51 C :   -0.362318
  52 C :   -0.219818
  53 C :   -0.160566
  54 C :   -0.369637
  55 C :   -0.361026
  56 O :   -0.341942
  57 F :   -0.176579
  58 F :   -0.181191
  59 C :    0.156358
  60 C :   -0.229678
  61 C :   -0.227072
  62 N :    0.042358
  63 N :    0.042811
  64 N :    0.041982
  65 N :    0.051632
  66 H :    0.164170
  67 H :    0.146753
  68 H :    0.165152
  69 H :    0.161635
  70 H :    0.131769
  71 H :    0.134173
  72 H :    0.197963
  73 H :    0.155957
  74 H :    0.166042
  75 H :    0.146103
  76 H :    0.110169
  77 H :    0.093724
  78 H :    0.103336
  79 H :    0.090098
  80 H :    0.146504
  81 H :    0.116733
  82 H :    0.113552
  83 H :    0.124958
  84 H :    0.117686
  85 H :    0.120912
  86 H :    0.104425
  87 H :    0.094055
  88 H :    0.104493
  89 H :    0.091393
  90 H :    0.118106
  91 H :    0.121305
  92 H :    0.116117
  93 H :    0.124926
  94 H :    0.117857
  95 H :    0.121097
Sum of atomic charges:   -0.0000000

LOEWDIN ATOMIC CHARGES
----------------------
   0 C :   -0.048464
   1 C :   -0.223857
   2 C :   -0.225296
   3 C :   -0.047615
   4 C :   -0.058751
   5 C :   -0.043231
   6 C :   -0.257442
   7 C :   -0.092788
   8 C :    0.009447
   9 C :   -0.057754
  10 C :   -0.319744
  11 C :   -0.096788
  12 C :   -0.088594
  13 C :   -0.320731
  14 S :    0.822613
  15 C :   -0.182178
  16 C :   -0.083081
  17 C :   -0.330783
  18 C :   -0.121639
  19 C :   -0.340166
  20 S :    0.784152
  21 C :   -0.340027
  22 S :    0.781575
  23 C :   -0.331617
  24 C :   -0.082376
  25 C :   -0.121592
  26 C :   -0.322758
  27 C :   -0.084809
  28 C :   -0.180914
  29 S :    0.793264
  30 C :   -0.319809
  31 C :   -0.086916
  32 C :   -0.072054
  33 C :   -0.082532
  34 C :    0.008854
  35 C :   -0.044757
  36 C :   -0.059604
  37 C :   -0.250972
  38 C :   -0.048586
  39 C :   -0.223860
  40 C :   -0.225187
  41 C :   -0.047646
  42 F :    0.212374
  43 F :    0.216147
  44 O :    0.119799
  45 C :   -0.136207
  46 C :   -0.164312
  47 C :   -0.172593
  48 C :   -0.216429
  49 C :   -0.216719
  50 C :   -0.292093
  51 C :   -0.288723
  52 C :   -0.217701
  53 C :   -0.217034
  54 C :   -0.292640
  55 C :   -0.288768
  56 O :    0.116143
  57 F :    0.216406
  58 F :    0.212670
  59 C :   -0.136245
  60 C :   -0.164632
  61 C :   -0.168379
  62 N :    0.078216
  63 N :    0.082830
  64 N :    0.082703
  65 N :    0.082421
  66 H :    0.169519
  67 H :    0.163366
  68 H :    0.179473
  69 H :    0.153849
  70 H :    0.146813
  71 H :    0.147024
  72 H :    0.158013
  73 H :    0.173371
  74 H :    0.169483
  75 H :    0.163255
  76 H :    0.142776
  77 H :    0.140129
  78 H :    0.145562
  79 H :    0.139068
  80 H :    0.124942
  81 H :    0.122144
  82 H :    0.118283
  83 H :    0.124090
  84 H :    0.119949
  85 H :    0.122165
  86 H :    0.140882
  87 H :    0.139932
  88 H :    0.146048
  89 H :    0.139435
  90 H :    0.120470
  91 H :    0.122979
  92 H :    0.118416
  93 H :    0.124144
  94 H :    0.119939
  95 H :    0.122263

  Mayer bond orders larger than 0.100000
B(  0-C ,  1-C ) :   1.3858 B(  0-C ,  5-C ) :   1.3309 B(  0-C , 66-H ) :   0.9283
B(  1-C ,  2-C ) :   1.3475 B(  1-C , 57-F ) :   1.0844 B(  2-C ,  3-C ) :   1.3552
B(  2-C , 58-F ) :   1.0614 B(  3-C ,  4-C ) :   1.3035 B(  3-C , 67-H ) :   0.9847
B(  4-C ,  5-C ) :   1.3364 B(  4-C ,  6-C ) :   1.0339 B(  4-C , 56-O ) :  -0.1519
B(  5-C ,  8-C ) :   1.0393 B(  6-C ,  7-C ) :   1.0364 B(  6-C , 56-O ) :   2.0016
B(  7-C ,  8-C ) :   1.1556 B(  7-C ,  9-C ) :   1.3699 B(  8-C , 59-C ) :   1.4519
B(  9-C , 10-C ) :   1.3455 B(  9-C , 68-H ) :   0.8925 B( 10-C , 11-C ) :   1.3011
B( 10-C , 14-S ) :   1.2247 B( 11-C , 12-C ) :   1.4024 B( 11-C , 69-H ) :   0.9324
B( 12-C , 13-C ) :   1.2291 B( 12-C , 15-C ) :   1.1016 B( 13-C , 14-S ) :   1.4998
B( 13-C , 17-C ) :   1.0279 B( 15-C , 16-C ) :   1.0889 B( 15-C , 52-C ) :   0.7663
B( 15-C , 53-C ) :   0.8156 B( 16-C , 17-C ) :   1.2972 B( 16-C , 18-C ) :   1.3319
B( 17-C , 20-S ) :   1.3447 B( 18-C , 19-C ) :   1.4290 B( 18-C , 20-S ) :   0.1019
B( 18-C , 70-H ) :   0.9297 B( 19-C , 20-S ) :   1.2250 B( 19-C , 21-C ) :   1.1483
B( 21-C , 22-S ) :   1.2211 B( 21-C , 25-C ) :   1.4376 B( 22-S , 23-C ) :   1.3392
B( 22-S , 25-C ) :   0.1028 B( 23-C , 24-C ) :   1.2965 B( 23-C , 26-C ) :   1.0371
B( 24-C , 25-C ) :   1.3189 B( 24-C , 28-C ) :   1.0538 B( 25-C , 71-H ) :   0.9280
B( 26-C , 27-C ) :   1.2792 B( 26-C , 29-S ) :   1.4203 B( 27-C , 28-C ) :   1.1379
B( 27-C , 31-C ) :   1.3524 B( 28-C , 48-C ) :   0.7622 B( 28-C , 49-C ) :   0.8102
B( 29-S , 30-C ) :   1.1667 B( 29-S , 31-C ) :   0.1424 B( 30-C , 31-C ) :   1.4173
B( 30-C , 32-C ) :   1.3310 B( 31-C , 72-H ) :   0.8949 B( 32-C , 33-C ) :   1.4297
B( 32-C , 73-H ) :   0.8916 B( 33-C , 34-C ) :   1.1433 B( 33-C , 37-C ) :   1.0238
B( 34-C , 35-C ) :   1.0428 B( 34-C , 45-C ) :   1.4688 B( 35-C , 36-C ) :   1.3359
B( 35-C , 38-C ) :   1.3160 B( 36-C , 37-C ) :   1.0231 B( 36-C , 41-C ) :   1.2997
B( 36-C , 44-O ) :  -0.1618 B( 37-C , 44-O ) :   1.9860 B( 38-C , 39-C ) :   1.3881
B( 38-C , 74-H ) :   0.9293 B( 39-C , 40-C ) :   1.3458 B( 39-C , 43-F ) :   1.0838
B( 40-C , 41-C ) :   1.3564 B( 40-C , 42-F ) :   1.0617 B( 41-C , 75-H ) :   0.9840
B( 45-C , 46-C ) :   1.0268 B( 45-C , 47-C ) :   1.0276 B( 46-C , 64-N ) :   2.9838
B( 47-C , 65-N ) :   2.9969 B( 48-C , 51-C ) :   0.9778 B( 48-C , 76-H ) :   0.9698
B( 48-C , 77-H ) :   0.9581 B( 49-C , 50-C ) :   0.9534 B( 49-C , 78-H ) :   0.9680
B( 49-C , 79-H ) :   0.9594 B( 50-C , 80-H ) :   0.9757 B( 50-C , 81-H ) :   0.9754
B( 50-C , 82-H ) :   0.9731 B( 51-C , 83-H ) :   0.9728 B( 51-C , 84-H ) :   0.9787
B( 51-C , 85-H ) :   0.9729 B( 52-C , 55-C ) :   0.9777 B( 52-C , 86-H ) :   0.9671
B( 52-C , 87-H ) :   0.9579 B( 53-C , 54-C ) :   0.9530 B( 53-C , 88-H ) :   0.9684
B( 53-C , 89-H ) :   0.9599 B( 54-C , 90-H ) :   0.9778 B( 54-C , 91-H ) :   0.9774
B( 54-C , 92-H ) :   0.9746 B( 55-C , 93-H ) :   0.9729 B( 55-C , 94-H ) :   0.9783
B( 55-C , 95-H ) :   0.9730 B( 59-C , 60-C ) :   1.0239 B( 59-C , 61-C ) :   1.0377
B( 60-C , 63-N ) :   2.9862 B( 61-C , 62-N ) :   2.9845

-----------------------------------------------------------------------------
         ABSORPTION SPECTRUM VIA TRANSITION ELECTRIC DIPOLE MOMENTS
-----------------------------------------------------------------------------
State   Energy    Wavelength  fosc         T2        TX        TY        TZ
        (cm-1)      (nm)                 (au**2)    (au)      (au)      (au)
-----------------------------------------------------------------------------
   1   14669.9    681.7   3.885585669  87.19739  -5.09044   7.14407   3.20110
   2   16916.7    591.1   0.007926598   0.15426   0.13728  -0.00409   0.36796
   3   18760.1    533.0   0.211302934   3.70805   1.03844  -1.46875  -0.68736
   4   19192.8    521.0   0.019317007   0.33134   0.03139   0.53233  -0.21676
   5   22709.4    440.3   0.110682951   1.60454  -0.96713   0.76695   0.28460
   6   23036.8    434.1   0.196985412   2.81505  -0.97909  -0.56937  -1.23784
   7   24084.8    415.2   0.005429043   0.07421  -0.09848   0.06815  -0.24467
   8   24579.0    406.9   0.007040258   0.09430   0.24244  -0.17923   0.05830
   9   25570.7    391.1   0.014797623   0.19051  -0.41301   0.13062   0.05360
  10   25674.1    389.5   0.010172509   0.13044   0.05822  -0.34393  -0.09359
  11   25716.0    388.9   0.013941944   0.17848   0.11661  -0.33648  -0.22731
  12   25980.6    384.9   0.064474783   0.81699   0.50992   0.72477   0.17801
  13   26175.2    382.0   0.097727976   1.22915  -0.85750  -0.64988  -0.26738
  14   27637.9    361.8   0.001279066   0.01524   0.10143   0.03530   0.06084
  15   27850.9    359.1   0.002644027   0.03125  -0.14326  -0.08952   0.05212
  16   28248.5    354.0   0.002695468   0.03141   0.06838   0.14224   0.08066
  17   28489.4    351.0   0.005526460   0.06386   0.06694   0.09248  -0.22545
  18   28914.8    345.8   0.036281788   0.41309  -0.31839  -0.52176  -0.19871
  19   29399.0    340.1   0.022212718   0.24874  -0.49467  -0.03035  -0.05588
  20   29673.5    337.0   0.006863249   0.07614  -0.26633   0.02589   0.06739
  21   29785.4    335.7   0.025610400   0.28307   0.41483   0.08604  -0.32184
  22   29863.2    334.9   0.046522539   0.51286  -0.59786   0.12094   0.37524
  23   30034.1    333.0   0.023023393   0.25237  -0.32795  -0.37268   0.07693
  24   30759.1    325.1   0.003398997   0.03638   0.05332  -0.02844  -0.18091
  25   31174.3    320.8   0.012517807   0.13219  -0.05103  -0.31422  -0.17566
  26   31334.9    319.1   0.006446550   0.06773  -0.25295   0.03315  -0.05146
  27   31408.9    318.4   0.024813675   0.26008   0.10581  -0.49856   0.01812
  28   31491.5    317.5   0.007819923   0.08175  -0.06269   0.26150   0.09716
  29   31595.0    316.5   0.048025106   0.50041   0.47733   0.51843  -0.06164
  30   31800.0    314.5   0.005033758   0.05211   0.17162  -0.14989  -0.01386
  31   32024.5    312.3   0.011007208   0.11315  -0.22251  -0.25018   0.03245
  32   32248.8    310.1   0.031882331   0.32547  -0.19963  -0.51111   0.15614
  33   32400.1    308.6   0.014896323   0.15136  -0.31233  -0.21138   0.09553
  34   32867.2    304.3   0.119010791   1.19206   0.02124  -1.08951  -0.06770
  35   32950.6    303.5   0.111531800   1.11432   0.86645  -0.05294  -0.60065
  36   33187.8    301.3   0.081392889   0.80739  -0.20710  -0.86593   0.12109
  37   33374.2    299.6   0.337566893   3.32985  -1.36763  -1.11629   0.46189
  38   33394.2    299.5   0.022505920   0.22187  -0.14476  -0.43327   0.11487
  39   33489.4    298.6   0.066318468   0.65193   0.66630   0.43902  -0.12343
  40   33821.3    295.7   0.120700008   1.17488  -0.74843  -0.78104   0.06851
  41   34198.4    292.4   0.005066985   0.04878   0.19710   0.09898   0.01155
  42   34298.9    291.6   0.170582413   1.63730   0.69617   1.02112  -0.33161
  43   34460.0    290.2   0.038704169   0.36976   0.52291   0.14107  -0.27646
  44   34614.6    288.9   0.004032905   0.03836  -0.02242   0.18804  -0.04995
  45   34920.1    286.4   0.002357390   0.02222   0.10999  -0.09365   0.03683
  46   35115.2    284.8   0.027371627   0.25661   0.31676  -0.21853  -0.32942
  47   35214.0    284.0   0.060336548   0.56408  -0.38231   0.61499   0.19927
  48   35312.9    283.2   0.001293664   0.01206   0.07547   0.06916   0.03977
  49   35689.3    280.2   0.003694745   0.03408   0.10064  -0.13278   0.07951
  50   35724.7    279.9   0.004303805   0.03966   0.11585   0.15477   0.04780

FINAL SINGLE POINT ENERGY     -4360.311778172472

DIPOLE MOMENT
-------------
                                X             Y             Z
Electronic contribution:    -37.32022     -22.14142     -22.47846
Nuclear contribution   :     36.96376      21.19967      24.16799
                        -----------------------------------------
Total Dipole Moment    :     -0.35646      -0.94174       1.68953
                        -----------------------------------------
Magnitude (a.u.)       :      1.96683
Magnitude (Debye)      :      4.99930

Rotational constants in cm-1:     0.002259     0.000244     0.000229
Rotational constants in MHz :    67.730725     7.318716     6.872844

                             ****ORCA TERMINATED NORMALLY****
TOTAL RUN TIME: 0 days 22 hours 22 minutes 14 seconds 253 msec
