                         Program Version 4.2.0 -  RELEASE  -
|  1> # ORCA input file
|  2> # CPDT-4F.out: Geometry 22
|  3> ! B3LYP def2-TZVP def2/J RIJCOSX Grid4 TightSCF
|  4>
|  5> %maxcore 6000
|  6> %tddft
|  7>   maxdim 5
|  8>   nroots 50
|  9>   end
| 10> %pal
| 11>   nprocs 6
| 12>   end
| 13>
| 14>
| 15> * xyz 0 1
| 16>    C       -0.99898         5.03151         1.95528
| 17>    C       -2.15001         4.29619         2.22677
| 18>    C       -2.13921         2.89017         2.26939
| 19>    C       -0.95885         2.18759         2.05091
| 20>    C        0.18826         2.92488         1.78189
| 21>    C        0.19338         4.33225         1.72441
| 22>    C        1.55237         2.41287         1.49732
| 23>    C        2.39922         3.59881         1.23801
| 24>    C        1.56697         4.79321         1.39287
| 25>    C        3.72803         3.56360         0.85543
| 26>    C        4.64053         2.52429         0.56151
| 27>    C        5.93146         2.82144         0.05400
| 28>    C        6.66894         1.69331        -0.28882
| 29>    C        5.95467         0.50979        -0.00506
| 30>    S        4.38728         0.76744         0.64665
| 31>    C        8.02133         1.36997        -0.93351
| 32>    C        7.95509        -0.15655        -0.93767
| 33>    C        6.74815        -0.60889        -0.39629
| 34>    C        8.76661        -1.20627        -1.40156
| 35>    C        8.17753        -2.46101        -1.21560
| 36>    S        6.59551        -2.32685        -0.44783
| 37>    C        8.66122        -3.75331        -1.60926
| 38>    S       10.09727        -3.89920        -2.62323
| 39>    C        9.91114        -5.61712        -2.67070
| 40>    C        8.80341        -6.05513        -1.93985
| 41>    C        8.09684        -5.00273        -1.33680
| 42>    C       10.54364        -6.74493        -3.27661
| 43>    C        9.83909        -7.91648        -2.91804
| 44>    C        8.64455        -7.56865        -2.02787
| 45>    S       11.86996        -7.05639        -4.30751
| 46>    C       11.51954        -8.80516        -4.27522
| 47>    C       10.39958        -9.07256        -3.45878
| 48>    C       12.36337        -9.59947        -5.08692
| 49>    C       12.43546       -10.95799        -5.34409
| 50>    C       13.37468       -11.58557        -6.28057
| 51>    C       13.16482       -13.05310        -6.20615
| 52>    C       12.13920       -13.31461        -5.27881
| 53>    C       11.62629       -12.03819        -4.71800
| 54>    C       13.78854       -14.12401        -6.86189
| 55>    C       13.36629       -15.41455        -6.55520
| 56>    C       12.34151       -15.65809        -5.62119
| 57>    C       11.71146       -14.60143        -4.97200
| 58>    F       11.98569       -16.91517        -5.37117
| 59>    F       13.94408       -16.45450        -7.15203
| 60>    O       10.72199       -11.95007        -3.90351
| 61>    C       14.29714       -10.97431        -7.11520
| 62>    C       15.15393       -11.71229        -7.99060
| 63>    C       14.48924        -9.56005        -7.20291
| 64>    C        8.73526        -8.21734        -0.62516
| 65>    C        7.28979        -7.89083        -2.72341
| 66>    C        7.04989        -9.35660        -3.07789
| 67>    C       10.05818        -7.97488         0.10038
| 68>    C        9.22855         1.89731        -0.12091
| 69>    C        8.09213         1.86401        -2.40763
| 70>    C        8.03818         3.37520        -2.62037
| 71>    C        9.31086         1.39997         1.31957
| 72>    O        1.88776         1.23958         1.48232
| 73>    F       -3.29951         4.92831         2.45237
| 74>    F       -3.27671         2.24794         2.52153
| 75>    C        1.93646         6.12115         1.24863
| 76>    C        1.01447         7.20427         1.39245
| 77>    C        3.26693         6.54037         0.93356
| 78>    N        4.34557         6.89061         0.67596
| 79>    N        0.28011         8.09886         1.50066
| 80>    N       15.85444       -12.29753        -8.71016
| 81>    N       14.66910        -8.41456        -7.29063
| 82>    H       -1.07943         6.11649         1.93087
| 83>    H       -0.93968         1.09684         2.08750
| 84>    H        4.19785         4.53308         0.69491
| 85>    H        6.26054         3.85528        -0.05641
| 86>    H        9.74491        -1.08084        -1.86728
| 87>    H        7.19858        -5.12004        -0.72952
| 88>    H       10.05982       -10.09509        -3.30869
| 89>    H       13.09683        -8.99559        -5.62031
| 90>    H       14.58666       -14.00765        -7.59171
| 91>    H       10.91335       -14.78089        -4.24965
| 92>    H        8.56044        -9.30017        -0.72779
| 93>    H        7.89656        -7.82653        -0.02348
| 94>    H        7.23015        -7.28076        -3.63901
| 95>    H        6.48517        -7.52786        -2.06054
| 96>    H        7.79986        -9.72921        -3.78981
| 97>    H        6.06327        -9.47485        -3.55282
| 98>    H        7.07086       -10.01149        -2.19406
| 99>    H       10.90545        -8.38299        -0.47145
|100>    H       10.05480        -8.46412         1.08542
|101>    H       10.24584        -6.90098         0.25721
|102>    H        9.19244         2.99811        -0.12873
|103>    H       10.14461         1.61676        -0.67008
|104>    H        7.27063         1.38620        -2.96508
|105>    H        9.02620         1.46511        -2.83868
|106>    H        7.06416         3.79340        -2.32546
|107>    H        8.18725         3.61338        -3.68482
|108>    H        8.81713         3.90922        -2.05776
|109>    H        8.39713         1.65146         1.88120
|110>    H       10.15879         1.86686         1.84274
|111>    H        9.44541         0.30804         1.36649
|112> *
|113>
|114>                          ****END OF INPUT****

CARTESIAN COORDINATES (ANGSTROEM)
---------------------------------
  C     -0.998980    5.031510    1.955280
  C     -2.150010    4.296190    2.226770
  C     -2.139210    2.890170    2.269390
  C     -0.958850    2.187590    2.050910
  C      0.188260    2.924880    1.781890
  C      0.193380    4.332250    1.724410
  C      1.552370    2.412870    1.497320
  C      2.399220    3.598810    1.238010
  C      1.566970    4.793210    1.392870
  C      3.728030    3.563600    0.855430
  C      4.640530    2.524290    0.561510
  C      5.931460    2.821440    0.054000
  C      6.668940    1.693310   -0.288820
  C      5.954670    0.509790   -0.005060
  S      4.387280    0.767440    0.646650
  C      8.021330    1.369970   -0.933510
  C      7.955090   -0.156550   -0.937670
  C      6.748150   -0.608890   -0.396290
  C      8.766610   -1.206270   -1.401560
  C      8.177530   -2.461010   -1.215600
  S      6.595510   -2.326850   -0.447830
  C      8.661220   -3.753310   -1.609260
  S     10.097270   -3.899200   -2.623230
  C      9.911140   -5.617120   -2.670700
  C      8.803410   -6.055130   -1.939850
  C      8.096840   -5.002730   -1.336800
  C     10.543640   -6.744930   -3.276610
  C      9.839090   -7.916480   -2.918040
  C      8.644550   -7.568650   -2.027870
  S     11.869960   -7.056390   -4.307510
  C     11.519540   -8.805160   -4.275220
  C     10.399580   -9.072560   -3.458780
  C     12.363370   -9.599470   -5.086920
  C     12.435460  -10.957990   -5.344090
  C     13.374680  -11.585570   -6.280570
  C     13.164820  -13.053100   -6.206150
  C     12.139200  -13.314610   -5.278810
  C     11.626290  -12.038190   -4.718000
  C     13.788540  -14.124010   -6.861890
  C     13.366290  -15.414550   -6.555200
  C     12.341510  -15.658090   -5.621190
  C     11.711460  -14.601430   -4.972000
  F     11.985690  -16.915170   -5.371170
  F     13.944080  -16.454500   -7.152030
  O     10.721990  -11.950070   -3.903510
  C     14.297140  -10.974310   -7.115200
  C     15.153930  -11.712290   -7.990600
  C     14.489240   -9.560050   -7.202910
  C      8.735260   -8.217340   -0.625160
  C      7.289790   -7.890830   -2.723410
  C      7.049890   -9.356600   -3.077890
  C     10.058180   -7.974880    0.100380
  C      9.228550    1.897310   -0.120910
  C      8.092130    1.864010   -2.407630
  C      8.038180    3.375200   -2.620370
  C      9.310860    1.399970    1.319570
  O      1.887760    1.239580    1.482320
  F     -3.299510    4.928310    2.452370
  F     -3.276710    2.247940    2.521530
  C      1.936460    6.121150    1.248630
  C      1.014470    7.204270    1.392450
  C      3.266930    6.540370    0.933560
  N      4.345570    6.890610    0.675960
  N      0.280110    8.098860    1.500660
  N     15.854440  -12.297530   -8.710160
  N     14.669100   -8.414560   -7.290630
  H     -1.079430    6.116490    1.930870
  H     -0.939680    1.096840    2.087500
  H      4.197850    4.533080    0.694910
  H      6.260540    3.855280   -0.056410
  H      9.744910   -1.080840   -1.867280
  H      7.198580   -5.120040   -0.729520
  H     10.059820  -10.095090   -3.308690
  H     13.096830   -8.995590   -5.620310
  H     14.586660  -14.007650   -7.591710
  H     10.913350  -14.780890   -4.249650
  H      8.560440   -9.300170   -0.727790
  H      7.896560   -7.826530   -0.023480
  H      7.230150   -7.280760   -3.639010
  H      6.485170   -7.527860   -2.060540
  H      7.799860   -9.729210   -3.789810
  H      6.063270   -9.474850   -3.552820
  H      7.070860  -10.011490   -2.194060
  H     10.905450   -8.382990   -0.471450
  H     10.054800   -8.464120    1.085420
  H     10.245840   -6.900980    0.257210
  H      9.192440    2.998110   -0.128730
  H     10.144610    1.616760   -0.670080
  H      7.270630    1.386200   -2.965080
  H      9.026200    1.465110   -2.838680
  H      7.064160    3.793400   -2.325460
  H      8.187250    3.613380   -3.684820
  H      8.817130    3.909220   -2.057760
  H      8.397130    1.651460    1.881200
  H     10.158790    1.866860    1.842740
  H      9.445410    0.308040    1.366490

 Total Charge           Charge          ....    0
 Multiplicity           Mult            ....    1
 Number of Electrons    NEL             ....  486
 Basis Dimension        Dim             .... 2250

ORBITAL ENERGIES
----------------

  NO   OCC          E(Eh)            E(eV)
   0   2.0000     -88.923968     -2419.7442
   1   2.0000     -88.922681     -2419.7092
   2   2.0000     -88.918390     -2419.5924
   3   2.0000     -88.915153     -2419.5043
   4   2.0000     -24.727030      -672.8567
   5   2.0000     -24.726617      -672.8455
   6   2.0000     -24.724718      -672.7938
   7   2.0000     -24.724194      -672.7795
   8   2.0000     -19.137158      -520.7485
   9   2.0000     -19.135846      -520.7129
  10   2.0000     -14.336260      -390.1095
  11   2.0000     -14.335132      -390.0788
  12   2.0000     -14.332022      -389.9942
  13   2.0000     -14.331540      -389.9810
  14   2.0000     -10.300731      -280.2971
  15   2.0000     -10.300408      -280.2883
  16   2.0000     -10.299872      -280.2738
  17   2.0000     -10.299404      -280.2610
  18   2.0000     -10.282834      -279.8101
  19   2.0000     -10.281531      -279.7747
  20   2.0000     -10.262465      -279.2559
  21   2.0000     -10.262109      -279.2462
  22   2.0000     -10.261340      -279.2253
  23   2.0000     -10.260874      -279.2126
  24   2.0000     -10.256846      -279.1030
  25   2.0000     -10.256270      -279.0873
  26   2.0000     -10.251864      -278.9674
  27   2.0000     -10.245388      -278.7912
  28   2.0000     -10.244502      -278.7671
  29   2.0000     -10.243606      -278.7427
  30   2.0000     -10.243349      -278.7357
  31   2.0000     -10.242728      -278.7188
  32   2.0000     -10.236900      -278.5602
  33   2.0000     -10.235493      -278.5219
  34   2.0000     -10.233919      -278.4791
  35   2.0000     -10.233774      -278.4751
  36   2.0000     -10.232943      -278.4525
  37   2.0000     -10.232883      -278.4509
  38   2.0000     -10.232340      -278.4361
  39   2.0000     -10.231971      -278.4261
  40   2.0000     -10.231748      -278.4200
  41   2.0000     -10.230128      -278.3759
  42   2.0000     -10.222504      -278.1685
  43   2.0000     -10.221759      -278.1482
  44   2.0000     -10.221239      -278.1340
  45   2.0000     -10.220361      -278.1102
  46   2.0000     -10.220282      -278.1080
  47   2.0000     -10.220013      -278.1007
  48   2.0000     -10.219795      -278.0948
  49   2.0000     -10.219733      -278.0931
  50   2.0000     -10.219377      -278.0834
  51   2.0000     -10.219259      -278.0802
  52   2.0000     -10.218011      -278.0462
  53   2.0000     -10.217097      -278.0213
  54   2.0000     -10.217074      -278.0207
  55   2.0000     -10.215143      -277.9682
  56   2.0000     -10.213871      -277.9336
  57   2.0000     -10.211946      -277.8812
  58   2.0000     -10.200123      -277.5595
  59   2.0000     -10.199371      -277.5390
  60   2.0000     -10.198634      -277.5189
  61   2.0000     -10.198058      -277.5033
  62   2.0000     -10.181960      -277.0652
  63   2.0000     -10.179522      -276.9989
  64   2.0000     -10.179219      -276.9906
  65   2.0000     -10.178415      -276.9688
  66   2.0000      -7.999620      -217.6807
  67   2.0000      -7.998479      -217.6497
  68   2.0000      -7.994155      -217.5320
  69   2.0000      -7.989635      -217.4090
  70   2.0000      -5.962216      -162.2401
  71   2.0000      -5.961030      -162.2079
  72   2.0000      -5.958467      -162.1381
  73   2.0000      -5.957299      -162.1064
  74   2.0000      -5.956533      -162.0855
  75   2.0000      -5.956149      -162.0751
  76   2.0000      -5.955035      -162.0447
  77   2.0000      -5.952872      -161.9859
  78   2.0000      -5.952284      -161.9699
  79   2.0000      -5.950969      -161.9341
  80   2.0000      -5.948286      -161.8611
  81   2.0000      -5.946279      -161.8065
  82   2.0000      -1.271912       -34.6105
  83   2.0000      -1.271498       -34.5992
  84   2.0000      -1.257759       -34.2254
  85   2.0000      -1.257473       -34.2176
  86   2.0000      -1.063780       -28.9469
  87   2.0000      -1.062490       -28.9118
  88   2.0000      -0.949426       -25.8352
  89   2.0000      -0.944121       -25.6908
  90   2.0000      -0.939400       -25.5624
  91   2.0000      -0.938906       -25.5489
  92   2.0000      -0.922704       -25.1081
  93   2.0000      -0.921926       -25.0869
  94   2.0000      -0.919197       -25.0126
  95   2.0000      -0.918729       -24.9999
  96   2.0000      -0.914237       -24.8776
  97   2.0000      -0.900700       -24.5093
  98   2.0000      -0.876521       -23.8513
  99   2.0000      -0.874368       -23.7928
 100   2.0000      -0.865482       -23.5510
 101   2.0000      -0.856120       -23.2962
 102   2.0000      -0.827896       -22.5282
 103   2.0000      -0.826185       -22.4816
 104   2.0000      -0.820041       -22.3145
 105   2.0000      -0.815606       -22.1938
 106   2.0000      -0.800563       -21.7844
 107   2.0000      -0.796296       -21.6683
 108   2.0000      -0.795675       -21.6514
 109   2.0000      -0.784367       -21.3437
 110   2.0000      -0.780319       -21.2336
 111   2.0000      -0.775250       -21.0956
 112   2.0000      -0.774525       -21.0759
 113   2.0000      -0.771487       -20.9932
 114   2.0000      -0.769065       -20.9273
 115   2.0000      -0.765377       -20.8270
 116   2.0000      -0.751963       -20.4619
 117   2.0000      -0.735922       -20.0255
 118   2.0000      -0.717156       -19.5148
 119   2.0000      -0.702732       -19.1223
 120   2.0000      -0.699367       -19.0308
 121   2.0000      -0.697117       -18.9695
 122   2.0000      -0.696413       -18.9504
 123   2.0000      -0.687346       -18.7036
 124   2.0000      -0.669833       -18.2271
 125   2.0000      -0.650943       -17.7131
 126   2.0000      -0.638082       -17.3631
 127   2.0000      -0.637898       -17.3581
 128   2.0000      -0.636269       -17.3138
 129   2.0000      -0.635451       -17.2915
 130   2.0000      -0.630064       -17.1449
 131   2.0000      -0.625888       -17.0313
 132   2.0000      -0.621295       -16.9063
 133   2.0000      -0.616848       -16.7853
 134   2.0000      -0.608482       -16.5576
 135   2.0000      -0.596659       -16.2359
 136   2.0000      -0.593616       -16.1531
 137   2.0000      -0.582724       -15.8567
 138   2.0000      -0.575931       -15.6719
 139   2.0000      -0.575613       -15.6632
 140   2.0000      -0.573136       -15.5958
 141   2.0000      -0.572519       -15.5790
 142   2.0000      -0.569067       -15.4851
 143   2.0000      -0.565469       -15.3872
 144   2.0000      -0.559225       -15.2173
 145   2.0000      -0.552892       -15.0450
 146   2.0000      -0.545623       -14.8472
 147   2.0000      -0.542793       -14.7701
 148   2.0000      -0.530564       -14.4374
 149   2.0000      -0.523508       -14.2454
 150   2.0000      -0.521471       -14.1899
 151   2.0000      -0.521287       -14.1849
 152   2.0000      -0.520852       -14.1731
 153   2.0000      -0.519081       -14.1249
 154   2.0000      -0.506262       -13.7761
 155   2.0000      -0.499454       -13.5908
 156   2.0000      -0.497686       -13.5427
 157   2.0000      -0.486752       -13.2452
 158   2.0000      -0.486529       -13.2391
 159   2.0000      -0.486477       -13.2377
 160   2.0000      -0.485319       -13.2062
 161   2.0000      -0.484357       -13.1800
 162   2.0000      -0.481356       -13.0984
 163   2.0000      -0.480747       -13.0818
 164   2.0000      -0.477327       -12.9887
 165   2.0000      -0.472295       -12.8518
 166   2.0000      -0.470722       -12.8090
 167   2.0000      -0.467506       -12.7215
 168   2.0000      -0.466596       -12.6967
 169   2.0000      -0.463306       -12.6072
 170   2.0000      -0.461203       -12.5500
 171   2.0000      -0.460254       -12.5241
 172   2.0000      -0.458965       -12.4891
 173   2.0000      -0.456725       -12.4281
 174   2.0000      -0.454478       -12.3670
 175   2.0000      -0.447400       -12.1744
 176   2.0000      -0.445805       -12.1310
 177   2.0000      -0.444297       -12.0899
 178   2.0000      -0.442542       -12.0422
 179   2.0000      -0.430937       -11.7264
 180   2.0000      -0.430324       -11.7097
 181   2.0000      -0.429873       -11.6974
 182   2.0000      -0.429274       -11.6811
 183   2.0000      -0.424903       -11.5622
 184   2.0000      -0.424565       -11.5530
 185   2.0000      -0.423334       -11.5195
 186   2.0000      -0.422757       -11.5038
 187   2.0000      -0.421997       -11.4831
 188   2.0000      -0.418961       -11.4005
 189   2.0000      -0.416377       -11.3302
 190   2.0000      -0.415526       -11.3070
 191   2.0000      -0.411974       -11.2104
 192   2.0000      -0.408853       -11.1254
 193   2.0000      -0.404610       -11.0100
 194   2.0000      -0.402103       -10.9418
 195   2.0000      -0.398408       -10.8412
 196   2.0000      -0.396862       -10.7992
 197   2.0000      -0.393487       -10.7073
 198   2.0000      -0.391653       -10.6574
 199   2.0000      -0.391127       -10.6431
 200   2.0000      -0.390344       -10.6218
 201   2.0000      -0.389013       -10.5856
 202   2.0000      -0.387734       -10.5508
 203   2.0000      -0.386418       -10.5150
 204   2.0000      -0.385562       -10.4917
 205   2.0000      -0.385362       -10.4862
 206   2.0000      -0.382626       -10.4118
 207   2.0000      -0.382467       -10.4075
 208   2.0000      -0.380018       -10.3408
 209   2.0000      -0.376110       -10.2345
 210   2.0000      -0.373183       -10.1548
 211   2.0000      -0.368792       -10.0353
 212   2.0000      -0.367703       -10.0057
 213   2.0000      -0.362931        -9.8759
 214   2.0000      -0.362054        -9.8520
 215   2.0000      -0.360984        -9.8229
 216   2.0000      -0.357111        -9.7175
 217   2.0000      -0.356574        -9.7029
 218   2.0000      -0.356241        -9.6938
 219   2.0000      -0.352788        -9.5999
 220   2.0000      -0.352289        -9.5863
 221   2.0000      -0.349089        -9.4992
 222   2.0000      -0.348553        -9.4846
 223   2.0000      -0.345717        -9.4074
 224   2.0000      -0.345069        -9.3898
 225   2.0000      -0.343032        -9.3344
 226   2.0000      -0.342786        -9.3277
 227   2.0000      -0.335491        -9.1292
 228   2.0000      -0.321048        -8.7362
 229   2.0000      -0.301090        -8.1931
 230   2.0000      -0.295081        -8.0296
 231   2.0000      -0.294030        -8.0010
 232   2.0000      -0.291053        -7.9200
 233   2.0000      -0.286987        -7.8093
 234   2.0000      -0.285008        -7.7555
 235   2.0000      -0.283461        -7.7134
 236   2.0000      -0.280400        -7.6301
 237   2.0000      -0.280195        -7.6245
 238   2.0000      -0.272408        -7.4126
 239   2.0000      -0.266058        -7.2398
 240   2.0000      -0.261724        -7.1219
 241   2.0000      -0.236688        -6.4406
 242   2.0000      -0.209068        -5.6890
 243   0.0000      -0.139887        -3.8065
 244   0.0000      -0.124910        -3.3990
 245   0.0000      -0.111538        -3.0351
 246   0.0000      -0.107301        -2.9198
 247   0.0000      -0.086310        -2.3486

MULLIKEN ATOMIC CHARGES
-----------------------
   0 C :   -0.271075
   1 C :    0.254725
   2 C :    0.282111
   3 C :   -0.306057
   4 C :    0.096341
   5 C :    0.086264
   6 C :    0.208611
   7 C :   -0.045705
   8 C :    0.033019
   9 C :   -0.177886
  10 C :    0.066194
  11 C :   -0.227363
  12 C :   -0.124538
  13 C :   -0.034280
  14 S :    0.108062
  15 C :    0.350776
  16 C :   -0.006797
  17 C :    0.019021
  18 C :   -0.276027
  19 C :    0.084746
  20 S :    0.026337
  21 C :    0.103091
  22 S :    0.031494
  23 C :    0.020953
  24 C :   -0.045283
  25 C :   -0.273623
  26 C :   -0.042942
  27 C :   -0.052680
  28 C :    0.401668
  29 S :    0.059712
  30 C :    0.142804
  31 C :   -0.382506
  32 C :   -0.182516
  33 C :   -0.064241
  34 C :    0.030385
  35 C :    0.089499
  36 C :    0.092864
  37 C :    0.219311
  38 C :   -0.268395
  39 C :    0.252354
  40 C :    0.282415
  41 C :   -0.311860
  42 F :   -0.176511
  43 F :   -0.172825
  44 O :   -0.362917
  45 C :    0.150189
  46 C :   -0.202176
  47 C :   -0.193477
  48 C :   -0.220039
  49 C :   -0.172448
  50 C :   -0.369279
  51 C :   -0.364400
  52 C :   -0.225927
  53 C :   -0.165685
  54 C :   -0.374704
  55 C :   -0.362104
  56 O :   -0.346793
  57 F :   -0.173230
  58 F :   -0.176618
  59 C :    0.139633
  60 C :   -0.199578
  61 C :   -0.182376
  62 N :    0.001106
  63 N :    0.007139
  64 N :    0.004893
  65 N :    0.012321
  66 H :    0.165965
  67 H :    0.148739
  68 H :    0.164951
  69 H :    0.164196
  70 H :    0.133797
  71 H :    0.135995
  72 H :    0.226055
  73 H :    0.169726
  74 H :    0.168125
  75 H :    0.147907
  76 H :    0.106533
  77 H :    0.093385
  78 H :    0.106516
  79 H :    0.092941
  80 H :    0.128279
  81 H :    0.120611
  82 H :    0.111352
  83 H :    0.127169
  84 H :    0.118400
  85 H :    0.119913
  86 H :    0.104611
  87 H :    0.095860
  88 H :    0.108061
  89 H :    0.093946
  90 H :    0.121423
  91 H :    0.123160
  92 H :    0.116174
  93 H :    0.123793
  94 H :    0.119403
  95 H :    0.119838
Sum of atomic charges:   -0.0000000

LOEWDIN ATOMIC CHARGES
----------------------
   0 C :   -0.053035
   1 C :   -0.230627
   2 C :   -0.232425
   3 C :   -0.050295
   4 C :   -0.061853
   5 C :   -0.039606
   6 C :   -0.252810
   7 C :   -0.090577
   8 C :    0.017591
   9 C :   -0.058696
  10 C :   -0.316994
  11 C :   -0.096170
  12 C :   -0.084520
  13 C :   -0.316983
  14 S :    0.801906
  15 C :   -0.171162
  16 C :   -0.080327
  17 C :   -0.328120
  18 C :   -0.123591
  19 C :   -0.333380
  20 S :    0.770086
  21 C :   -0.334744
  22 S :    0.766023
  23 C :   -0.326756
  24 C :   -0.083305
  25 C :   -0.124205
  26 C :   -0.320284
  27 C :   -0.081929
  28 C :   -0.171976
  29 S :    0.786136
  30 C :   -0.311875
  31 C :   -0.092110
  32 C :   -0.073518
  33 C :   -0.083510
  34 C :    0.017294
  35 C :   -0.040832
  36 C :   -0.062958
  37 C :   -0.244700
  38 C :   -0.052784
  39 C :   -0.230783
  40 C :   -0.232330
  41 C :   -0.050544
  42 F :    0.223229
  43 F :    0.224681
  44 O :    0.113025
  45 C :   -0.137168
  46 C :   -0.153262
  47 C :   -0.159661
  48 C :   -0.221534
  49 C :   -0.219810
  50 C :   -0.298639
  51 C :   -0.295740
  52 C :   -0.225047
  53 C :   -0.220715
  54 C :   -0.299778
  55 C :   -0.297190
  56 O :    0.115014
  57 F :    0.224666
  58 F :    0.223296
  59 C :   -0.137813
  60 C :   -0.154161
  61 C :   -0.155393
  62 N :    0.064081
  63 N :    0.070945
  64 N :    0.070709
  65 N :    0.069148
  66 H :    0.170744
  67 H :    0.165710
  68 H :    0.181259
  69 H :    0.156457
  70 H :    0.148539
  71 H :    0.148419
  72 H :    0.160932
  73 H :    0.173816
  74 H :    0.171031
  75 H :    0.165303
  76 H :    0.142070
  77 H :    0.140808
  78 H :    0.146473
  79 H :    0.140269
  80 H :    0.125190
  81 H :    0.124092
  82 H :    0.119057
  83 H :    0.125402
  84 H :    0.122021
  85 H :    0.123158
  86 H :    0.141535
  87 H :    0.141838
  88 H :    0.146580
  89 H :    0.140702
  90 H :    0.122298
  91 H :    0.125194
  92 H :    0.119296
  93 H :    0.125021
  94 H :    0.122515
  95 H :    0.122667

  Mayer bond orders larger than 0.100000
B(  0-C ,  1-C ) :   1.4003 B(  0-C ,  5-C ) :   1.3134 B(  0-C , 66-H ) :   0.9272
B(  1-C ,  2-C ) :   1.3316 B(  1-C , 57-F ) :   1.0866 B(  2-C ,  3-C ) :   1.3630
B(  2-C , 58-F ) :   1.0658 B(  3-C ,  4-C ) :   1.2975 B(  3-C , 67-H ) :   0.9801
B(  4-C ,  5-C ) :   1.3407 B(  4-C ,  6-C ) :   1.0249 B(  4-C , 56-O ) :  -0.1521
B(  5-C ,  8-C ) :   1.0272 B(  6-C ,  7-C ) :   1.0142 B(  6-C , 56-O ) :   2.0291
B(  7-C ,  8-C ) :   1.1637 B(  7-C ,  9-C ) :   1.3777 B(  8-C , 59-C ) :   1.4612
B(  9-C , 10-C ) :   1.3234 B(  9-C , 68-H ) :   0.8933 B( 10-C , 11-C ) :   1.3101
B( 10-C , 14-S ) :   1.2370 B( 11-C , 12-C ) :   1.3676 B( 11-C , 69-H ) :   0.9340
B( 12-C , 13-C ) :   1.2562 B( 12-C , 15-C ) :   1.1216 B( 13-C , 14-S ) :   1.4440
B( 13-C , 17-C ) :   1.0221 B( 15-C , 16-C ) :   1.1078 B( 15-C , 52-C ) :   0.7825
B( 15-C , 53-C ) :   0.8377 B( 16-C , 17-C ) :   1.3148 B( 16-C , 18-C ) :   1.3160
B( 17-C , 20-S ) :   1.3433 B( 18-C , 19-C ) :   1.4175 B( 18-C , 20-S ) :   0.1052
B( 18-C , 70-H ) :   0.9312 B( 19-C , 20-S ) :   1.2332 B( 19-C , 21-C ) :   1.1209
B( 21-C , 22-S ) :   1.2269 B( 21-C , 25-C ) :   1.4413 B( 22-S , 23-C ) :   1.3383
B( 22-S , 25-C ) :   0.1104 B( 23-C , 24-C ) :   1.3079 B( 23-C , 26-C ) :   1.0332
B( 24-C , 25-C ) :   1.3143 B( 24-C , 28-C ) :   1.1055 B( 25-C , 71-H ) :   0.9230
B( 26-C , 27-C ) :   1.2769 B( 26-C , 29-S ) :   1.4174 B( 27-C , 28-C ) :   1.1028
B( 27-C , 31-C ) :   1.2988 B( 28-C , 48-C ) :   0.7849 B( 28-C , 49-C ) :   0.8309
B( 29-S , 30-C ) :   1.1726 B( 29-S , 31-C ) :   0.1478 B( 30-C , 31-C ) :   1.4168
B( 30-C , 32-C ) :   1.3420 B( 31-C , 72-H ) :   0.8992 B( 32-C , 33-C ) :   1.4141
B( 32-C , 73-H ) :   0.8708 B( 33-C , 34-C ) :   1.1586 B( 33-C , 37-C ) :   1.0138
B( 34-C , 35-C ) :   1.0410 B( 34-C , 45-C ) :   1.4616 B( 35-C , 36-C ) :   1.3468
B( 35-C , 38-C ) :   1.3037 B( 36-C , 37-C ) :   1.0307 B( 36-C , 41-C ) :   1.2928
B( 36-C , 44-O ) :  -0.1565 B( 37-C , 44-O ) :   2.0076 B( 38-C , 39-C ) :   1.3994
B( 38-C , 74-H ) :   0.9262 B( 39-C , 40-C ) :   1.3317 B( 39-C , 43-F ) :   1.0877
B( 40-C , 41-C ) :   1.3653 B( 40-C , 42-F ) :   1.0648 B( 41-C , 75-H ) :   0.9797
B( 45-C , 46-C ) :   1.0195 B( 45-C , 47-C ) :   1.0286 B( 46-C , 64-N ) :   2.9721
B( 47-C , 65-N ) :   2.9708 B( 48-C , 51-C ) :   0.9822 B( 48-C , 76-H ) :   0.9605
B( 48-C , 77-H ) :   0.9603 B( 49-C , 50-C ) :   0.9624 B( 49-C , 78-H ) :   0.9655
B( 49-C , 79-H ) :   0.9588 B( 50-C , 80-H ) :   0.9753 B( 50-C , 81-H ) :   0.9740
B( 50-C , 82-H ) :   0.9722 B( 51-C , 83-H ) :   0.9710 B( 51-C , 84-H ) :   0.9761
B( 51-C , 85-H ) :   0.9724 B( 52-C , 55-C ) :   0.9846 B( 52-C , 86-H ) :   0.9654
B( 52-C , 87-H ) :   0.9581 B( 53-C , 54-C ) :   0.9545 B( 53-C , 88-H ) :   0.9663
B( 53-C , 89-H ) :   0.9587 B( 54-C , 90-H ) :   0.9754 B( 54-C , 91-H ) :   0.9743
B( 54-C , 92-H ) :   0.9737 B( 55-C , 93-H ) :   0.9716 B( 55-C , 94-H ) :   0.9767
B( 55-C , 95-H ) :   0.9718 B( 59-C , 60-C ) :   1.0193 B( 59-C , 61-C ) :   1.0326
B( 60-C , 63-N ) :   2.9760 B( 61-C , 62-N ) :   2.9641

-----------------------------------------------------------------------------
         ABSORPTION SPECTRUM VIA TRANSITION ELECTRIC DIPOLE MOMENTS
-----------------------------------------------------------------------------
State   Energy    Wavelength  fosc         T2        TX        TY        TZ
        (cm-1)      (nm)                 (au**2)    (au)      (au)      (au)
-----------------------------------------------------------------------------
   1   14769.3    677.1   3.868236771  86.22392  -5.03173   7.09445   3.25184
   2   17036.5    587.0   0.005579987   0.10783   0.18161  -0.17062   0.21386
   3   19090.1    523.8   0.272008860   4.69085   1.10845  -1.73780  -0.66502
   4   19472.0    513.6   0.014020481   0.23704  -0.25716  -0.16087   0.38083
   5   22631.1    441.9   0.150955371   2.19593  -0.96026   0.98968   0.54256
   6   23072.7    433.4   0.086202767   1.22998  -0.68484  -0.36451  -0.79253
   7   24247.4    412.4   0.003965781   0.05384   0.01742   0.22422   0.05714
   8   24690.6    405.0   0.002647353   0.03530  -0.07715   0.12925  -0.11243
   9   25621.5    390.3   0.002160274   0.02776  -0.16400   0.00910   0.02787
  10   25673.1    389.5   0.018681505   0.23956   0.32858  -0.29877  -0.20574
  11   25820.4    387.3   0.002782226   0.03547  -0.04512   0.18252   0.01111
  12   25975.1    385.0   0.063718801   0.80758  -0.07403  -0.89230  -0.07680
  13   26145.2    382.5   0.078585978   0.98953  -0.78156  -0.61525  -0.01291
  14   27581.6    362.6   0.000210677   0.00251  -0.03204  -0.02196   0.03171
  15   27587.5    362.5   0.000294800   0.00352  -0.04816  -0.03294  -0.01066
  16   28343.8    352.8   0.014832673   0.17228  -0.20878  -0.33566   0.12659
  17   28398.6    352.1   0.008770939   0.10168   0.23861   0.08361  -0.19430
  18   28721.5    348.2   0.024684333   0.28294   0.08253   0.52489   0.02478
  19   29115.8    343.5   0.002846472   0.03218  -0.17698  -0.01847  -0.02283
  20   29270.9    341.6   0.007220498   0.08121   0.25256  -0.12361  -0.04629
  21   29563.1    338.3   0.098207107   1.09362  -0.96143   0.01757   0.41105
  22   29669.7    337.0   0.014504297   0.16094  -0.08833  -0.39119   0.01012
  23   29734.4    336.3   0.014486612   0.16039   0.38656   0.06720  -0.08032
  24   30484.8    328.0   0.004981924   0.05380  -0.15520  -0.16403  -0.05301
  25   30733.1    325.4   0.027318931   0.29264   0.19749  -0.48584  -0.13266
  26   30993.4    322.6   0.009254569   0.09830   0.11171   0.28855  -0.05063
  27   31106.4    321.5   0.053800526   0.56939  -0.46365  -0.57067   0.16959
  28   31345.2    319.0   0.005046510   0.05300  -0.13308  -0.18194   0.04680
  29   31496.3    317.5   0.001074179   0.01123   0.07681   0.04089  -0.06047
  30   31744.7    315.0   0.015761616   0.16346   0.34212  -0.16326  -0.14057
  31   31822.3    314.2   0.004544942   0.04702  -0.19926  -0.06854   0.05115
  32   31933.4    313.2   0.014467532   0.14915   0.19754   0.23094  -0.23831
  33   32222.0    310.3   0.031440935   0.32123  -0.04726  -0.55303  -0.11471
  34   32640.9    306.4   0.028637225   0.28883   0.00659   0.51696  -0.14676
  35   32834.4    304.6   0.088351691   0.88585  -0.90660   0.05246   0.24735
  36   32927.7    303.7   0.244784675   2.44736   0.69129   1.35752  -0.35583
  37   32967.7    303.3   0.058709476   0.58627  -0.31531   0.54901   0.43062
  38   33032.2    302.7   0.374595243   3.73336   1.14800   1.31769  -0.82411
  39   33207.6    301.1   0.007087008   0.07026  -0.21591   0.15275  -0.01752
  40   33571.7    297.9   0.123665571   1.21269  -0.64918  -0.84077   0.29046
  41   34003.8    294.1   0.052910066   0.51226   0.56576   0.31170  -0.30825
  42   34130.6    293.0   0.032054298   0.30918   0.04605  -0.55372  -0.02142
  43   34187.6    292.5   0.069255229   0.66690  -0.42359  -0.59590   0.36383
  44   34289.2    291.6   0.011578301   0.11116  -0.09909  -0.27376   0.16248
  45   34528.8    289.6   0.000512256   0.00488   0.06236  -0.01544  -0.02751
  46   34664.9    288.5   0.015390083   0.14616   0.31607  -0.11136  -0.18401
  47   34793.8    287.4   0.005657688   0.05353  -0.16623  -0.14805   0.06309
  48   35197.5    284.1   0.056885475   0.53207  -0.32925   0.58989   0.27512
  49   35402.5    282.5   0.005387473   0.05010   0.19732   0.05374   0.09097
  50   35742.4    279.8   0.000792346   0.00730   0.04722   0.07110   0.00364

FINAL SINGLE POINT ENERGY     -4360.320201707820

DIPOLE MOMENT
-------------
                                X             Y             Z
Electronic contribution:    -27.34538     -21.26289     -11.17245
Nuclear contribution   :     26.90997      20.13229      12.66126
                        -----------------------------------------
Total Dipole Moment    :     -0.43541      -1.13060       1.48881
                        -----------------------------------------
Magnitude (a.u.)       :      1.91947
Magnitude (Debye)      :      4.87892

Rotational constants in cm-1:     0.002686     0.000227     0.000214
Rotational constants in MHz :    80.525230     6.810972     6.423055

                             ****ORCA TERMINATED NORMALLY****
TOTAL RUN TIME: 0 days 4 hours 21 minutes 39 seconds 388 msec
