                         Program Version 4.2.0 -  RELEASE  -
|  1> # ORCA input file
|  2> # CPDT-4Cl.out: Geometry 103
|  3> ! B3LYP def2-TZVP def2/J RIJCOSX Grid4 TightSCF
|  4>
|  5> %maxcore 6000
|  6> %tddft
|  7>   maxdim 5
|  8>   nroots 50
|  9>   end
| 10> %pal
| 11>   nprocs 6
| 12>   end
| 13>
| 14>
| 15> * xyz 0 1
| 16>    C       -0.57575         2.01495         1.56806
| 17>    C       -1.63919         2.35525         2.41426
| 18>    C       -1.58080         3.50067         3.23958
| 19>    C       -0.43707         4.30746         3.23674
| 20>    C        0.61909         3.95079         2.41249
| 21>    C        0.56491         2.81932         1.57077
| 22>    C        1.94214         4.62201         2.26629
| 23>    C        2.73638         3.73034         1.35969
| 24>    C        1.81397         2.76246         0.77645
| 25>    C        4.10419         3.85762         1.30100
| 26>    C        5.08317         2.90612         0.90263
| 27>    C        6.38165         3.17481         0.43648
| 28>    C        7.07001         2.02268         0.03556
| 29>    C        6.32059         0.85707         0.27332
| 30>    S        4.77190         1.16547         0.94235
| 31>    C        8.39493         1.67089        -0.64947
| 32>    C        8.27667         0.14835        -0.70435
| 33>    C        7.06119        -0.27946        -0.16322
| 34>    C        9.03152        -0.91045        -1.23774
| 35>    C        8.38983        -2.14586        -1.10492
| 36>    S        6.82955        -1.98278        -0.29876
| 37>    C        8.80459        -3.43495        -1.57563
| 38>    S       10.26741        -3.60426        -2.54570
| 39>    C        9.96871        -5.29677        -2.73325
| 40>    C        8.80557        -5.70978        -2.07522
| 41>    C        8.14736        -4.65895        -1.41914
| 42>    C       10.54718        -6.41772        -3.40268
| 43>    C        9.74597        -7.55668        -3.16031
| 44>    C        8.55523        -7.19935        -2.27415
| 45>    S       11.88036        -6.74985        -4.42109
| 46>    C       11.38381        -8.45918        -4.55660
| 47>    C       10.22655        -8.70183        -3.78667
| 48>    C       12.15476        -9.25753        -5.43116
| 49>    C       12.04198       -10.57541        -5.84800
| 50>    C       12.90823       -11.21885        -6.84312
| 51>    C       12.41502       -12.60683        -7.03326
| 52>    C       11.33174       -12.82034        -6.16269
| 53>    C       11.04241       -11.58327        -5.39883
| 54>    C       12.81388       -13.64066        -7.88555
| 55>    C       12.12825       -14.86148        -7.83068
| 56>    C       11.06334       -15.06653        -6.92704
| 57>    C       10.65406       -14.02620        -6.08710
| 58>   Cl       10.25007       -16.59199        -6.85112
| 59>   Cl       12.61171       -16.12926        -8.90510
| 60>    O       10.14403       -11.48036        -4.57847
| 61>    C       14.00059       -10.68767        -7.51174
| 62>    C       14.78857       -11.45121        -8.42930
| 63>    C       14.46715        -9.34550        -7.35171
| 64>    C        8.58529        -7.94970        -0.91822
| 65>    C        7.19965        -7.40528        -3.01001
| 66>    C        6.88549        -8.83620        -3.44390
| 67>    C        9.88607        -7.79491        -0.13216
| 68>    C        9.64223         2.12920         0.14243
| 69>    C        8.43392         2.20452        -2.11194
| 70>    C        8.39597         3.72131        -2.27976
| 71>    C        9.73385         1.60118         1.57198
| 72>    O        2.31173         5.63995         2.81252
| 73>   Cl       -3.04096         1.33928         2.42651
| 74>   Cl       -2.91082         3.92047         4.26505
| 75>    C        1.95871         2.10698        -0.43386
| 76>    C        1.00243         1.16039        -0.91226
| 77>    C        3.03246         2.39606        -1.33224
| 78>    N        3.87306         2.65770        -2.09058
| 79>    N        0.24256         0.36515        -1.28840
| 80>    N       15.44654       -12.06183        -9.16782
| 81>    N       14.86557        -8.25848        -7.24175
| 82>    H       -0.66849         1.12669         0.94723
| 83>    H       -0.37909         5.19605         3.86647
| 84>    H        4.48843         4.80925         1.68986
| 85>    H        6.75841         4.19507         0.36484
| 86>    H       10.00227        -0.80376        -1.72321
| 87>    H        7.21784        -4.75878        -0.85787
| 88>    H        9.80052        -9.70120        -3.74205
| 89>    H       12.97634        -8.70100        -5.88084
| 90>    H       13.63130       -13.54299        -8.59454
| 91>    H        9.82220       -14.15379        -5.39362
| 92>    H        8.39269        -9.01749        -1.10702
| 93>    H        7.73472        -7.58442        -0.31694
| 94>    H        7.19121        -6.74672        -3.89356
| 95>    H        6.40320        -7.03241        -2.34289
| 96>    H        7.61742        -9.21162        -4.17266
| 97>    H        5.89638        -8.87752        -3.92645
| 98>    H        6.86599        -9.53706        -2.59590
| 99>    H       10.74557        -8.17188        -0.70760
|100>    H        9.83954        -8.36345         0.80819
|101>    H       10.08698        -6.74247         0.12069
|102>    H        9.65749         3.23062         0.15340
|103>    H       10.53152         1.81676        -0.43271
|104>    H        7.58591         1.76005        -2.65627
|105>    H        9.34865         1.80068        -2.57836
|106>    H        7.42396         4.13443        -1.97189
|107>    H        8.54080         3.98668        -3.33811
|108>    H        9.18346         4.23296        -1.70737
|109>    H        8.84386         1.88043         2.15825
|110>    H       10.61268         2.01972         2.08564
|111>    H        9.82011         0.50353         1.59552
|112> *
|113>
|114>                          ****END OF INPUT****

CARTESIAN COORDINATES (ANGSTROEM)
---------------------------------
  C     -0.575750    2.014950    1.568060
  C     -1.639190    2.355250    2.414260
  C     -1.580800    3.500670    3.239580
  C     -0.437070    4.307460    3.236740
  C      0.619090    3.950790    2.412490
  C      0.564910    2.819320    1.570770
  C      1.942140    4.622010    2.266290
  C      2.736380    3.730340    1.359690
  C      1.813970    2.762460    0.776450
  C      4.104190    3.857620    1.301000
  C      5.083170    2.906120    0.902630
  C      6.381650    3.174810    0.436480
  C      7.070010    2.022680    0.035560
  C      6.320590    0.857070    0.273320
  S      4.771900    1.165470    0.942350
  C      8.394930    1.670890   -0.649470
  C      8.276670    0.148350   -0.704350
  C      7.061190   -0.279460   -0.163220
  C      9.031520   -0.910450   -1.237740
  C      8.389830   -2.145860   -1.104920
  S      6.829550   -1.982780   -0.298760
  C      8.804590   -3.434950   -1.575630
  S     10.267410   -3.604260   -2.545700
  C      9.968710   -5.296770   -2.733250
  C      8.805570   -5.709780   -2.075220
  C      8.147360   -4.658950   -1.419140
  C     10.547180   -6.417720   -3.402680
  C      9.745970   -7.556680   -3.160310
  C      8.555230   -7.199350   -2.274150
  S     11.880360   -6.749850   -4.421090
  C     11.383810   -8.459180   -4.556600
  C     10.226550   -8.701830   -3.786670
  C     12.154760   -9.257530   -5.431160
  C     12.041980  -10.575410   -5.848000
  C     12.908230  -11.218850   -6.843120
  C     12.415020  -12.606830   -7.033260
  C     11.331740  -12.820340   -6.162690
  C     11.042410  -11.583270   -5.398830
  C     12.813880  -13.640660   -7.885550
  C     12.128250  -14.861480   -7.830680
  C     11.063340  -15.066530   -6.927040
  C     10.654060  -14.026200   -6.087100
  Cl    10.250070  -16.591990   -6.851120
  Cl    12.611710  -16.129260   -8.905100
  O     10.144030  -11.480360   -4.578470
  C     14.000590  -10.687670   -7.511740
  C     14.788570  -11.451210   -8.429300
  C     14.467150   -9.345500   -7.351710
  C      8.585290   -7.949700   -0.918220
  C      7.199650   -7.405280   -3.010010
  C      6.885490   -8.836200   -3.443900
  C      9.886070   -7.794910   -0.132160
  C      9.642230    2.129200    0.142430
  C      8.433920    2.204520   -2.111940
  C      8.395970    3.721310   -2.279760
  C      9.733850    1.601180    1.571980
  O      2.311730    5.639950    2.812520
  Cl    -3.040960    1.339280    2.426510
  Cl    -2.910820    3.920470    4.265050
  C      1.958710    2.106980   -0.433860
  C      1.002430    1.160390   -0.912260
  C      3.032460    2.396060   -1.332240
  N      3.873060    2.657700   -2.090580
  N      0.242560    0.365150   -1.288400
  N     15.446540  -12.061830   -9.167820
  N     14.865570   -8.258480   -7.241750
  H     -0.668490    1.126690    0.947230
  H     -0.379090    5.196050    3.866470
  H      4.488430    4.809250    1.689860
  H      6.758410    4.195070    0.364840
  H     10.002270   -0.803760   -1.723210
  H      7.217840   -4.758780   -0.857870
  H      9.800520   -9.701200   -3.742050
  H     12.976340   -8.701000   -5.880840
  H     13.631300  -13.542990   -8.594540
  H      9.822200  -14.153790   -5.393620
  H      8.392690   -9.017490   -1.107020
  H      7.734720   -7.584420   -0.316940
  H      7.191210   -6.746720   -3.893560
  H      6.403200   -7.032410   -2.342890
  H      7.617420   -9.211620   -4.172660
  H      5.896380   -8.877520   -3.926450
  H      6.865990   -9.537060   -2.595900
  H     10.745570   -8.171880   -0.707600
  H      9.839540   -8.363450    0.808190
  H     10.086980   -6.742470    0.120690
  H      9.657490    3.230620    0.153400
  H     10.531520    1.816760   -0.432710
  H      7.585910    1.760050   -2.656270
  H      9.348650    1.800680   -2.578360
  H      7.423960    4.134430   -1.971890
  H      8.540800    3.986680   -3.338110
  H      9.183460    4.232960   -1.707370
  H      8.843860    1.880430    2.158250
  H     10.612680    2.019720    2.085640
  H      9.820110    0.503530    1.595520

 Total Charge           Charge          ....    0
 Multiplicity           Mult            ....    1
 Number of Electrons    NEL             ....  518
 Basis Dimension        Dim             .... 2274

ORBITAL ENERGIES
----------------

  NO   OCC          E(Eh)            E(eV)
   0   2.0000    -101.550043     -2763.3172
   1   2.0000    -101.548831     -2763.2842
   2   2.0000    -101.547296     -2763.2424
   3   2.0000    -101.544602     -2763.1691
   4   2.0000     -88.922553     -2419.7057
   5   2.0000     -88.921853     -2419.6866
   6   2.0000     -88.917960     -2419.5807
   7   2.0000     -88.917192     -2419.5598
   8   2.0000     -19.134129      -520.6661
   9   2.0000     -19.134075      -520.6646
  10   2.0000     -14.334626      -390.0650
  11   2.0000     -14.333480      -390.0338
  12   2.0000     -14.333461      -390.0333
  13   2.0000     -14.329345      -389.9213
  14   2.0000     -10.281674      -279.7786
  15   2.0000     -10.280909      -279.7578
  16   2.0000     -10.276783      -279.6455
  17   2.0000     -10.276068      -279.6260
  18   2.0000     -10.272520      -279.5295
  19   2.0000     -10.271859      -279.5115
  20   2.0000     -10.263993      -279.2975
  21   2.0000     -10.261554      -279.2311
  22   2.0000     -10.260341      -279.1981
  23   2.0000     -10.259024      -279.1622
  24   2.0000     -10.255618      -279.0696
  25   2.0000     -10.254716      -279.0450
  26   2.0000     -10.250921      -278.9417
  27   2.0000     -10.249118      -278.8927
  28   2.0000     -10.243370      -278.7363
  29   2.0000     -10.243237      -278.7326
  30   2.0000     -10.242796      -278.7206
  31   2.0000     -10.241686      -278.6905
  32   2.0000     -10.236444      -278.5478
  33   2.0000     -10.234633      -278.4985
  34   2.0000     -10.234177      -278.4861
  35   2.0000     -10.233758      -278.4747
  36   2.0000     -10.232833      -278.4496
  37   2.0000     -10.232546      -278.4417
  38   2.0000     -10.230754      -278.3930
  39   2.0000     -10.229751      -278.3657
  40   2.0000     -10.229555      -278.3603
  41   2.0000     -10.228015      -278.3184
  42   2.0000     -10.224027      -278.2099
  43   2.0000     -10.223871      -278.2057
  44   2.0000     -10.222476      -278.1677
  45   2.0000     -10.219760      -278.0938
  46   2.0000     -10.219270      -278.0805
  47   2.0000     -10.219239      -278.0796
  48   2.0000     -10.219106      -278.0760
  49   2.0000     -10.218748      -278.0663
  50   2.0000     -10.218569      -278.0614
  51   2.0000     -10.218408      -278.0570
  52   2.0000     -10.218285      -278.0537
  53   2.0000     -10.217650      -278.0364
  54   2.0000     -10.215401      -277.9752
  55   2.0000     -10.212974      -277.9092
  56   2.0000     -10.212779      -277.9039
  57   2.0000     -10.208526      -277.7881
  58   2.0000     -10.198533      -277.5162
  59   2.0000     -10.197080      -277.4767
  60   2.0000     -10.196521      -277.4614
  61   2.0000     -10.196226      -277.4534
  62   2.0000     -10.179788      -277.0061
  63   2.0000     -10.178148      -276.9615
  64   2.0000     -10.177074      -276.9322
  65   2.0000     -10.176828      -276.9256
  66   2.0000      -9.482273      -258.0258
  67   2.0000      -9.481098      -257.9938
  68   2.0000      -9.479561      -257.9520
  69   2.0000      -9.476903      -257.8796
  70   2.0000      -7.998219      -217.6426
  71   2.0000      -7.997667      -217.6276
  72   2.0000      -7.994116      -217.5310
  73   2.0000      -7.992884      -217.4974
  74   2.0000      -7.244000      -197.1192
  75   2.0000      -7.242858      -197.0882
  76   2.0000      -7.241263      -197.0448
  77   2.0000      -7.238632      -196.9732
  78   2.0000      -7.235534      -196.8889
  79   2.0000      -7.234782      -196.8684
  80   2.0000      -7.234347      -196.8566
  81   2.0000      -7.233591      -196.8360
  82   2.0000      -7.232832      -196.8154
  83   2.0000      -7.232076      -196.7948
  84   2.0000      -7.230150      -196.7424
  85   2.0000      -7.229399      -196.7220
  86   2.0000      -5.960816      -162.2021
  87   2.0000      -5.960237      -162.1863
  88   2.0000      -5.957068      -162.1001
  89   2.0000      -5.956602      -162.0874
  90   2.0000      -5.956499      -162.0846
  91   2.0000      -5.955271      -162.0512
  92   2.0000      -5.954748      -162.0369
  93   2.0000      -5.954197      -162.0219
  94   2.0000      -5.952869      -161.9858
  95   2.0000      -5.951627      -161.9520
  96   2.0000      -5.950720      -161.9273
  97   2.0000      -5.949674      -161.8989
  98   2.0000      -1.061660       -28.8892
  99   2.0000      -1.060982       -28.8708
 100   2.0000      -0.949253       -25.8305
 101   2.0000      -0.945684       -25.7334
 102   2.0000      -0.943852       -25.6835
 103   2.0000      -0.941744       -25.6262
 104   2.0000      -0.934909       -25.4402
 105   2.0000      -0.932838       -25.3838
 106   2.0000      -0.920983       -25.0612
 107   2.0000      -0.918534       -24.9946
 108   2.0000      -0.914928       -24.8965
 109   2.0000      -0.907942       -24.7064
 110   2.0000      -0.903935       -24.5973
 111   2.0000      -0.899251       -24.4699
 112   2.0000      -0.880671       -23.9643
 113   2.0000      -0.877152       -23.8685
 114   2.0000      -0.868718       -23.6390
 115   2.0000      -0.857788       -23.3416
 116   2.0000      -0.850802       -23.1515
 117   2.0000      -0.848194       -23.0805
 118   2.0000      -0.827926       -22.5290
 119   2.0000      -0.824432       -22.4339
 120   2.0000      -0.813832       -22.1455
 121   2.0000      -0.804141       -21.8818
 122   2.0000      -0.788960       -21.4687
 123   2.0000      -0.783588       -21.3225
 124   2.0000      -0.779670       -21.2159
 125   2.0000      -0.779114       -21.2008
 126   2.0000      -0.776069       -21.1179
 127   2.0000      -0.773938       -21.0599
 128   2.0000      -0.772459       -21.0197
 129   2.0000      -0.771538       -20.9946
 130   2.0000      -0.768355       -20.9080
 131   2.0000      -0.764632       -20.8067
 132   2.0000      -0.743702       -20.2372
 133   2.0000      -0.723855       -19.6971
 134   2.0000      -0.709207       -19.2985
 135   2.0000      -0.700958       -19.0740
 136   2.0000      -0.696649       -18.9568
 137   2.0000      -0.690429       -18.7875
 138   2.0000      -0.686642       -18.6845
 139   2.0000      -0.676759       -18.4156
 140   2.0000      -0.657750       -17.8983
 141   2.0000      -0.641996       -17.4696
 142   2.0000      -0.636830       -17.3290
 143   2.0000      -0.634744       -17.2723
 144   2.0000      -0.629558       -17.1311
 145   2.0000      -0.625200       -17.0125
 146   2.0000      -0.621717       -16.9178
 147   2.0000      -0.616389       -16.7728
 148   2.0000      -0.614486       -16.7210
 149   2.0000      -0.609008       -16.5720
 150   2.0000      -0.602895       -16.4056
 151   2.0000      -0.586116       -15.9490
 152   2.0000      -0.578878       -15.7521
 153   2.0000      -0.574470       -15.6321
 154   2.0000      -0.570276       -15.5180
 155   2.0000      -0.564837       -15.3700
 156   2.0000      -0.561155       -15.2698
 157   2.0000      -0.553725       -15.0676
 158   2.0000      -0.551176       -14.9983
 159   2.0000      -0.543120       -14.7790
 160   2.0000      -0.539874       -14.6907
 161   2.0000      -0.532871       -14.5002
 162   2.0000      -0.522517       -14.2184
 163   2.0000      -0.513804       -13.9813
 164   2.0000      -0.509983       -13.8773
 165   2.0000      -0.505833       -13.7644
 166   2.0000      -0.499933       -13.6039
 167   2.0000      -0.494433       -13.4542
 168   2.0000      -0.491431       -13.3725
 169   2.0000      -0.486389       -13.2353
 170   2.0000      -0.483680       -13.1616
 171   2.0000      -0.481127       -13.0921
 172   2.0000      -0.480461       -13.0740
 173   2.0000      -0.478180       -13.0119
 174   2.0000      -0.473124       -12.8744
 175   2.0000      -0.471135       -12.8202
 176   2.0000      -0.468355       -12.7446
 177   2.0000      -0.465838       -12.6761
 178   2.0000      -0.464319       -12.6348
 179   2.0000      -0.463930       -12.6242
 180   2.0000      -0.463485       -12.6121
 181   2.0000      -0.460981       -12.5439
 182   2.0000      -0.458589       -12.4788
 183   2.0000      -0.451828       -12.2949
 184   2.0000      -0.448767       -12.2116
 185   2.0000      -0.445828       -12.1316
 186   2.0000      -0.443450       -12.0669
 187   2.0000      -0.442117       -12.0306
 188   2.0000      -0.438080       -11.9208
 189   2.0000      -0.434177       -11.8146
 190   2.0000      -0.431665       -11.7462
 191   2.0000      -0.431424       -11.7396
 192   2.0000      -0.429968       -11.7000
 193   2.0000      -0.427498       -11.6328
 194   2.0000      -0.422578       -11.4989
 195   2.0000      -0.421677       -11.4744
 196   2.0000      -0.420315       -11.4374
 197   2.0000      -0.419014       -11.4020
 198   2.0000      -0.416723       -11.3396
 199   2.0000      -0.414352       -11.2751
 200   2.0000      -0.413598       -11.2546
 201   2.0000      -0.408278       -11.1098
 202   2.0000      -0.408098       -11.1049
 203   2.0000      -0.404526       -11.0077
 204   2.0000      -0.400548       -10.8995
 205   2.0000      -0.400099       -10.8872
 206   2.0000      -0.397653       -10.8207
 207   2.0000      -0.396323       -10.7845
 208   2.0000      -0.394328       -10.7302
 209   2.0000      -0.390787       -10.6339
 210   2.0000      -0.389937       -10.6107
 211   2.0000      -0.387211       -10.5366
 212   2.0000      -0.386332       -10.5126
 213   2.0000      -0.384465       -10.4618
 214   2.0000      -0.382624       -10.4117
 215   2.0000      -0.380735       -10.3603
 216   2.0000      -0.379309       -10.3215
 217   2.0000      -0.377615       -10.2754
 218   2.0000      -0.374134       -10.1807
 219   2.0000      -0.372228       -10.1288
 220   2.0000      -0.370342       -10.0775
 221   2.0000      -0.368279       -10.0214
 222   2.0000      -0.365775        -9.9533
 223   2.0000      -0.365501        -9.9458
 224   2.0000      -0.363183        -9.8827
 225   2.0000      -0.363051        -9.8791
 226   2.0000      -0.361703        -9.8424
 227   2.0000      -0.359571        -9.7844
 228   2.0000      -0.357365        -9.7244
 229   2.0000      -0.355765        -9.6809
 230   2.0000      -0.354256        -9.6398
 231   2.0000      -0.352484        -9.5916
 232   2.0000      -0.349338        -9.5060
 233   2.0000      -0.349144        -9.5007
 234   2.0000      -0.347162        -9.4468
 235   2.0000      -0.346092        -9.4176
 236   2.0000      -0.344629        -9.3778
 237   2.0000      -0.342146        -9.3103
 238   2.0000      -0.341763        -9.2998
 239   2.0000      -0.340819        -9.2742
 240   2.0000      -0.339105        -9.2275
 241   2.0000      -0.327117        -8.9013
 242   2.0000      -0.325946        -8.8694
 243   2.0000      -0.322444        -8.7741
 244   2.0000      -0.313342        -8.5265
 245   2.0000      -0.296482        -8.0677
 246   2.0000      -0.293744        -7.9932
 247   2.0000      -0.287496        -7.8232
 248   2.0000      -0.287253        -7.8166
 249   2.0000      -0.285987        -7.7821
 250   2.0000      -0.282911        -7.6984
 251   2.0000      -0.282319        -7.6823
 252   2.0000      -0.278084        -7.5670
 253   2.0000      -0.277596        -7.5538
 254   2.0000      -0.268693        -7.3115
 255   2.0000      -0.261945        -7.1279
 256   2.0000      -0.258988        -7.0474
 257   2.0000      -0.235632        -6.4119
 258   2.0000      -0.207343        -5.6421
 259   0.0000      -0.141044        -3.8380
 260   0.0000      -0.126957        -3.4547
 261   0.0000      -0.111767        -3.0413
 262   0.0000      -0.107949        -2.9375
 263   0.0000      -0.088003        -2.3947

MULLIKEN ATOMIC CHARGES
-----------------------
   0 C :   -0.260258
   1 C :    0.125439
   2 C :    0.157073
   3 C :   -0.294499
   4 C :    0.010056
   5 C :    0.129838
   6 C :    0.218357
   7 C :   -0.033013
   8 C :    0.004982
   9 C :   -0.231695
  10 C :    0.207081
  11 C :   -0.273571
  12 C :   -0.083266
  13 C :   -0.019131
  14 S :    0.046488
  15 C :    0.371148
  16 C :   -0.007802
  17 C :    0.021766
  18 C :   -0.286133
  19 C :    0.095818
  20 S :    0.025997
  21 C :    0.106310
  22 S :    0.032206
  23 C :    0.013419
  24 C :   -0.014498
  25 C :   -0.283222
  26 C :   -0.042462
  27 C :   -0.041681
  28 C :    0.367479
  29 S :    0.058747
  30 C :    0.141900
  31 C :   -0.379677
  32 C :   -0.190886
  33 C :   -0.066138
  34 C :    0.021776
  35 C :    0.098001
  36 C :    0.119669
  37 C :    0.231538
  38 C :   -0.261000
  39 C :    0.113538
  40 C :    0.167796
  41 C :   -0.328642
  42 Cl:   -0.060904
  43 Cl:   -0.050636
  44 O :   -0.367795
  45 C :    0.160210
  46 C :   -0.207938
  47 C :   -0.194154
  48 C :   -0.219637
  49 C :   -0.169978
  50 C :   -0.372723
  51 C :   -0.365913
  52 C :   -0.226500
  53 C :   -0.157480
  54 C :   -0.381991
  55 C :   -0.360573
  56 O :   -0.289097
  57 Cl:   -0.051465
  58 Cl:   -0.058611
  59 C :    0.125154
  60 C :   -0.207953
  61 C :   -0.184672
  62 N :   -0.003363
  63 N :    0.006307
  64 N :    0.005770
  65 N :    0.010546
  66 H :    0.160653
  67 H :    0.143884
  68 H :    0.150452
  69 H :    0.141273
  70 H :    0.133346
  71 H :    0.135076
  72 H :    0.234239
  73 H :    0.172707
  74 H :    0.161247
  75 H :    0.138812
  76 H :    0.107601
  77 H :    0.093450
  78 H :    0.106809
  79 H :    0.093271
  80 H :    0.130016
  81 H :    0.121234
  82 H :    0.111486
  83 H :    0.126531
  84 H :    0.118387
  85 H :    0.120297
  86 H :    0.100593
  87 H :    0.096163
  88 H :    0.121020
  89 H :    0.091357
  90 H :    0.133372
  91 H :    0.122581
  92 H :    0.108620
  93 H :    0.121150
  94 H :    0.118500
  95 H :    0.120420
Sum of atomic charges:   -0.0000000

LOEWDIN ATOMIC CHARGES
----------------------
   0 C :   -0.081234
   1 C :   -0.413836
   2 C :   -0.417194
   3 C :   -0.074277
   4 C :   -0.059814
   5 C :   -0.039988
   6 C :   -0.248742
   7 C :   -0.089772
   8 C :    0.001559
   9 C :   -0.061074
  10 C :   -0.327013
  11 C :   -0.093007
  12 C :   -0.078365
  13 C :   -0.314500
  14 S :    0.810731
  15 C :   -0.170150
  16 C :   -0.079430
  17 C :   -0.326986
  18 C :   -0.122061
  19 C :   -0.333131
  20 S :    0.770488
  21 C :   -0.334458
  22 S :    0.766477
  23 C :   -0.325989
  24 C :   -0.082310
  25 C :   -0.123878
  26 C :   -0.317758
  27 C :   -0.083693
  28 C :   -0.172307
  29 S :    0.783007
  30 C :   -0.312324
  31 C :   -0.090463
  32 C :   -0.072409
  33 C :   -0.082082
  34 C :    0.017813
  35 C :   -0.040091
  36 C :   -0.064230
  37 C :   -0.243468
  38 C :   -0.078820
  39 C :   -0.415420
  40 C :   -0.418939
  41 C :   -0.075479
  42 Cl:    0.431712
  43 Cl:    0.436325
  44 O :    0.112127
  45 C :   -0.136958
  46 C :   -0.153509
  47 C :   -0.159296
  48 C :   -0.221027
  49 C :   -0.219150
  50 C :   -0.298099
  51 C :   -0.296124
  52 C :   -0.225214
  53 C :   -0.217903
  54 C :   -0.299822
  55 C :   -0.297805
  56 O :    0.132025
  57 Cl:    0.436625
  58 Cl:    0.432805
  59 C :   -0.149930
  60 C :   -0.153552
  61 C :   -0.161869
  62 N :    0.075607
  63 N :    0.072588
  64 N :    0.071372
  65 N :    0.068828
  66 H :    0.164921
  67 H :    0.163097
  68 H :    0.174545
  69 H :    0.154213
  70 H :    0.148567
  71 H :    0.148433
  72 H :    0.160942
  73 H :    0.173569
  74 H :    0.165877
  75 H :    0.161695
  76 H :    0.142396
  77 H :    0.140781
  78 H :    0.146332
  79 H :    0.140179
  80 H :    0.125292
  81 H :    0.124164
  82 H :    0.119201
  83 H :    0.125450
  84 H :    0.122061
  85 H :    0.123013
  86 H :    0.140222
  87 H :    0.142084
  88 H :    0.151486
  89 H :    0.139951
  90 H :    0.124966
  91 H :    0.125832
  92 H :    0.116457
  93 H :    0.124201
  94 H :    0.122038
  95 H :    0.122895

  Mayer bond orders larger than 0.100000
B(  0-C ,  1-C ) :   1.3825 B(  0-C ,  5-C ) :   1.3861 B(  0-C , 66-H ) :   0.9332
B(  1-C ,  2-C ) :   1.2550 B(  1-C , 57-Cl) :   1.0845 B(  2-C ,  3-C ) :   1.3389
B(  2-C , 58-Cl) :   1.0506 B(  3-C ,  4-C ) :   1.3788 B(  3-C , 67-H ) :   0.9785
B(  4-C ,  5-C ) :   1.3244 B(  4-C ,  6-C ) :   0.9541 B(  4-C , 56-O ) :  -0.1505
B(  5-C ,  8-C ) :   1.0333 B(  6-C ,  7-C ) :   1.0025 B(  6-C , 56-O ) :   2.1700
B(  7-C ,  8-C ) :   1.1536 B(  7-C ,  9-C ) :   1.4985 B(  7-C , 56-O ) :  -0.1299
B(  8-C , 59-C ) :   1.4274 B(  9-C , 10-C ) :   1.1167 B(  9-C , 56-O ) :   0.1041
B(  9-C , 68-H ) :   0.9477 B( 10-C , 11-C ) :   1.3791 B( 10-C , 14-S ) :   1.1444
B( 11-C , 12-C ) :   1.3137 B( 11-C , 14-S ) :   0.1248 B( 11-C , 69-H ) :   0.9669
B( 12-C , 13-C ) :   1.3239 B( 12-C , 15-C ) :   1.1033 B( 13-C , 14-S ) :   1.3563
B( 13-C , 17-C ) :   1.0325 B( 15-C , 16-C ) :   1.1015 B( 15-C , 52-C ) :   0.7736
B( 15-C , 53-C ) :   0.8478 B( 16-C , 17-C ) :   1.3167 B( 16-C , 18-C ) :   1.3113
B( 17-C , 20-S ) :   1.3379 B( 18-C , 19-C ) :   1.4297 B( 18-C , 20-S ) :   0.1117
B( 18-C , 70-H ) :   0.9291 B( 19-C , 20-S ) :   1.2312 B( 19-C , 21-C ) :   1.1375
B( 21-C , 22-S ) :   1.2275 B( 21-C , 25-C ) :   1.4369 B( 22-S , 23-C ) :   1.3438
B( 22-S , 25-C ) :   0.1110 B( 23-C , 24-C ) :   1.2990 B( 23-C , 26-C ) :   1.0220
B( 24-C , 25-C ) :   1.3220 B( 24-C , 28-C ) :   1.0821 B( 25-C , 71-H ) :   0.9233
B( 26-C , 27-C ) :   1.2754 B( 26-C , 29-S ) :   1.4178 B( 27-C , 28-C ) :   1.1251
B( 27-C , 31-C ) :   1.3106 B( 28-C , 48-C ) :   0.7940 B( 28-C , 49-C ) :   0.8364
B( 29-S , 30-C ) :   1.1697 B( 29-S , 31-C ) :   0.1504 B( 30-C , 31-C ) :   1.4212
B( 30-C , 32-C ) :   1.3391 B( 31-C , 72-H ) :   0.8869 B( 32-C , 33-C ) :   1.3965
B( 32-C , 73-H ) :   0.8732 B( 33-C , 34-C ) :   1.1660 B( 33-C , 37-C ) :   1.0190
B( 34-C , 35-C ) :   1.0299 B( 34-C , 45-C ) :   1.4622 B( 35-C , 36-C ) :   1.3474
B( 35-C , 38-C ) :   1.4030 B( 36-C , 37-C ) :   1.0312 B( 36-C , 41-C ) :   1.3746
B( 36-C , 44-O ) :  -0.1707 B( 37-C , 44-O ) :   1.9963 B( 38-C , 39-C ) :   1.3755
B( 38-C , 74-H ) :   0.9209 B( 39-C , 40-C ) :   1.2553 B( 39-C , 43-Cl) :   1.1039
B( 40-C , 41-C ) :   1.3439 B( 40-C , 42-Cl) :   1.0427 B( 41-C , 44-O ) :   0.1022
B( 41-C , 75-H ) :   0.9811 B( 45-C , 46-C ) :   1.0196 B( 45-C , 47-C ) :   1.0270
B( 46-C , 64-N ) :   2.9737 B( 47-C , 65-N ) :   2.9707 B( 48-C , 51-C ) :   0.9808
B( 48-C , 76-H ) :   0.9615 B( 48-C , 77-H ) :   0.9594 B( 49-C , 50-C ) :   0.9615
B( 49-C , 78-H ) :   0.9653 B( 49-C , 79-H ) :   0.9586 B( 50-C , 80-H ) :   0.9750
B( 50-C , 81-H ) :   0.9737 B( 50-C , 82-H ) :   0.9727 B( 51-C , 83-H ) :   0.9712
B( 51-C , 84-H ) :   0.9763 B( 51-C , 85-H ) :   0.9723 B( 52-C , 55-C ) :   0.9847
B( 52-C , 86-H ) :   0.9647 B( 52-C , 87-H ) :   0.9594 B( 53-C , 54-C ) :   0.9539
B( 53-C , 88-H ) :   0.9596 B( 53-C , 89-H ) :   0.9583 B( 54-C , 90-H ) :   0.9737
B( 54-C , 91-H ) :   0.9737 B( 54-C , 92-H ) :   0.9733 B( 55-C , 93-H ) :   0.9718
B( 55-C , 94-H ) :   0.9770 B( 55-C , 95-H ) :   0.9718 B( 59-C , 60-C ) :   1.0447
B( 59-C , 61-C ) :   1.0322 B( 60-C , 63-N ) :   2.9809 B( 61-C , 62-N ) :   2.9630

-----------------------------------------------------------------------------
         ABSORPTION SPECTRUM VIA TRANSITION ELECTRIC DIPOLE MOMENTS
-----------------------------------------------------------------------------
State   Energy    Wavelength  fosc         T2        TX        TY        TZ
        (cm-1)      (nm)                 (au**2)    (au)      (au)      (au)
-----------------------------------------------------------------------------
   1   13768.7    726.3   2.686584809  64.23671   4.69964  -5.77880  -2.95897
   2   16271.9    614.6   0.364228472   7.36905   0.99339  -2.11344  -1.38405
   3   18570.2    538.5   0.417440120   7.40037   1.07145  -2.22939  -1.13235
   4   18863.9    530.1   0.018631000   0.32515  -0.11791  -0.16031  -0.53436
   5   21099.8    473.9   0.261870509   4.08587   0.80237   1.45154   1.15546
   6   22149.4    451.5   0.332737556   4.94556   0.42451  -1.66418  -1.41275
   7   23342.6    428.4   0.004993808   0.07043  -0.18184  -0.11913   0.15223
   8   23902.0    418.4   0.014122483   0.19452   0.34989   0.25044  -0.09681
   9   24656.7    405.6   0.026821974   0.35812   0.10740  -0.58427  -0.07223
  10   25184.8    397.1   0.079164896   1.03483  -0.36892  -0.89025  -0.32587
  11   25236.7    396.2   0.005556927   0.07249  -0.09214  -0.23030  -0.10469
  12   25279.5    395.6   0.029452841   0.38356  -0.14591  -0.60160  -0.01860
  13   25453.4    392.9   0.088958970   1.15058  -1.01804   0.18705   0.28142
  14   26945.2    371.1   0.025253973   0.30855   0.48724  -0.06698  -0.25818
  15   27223.6    367.3   0.011014416   0.13320  -0.03970  -0.35102  -0.09168
  16   27276.8    366.6   0.000030421   0.00037  -0.01350  -0.00796  -0.01102
  17   27527.0    363.3   0.030409654   0.36369  -0.27930  -0.52304   0.11002
  18   27807.9    359.6   0.002738830   0.03242   0.09630   0.11829  -0.09570
  19   27913.5    358.2   0.033976456   0.40072   0.29615  -0.32932  -0.45228
  20   28375.8    352.4   0.005379979   0.06242  -0.06095  -0.23968  -0.03542
  21   28595.9    349.7   0.058044717   0.66824  -0.54477  -0.59344  -0.13894
  22   28844.9    346.7   0.016691981   0.19051  -0.23705   0.11762   0.34710
  23   28970.3    345.2   0.042835534   0.48677  -0.64082  -0.23871   0.13833
  24   29024.7    344.5   0.015141461   0.17174   0.39758  -0.04249  -0.10893
  25   29596.4    337.9   0.037527676   0.41743   0.61405   0.06932  -0.18860
  26   30061.5    332.7   0.029286590   0.32073   0.41764   0.35313  -0.14695
  27   30209.0    331.0   0.000712676   0.00777  -0.02637  -0.08371  -0.00801
  28   30359.0    329.4   0.039731179   0.43084  -0.03784  -0.64079  -0.13713
  29   30816.1    324.5   0.006400539   0.06838   0.12921  -0.14569  -0.17452
  30   30920.5    323.4   0.050738280   0.54021  -0.57574  -0.26085   0.37509
  31   31149.8    321.0   0.050688392   0.53571   0.35887  -0.23516  -0.59297
  32   31202.0    320.5   0.007144129   0.07538  -0.23674  -0.05091   0.12938
  33   31395.1    318.5   0.020259373   0.21244  -0.21592   0.19633   0.35676
  34   31575.4    316.7   0.185896973   1.93820   0.19312  -1.21248  -0.65634
  35   31715.8    315.3   0.291715807   3.02803   1.30809   0.58966  -0.98449
  36   31849.3    314.0   0.099331442   1.02674   0.61129   0.79548   0.14241
  37   32126.0    311.3   0.017851077   0.18293   0.31781   0.27883   0.06467
  38   32210.0    310.5   0.084544404   0.86411  -0.66341   0.24556   0.60307
  39   32451.8    308.1   0.021825152   0.22141  -0.33400  -0.31603   0.09987
  40   32583.2    306.9   0.006863271   0.06934  -0.16561   0.18356   0.09068
  41   32755.0    305.3   0.069509213   0.69862   0.68292   0.17181  -0.45025
  42   32868.0    304.2   0.014011166   0.14034  -0.22009  -0.10564   0.28415
  43   33185.8    301.3   0.093421225   0.92676  -0.79376  -0.34924   0.41802
  44   33386.2    299.5   0.010342350   0.10198   0.05926  -0.20090  -0.24106
  45   33825.4    295.6   0.001418105   0.01380  -0.04128  -0.02999   0.10582
  46   34081.6    293.4   0.008393646   0.08108   0.22193  -0.12736  -0.12492
  47   34150.6    292.8   0.032918822   0.31734   0.16516   0.49451   0.21335
  48   34388.2    290.8   0.067855538   0.64961  -0.30361   0.35660   0.65595
  49   34490.9    289.9   0.001463163   0.01397   0.03193  -0.09046   0.06902
  50   34704.7    288.1   0.039785522   0.37741   0.52813   0.31331  -0.01811

FINAL SINGLE POINT ENERGY     -5801.563607028990

DIPOLE MOMENT
-------------
                                X             Y             Z
Electronic contribution:    -42.47397     -39.96427     -16.80598
Nuclear contribution   :     42.18295      41.06498      19.65509
                        -----------------------------------------
Total Dipole Moment    :     -0.29102       1.10071       2.84911
                        -----------------------------------------
Magnitude (a.u.)       :      3.06817
Magnitude (Debye)      :      7.79868

Rotational constants in cm-1:     0.001911     0.000217     0.000201
Rotational constants in MHz :    57.296606     6.512111     6.023367

                             ****ORCA TERMINATED NORMALLY****
TOTAL RUN TIME: 0 days 4 hours 19 minutes 59 seconds 735 msec
