                         Program Version 4.2.0 -  RELEASE  -
|  1> # ORCA input file
|  2> # CPDT-4Cl.out
|  3> ! B3LYP def2-TZVP def2/J RIJCOSX Grid4 TightSCF
|  4> %maxcore 1000
|  5> %tddft
|  6>   maxdim 5
|  7>   nroots 50
|  8>   end
|  9> * xyz 0 1
| 10>    C       -0.47958         2.35315         1.88131
| 11>    C       -1.44729         2.66122         2.83175
| 12>    C       -1.22389         3.64691         3.79941
| 13>    C       -0.01640         4.33437         3.83725
| 14>    C        0.94626         4.01869         2.90080
| 15>    C        0.72261         3.03719         1.91756
| 16>    C        2.31003         4.57564         2.74314
| 17>    C        2.93464         3.75527         1.67607
| 18>    C        1.89700         2.96695         1.05113
| 19>    C        4.28613         3.78857         1.48512
| 20>    C        5.11109         2.82754         0.86824
| 21>    C        6.38294         3.05212         0.34867
| 22>    C        6.94888         1.91203        -0.19087
| 23>    C        6.14286         0.77918        -0.01336
| 24>    S        4.65508         1.13130         0.75126
| 25>    C        8.22098         1.54799        -0.91642
| 26>    C        8.04904         0.05240        -1.03998
| 27>    C        6.81768        -0.34978        -0.51712
| 28>    C        8.77270        -0.99972        -1.58022
| 29>    C        8.10891        -2.21219        -1.46057
| 30>    S        6.55465        -2.03966        -0.66714
| 31>    C        8.53923        -3.47924        -1.92007
| 32>    S       10.00773        -3.61990        -2.86665
| 33>    C        9.75062        -5.31152        -3.01589
| 34>    C        8.59815        -5.74178        -2.35349
| 35>    C        7.91194        -4.70399        -1.74111
| 36>    C       10.36916        -6.41561        -3.63267
| 37>    C        9.61215        -7.57117        -3.36247
| 38>    C        8.39969        -7.22888        -2.52950
| 39>    S       11.74686        -6.73299        -4.58464
| 40>    C       11.32464        -8.45236        -4.63766
| 41>    C       10.15994        -8.71005        -3.91140
| 42>    C       12.18073        -9.26842        -5.38775
| 43>    C       12.13407       -10.60602        -5.70608
| 44>    C       13.12969       -11.25978        -6.53869
| 45>    C       12.68939       -12.63620        -6.76153
| 46>    C       11.49466       -12.84472        -6.05533
| 47>    C       11.10230       -11.60213        -5.35732
| 48>    C       13.23445       -13.67188        -7.50281
| 49>    C       12.57711       -14.89749        -7.52062
| 50>    C       11.39050       -15.09630        -6.80721
| 51>    C       10.83998       -14.05894        -6.06560
| 52>   Cl       10.60861       -16.62479        -6.84791
| 53>   Cl       13.24475       -16.18506        -8.44093
| 54>    O       10.11778       -11.47928        -4.65563
| 55>    C       14.29714       -10.73106        -7.02751
| 56>    C       15.20687       -11.44249        -7.83948
| 57>    C       14.79593        -9.43011        -6.80293
| 58>    C        8.40160        -7.97577        -1.18573
| 59>    C        7.08268        -7.44958        -3.30683
| 60>    C        6.77539        -8.89891        -3.65787
| 61>    C        9.62103        -7.64849        -0.33160
| 62>    C        9.47990         1.92588        -0.12186
| 63>    C        8.24248         2.13887        -2.34570
| 64>    C        8.13406         3.65558        -2.41510
| 65>    C        9.52881         1.26277         1.24984
| 66>    O        2.82552         5.46938         3.37366
| 67>   Cl       -2.93853         1.81049         2.80865
| 68>   Cl       -2.44568         4.01076         4.95011
| 69>    C        1.90366         2.49990        -0.23837
| 70>    C        0.82096         1.82455        -0.83533
| 71>    C        2.96435         2.73717        -1.13684
| 72>    N        3.78880         2.95667        -1.90528
| 73>    N       -0.02579         1.25352        -1.35912
| 74>    N       15.99193       -11.95168        -8.50442
| 75>    N       15.29439        -8.40318        -6.67117
| 76>    H       -0.67980         1.58710         1.14972
| 77>    H        0.16470         5.09629         4.57876
| 78>    H        4.79831         4.63545         1.93227
| 79>    H        6.83046         4.02937         0.35544
| 80>    H        9.74081        -0.92049        -2.04142
| 81>    H        6.99906        -4.80222        -1.18137
| 82>    H        9.77207        -9.70668        -3.81257
| 83>    H       13.01692        -8.72141        -5.80648
| 84>    H       14.14544       -13.56016        -8.06678
| 85>    H        9.92476       -14.19497        -5.51147
| 86>    H        8.38658        -9.04705        -1.38568
| 87>    H        7.49282        -7.71355        -0.64055
| 88>    H        7.13446        -6.86337        -4.22796
| 89>    H        6.26867        -7.04384        -2.70205
| 90>    H        7.56149        -9.32985        -4.27041
| 91>    H        5.84604        -8.94032        -4.22131
| 92>    H        6.65408        -9.50574        -2.76529
| 93>    H       10.53867        -7.90146        -0.85798
| 94>    H        9.58987        -8.21932         0.59307
| 95>    H        9.64900        -6.59062        -0.07969
| 96>    H        9.50387         3.00852         0.00436
| 97>    H       10.35728         1.63094        -0.70058
| 98>    H        7.40826         1.70588        -2.90231
| 99>    H        9.16889         1.81343        -2.82371
|100>    H        7.16750         3.98777        -2.04726
|101>    H        8.22631         3.97300        -3.45096
|102>    H        8.92076         4.14002        -1.84293
|103>    H        8.66609         1.54879         1.84741
|104>    H       10.42817         1.56777         1.77892
|105>    H        9.53758         0.17915         1.15631
|106> *
|107>
|108>                          ****END OF INPUT****

CARTESIAN COORDINATES (ANGSTROEM)
---------------------------------
  C     -0.479580    2.353150    1.881310
  C     -1.447290    2.661220    2.831750
  C     -1.223890    3.646910    3.799410
  C     -0.016400    4.334370    3.837250
  C      0.946260    4.018690    2.900800
  C      0.722610    3.037190    1.917560
  C      2.310030    4.575640    2.743140
  C      2.934640    3.755270    1.676070
  C      1.897000    2.966950    1.051130
  C      4.286130    3.788570    1.485120
  C      5.111090    2.827540    0.868240
  C      6.382940    3.052120    0.348670
  C      6.948880    1.912030   -0.190870
  C      6.142860    0.779180   -0.013360
  S      4.655080    1.131300    0.751260
  C      8.220980    1.547990   -0.916420
  C      8.049040    0.052400   -1.039980
  C      6.817680   -0.349780   -0.517120
  C      8.772700   -0.999720   -1.580220
  C      8.108910   -2.212190   -1.460570
  S      6.554650   -2.039660   -0.667140
  C      8.539230   -3.479240   -1.920070
  S     10.007730   -3.619900   -2.866650
  C      9.750620   -5.311520   -3.015890
  C      8.598150   -5.741780   -2.353490
  C      7.911940   -4.703990   -1.741110
  C     10.369160   -6.415610   -3.632670
  C      9.612150   -7.571170   -3.362470
  C      8.399690   -7.228880   -2.529500
  S     11.746860   -6.732990   -4.584640
  C     11.324640   -8.452360   -4.637660
  C     10.159940   -8.710050   -3.911400
  C     12.180730   -9.268420   -5.387750
  C     12.134070  -10.606020   -5.706080
  C     13.129690  -11.259780   -6.538690
  C     12.689390  -12.636200   -6.761530
  C     11.494660  -12.844720   -6.055330
  C     11.102300  -11.602130   -5.357320
  C     13.234450  -13.671880   -7.502810
  C     12.577110  -14.897490   -7.520620
  C     11.390500  -15.096300   -6.807210
  C     10.839980  -14.058940   -6.065600
  Cl    10.608610  -16.624790   -6.847910
  Cl    13.244750  -16.185060   -8.440930
  O     10.117780  -11.479280   -4.655630
  C     14.297140  -10.731060   -7.027510
  C     15.206870  -11.442490   -7.839480
  C     14.795930   -9.430110   -6.802930
  C      8.401600   -7.975770   -1.185730
  C      7.082680   -7.449580   -3.306830
  C      6.775390   -8.898910   -3.657870
  C      9.621030   -7.648490   -0.331600
  C      9.479900    1.925880   -0.121860
  C      8.242480    2.138870   -2.345700
  C      8.134060    3.655580   -2.415100
  C      9.528810    1.262770    1.249840
  O      2.825520    5.469380    3.373660
  Cl    -2.938530    1.810490    2.808650
  Cl    -2.445680    4.010760    4.950110
  C      1.903660    2.499900   -0.238370
  C      0.820960    1.824550   -0.835330
  C      2.964350    2.737170   -1.136840
  N      3.788800    2.956670   -1.905280
  N     -0.025790    1.253520   -1.359120
  N     15.991930  -11.951680   -8.504420
  N     15.294390   -8.403180   -6.671170
  H     -0.679800    1.587100    1.149720
  H      0.164700    5.096290    4.578760
  H      4.798310    4.635450    1.932270
  H      6.830460    4.029370    0.355440
  H      9.740810   -0.920490   -2.041420
  H      6.999060   -4.802220   -1.181370
  H      9.772070   -9.706680   -3.812570
  H     13.016920   -8.721410   -5.806480
  H     14.145440  -13.560160   -8.066780
  H      9.924760  -14.194970   -5.511470
  H      8.386580   -9.047050   -1.385680
  H      7.492820   -7.713550   -0.640550
  H      7.134460   -6.863370   -4.227960
  H      6.268670   -7.043840   -2.702050
  H      7.561490   -9.329850   -4.270410
  H      5.846040   -8.940320   -4.221310
  H      6.654080   -9.505740   -2.765290
  H     10.538670   -7.901460   -0.857980
  H      9.589870   -8.219320    0.593070
  H      9.649000   -6.590620   -0.079690
  H      9.503870    3.008520    0.004360
  H     10.357280    1.630940   -0.700580
  H      7.408260    1.705880   -2.902310
  H      9.168890    1.813430   -2.823710
  H      7.167500    3.987770   -2.047260
  H      8.226310    3.973000   -3.450960
  H      8.920760    4.140020   -1.842930
  H      8.666090    1.548790    1.847410
  H     10.428170    1.567770    1.778920
  H      9.537580    0.179150    1.156310

 Total Charge           Charge          ....    0
 Multiplicity           Mult            ....    1
 Number of Electrons    NEL             ....  518
 Basis Dimension        Dim             .... 2274

ORBITAL ENERGIES
----------------

  NO   OCC          E(Eh)            E(eV)
   0   2.0000    -101.549157     -2763.2931
   1   2.0000    -101.548422     -2763.2730
   2   2.0000    -101.546998     -2763.2343
   3   2.0000    -101.544616     -2763.1695
   4   2.0000     -88.922133     -2419.6943
   5   2.0000     -88.922026     -2419.6913
   6   2.0000     -88.916934     -2419.5528
   7   2.0000     -88.916566     -2419.5428
   8   2.0000     -19.132846      -520.6312
   9   2.0000     -19.131625      -520.5980
  10   2.0000     -14.328703      -389.9038
  11   2.0000     -14.328647      -389.9023
  12   2.0000     -14.327583      -389.8734
  13   2.0000     -14.323272      -389.7560
  14   2.0000     -10.278728      -279.6984
  15   2.0000     -10.277523      -279.6656
  16   2.0000     -10.272730      -279.5352
  17   2.0000     -10.271793      -279.5097
  18   2.0000     -10.269097      -279.4363
  19   2.0000     -10.268514      -279.4205
  20   2.0000     -10.256707      -279.0992
  21   2.0000     -10.255198      -279.0581
  22   2.0000     -10.252985      -278.9979
  23   2.0000     -10.251632      -278.9611
  24   2.0000     -10.251554      -278.9590
  25   2.0000     -10.250428      -278.9283
  26   2.0000     -10.247093      -278.8376
  27   2.0000     -10.246078      -278.8100
  28   2.0000     -10.240425      -278.6561
  29   2.0000     -10.239923      -278.6425
  30   2.0000     -10.238380      -278.6005
  31   2.0000     -10.237638      -278.5803
  32   2.0000     -10.230234      -278.3788
  33   2.0000     -10.229505      -278.3590
  34   2.0000     -10.228634      -278.3353
  35   2.0000     -10.227032      -278.2917
  36   2.0000     -10.226812      -278.2857
  37   2.0000     -10.226647      -278.2812
  38   2.0000     -10.224860      -278.2326
  39   2.0000     -10.223604      -278.1984
  40   2.0000     -10.223019      -278.1825
  41   2.0000     -10.222290      -278.1626
  42   2.0000     -10.220237      -278.1068
  43   2.0000     -10.220180      -278.1052
  44   2.0000     -10.216834      -278.0142
  45   2.0000     -10.215979      -277.9909
  46   2.0000     -10.215913      -277.9891
  47   2.0000     -10.215727      -277.9841
  48   2.0000     -10.215659      -277.9822
  49   2.0000     -10.215222      -277.9703
  50   2.0000     -10.213651      -277.9276
  51   2.0000     -10.213506      -277.9236
  52   2.0000     -10.212655      -277.9005
  53   2.0000     -10.211704      -277.8746
  54   2.0000     -10.211208      -277.8611
  55   2.0000     -10.210122      -277.8316
  56   2.0000     -10.208983      -277.8005
  57   2.0000     -10.203865      -277.6613
  58   2.0000     -10.194992      -277.4198
  59   2.0000     -10.193343      -277.3750
  60   2.0000     -10.193125      -277.3690
  61   2.0000     -10.192019      -277.3389
  62   2.0000     -10.174675      -276.8670
  63   2.0000     -10.172762      -276.8149
  64   2.0000     -10.171648      -276.7846
  65   2.0000     -10.171477      -276.7800
  66   2.0000      -9.481746      -258.0114
  67   2.0000      -9.481030      -257.9920
  68   2.0000      -9.479597      -257.9529
  69   2.0000      -9.477232      -257.8886
  70   2.0000      -7.998304      -217.6449
  71   2.0000      -7.998238      -217.6431
  72   2.0000      -7.993473      -217.5135
  73   2.0000      -7.992717      -217.4929
  74   2.0000      -7.243381      -197.1024
  75   2.0000      -7.242683      -197.0834
  76   2.0000      -7.241215      -197.0435
  77   2.0000      -7.238882      -196.9800
  78   2.0000      -7.235032      -196.8752
  79   2.0000      -7.234310      -196.8556
  80   2.0000      -7.234243      -196.8537
  81   2.0000      -7.233503      -196.8336
  82   2.0000      -7.232884      -196.8168
  83   2.0000      -7.232101      -196.7955
  84   2.0000      -7.230510      -196.7522
  85   2.0000      -7.229712      -196.7305
  86   2.0000      -5.960824      -162.2023
  87   2.0000      -5.960771      -162.2008
  88   2.0000      -5.957100      -162.1009
  89   2.0000      -5.957017      -162.0987
  90   2.0000      -5.955932      -162.0691
  91   2.0000      -5.955071      -162.0457
  92   2.0000      -5.954865      -162.0401
  93   2.0000      -5.954798      -162.0383
  94   2.0000      -5.952191      -161.9674
  95   2.0000      -5.951415      -161.9462
  96   2.0000      -5.950064      -161.9095
  97   2.0000      -5.949506      -161.8943
  98   2.0000      -1.063627       -28.9428
  99   2.0000      -1.062266       -28.9057
 100   2.0000      -0.956257       -26.0211
 101   2.0000      -0.952103       -25.9080
 102   2.0000      -0.950320       -25.8595
 103   2.0000      -0.947822       -25.7915
 104   2.0000      -0.940867       -25.6023
 105   2.0000      -0.938344       -25.5336
 106   2.0000      -0.925402       -25.1815
 107   2.0000      -0.921229       -25.0679
 108   2.0000      -0.920663       -25.0525
 109   2.0000      -0.913511       -24.8579
 110   2.0000      -0.909803       -24.7570
 111   2.0000      -0.904706       -24.6183
 112   2.0000      -0.883293       -24.0356
 113   2.0000      -0.880173       -23.9507
 114   2.0000      -0.874950       -23.8086
 115   2.0000      -0.863531       -23.4979
 116   2.0000      -0.855138       -23.2695
 117   2.0000      -0.852714       -23.2035
 118   2.0000      -0.832396       -22.6507
 119   2.0000      -0.829142       -22.5621
 120   2.0000      -0.818749       -22.2793
 121   2.0000      -0.809160       -22.0184
 122   2.0000      -0.793060       -21.5803
 123   2.0000      -0.786620       -21.4050
 124   2.0000      -0.784087       -21.3361
 125   2.0000      -0.783162       -21.3109
 126   2.0000      -0.779786       -21.2191
 127   2.0000      -0.778388       -21.1810
 128   2.0000      -0.777083       -21.1455
 129   2.0000      -0.774762       -21.0823
 130   2.0000      -0.772557       -21.0223
 131   2.0000      -0.768863       -20.9218
 132   2.0000      -0.746761       -20.3204
 133   2.0000      -0.726007       -19.7557
 134   2.0000      -0.712555       -19.3896
 135   2.0000      -0.703702       -19.1487
 136   2.0000      -0.699534       -19.0353
 137   2.0000      -0.694699       -18.9037
 138   2.0000      -0.691912       -18.8279
 139   2.0000      -0.678825       -18.4718
 140   2.0000      -0.661055       -17.9882
 141   2.0000      -0.644243       -17.5307
 142   2.0000      -0.639250       -17.3949
 143   2.0000      -0.638464       -17.3735
 144   2.0000      -0.631887       -17.1945
 145   2.0000      -0.628238       -17.0952
 146   2.0000      -0.625176       -17.0119
 147   2.0000      -0.618783       -16.8379
 148   2.0000      -0.617126       -16.7929
 149   2.0000      -0.610836       -16.6217
 150   2.0000      -0.604129       -16.4392
 151   2.0000      -0.587396       -15.9839
 152   2.0000      -0.580734       -15.8026
 153   2.0000      -0.578743       -15.7484
 154   2.0000      -0.574282       -15.6270
 155   2.0000      -0.568607       -15.4726
 156   2.0000      -0.565301       -15.3826
 157   2.0000      -0.556605       -15.1460
 158   2.0000      -0.553231       -15.0542
 159   2.0000      -0.546162       -14.8618
 160   2.0000      -0.543407       -14.7869
 161   2.0000      -0.535551       -14.5731
 162   2.0000      -0.525786       -14.3074
 163   2.0000      -0.517507       -14.0821
 164   2.0000      -0.512417       -13.9436
 165   2.0000      -0.507929       -13.8214
 166   2.0000      -0.503199       -13.6928
 167   2.0000      -0.497838       -13.5469
 168   2.0000      -0.494312       -13.4509
 169   2.0000      -0.489755       -13.3269
 170   2.0000      -0.488454       -13.2915
 171   2.0000      -0.484557       -13.1855
 172   2.0000      -0.482444       -13.1280
 173   2.0000      -0.480700       -13.0805
 174   2.0000      -0.476339       -12.9618
 175   2.0000      -0.474756       -12.9188
 176   2.0000      -0.471832       -12.8392
 177   2.0000      -0.470036       -12.7903
 178   2.0000      -0.468364       -12.7448
 179   2.0000      -0.467766       -12.7286
 180   2.0000      -0.466483       -12.6936
 181   2.0000      -0.462987       -12.5985
 182   2.0000      -0.461265       -12.5517
 183   2.0000      -0.454728       -12.3738
 184   2.0000      -0.450888       -12.2693
 185   2.0000      -0.448323       -12.1995
 186   2.0000      -0.446495       -12.1498
 187   2.0000      -0.443716       -12.0741
 188   2.0000      -0.440246       -11.9797
 189   2.0000      -0.438672       -11.9369
 190   2.0000      -0.435811       -11.8590
 191   2.0000      -0.435026       -11.8377
 192   2.0000      -0.432339       -11.7645
 193   2.0000      -0.429996       -11.7008
 194   2.0000      -0.425181       -11.5698
 195   2.0000      -0.424252       -11.5445
 196   2.0000      -0.422946       -11.5090
 197   2.0000      -0.422105       -11.4861
 198   2.0000      -0.419039       -11.4026
 199   2.0000      -0.416484       -11.3331
 200   2.0000      -0.415615       -11.3095
 201   2.0000      -0.410879       -11.1806
 202   2.0000      -0.410021       -11.1572
 203   2.0000      -0.405921       -11.0457
 204   2.0000      -0.401401       -10.9227
 205   2.0000      -0.401061       -10.9134
 206   2.0000      -0.399093       -10.8599
 207   2.0000      -0.397430       -10.8146
 208   2.0000      -0.394320       -10.7300
 209   2.0000      -0.391320       -10.6484
 210   2.0000      -0.388548       -10.5729
 211   2.0000      -0.387176       -10.5356
 212   2.0000      -0.386498       -10.5171
 213   2.0000      -0.383988       -10.4489
 214   2.0000      -0.382288       -10.4026
 215   2.0000      -0.380478       -10.3533
 216   2.0000      -0.379540       -10.3278
 217   2.0000      -0.378647       -10.3035
 218   2.0000      -0.375562       -10.2195
 219   2.0000      -0.373906       -10.1745
 220   2.0000      -0.372887       -10.1468
 221   2.0000      -0.371062       -10.0971
 222   2.0000      -0.368189       -10.0189
 223   2.0000      -0.367476        -9.9995
 224   2.0000      -0.365720        -9.9517
 225   2.0000      -0.364915        -9.9298
 226   2.0000      -0.363917        -9.9027
 227   2.0000      -0.360640        -9.8135
 228   2.0000      -0.359128        -9.7724
 229   2.0000      -0.358679        -9.7602
 230   2.0000      -0.354201        -9.6383
 231   2.0000      -0.353825        -9.6281
 232   2.0000      -0.351710        -9.5705
 233   2.0000      -0.349796        -9.5184
 234   2.0000      -0.348150        -9.4736
 235   2.0000      -0.347218        -9.4483
 236   2.0000      -0.346016        -9.4156
 237   2.0000      -0.343565        -9.3489
 238   2.0000      -0.343127        -9.3370
 239   2.0000      -0.340960        -9.2780
 240   2.0000      -0.339827        -9.2472
 241   2.0000      -0.328371        -8.9354
 242   2.0000      -0.324266        -8.8237
 243   2.0000      -0.321385        -8.7453
 244   2.0000      -0.314659        -8.5623
 245   2.0000      -0.297253        -8.0887
 246   2.0000      -0.295961        -8.0535
 247   2.0000      -0.288562        -7.8522
 248   2.0000      -0.288414        -7.8481
 249   2.0000      -0.286470        -7.7952
 250   2.0000      -0.284002        -7.7281
 251   2.0000      -0.283298        -7.7089
 252   2.0000      -0.277692        -7.5564
 253   2.0000      -0.276640        -7.5278
 254   2.0000      -0.268649        -7.3103
 255   2.0000      -0.261909        -7.1269
 256   2.0000      -0.258584        -7.0364
 257   2.0000      -0.234796        -6.3891
 258   2.0000      -0.205374        -5.5885
 259   0.0000      -0.140442        -3.8216
 260   0.0000      -0.124854        -3.3975
 261   0.0000      -0.110802        -3.0151
 262   0.0000      -0.106922        -2.9095
 263   0.0000      -0.086807        -2.3621

MULLIKEN ATOMIC CHARGES
-----------------------
   0 C :   -0.266425
   1 C :    0.125475
   2 C :    0.165551
   3 C :   -0.306258
   4 C :    0.022469
   5 C :    0.130098
   6 C :    0.199041
   7 C :   -0.002613
   8 C :   -0.013057
   9 C :   -0.265212
  10 C :    0.235518
  11 C :   -0.292097
  12 C :   -0.072520
  13 C :   -0.028252
  14 S :    0.043741
  15 C :    0.373416
  16 C :   -0.023414
  17 C :    0.037870
  18 C :   -0.282310
  19 C :    0.104140
  20 S :    0.021397
  21 C :    0.126690
  22 S :    0.022827
  23 C :    0.031275
  24 C :   -0.011464
  25 C :   -0.292533
  26 C :   -0.060473
  27 C :   -0.074410
  28 C :    0.397285
  29 S :    0.055021
  30 C :    0.135305
  31 C :   -0.354212
  32 C :   -0.183000
  33 C :   -0.051439
  34 C :    0.015355
  35 C :    0.094111
  36 C :    0.131855
  37 C :    0.203872
  38 C :   -0.266680
  39 C :    0.117276
  40 C :    0.172697
  41 C :   -0.335112
  42 Cl:   -0.060060
  43 Cl:   -0.048947
  44 O :   -0.360905
  45 C :    0.163472
  46 C :   -0.233370
  47 C :   -0.235351
  48 C :   -0.230519
  49 C :   -0.166505
  50 C :   -0.373435
  51 C :   -0.361320
  52 C :   -0.216111
  53 C :   -0.149592
  54 C :   -0.382049
  55 C :   -0.357285
  56 O :   -0.286339
  57 Cl:   -0.049742
  58 Cl:   -0.057661
  59 C :    0.144808
  60 C :   -0.246214
  61 C :   -0.216484
  62 N :    0.026382
  63 N :    0.043808
  64 N :    0.042086
  65 N :    0.050148
  66 H :    0.154012
  67 H :    0.140480
  68 H :    0.145908
  69 H :    0.142308
  70 H :    0.131175
  71 H :    0.131554
  72 H :    0.222331
  73 H :    0.163076
  74 H :    0.158845
  75 H :    0.135356
  76 H :    0.111763
  77 H :    0.093541
  78 H :    0.104020
  79 H :    0.091836
  80 H :    0.132036
  81 H :    0.118630
  82 H :    0.114328
  83 H :    0.124922
  84 H :    0.117375
  85 H :    0.120533
  86 H :    0.098274
  87 H :    0.094678
  88 H :    0.112204
  89 H :    0.090274
  90 H :    0.145056
  91 H :    0.119595
  92 H :    0.106109
  93 H :    0.122196
  94 H :    0.116719
  95 H :    0.121246
Sum of atomic charges:    0.0000000

LOEWDIN ATOMIC CHARGES
----------------------
   0 C :   -0.078393
   1 C :   -0.428497
   2 C :   -0.431368
   3 C :   -0.072454
   4 C :   -0.056252
   5 C :   -0.042885
   6 C :   -0.256400
   7 C :   -0.091239
   8 C :   -0.003919
   9 C :   -0.059638
  10 C :   -0.329685
  11 C :   -0.092227
  12 C :   -0.084677
  13 C :   -0.314439
  14 S :    0.825533
  15 C :   -0.181201
  16 C :   -0.082817
  17 C :   -0.328275
  18 C :   -0.120106
  19 C :   -0.340526
  20 S :    0.781639
  21 C :   -0.338961
  22 S :    0.781735
  23 C :   -0.331671
  24 C :   -0.082013
  25 C :   -0.121353
  26 C :   -0.321955
  27 C :   -0.085488
  28 C :   -0.181379
  29 S :    0.794460
  30 C :   -0.319903
  31 C :   -0.088622
  32 C :   -0.072327
  33 C :   -0.082251
  34 C :    0.009262
  35 C :   -0.043502
  36 C :   -0.058659
  37 C :   -0.250754
  38 C :   -0.076471
  39 C :   -0.428630
  40 C :   -0.432252
  41 C :   -0.074500
  42 Cl:    0.446024
  43 Cl:    0.450888
  44 O :    0.119081
  45 C :   -0.135585
  46 C :   -0.165036
  47 C :   -0.173587
  48 C :   -0.216889
  49 C :   -0.215994
  50 C :   -0.291448
  51 C :   -0.288717
  52 C :   -0.217727
  53 C :   -0.212965
  54 C :   -0.292536
  55 C :   -0.289239
  56 O :    0.136394
  57 Cl:    0.452416
  58 Cl:    0.447598
  59 C :   -0.151001
  60 C :   -0.164760
  61 C :   -0.174972
  62 N :    0.086007
  63 N :    0.083710
  64 N :    0.082601
  65 N :    0.081511
  66 H :    0.163469
  67 H :    0.160736
  68 H :    0.173057
  69 H :    0.153785
  70 H :    0.146839
  71 H :    0.146686
  72 H :    0.158536
  73 H :    0.173906
  74 H :    0.165059
  75 H :    0.159268
  76 H :    0.143265
  77 H :    0.139820
  78 H :    0.145901
  79 H :    0.139248
  80 H :    0.124124
  81 H :    0.122191
  82 H :    0.118517
  83 H :    0.124071
  84 H :    0.119830
  85 H :    0.121785
  86 H :    0.139428
  87 H :    0.140033
  88 H :    0.150070
  89 H :    0.138611
  90 H :    0.125688
  91 H :    0.123439
  92 H :    0.114964
  93 H :    0.123104
  94 H :    0.119515
  95 H :    0.122348

  Mayer bond orders larger than 0.100000
B(  0-C ,  1-C ) :   1.3836 B(  0-C ,  5-C ) :   1.3865 B(  0-C , 66-H ) :   0.9404
B(  1-C ,  2-C ) :   1.2630 B(  1-C , 57-Cl) :   1.0814 B(  2-C ,  3-C ) :   1.3389
B(  2-C , 58-Cl) :   1.0480 B(  3-C ,  4-C ) :   1.3743 B(  3-C , 67-H ) :   0.9855
B(  4-C ,  5-C ) :   1.3294 B(  4-C ,  6-C ) :   0.9623 B(  4-C , 56-O ) :  -0.1568
B(  5-C ,  8-C ) :   1.0448 B(  6-C ,  7-C ) :   1.0061 B(  6-C , 56-O ) :   2.1894
B(  7-C ,  8-C ) :   1.1627 B(  7-C ,  9-C ) :   1.4840 B(  7-C , 56-O ) :  -0.1474
B(  8-C , 59-C ) :   1.4211 B(  9-C , 10-C ) :   1.1109 B(  9-C , 56-O ) :   0.1117
B(  9-C , 68-H ) :   0.9549 B( 10-C , 11-C ) :   1.3644 B( 10-C , 14-S ) :   1.1448
B( 11-C , 12-C ) :   1.3304 B( 11-C , 14-S ) :   0.1263 B( 11-C , 69-H ) :   0.9758
B( 12-C , 13-C ) :   1.3136 B( 12-C , 15-C ) :   1.1017 B( 13-C , 14-S ) :   1.3679
B( 13-C , 17-C ) :   1.0391 B( 15-C , 16-C ) :   1.1115 B( 15-C , 52-C ) :   0.7819
B( 15-C , 53-C ) :   0.8305 B( 16-C , 17-C ) :   1.2864 B( 16-C , 18-C ) :   1.3327
B( 17-C , 20-S ) :   1.3516 B( 18-C , 19-C ) :   1.4229 B( 18-C , 20-S ) :   0.1082
B( 18-C , 70-H ) :   0.9296 B( 19-C , 20-S ) :   1.2420 B( 19-C , 21-C ) :   1.1622
B( 21-C , 22-S ) :   1.2376 B( 21-C , 25-C ) :   1.4306 B( 22-S , 23-C ) :   1.3550
B( 22-S , 25-C ) :   0.1070 B( 23-C , 24-C ) :   1.2818 B( 23-C , 26-C ) :   1.0369
B( 24-C , 25-C ) :   1.3348 B( 24-C , 28-C ) :   1.0800 B( 25-C , 71-H ) :   0.9267
B( 26-C , 27-C ) :   1.2685 B( 26-C , 29-S ) :   1.4246 B( 27-C , 28-C ) :   1.1717
B( 27-C , 31-C ) :   1.3296 B( 28-C , 48-C ) :   0.7647 B( 28-C , 49-C ) :   0.8064
B( 29-S , 30-C ) :   1.1760 B( 29-S , 31-C ) :   0.1499 B( 30-C , 31-C ) :   1.4303
B( 30-C , 32-C ) :   1.3461 B( 31-C , 72-H ) :   0.8888 B( 32-C , 33-C ) :   1.4078
B( 32-C , 73-H ) :   0.8750 B( 33-C , 34-C ) :   1.1489 B( 33-C , 37-C ) :   1.0202
B( 34-C , 35-C ) :   1.0486 B( 34-C , 45-C ) :   1.4631 B( 35-C , 36-C ) :   1.3432
B( 35-C , 38-C ) :   1.4118 B( 36-C , 37-C ) :   1.0340 B( 36-C , 41-C ) :   1.3738
B( 36-C , 44-O ) :  -0.1758 B( 37-C , 44-O ) :   2.0115 B( 38-C , 39-C ) :   1.3783
B( 38-C , 74-H ) :   0.9211 B( 39-C , 40-C ) :   1.2624 B( 39-C , 43-Cl) :   1.1032
B( 40-C , 41-C ) :   1.3431 B( 40-C , 42-Cl) :   1.0414 B( 41-C , 42-Cl) :   0.1025
B( 41-C , 44-O ) :   0.1013 B( 41-C , 75-H ) :   0.9869 B( 45-C , 46-C ) :   1.0239
B( 45-C , 47-C ) :   1.0361 B( 46-C , 64-N ) :   2.9855 B( 47-C , 65-N ) :   2.9885
B( 48-C , 51-C ) :   0.9763 B( 48-C , 76-H ) :   0.9689 B( 48-C , 77-H ) :   0.9581
B( 49-C , 50-C ) :   0.9562 B( 49-C , 78-H ) :   0.9676 B( 49-C , 79-H ) :   0.9603
B( 50-C , 80-H ) :   0.9764 B( 50-C , 81-H ) :   0.9762 B( 50-C , 82-H ) :   0.9735
B( 51-C , 83-H ) :   0.9732 B( 51-C , 84-H ) :   0.9785 B( 51-C , 85-H ) :   0.9734
B( 52-C , 55-C ) :   0.9785 B( 52-C , 86-H ) :   0.9623 B( 52-C , 87-H ) :   0.9598
B( 53-C , 54-C ) :   0.9503 B( 53-C , 88-H ) :   0.9592 B( 53-C , 89-H ) :   0.9613
B( 54-C , 90-H ) :   0.9727 B( 54-C , 91-H ) :   0.9754 B( 54-C , 92-H ) :   0.9748
B( 55-C , 93-H ) :   0.9730 B( 55-C , 94-H ) :   0.9787 B( 55-C , 95-H ) :   0.9730
B( 59-C , 60-C ) :   1.0493 B( 59-C , 61-C ) :   1.0425 B( 60-C , 63-N ) :   2.9944
B( 61-C , 62-N ) :   2.9546

-----------------------------------------------------------------------------
         ABSORPTION SPECTRUM VIA TRANSITION ELECTRIC DIPOLE MOMENTS
-----------------------------------------------------------------------------
State   Energy    Wavelength  fosc         T2        TX        TY        TZ
        (cm-1)      (nm)                 (au**2)    (au)      (au)      (au)
-----------------------------------------------------------------------------
   1   13772.6    726.1   3.036708382  72.58775  -4.91457   6.19627   3.16876
   2   16223.3    616.4   0.322146705   6.53716   1.02595  -2.00258  -1.21420
   3   18369.3    544.4   0.423246608   7.58537   1.07698  -2.24061  -1.18539
   4   18718.6    534.2   0.009622112   0.16923   0.02124  -0.07952  -0.40306
   5   21291.5    469.7   0.208267130   3.22025   0.58476   1.41598   0.93451
   6   22309.1    448.2   0.237020011   3.49768   0.49756  -1.46755  -1.04709
   7   23364.7    428.0   0.007251796   0.10218   0.11063  -0.03598  -0.29773
   8   23918.6    418.1   0.015668597   0.21566  -0.26560  -0.37523   0.06574
   9   24701.7    404.8   0.035395095   0.47173   0.04776  -0.64322  -0.23605
  10   25188.7    397.0   0.037041885   0.48413   0.31486   0.60431   0.14072
  11   25268.7    395.7   0.019115771   0.24905  -0.04438   0.42792   0.25290
  12   25307.2    395.1   0.045856096   0.59652   0.15565   0.74673   0.12123
  13   25509.1    392.0   0.068219709   0.88042   0.85644   0.00664  -0.38326
  14   27182.9    367.9   0.018436563   0.22328   0.27352  -0.12692  -0.36382
  15   27361.8    365.5   0.005998785   0.07218  -0.18093  -0.19836   0.00964
  16   27464.9    364.1   0.000854463   0.01024   0.08029   0.05765  -0.02174
  17   27747.8    360.4   0.030817809   0.36564  -0.30104  -0.52171   0.05322
  18   27961.2    357.6   0.000794769   0.00936  -0.05973  -0.07373   0.01884
  19   28324.3    353.1   0.033984068   0.39500  -0.30023   0.30614   0.45949
  20   28736.3    348.0   0.002316354   0.02654   0.05883  -0.15191  -0.00073
  21   28843.8    346.7   0.059080934   0.67433   0.58608   0.56220   0.12153
  22   29126.5    343.3   0.004303211   0.04864  -0.09884  -0.04876   0.19103
  23   29234.7    342.1   0.022014828   0.24791  -0.37753  -0.13554   0.29497
  24   29460.4    339.4   0.033728566   0.37691   0.57924   0.04238  -0.19897
  25   29973.1    333.6   0.031135760   0.34198   0.56391   0.04622  -0.14784
  26   30313.3    329.9   0.018898223   0.20524  -0.33199  -0.28365   0.12070
  27   30538.0    327.5   0.001593207   0.01718  -0.11904  -0.02986   0.04598
  28   30853.5    324.1   0.049655195   0.52983   0.10068  -0.63561  -0.34014
  29   31040.5    322.2   0.032846723   0.34837   0.38097   0.37480  -0.25051
  30   31109.8    321.4   0.006068819   0.06422   0.20918  -0.11458  -0.08566
  31   31340.0    319.1   0.045442808   0.47736   0.44737   0.00135  -0.52651
  32   31757.3    314.9   0.064487418   0.66851  -0.13021   0.56233   0.57909
  33   31809.6    314.4   0.043264686   0.44777  -0.60617  -0.17628   0.22193
  34   31930.3    313.2   0.211168136   2.17722  -1.14953  -0.42330   0.82256
  35   32000.5    312.5   0.081847435   0.84202  -0.01498   0.41816   0.81666
  36   32068.6    311.8   0.227620916   2.33672  -0.58469  -1.37248  -0.33339
  37   32280.1    309.8   0.049980931   0.50974  -0.63242  -0.29176   0.15704
  38   32505.5    307.6   0.091812083   0.92986  -0.60808   0.30565   0.68314
  39   32635.9    306.4   0.016469963   0.16614   0.19163  -0.21485  -0.28854
  40   32849.3    304.4   0.005722691   0.05735  -0.01169  -0.22439   0.08286
  41   33022.8    302.8   0.030219726   0.30127  -0.49657  -0.21188   0.09896
  42   33121.6    301.9   0.160805993   1.59833  -0.95429  -0.33313   0.75940
  43   33354.4    299.8   0.013659533   0.13482   0.33968   0.05964  -0.12604
  44   33838.7    295.5   0.015718832   0.15293  -0.29045  -0.23712   0.11108
  45   34209.5    292.3   0.020677555   0.19899   0.05921   0.29033   0.33345
  46   34468.0    290.1   0.015355997   0.14667   0.16737   0.32251   0.12102
  47   34520.0    289.7   0.013710698   0.13076   0.34305  -0.06309  -0.09537
  48   34632.3    288.7   0.034320090   0.32624  -0.28235   0.19390   0.45708
  49   34890.5    286.6   0.003009213   0.02839   0.01628   0.02831  -0.16531
  50   34993.0    285.8   0.037897211   0.35653   0.48799   0.32659  -0.10834

FINAL SINGLE POINT ENERGY     -5801.559384276867

DIPOLE MOMENT
-------------
                                X             Y             Z
Electronic contribution:    -36.97287     -37.18220     -10.24449
Nuclear contribution   :     36.32375      37.93612      12.70522
                        -----------------------------------------
Total Dipole Moment    :     -0.64913       0.75392       2.46073
                        -----------------------------------------
Magnitude (a.u.)       :      2.65423
Magnitude (Debye)      :      6.74652

Rotational constants in cm-1:     0.002134     0.000213     0.000199
Rotational constants in MHz :    63.983756     6.391502     5.957991

                             ****ORCA TERMINATED NORMALLY****
TOTAL RUN TIME: 2 days 13 hours 23 minutes 28 seconds 387 msec
