                         Program Version 4.2.0 -  RELEASE  -
|  1> # ORCA input file
|  2> # F-2F.out: Geometry 41
|  3> ! B3LYP def2-TZVP def2/J RIJCOSX Grid4 TightSCF
|  4>
|  5> %maxcore 6000
|  6> %tddft
|  7>   maxdim 5
|  8>   nroots 50
|  9>   end
| 10> %pal
| 11>   nprocs 6
| 12>   end
| 13>
| 14>
| 15> * xyz 0 1
| 16>    C        2.98213        -0.88739         1.55338
| 17>    O        3.18296         0.27144         1.23232
| 18>    C        1.71372        -1.42580         2.10346
| 19>    C        0.53195        -0.73403         2.34255
| 20>    C       -0.52424        -1.44054         2.90646
| 21>    F       -1.68666        -0.84353         3.15488
| 22>    C       -0.37858        -2.80201         3.22965
| 23>    F       -1.40731        -3.42848         3.79730
| 24>    C        0.80175        -3.49575         2.97143
| 25>    C        1.86674        -2.79576         2.38786
| 26>    C        3.22948        -3.22061         1.97386
| 27>    C        3.70059        -4.52132         2.04356
| 28>    C        5.00623        -4.91423         1.61178
| 29>    N        6.06334        -5.25106         1.26379
| 30>    C        2.92000        -5.60860         2.54653
| 31>    N        2.30881        -6.51069         2.95137
| 32>    C        3.92712        -2.02750         1.48583
| 33>    C       15.77300        14.45819        -1.65014
| 34>    O       14.84466        15.10820        -1.21555
| 35>    C       17.21599        14.80439        -1.59234
| 36>    C       17.80437        15.91368        -0.99345
| 37>    C       19.19114        16.00729        -1.03571
| 38>    F       19.82633        17.03094        -0.47002
| 39>    C       19.95104        15.01510        -1.68071
| 40>    F       21.27366        15.15231        -1.69906
| 41>    C       19.35951        13.90877        -2.28709
| 42>    C       17.96414        13.79701        -2.23507
| 43>    C       17.02842        12.77676        -2.78536
| 44>    C       17.37448        11.82390        -3.73227
| 45>    C       16.41737        11.08422        -4.48680
| 46>    N       15.67257        10.46614        -5.13121
| 47>    C       18.73078        11.57598        -4.11142
| 48>    N       19.83156        11.35195        -4.40989
| 49>    C       15.70315        13.10030        -2.29080
| 50>    C        8.08342         2.33259        -0.26811
| 51>    C        9.37715         1.90972        -0.68169
| 52>    C       10.33461         2.85127        -1.03722
| 53>    C        9.99001         4.21156        -0.95515
| 54>    C        8.70450         4.62510        -0.51439
| 55>    C        7.73435         3.68892        -0.18801
| 56>    C        8.61836         6.14479        -0.45503
| 57>    C        7.38690         6.72040        -1.18284
| 58>    C        7.28920         6.34515        -2.66017
| 59>    C        8.68405         6.63158         1.03062
| 60>    C        7.47689         6.34052         1.91680
| 61>    C        9.95119         6.54156        -1.07953
| 62>    C       10.77266         5.40435        -1.27778
| 63>    C       12.11514         5.53362        -1.67450
| 64>    C       12.62097         6.81198        -1.88827
| 65>    C       11.77390         7.94513        -1.71511
| 66>    C       10.43581         7.81919        -1.31611
| 67>    C        5.23384        -1.96170         1.03961
| 68>    C       14.50131        12.43970        -2.13566
| 69>    C       12.59499         9.11486        -1.90212
| 70>    C       13.92712         8.75909        -2.13575
| 71>    C       14.06288         7.24323        -2.20513
| 72>    S       12.34857        10.80775        -1.86907
| 73>    C       14.07528        11.09154        -2.18090
| 74>    C       14.76344         9.86910        -2.29344
| 75>    C        9.48542         0.37678        -0.68772
| 76>    C        8.10546        -0.00433        -0.15709
| 77>    C        7.32619         1.14348         0.03250
| 78>    C        7.40411        -1.15950         0.19102
| 79>    C        6.07619        -0.90552         0.61374
| 80>    S        5.72832         0.83448         0.57312
| 81>    C       14.49354         6.86781        -3.65264
| 82>    C       15.00724         6.67625        -1.11390
| 83>    C       10.64436        -0.12395         0.20630
| 84>    C        9.68498        -0.10207        -2.15528
| 85>    C       10.59746         0.34941         1.65656
| 86>    C        9.63167        -1.61093        -2.38322
| 87>    C       14.64561         5.37859        -3.95301
| 88>    C       16.47318         7.09061        -1.21505
| 89>    H        0.43228         0.32411         2.09514
| 90>    H        0.84601        -4.54855         3.24156
| 91>    H       17.20508        16.68313        -0.50413
| 92>    H       20.00811        13.17873        -2.76705
| 93>    H       11.32700         2.54608        -1.37815
| 94>    H        6.72974         3.98447         0.11866
| 95>    H        7.40327         7.81848        -1.06934
| 96>    H        6.47955         6.38205        -0.65743
| 97>    H        8.18595         6.66222        -3.21503
| 98>    H        6.41984         6.82708        -3.13235
| 99>    H        7.18282         5.25699        -2.79034
|100>    H        8.86644         7.71962         1.01108
|101>    H        9.58555         6.18420         1.47969
|102>    H        6.56212         6.82348         1.54261
|103>    H        7.66142         6.73001         2.93011
|104>    H        7.27855         5.26233         2.01094
|105>    H       12.74967         4.65134        -1.77258
|106>    H        9.81858         8.70483        -1.14977
|107>    H        5.77025        -2.90938         1.00836
|108>    H       13.72960        13.13777        -1.78345
|109>    H       15.83695         9.81531        -2.44533
|110>    H        7.79805        -2.17654         0.17183
|111>    H       15.44010         7.38869        -3.86949
|112>    H       13.75857         7.31243        -4.34215
|113>    H       14.93503         5.57686        -1.14238
|114>    H       14.60295         6.97894        -0.13378
|115>    H       11.59016         0.19737        -0.26392
|116>    H       10.65042        -1.22529         0.17850
|117>    H       10.65706         0.28984        -2.49937
|118>    H        8.92082         0.38775        -2.77993
|119>    H       10.68332         1.44477         1.72909
|120>    H       11.42033        -0.09312         2.23784
|121>    H        9.65447         0.05281         2.14260
|122>    H       10.34543        -2.15850        -1.75094
|123>    H        9.87917        -1.84734        -3.42963
|124>    H        8.62755        -2.01527        -2.18366
|125>    H       15.34512         4.88080        -3.26358
|126>    H       15.04154         5.23966        -4.97103
|127>    H       13.68324         4.84838        -3.89945
|128>    H       16.91003         6.83902        -2.19329
|129>    H       17.07062         6.57245        -0.45030
|130>    H       16.60590         8.17049        -1.05313
|131> *
|132>
|133>                          ****END OF INPUT****

CARTESIAN COORDINATES (ANGSTROEM)
---------------------------------
  C      2.982130   -0.887390    1.553380
  O      3.182960    0.271440    1.232320
  C      1.713720   -1.425800    2.103460
  C      0.531950   -0.734030    2.342550
  C     -0.524240   -1.440540    2.906460
  F     -1.686660   -0.843530    3.154880
  C     -0.378580   -2.802010    3.229650
  F     -1.407310   -3.428480    3.797300
  C      0.801750   -3.495750    2.971430
  C      1.866740   -2.795760    2.387860
  C      3.229480   -3.220610    1.973860
  C      3.700590   -4.521320    2.043560
  C      5.006230   -4.914230    1.611780
  N      6.063340   -5.251060    1.263790
  C      2.920000   -5.608600    2.546530
  N      2.308810   -6.510690    2.951370
  C      3.927120   -2.027500    1.485830
  C     15.773000   14.458190   -1.650140
  O     14.844660   15.108200   -1.215550
  C     17.215990   14.804390   -1.592340
  C     17.804370   15.913680   -0.993450
  C     19.191140   16.007290   -1.035710
  F     19.826330   17.030940   -0.470020
  C     19.951040   15.015100   -1.680710
  F     21.273660   15.152310   -1.699060
  C     19.359510   13.908770   -2.287090
  C     17.964140   13.797010   -2.235070
  C     17.028420   12.776760   -2.785360
  C     17.374480   11.823900   -3.732270
  C     16.417370   11.084220   -4.486800
  N     15.672570   10.466140   -5.131210
  C     18.730780   11.575980   -4.111420
  N     19.831560   11.351950   -4.409890
  C     15.703150   13.100300   -2.290800
  C      8.083420    2.332590   -0.268110
  C      9.377150    1.909720   -0.681690
  C     10.334610    2.851270   -1.037220
  C      9.990010    4.211560   -0.955150
  C      8.704500    4.625100   -0.514390
  C      7.734350    3.688920   -0.188010
  C      8.618360    6.144790   -0.455030
  C      7.386900    6.720400   -1.182840
  C      7.289200    6.345150   -2.660170
  C      8.684050    6.631580    1.030620
  C      7.476890    6.340520    1.916800
  C      9.951190    6.541560   -1.079530
  C     10.772660    5.404350   -1.277780
  C     12.115140    5.533620   -1.674500
  C     12.620970    6.811980   -1.888270
  C     11.773900    7.945130   -1.715110
  C     10.435810    7.819190   -1.316110
  C      5.233840   -1.961700    1.039610
  C     14.501310   12.439700   -2.135660
  C     12.594990    9.114860   -1.902120
  C     13.927120    8.759090   -2.135750
  C     14.062880    7.243230   -2.205130
  S     12.348570   10.807750   -1.869070
  C     14.075280   11.091540   -2.180900
  C     14.763440    9.869100   -2.293440
  C      9.485420    0.376780   -0.687720
  C      8.105460   -0.004330   -0.157090
  C      7.326190    1.143480    0.032500
  C      7.404110   -1.159500    0.191020
  C      6.076190   -0.905520    0.613740
  S      5.728320    0.834480    0.573120
  C     14.493540    6.867810   -3.652640
  C     15.007240    6.676250   -1.113900
  C     10.644360   -0.123950    0.206300
  C      9.684980   -0.102070   -2.155280
  C     10.597460    0.349410    1.656560
  C      9.631670   -1.610930   -2.383220
  C     14.645610    5.378590   -3.953010
  C     16.473180    7.090610   -1.215050
  H      0.432280    0.324110    2.095140
  H      0.846010   -4.548550    3.241560
  H     17.205080   16.683130   -0.504130
  H     20.008110   13.178730   -2.767050
  H     11.327000    2.546080   -1.378150
  H      6.729740    3.984470    0.118660
  H      7.403270    7.818480   -1.069340
  H      6.479550    6.382050   -0.657430
  H      8.185950    6.662220   -3.215030
  H      6.419840    6.827080   -3.132350
  H      7.182820    5.256990   -2.790340
  H      8.866440    7.719620    1.011080
  H      9.585550    6.184200    1.479690
  H      6.562120    6.823480    1.542610
  H      7.661420    6.730010    2.930110
  H      7.278550    5.262330    2.010940
  H     12.749670    4.651340   -1.772580
  H      9.818580    8.704830   -1.149770
  H      5.770250   -2.909380    1.008360
  H     13.729600   13.137770   -1.783450
  H     15.836950    9.815310   -2.445330
  H      7.798050   -2.176540    0.171830
  H     15.440100    7.388690   -3.869490
  H     13.758570    7.312430   -4.342150
  H     14.935030    5.576860   -1.142380
  H     14.602950    6.978940   -0.133780
  H     11.590160    0.197370   -0.263920
  H     10.650420   -1.225290    0.178500
  H     10.657060    0.289840   -2.499370
  H      8.920820    0.387750   -2.779930
  H     10.683320    1.444770    1.729090
  H     11.420330   -0.093120    2.237840
  H      9.654470    0.052810    2.142600
  H     10.345430   -2.158500   -1.750940
  H      9.879170   -1.847340   -3.429630
  H      8.627550   -2.015270   -2.183660
  H     15.345120    4.880800   -3.263580
  H     15.041540    5.239660   -4.971030
  H     13.683240    4.848380   -3.899450
  H     16.910030    6.839020   -2.193290
  H     17.070620    6.572450   -0.450300
  H     16.605900    8.170490   -1.053130

 Total Charge           Charge          ....    0
 Multiplicity           Mult            ....    1
 Number of Electrons    NEL             ....  520
 Basis Dimension        Dim             .... 2527

ORBITAL ENERGIES
----------------

  NO   OCC          E(Eh)            E(eV)
   0   2.0000     -88.914779     -2419.4941
   1   2.0000     -88.909414     -2419.3481
   2   2.0000     -24.726921      -672.8537
   3   2.0000     -24.726870      -672.8524
   4   2.0000     -24.725689      -672.8202
   5   2.0000     -24.724510      -672.7881
   6   2.0000     -19.136164      -520.7215
   7   2.0000     -19.133776      -520.6565
   8   2.0000     -14.335727      -390.0950
   9   2.0000     -14.335653      -390.0929
  10   2.0000     -14.335008      -390.0754
  11   2.0000     -14.331845      -389.9893
  12   2.0000     -10.301045      -280.3057
  13   2.0000     -10.300522      -280.2915
  14   2.0000     -10.300447      -280.2894
  15   2.0000     -10.299844      -280.2730
  16   2.0000     -10.280865      -279.7566
  17   2.0000     -10.279907      -279.7305
  18   2.0000     -10.264558      -279.3128
  19   2.0000     -10.262942      -279.2689
  20   2.0000     -10.262397      -279.2540
  21   2.0000     -10.261353      -279.2256
  22   2.0000     -10.242629      -278.7161
  23   2.0000     -10.240245      -278.6512
  24   2.0000     -10.238681      -278.6087
  25   2.0000     -10.236235      -278.5421
  26   2.0000     -10.235600      -278.5248
  27   2.0000     -10.234973      -278.5078
  28   2.0000     -10.234421      -278.4928
  29   2.0000     -10.233856      -278.4774
  30   2.0000     -10.233569      -278.4696
  31   2.0000     -10.232826      -278.4493
  32   2.0000     -10.232253      -278.4338
  33   2.0000     -10.232041      -278.4280
  34   2.0000     -10.223174      -278.1867
  35   2.0000     -10.222237      -278.1612
  36   2.0000     -10.221972      -278.1540
  37   2.0000     -10.221644      -278.1451
  38   2.0000     -10.221534      -278.1421
  39   2.0000     -10.221362      -278.1374
  40   2.0000     -10.219116      -278.0763
  41   2.0000     -10.218618      -278.0627
  42   2.0000     -10.217865      -278.0422
  43   2.0000     -10.217627      -278.0358
  44   2.0000     -10.217429      -278.0304
  45   2.0000     -10.216900      -278.0160
  46   2.0000     -10.216616      -278.0083
  47   2.0000     -10.214993      -277.9641
  48   2.0000     -10.214979      -277.9637
  49   2.0000     -10.211939      -277.8810
  50   2.0000     -10.211634      -277.8727
  51   2.0000     -10.211044      -277.8566
  52   2.0000     -10.210277      -277.8358
  53   2.0000     -10.209241      -277.8076
  54   2.0000     -10.206608      -277.7359
  55   2.0000     -10.206223      -277.7254
  56   2.0000     -10.205998      -277.7193
  57   2.0000     -10.205771      -277.7132
  58   2.0000     -10.205497      -277.7057
  59   2.0000     -10.205392      -277.7028
  60   2.0000     -10.205345      -277.7015
  61   2.0000     -10.193789      -277.3871
  62   2.0000     -10.193777      -277.3868
  63   2.0000     -10.193368      -277.3756
  64   2.0000     -10.192816      -277.3606
  65   2.0000     -10.191261      -277.3183
  66   2.0000     -10.188799      -277.2513
  67   2.0000     -10.179438      -276.9966
  68   2.0000     -10.177825      -276.9527
  69   2.0000     -10.177561      -276.9455
  70   2.0000     -10.176893      -276.9273
  71   2.0000     -10.175049      -276.8771
  72   2.0000     -10.173705      -276.8406
  73   2.0000      -7.990705      -217.4381
  74   2.0000      -7.984180      -217.2606
  75   2.0000      -5.953038      -161.9904
  76   2.0000      -5.949488      -161.8938
  77   2.0000      -5.947517      -161.8402
  78   2.0000      -5.946718      -161.8184
  79   2.0000      -5.942804      -161.7119
  80   2.0000      -5.940947      -161.6614
  81   2.0000      -1.272576       -34.6285
  82   2.0000      -1.271756       -34.6062
  83   2.0000      -1.258319       -34.2406
  84   2.0000      -1.257488       -34.2180
  85   2.0000      -1.063405       -28.9367
  86   2.0000      -1.061816       -28.8935
  87   2.0000      -0.940426       -25.5903
  88   2.0000      -0.939122       -25.5548
  89   2.0000      -0.935150       -25.4467
  90   2.0000      -0.931086       -25.3361
  91   2.0000      -0.922254       -25.0958
  92   2.0000      -0.922215       -25.0948
  93   2.0000      -0.920631       -25.0516
  94   2.0000      -0.918845       -25.0030
  95   2.0000      -0.912996       -24.8439
  96   2.0000      -0.885746       -24.1024
  97   2.0000      -0.878063       -23.8933
  98   2.0000      -0.872965       -23.7546
  99   2.0000      -0.868414       -23.6307
 100   2.0000      -0.844203       -22.9719
 101   2.0000      -0.831999       -22.6398
 102   2.0000      -0.827518       -22.5179
 103   2.0000      -0.825711       -22.4687
 104   2.0000      -0.820063       -22.3151
 105   2.0000      -0.813194       -22.1281
 106   2.0000      -0.801798       -21.8180
 107   2.0000      -0.797133       -21.6911
 108   2.0000      -0.796050       -21.6616
 109   2.0000      -0.782663       -21.2973
 110   2.0000      -0.773441       -21.0464
 111   2.0000      -0.772349       -21.0167
 112   2.0000      -0.769879       -20.9495
 113   2.0000      -0.769571       -20.9411
 114   2.0000      -0.768930       -20.9237
 115   2.0000      -0.766685       -20.8626
 116   2.0000      -0.763486       -20.7755
 117   2.0000      -0.756332       -20.5808
 118   2.0000      -0.736219       -20.0335
 119   2.0000      -0.725904       -19.7528
 120   2.0000      -0.707591       -19.2545
 121   2.0000      -0.701582       -19.0910
 122   2.0000      -0.698117       -18.9967
 123   2.0000      -0.696432       -18.9509
 124   2.0000      -0.689709       -18.7679
 125   2.0000      -0.686805       -18.6889
 126   2.0000      -0.673229       -18.3195
 127   2.0000      -0.656909       -17.8754
 128   2.0000      -0.646664       -17.5966
 129   2.0000      -0.642890       -17.4939
 130   2.0000      -0.639731       -17.4080
 131   2.0000      -0.636131       -17.3100
 132   2.0000      -0.633256       -17.2318
 133   2.0000      -0.630180       -17.1481
 134   2.0000      -0.627629       -17.0787
 135   2.0000      -0.622522       -16.9397
 136   2.0000      -0.615386       -16.7455
 137   2.0000      -0.613521       -16.6947
 138   2.0000      -0.606337       -16.4993
 139   2.0000      -0.599733       -16.3196
 140   2.0000      -0.595577       -16.2065
 141   2.0000      -0.591498       -16.0955
 142   2.0000      -0.578860       -15.7516
 143   2.0000      -0.577859       -15.7243
 144   2.0000      -0.574619       -15.6362
 145   2.0000      -0.572516       -15.5789
 146   2.0000      -0.572280       -15.5725
 147   2.0000      -0.571375       -15.5479
 148   2.0000      -0.561415       -15.2769
 149   2.0000      -0.550225       -14.9724
 150   2.0000      -0.544986       -14.8298
 151   2.0000      -0.541190       -14.7265
 152   2.0000      -0.534220       -14.5369
 153   2.0000      -0.532000       -14.4764
 154   2.0000      -0.523283       -14.2392
 155   2.0000      -0.521899       -14.2016
 156   2.0000      -0.521119       -14.1804
 157   2.0000      -0.520710       -14.1692
 158   2.0000      -0.517237       -14.0747
 159   2.0000      -0.512030       -13.9330
 160   2.0000      -0.499751       -13.5989
 161   2.0000      -0.494656       -13.4603
 162   2.0000      -0.491957       -13.3868
 163   2.0000      -0.487192       -13.2572
 164   2.0000      -0.486518       -13.2388
 165   2.0000      -0.483123       -13.1464
 166   2.0000      -0.481859       -13.1120
 167   2.0000      -0.481186       -13.0937
 168   2.0000      -0.479953       -13.0602
 169   2.0000      -0.479398       -13.0451
 170   2.0000      -0.478256       -13.0140
 171   2.0000      -0.475118       -12.9286
 172   2.0000      -0.470380       -12.7997
 173   2.0000      -0.468388       -12.7455
 174   2.0000      -0.466605       -12.6970
 175   2.0000      -0.464440       -12.6380
 176   2.0000      -0.462992       -12.5987
 177   2.0000      -0.462598       -12.5879
 178   2.0000      -0.460904       -12.5418
 179   2.0000      -0.460629       -12.5344
 180   2.0000      -0.460379       -12.5275
 181   2.0000      -0.456836       -12.4311
 182   2.0000      -0.455792       -12.4027
 183   2.0000      -0.448996       -12.2178
 184   2.0000      -0.446509       -12.1501
 185   2.0000      -0.443748       -12.0750
 186   2.0000      -0.438989       -11.9455
 187   2.0000      -0.434729       -11.8296
 188   2.0000      -0.433311       -11.7910
 189   2.0000      -0.432011       -11.7556
 190   2.0000      -0.430368       -11.7109
 191   2.0000      -0.429513       -11.6876
 192   2.0000      -0.427532       -11.6337
 193   2.0000      -0.425986       -11.5917
 194   2.0000      -0.425157       -11.5691
 195   2.0000      -0.423602       -11.5268
 196   2.0000      -0.421749       -11.4764
 197   2.0000      -0.419085       -11.4039
 198   2.0000      -0.417574       -11.3628
 199   2.0000      -0.414033       -11.2664
 200   2.0000      -0.411974       -11.2104
 201   2.0000      -0.408317       -11.1109
 202   2.0000      -0.406130       -11.0513
 203   2.0000      -0.405053       -11.0221
 204   2.0000      -0.397212       -10.8087
 205   2.0000      -0.395087       -10.7509
 206   2.0000      -0.393705       -10.7133
 207   2.0000      -0.393121       -10.6974
 208   2.0000      -0.391920       -10.6647
 209   2.0000      -0.391434       -10.6515
 210   2.0000      -0.390184       -10.6175
 211   2.0000      -0.390101       -10.6152
 212   2.0000      -0.388799       -10.5797
 213   2.0000      -0.386948       -10.5294
 214   2.0000      -0.386053       -10.5050
 215   2.0000      -0.385029       -10.4772
 216   2.0000      -0.383182       -10.4269
 217   2.0000      -0.382113       -10.3978
 218   2.0000      -0.380842       -10.3632
 219   2.0000      -0.380559       -10.3555
 220   2.0000      -0.378974       -10.3124
 221   2.0000      -0.375335       -10.2134
 222   2.0000      -0.373929       -10.1751
 223   2.0000      -0.368998       -10.0410
 224   2.0000      -0.367212        -9.9923
 225   2.0000      -0.365779        -9.9534
 226   2.0000      -0.362956        -9.8765
 227   2.0000      -0.361849        -9.8464
 228   2.0000      -0.361725        -9.8430
 229   2.0000      -0.361460        -9.8358
 230   2.0000      -0.357443        -9.7265
 231   2.0000      -0.355511        -9.6739
 232   2.0000      -0.351725        -9.5709
 233   2.0000      -0.350638        -9.5414
 234   2.0000      -0.348606        -9.4860
 235   2.0000      -0.348566        -9.4850
 236   2.0000      -0.346505        -9.4289
 237   2.0000      -0.344785        -9.3821
 238   2.0000      -0.343919        -9.3585
 239   2.0000      -0.342335        -9.3154
 240   2.0000      -0.339773        -9.2457
 241   2.0000      -0.339260        -9.2317
 242   2.0000      -0.333486        -9.0746
 243   2.0000      -0.331356        -9.0167
 244   2.0000      -0.329068        -8.9544
 245   2.0000      -0.317418        -8.6374
 246   2.0000      -0.300680        -8.1819
 247   2.0000      -0.293903        -7.9975
 248   2.0000      -0.291381        -7.9289
 249   2.0000      -0.282650        -7.6913
 250   2.0000      -0.280927        -7.6444
 251   2.0000      -0.280651        -7.6369
 252   2.0000      -0.278510        -7.5787
 253   2.0000      -0.277854        -7.5608
 254   2.0000      -0.272156        -7.4057
 255   2.0000      -0.270352        -7.3566
 256   2.0000      -0.265848        -7.2341
 257   2.0000      -0.262160        -7.1337
 258   2.0000      -0.235944        -6.4204
 259   2.0000      -0.214846        -5.8463
 260   0.0000      -0.134546        -3.6612
 261   0.0000      -0.125956        -3.4274
 262   0.0000      -0.109757        -2.9866
 263   0.0000      -0.106641        -2.9018
 264   0.0000      -0.076053        -2.0695

MULLIKEN ATOMIC CHARGES
-----------------------
   0 C :    0.210743
   1 O :   -0.342300
   2 C :    0.093389
   3 C :   -0.308989
   4 C :    0.283564
   5 F :   -0.176018
   6 C :    0.253983
   7 F :   -0.173205
   8 C :   -0.271732
   9 C :    0.089680
  10 C :    0.024370
  11 C :    0.140624
  12 C :   -0.184606
  13 N :    0.004217
  14 C :   -0.199349
  15 N :    0.009600
  16 C :   -0.033792
  17 C :    0.243026
  18 O :   -0.298169
  19 C :   -0.015315
  20 C :   -0.298500
  21 C :    0.278872
  22 F :   -0.176021
  23 C :    0.255833
  24 F :   -0.172634
  25 C :   -0.258939
  26 C :    0.127791
  27 C :    0.031924
  28 C :    0.076835
  29 C :   -0.219262
  30 N :    0.012296
  31 C :   -0.195770
  32 N :    0.005664
  33 C :   -0.049522
  34 C :    0.298307
  35 C :   -0.006796
  36 C :   -0.341371
  37 C :    0.168921
  38 C :   -0.113369
  39 C :   -0.426767
  40 C :    0.431436
  41 C :   -0.254352
  42 C :   -0.357135
  43 C :   -0.173521
  44 C :   -0.378701
  45 C :   -0.032454
  46 C :    0.166548
  47 C :   -0.373453
  48 C :   -0.017048
  49 C :    0.251872
  50 C :   -0.359648
  51 C :   -0.196580
  52 C :   -0.216483
  53 C :   -0.122061
  54 C :    0.080352
  55 C :    0.340399
  56 S :    0.047835
  57 C :    0.278121
  58 C :   -0.415023
  59 C :    0.372647
  60 C :   -0.138319
  61 C :   -0.048203
  62 C :   -0.261307
  63 C :    0.083901
  64 S :    0.088382
  65 C :   -0.208106
  66 C :   -0.217322
  67 C :   -0.223564
  68 C :   -0.162169
  69 C :   -0.363770
  70 C :   -0.370484
  71 C :   -0.375496
  72 C :   -0.375551
  73 H :    0.149237
  74 H :    0.166474
  75 H :    0.151842
  76 H :    0.166855
  77 H :    0.107280
  78 H :    0.137292
  79 H :    0.096572
  80 H :    0.103169
  81 H :    0.120310
  82 H :    0.115491
  83 H :    0.121064
  84 H :    0.093859
  85 H :    0.105812
  86 H :    0.115899
  87 H :    0.120276
  88 H :    0.119987
  89 H :    0.136796
  90 H :    0.112925
  91 H :    0.168801
  92 H :    0.145882
  93 H :    0.184059
  94 H :    0.159683
  95 H :    0.120925
  96 H :    0.112463
  97 H :    0.100415
  98 H :    0.106107
  99 H :    0.092388
 100 H :    0.101499
 101 H :    0.091206
 102 H :    0.105181
 103 H :    0.120690
 104 H :    0.116571
 105 H :    0.122520
 106 H :    0.112054
 107 H :    0.120618
 108 H :    0.122661
 109 H :    0.109954
 110 H :    0.126492
 111 H :    0.116253
 112 H :    0.121990
 113 H :    0.122161
 114 H :    0.110329
Sum of atomic charges:   -0.0000000

LOEWDIN ATOMIC CHARGES
----------------------
   0 C :   -0.253771
   1 O :    0.117504
   2 C :   -0.062145
   3 C :   -0.049964
   4 C :   -0.232626
   5 F :    0.223774
   6 C :   -0.229795
   7 F :    0.224102
   8 C :   -0.052930
   9 C :   -0.039830
  10 C :    0.018147
  11 C :   -0.137371
  12 C :   -0.155417
  13 N :    0.065744
  14 C :   -0.153918
  15 N :    0.071722
  16 C :   -0.089507
  17 C :   -0.249640
  18 O :    0.129418
  19 C :   -0.062778
  20 C :   -0.048113
  21 C :   -0.232716
  22 F :    0.223002
  23 C :   -0.231072
  24 F :    0.226387
  25 C :   -0.055709
  26 C :   -0.037943
  27 C :    0.009772
  28 C :   -0.145651
  29 C :   -0.157615
  30 N :    0.083882
  31 C :   -0.153702
  32 N :    0.070751
  33 C :   -0.085770
  34 C :   -0.087785
  35 C :   -0.025964
  36 C :   -0.064349
  37 C :   -0.046060
  38 C :   -0.032688
  39 C :   -0.066499
  40 C :   -0.171653
  41 C :   -0.227773
  42 C :   -0.297077
  43 C :   -0.218057
  44 C :   -0.304210
  45 C :   -0.036583
  46 C :   -0.048123
  47 C :   -0.066628
  48 C :   -0.020016
  49 C :   -0.086154
  50 C :   -0.064767
  51 C :   -0.055551
  52 C :   -0.073441
  53 C :   -0.281329
  54 C :   -0.081000
  55 C :   -0.168457
  56 S :    0.782063
  57 C :   -0.319241
  58 C :   -0.084480
  59 C :   -0.171304
  60 C :   -0.088273
  61 C :   -0.281360
  62 C :   -0.094363
  63 C :   -0.318666
  64 S :    0.804434
  65 C :   -0.219811
  66 C :   -0.225498
  67 C :   -0.226667
  68 C :   -0.221706
  69 C :   -0.298169
  70 C :   -0.301007
  71 C :   -0.302980
  72 C :   -0.299369
  73 H :    0.165789
  74 H :    0.170390
  75 H :    0.166680
  76 H :    0.169822
  77 H :    0.148601
  78 H :    0.151984
  79 H :    0.140064
  80 H :    0.139588
  81 H :    0.123429
  82 H :    0.120763
  83 H :    0.123127
  84 H :    0.140917
  85 H :    0.146711
  86 H :    0.119019
  87 H :    0.124388
  88 H :    0.121036
  89 H :    0.148332
  90 H :    0.150568
  91 H :    0.181106
  92 H :    0.175260
  93 H :    0.155953
  94 H :    0.155899
  95 H :    0.143964
  96 H :    0.149618
  97 H :    0.138469
  98 H :    0.145796
  99 H :    0.139887
 100 H :    0.140264
 101 H :    0.139265
 102 H :    0.145834
 103 H :    0.122624
 104 H :    0.121290
 105 H :    0.124262
 106 H :    0.118351
 107 H :    0.123917
 108 H :    0.122709
 109 H :    0.118291
 110 H :    0.125797
 111 H :    0.119172
 112 H :    0.122237
 113 H :    0.123716
 114 H :    0.119452

  Mayer bond orders larger than 0.100000
B(  0-C ,  1-O ) :   2.0398 B(  0-C ,  2-C ) :   1.0205 B(  0-C , 16-C ) :   1.0128
B(  1-O ,  2-C ) :  -0.1523 B(  2-C ,  3-C ) :   1.2996 B(  2-C ,  9-C ) :   1.3352
B(  3-C ,  4-C ) :   1.3651 B(  3-C , 73-H ) :   0.9804 B(  4-C ,  5-F ) :   1.0663
B(  4-C ,  6-C ) :   1.3291 B(  6-C ,  7-F ) :   1.0847 B(  6-C ,  8-C ) :   1.4026
B(  8-C ,  9-C ) :   1.3103 B(  8-C , 74-H ) :   0.9286 B(  9-C , 10-C ) :   1.0271
B( 10-C , 11-C ) :   1.4665 B( 10-C , 16-C ) :   1.1543 B( 11-C , 12-C ) :   1.0291
B( 11-C , 14-C ) :   1.0222 B( 12-C , 13-N ) :   2.9672 B( 14-C , 15-N ) :   2.9805
B( 16-C , 51-C ) :   1.3854 B( 17-C , 18-O ) :   2.1246 B( 17-C , 19-C ) :   0.9652
B( 17-C , 33-C ) :   1.0081 B( 18-O , 19-C ) :  -0.1420 B( 18-O , 33-C ) :  -0.1014
B( 19-C , 20-C ) :   1.3115 B( 19-C , 26-C ) :   1.3295 B( 20-C , 21-C ) :   1.3652
B( 20-C , 75-H ) :   0.9764 B( 21-C , 22-F ) :   1.0678 B( 21-C , 23-C ) :   1.3296
B( 23-C , 24-F ) :   1.0817 B( 23-C , 25-C ) :   1.3959 B( 25-C , 26-C ) :   1.3066
B( 25-C , 76-H ) :   0.9336 B( 26-C , 27-C ) :   1.0223 B( 27-C , 28-C ) :   1.4056
B( 27-C , 33-C ) :   1.1831 B( 28-C , 29-C ) :   1.0606 B( 28-C , 31-C ) :   1.0386
B( 29-C , 30-N ) :   2.9557 B( 31-C , 32-N ) :   2.9789 B( 33-C , 52-C ) :   1.4991
B( 34-C , 35-C ) :   1.1896 B( 34-C , 39-C ) :   1.3172 B( 34-C , 61-C ) :   1.0431
B( 35-C , 36-C ) :   1.3954 B( 35-C , 59-C ) :   1.0750 B( 36-C , 37-C ) :   1.3699
B( 36-C , 77-H ) :   0.9751 B( 37-C , 38-C ) :   1.2328 B( 37-C , 46-C ) :   1.1218
B( 38-C , 39-C ) :   1.3923 B( 38-C , 40-C ) :   1.1022 B( 38-C , 43-C ) :   0.1001
B( 39-C , 78-H ) :   0.9784 B( 40-C , 41-C ) :   0.7667 B( 40-C , 43-C ) :   0.8254
B( 40-C , 45-C ) :   1.0389 B( 41-C , 42-C ) :   0.9842 B( 41-C , 79-H ) :   0.9613
B( 41-C , 80-H ) :   0.9685 B( 42-C , 81-H ) :   0.9737 B( 42-C , 82-H ) :   0.9777
B( 42-C , 83-H ) :   0.9717 B( 43-C , 44-C ) :   0.9549 B( 43-C , 84-H ) :   0.9593
B( 43-C , 85-H ) :   0.9662 B( 44-C , 86-H ) :   0.9751 B( 44-C , 87-H ) :   0.9747
B( 44-C , 88-H ) :   0.9739 B( 45-C , 46-C ) :   1.2226 B( 45-C , 50-C ) :   1.4179
B( 46-C , 47-C ) :   1.3502 B( 47-C , 48-C ) :   1.3951 B( 47-C , 89-H ) :   0.9647
B( 48-C , 49-C ) :   1.2164 B( 48-C , 55-C ) :   1.0909 B( 49-C , 50-C ) :   1.3068
B( 49-C , 53-C ) :   1.0591 B( 50-C , 90-H ) :   0.9857 B( 51-C , 63-C ) :   1.3262
B( 51-C , 91-H ) :   0.8893 B( 52-C , 57-C ) :   1.1643 B( 52-C , 92-H ) :   0.9283
B( 53-C , 54-C ) :   1.3035 B( 53-C , 56-S ) :   1.4162 B( 54-C , 55-C ) :   1.0531
B( 54-C , 58-C ) :   1.2771 B( 55-C , 65-C ) :   0.8403 B( 55-C , 66-C ) :   0.8202
B( 56-S , 57-C ) :   1.1544 B( 56-S , 58-C ) :   0.1868 B( 57-C , 58-C ) :   1.4217
B( 58-C , 93-H ) :   0.9251 B( 59-C , 60-C ) :   1.0819 B( 59-C , 67-C ) :   0.7811
B( 59-C , 68-C ) :   0.8475 B( 60-C , 61-C ) :   1.2684 B( 60-C , 62-C ) :   1.3538
B( 61-C , 64-S ) :   1.4766 B( 62-C , 63-C ) :   1.2972 B( 62-C , 94-H ) :   0.9486
B( 63-C , 64-S ) :   1.2343 B( 65-C , 71-C ) :   0.9473 B( 65-C , 95-H ) :   0.9660
B( 65-C , 96-H ) :   0.9638 B( 66-C , 72-C ) :   0.9553 B( 66-C , 97-H ) :   0.9674
B( 66-C , 98-H ) :   0.9676 B( 67-C , 69-C ) :   0.9828 B( 67-C , 99-H ) :   0.9587
B( 67-C ,100-H ) :   0.9640 B( 68-C , 70-C ) :   0.9545 B( 68-C ,101-H ) :   0.9590
B( 68-C ,102-H ) :   0.9660 B( 69-C ,103-H ) :   0.9727 B( 69-C ,104-H ) :   0.9772
B( 69-C ,105-H ) :   0.9722 B( 70-C ,106-H ) :   0.9740 B( 70-C ,107-H ) :   0.9747
B( 70-C ,108-H ) :   0.9745 B( 71-C ,109-H ) :   0.9727 B( 71-C ,110-H ) :   0.9766
B( 71-C ,111-H ) :   0.9755 B( 72-C ,112-H ) :   0.9743 B( 72-C ,113-H ) :   0.9774
B( 72-C ,114-H ) :   0.9741

-----------------------------------------------------------------------------
         ABSORPTION SPECTRUM VIA TRANSITION ELECTRIC DIPOLE MOMENTS
-----------------------------------------------------------------------------
State   Energy    Wavelength  fosc         T2        TX        TY        TZ
        (cm-1)      (nm)                 (au**2)    (au)      (au)      (au)
-----------------------------------------------------------------------------
   1   16192.9    617.6   2.820159006  57.33564  -4.90452  -5.52326   1.66580
   2   18154.8    550.8   0.097418945   1.76656   0.73535   1.04745  -0.35869
   3   20518.1    487.4   0.347805155   5.58052  -1.39848  -1.87062   0.35437
   4   20647.9    484.3   0.083296698   1.32809  -1.00063  -0.51967   0.23829
   5   22447.0    445.5   0.359739529   5.27601  -1.58740  -1.58264   0.50143
   6   23102.9    432.8   0.068947920   0.98249  -0.65239  -0.50842   0.54625
   7   25133.3    397.9   0.003065512   0.04015  -0.12878  -0.14814   0.04029
   8   25799.8    387.6   0.074048505   0.94488   0.67557   0.58197  -0.38703
   9   26007.8    384.5   0.009060349   0.11469  -0.05681  -0.24408  -0.22778
  10   26221.2    381.4   0.003187269   0.04002   0.08571   0.04218  -0.17576
  11   26737.7    374.0   0.093921225   1.15642  -0.34394  -1.01888  -0.00366
  12   27096.9    369.0   0.018754250   0.22785  -0.32503   0.19884   0.28752
  13   27218.1    367.4   0.036306811   0.43914  -0.65704  -0.00886   0.08582
  14   27324.3    366.0   0.123959523   1.49351   1.02536   0.60089  -0.28475
  15   27432.7    364.5   0.000091545   0.00110   0.00649  -0.03141  -0.00836
  16   27850.5    359.1   0.086029447   1.01693  -0.54200  -0.81086  -0.25627
  17   28058.3    356.4   0.024802139   0.29101   0.29883   0.44691  -0.04452
  18   28387.5    352.3   0.044254983   0.51323   0.34733  -0.53485  -0.32639
  19   28906.3    345.9   0.014517429   0.16534  -0.15637  -0.32844   0.18170
  20   29143.8    343.1   0.003129052   0.03535   0.13509  -0.06914   0.11098
  21   29233.6    342.1   0.053994661   0.60806  -0.68574  -0.36701   0.05586
  22   29300.2    341.3   0.002871933   0.03227  -0.17655  -0.02399   0.02285
  23   29591.5    337.9   0.011648544   0.12959  -0.13218   0.25106   0.22156
  24   30262.7    330.4   0.037687677   0.40998  -0.14164   0.56349   0.26907
  25   30583.6    327.0   0.000922526   0.00993   0.07029   0.07006   0.00904
  26   30947.6    323.1   0.000782097   0.00832   0.05875   0.05633  -0.04118
  27   31176.8    320.8   0.020208760   0.21339  -0.07529  -0.36855  -0.26814
  28   31308.0    319.4   0.006135148   0.06451  -0.21026   0.11069   0.08973
  29   31528.0    317.2   0.000343577   0.00359  -0.00885   0.04971  -0.03222
  30   31581.9    316.6   0.029407916   0.30655   0.27419  -0.40547  -0.25877
  31   31821.8    314.3   0.004336440   0.04486  -0.02985   0.10690   0.18040
  32   32047.9    312.0   0.010704784   0.10996   0.25788   0.17376  -0.11519
  33   32138.0    311.2   0.064539173   0.66112   0.42380  -0.60289  -0.34356
  34   32336.0    309.3   0.031962814   0.32541   0.40373   0.35884  -0.18343
  35   32448.2    308.2   0.124756676   1.26575  -0.09171   1.04110   0.41648
  36   32489.9    307.8   0.004837944   0.04902   0.05710  -0.07270   0.20119
  37   32830.3    304.6   0.191849461   1.92380   0.92521   0.80428   0.64879
  38   33046.0    302.6   0.027447376   0.27344  -0.42295   0.21356  -0.22122
  39   33193.4    301.3   0.329885103   3.27180   0.80373  -1.61138  -0.17109
  40   33336.6    300.0   0.071673961   0.70781   0.35234  -0.74035  -0.18851
  41   33602.9    297.6   0.013616074   0.13340   0.34307   0.01482   0.12443
  42   33889.2    295.1   0.066674257   0.64770   0.28051  -0.70273  -0.27421
  43   34018.2    294.0   0.003186133   0.03083  -0.09791  -0.06353  -0.13120
  44   34274.1    291.8   0.031335934   0.30099   0.29128   0.45093   0.11317
  45   34562.6    289.3   0.064412654   0.61354   0.36862  -0.42854  -0.54222
  46   34784.1    287.5   0.029034193   0.27479   0.07353   0.49947   0.14112
  47   34883.5    286.7   0.034128740   0.32209  -0.02491  -0.56329  -0.06463
  48   34966.8    286.0   0.005616376   0.05288  -0.10978  -0.03107  -0.19965
  49   35180.2    284.3   0.029685475   0.27779  -0.50111  -0.09232   0.13476
  50   35492.0    281.8   0.019008081   0.17631  -0.04840   0.40277   0.10840

FINAL SINGLE POINT ENERGY     -3914.104559334959

DIPOLE MOMENT
-------------
                                X             Y             Z
Electronic contribution:    -27.03478      32.81934      22.09312
Nuclear contribution   :     27.18265     -31.67482     -21.57984
                        -----------------------------------------
Total Dipole Moment    :      0.14787       1.14452       0.51328
                        -----------------------------------------
Magnitude (a.u.)       :      1.26303
Magnitude (Debye)      :      3.21037

Rotational constants in cm-1:     0.002732     0.000215     0.000205
Rotational constants in MHz :    81.899464     6.441340     6.152679

                             ****ORCA TERMINATED NORMALLY****
TOTAL RUN TIME: 0 days 5 hours 51 minutes 13 seconds 212 msec
