                         Program Version 4.2.0 -  RELEASE  -
|  1> # ORCA input file
|  2> # F-H.out
|  3> ! B3LYP def2-TZVP def2/J RIJCOSX Grid4 TightSCF
|  4> %maxcore 1000
|  5> %tddft
|  6>   maxdim 5
|  7>   nroots 50
|  8>   end
|  9> * xyz 0 1
| 10>    C       -5.56249         0.76389        -1.29998
| 11>    O       -6.65600         0.75873        -1.81845
| 12>    C       -4.64148         1.90694        -1.12495
| 13>    C       -4.77459         3.20816        -1.56857
| 14>    C       -3.74879         4.10281        -1.29612
| 15>    C       -2.61970         3.69283        -0.60133
| 16>    C       -2.48402         2.38825        -0.14482
| 17>    C       -3.50566         1.49043        -0.40540
| 18>    C       -3.68186         0.09032        -0.02522
| 19>    C       -3.07092        -0.52512         1.03592
| 20>    C       -3.50674        -1.75807         1.56420
| 21>    N       -3.86836        -2.73292         2.05093
| 22>    C       -2.01414         0.04358         1.77331
| 23>    N       -1.13840         0.45243         2.39295
| 24>    C       -4.82901        -0.40777        -0.75177
| 25>    C        5.54010       -17.04120        -0.42773
| 26>    O        4.32673       -17.00041        -0.36031
| 27>    C        6.35683       -18.26331        -0.29685
| 28>    C        5.93047       -19.55768        -0.07309
| 29>    C        6.88896       -20.55668         0.01699
| 30>    C        8.23570       -20.25018        -0.11396
| 31>    C        8.66670       -18.94934        -0.33953
| 32>    C        7.71694       -17.94367        -0.43363
| 33>    C        7.83793       -16.50516        -0.66768
| 34>    C        9.02149       -15.85396        -0.90307
| 35>    C        9.19291       -14.48078        -1.17986
| 36>    N        9.44197       -13.38602        -1.42456
| 37>    C       10.28384       -16.48543        -0.91946
| 38>    N       11.34657       -16.91960        -0.94662
| 39>    C        6.50029       -15.93598        -0.63620
| 40>    C       -1.84615        -5.70385        -0.97815
| 41>    C       -2.57082        -6.91703        -0.87603
| 42>    C       -1.88132        -8.10877        -0.82886
| 43>    C       -0.48963        -8.06582        -0.85470
| 44>    C        0.22131        -6.85292        -0.92799
| 45>    C       -0.45600        -5.65750        -1.01606
| 46>    C        1.70991        -7.10888        -0.91947
| 47>    C        2.40748        -6.51085        -2.15070
| 48>    C        1.85960        -7.07261        -3.45776
| 49>    C        2.37081        -6.63496         0.39717
| 50>    C        2.27943        -5.14354         0.69043
| 51>    C        1.75682        -8.62104        -0.91938
| 52>    C        0.45863        -9.15854        -0.84807
| 53>    C        0.23490       -10.53193        -0.79427
| 54>    C        1.33014       -11.36587        -0.83137
| 55>    C        2.63289       -10.81501        -0.87623
| 56>    C        2.86031        -9.44268        -0.92370
| 57>    C       -5.24016        -1.67029        -1.05419
| 58>    C        6.25309       -14.58981        -0.73738
| 59>    C        3.54995       -11.90705        -0.82794
| 60>    C        2.86935       -13.12148        -0.75217
| 61>    C        1.37958       -12.88545        -0.77787
| 62>    S        5.24387       -12.09417        -0.83878
| 63>    C        5.05962       -13.85099        -0.75165
| 64>    C        3.71540       -14.21559        -0.72672
| 65>    C       -4.06948        -6.65540        -0.86189
| 66>    C       -4.09204        -5.14828        -0.95656
| 67>    C       -2.80201        -4.64499        -1.01395
| 68>    C       -5.06132        -4.15667        -0.98290
| 69>    C       -4.51385        -2.88024        -1.00822
| 70>    S       -2.75767        -2.93620        -1.07186
| 71>    C        0.82847       -13.53803        -2.06415
| 72>    C        0.68762       -13.36612         0.51245
| 73>    C       -4.77254        -7.05305         0.45923
| 74>    C       -4.77692        -7.19915        -2.12395
| 75>    C       -4.30314        -8.33593         1.13422
| 76>    C       -4.93106        -8.70945        -2.23395
| 77>    C       -0.66118       -13.34985        -2.31824
| 78>    C        0.68304       -14.87459         0.72298
| 79>    H       -5.65882         3.50817        -2.10959
| 80>    H       -3.82778         5.12680        -1.62903
| 81>    H       -1.82826         4.40147        -0.40827
| 82>    H       -1.59580         2.08871         0.38829
| 83>    H        4.87694       -19.76993         0.02605
| 84>    H        6.58722       -21.57875         0.19005
| 85>    H        8.96980       -21.03845        -0.03939
| 86>    H        9.72012       -18.74471        -0.43422
| 87>    H       -2.38392        -9.05959        -0.76747
| 88>    H        0.04783        -4.70925        -1.12000
| 89>    H        3.47712        -6.71960        -2.08513
| 90>    H        2.27439        -5.42855        -2.14611
| 91>    H        2.00251        -8.14995        -3.50477
| 92>    H        2.37225        -6.62077        -4.30365
| 93>    H        0.79559        -6.86412        -3.54863
| 94>    H        3.42271        -6.92671         0.36046
| 95>    H        1.90564        -7.18281         1.22112
| 96>    H        2.70608        -4.55223        -0.11538
| 97>    H        2.83601        -4.92342         1.59880
| 98>    H        1.24854        -4.83863         0.84780
| 99>    H       -0.76973       -10.91606        -0.71333
|100>    H        3.86834        -9.05813        -0.95889
|101>    H       -6.24716        -1.74460        -1.45492
|102>    H        7.13150       -13.95995        -0.81437
|103>    H        3.41569       -15.24610        -0.69564
|104>    H       -6.12326        -4.31986        -0.94209
|105>    H        1.05590       -14.60404        -2.01837
|106>    H        1.38426       -13.12241        -2.90927
|107>    H       -0.34027       -12.99974         0.50854
|108>    H        1.19745       -12.89000         1.35452
|109>    H       -5.84392        -7.11837         0.25793
|110>    H       -4.62408        -6.23598         1.16985
|111>    H       -4.22166        -6.83721        -2.99404
|112>    H       -5.77094        -6.74623        -2.15861
|113>    H       -4.42233        -9.20384         0.49303
|114>    H       -4.89565        -8.49678         2.03272
|115>    H       -3.25984        -8.25731         1.42873
|116>    H       -3.96506        -9.20457        -2.25381
|117>    H       -5.44657        -8.94644        -3.16273
|118>    H       -5.52220        -9.10566        -1.41346
|119>    H       -1.25592       -13.71379        -1.48483
|120>    H       -0.94675       -13.91026        -3.20599
|121>    H       -0.89717       -12.30376        -2.49291
|122>    H        0.19354       -15.10375         1.66728
|123>    H        1.69379       -15.26895         0.76361
|124>    H        0.14112       -15.38413        -0.06887
|125> *
|126>
|127>                          ****END OF INPUT****

CARTESIAN COORDINATES (ANGSTROEM)
---------------------------------
  C     -5.562490    0.763890   -1.299980
  O     -6.656000    0.758730   -1.818450
  C     -4.641480    1.906940   -1.124950
  C     -4.774590    3.208160   -1.568570
  C     -3.748790    4.102810   -1.296120
  C     -2.619700    3.692830   -0.601330
  C     -2.484020    2.388250   -0.144820
  C     -3.505660    1.490430   -0.405400
  C     -3.681860    0.090320   -0.025220
  C     -3.070920   -0.525120    1.035920
  C     -3.506740   -1.758070    1.564200
  N     -3.868360   -2.732920    2.050930
  C     -2.014140    0.043580    1.773310
  N     -1.138400    0.452430    2.392950
  C     -4.829010   -0.407770   -0.751770
  C      5.540100  -17.041200   -0.427730
  O      4.326730  -17.000410   -0.360310
  C      6.356830  -18.263310   -0.296850
  C      5.930470  -19.557680   -0.073090
  C      6.888960  -20.556680    0.016990
  C      8.235700  -20.250180   -0.113960
  C      8.666700  -18.949340   -0.339530
  C      7.716940  -17.943670   -0.433630
  C      7.837930  -16.505160   -0.667680
  C      9.021490  -15.853960   -0.903070
  C      9.192910  -14.480780   -1.179860
  N      9.441970  -13.386020   -1.424560
  C     10.283840  -16.485430   -0.919460
  N     11.346570  -16.919600   -0.946620
  C      6.500290  -15.935980   -0.636200
  C     -1.846150   -5.703850   -0.978150
  C     -2.570820   -6.917030   -0.876030
  C     -1.881320   -8.108770   -0.828860
  C     -0.489630   -8.065820   -0.854700
  C      0.221310   -6.852920   -0.927990
  C     -0.456000   -5.657500   -1.016060
  C      1.709910   -7.108880   -0.919470
  C      2.407480   -6.510850   -2.150700
  C      1.859600   -7.072610   -3.457760
  C      2.370810   -6.634960    0.397170
  C      2.279430   -5.143540    0.690430
  C      1.756820   -8.621040   -0.919380
  C      0.458630   -9.158540   -0.848070
  C      0.234900  -10.531930   -0.794270
  C      1.330140  -11.365870   -0.831370
  C      2.632890  -10.815010   -0.876230
  C      2.860310   -9.442680   -0.923700
  C     -5.240160   -1.670290   -1.054190
  C      6.253090  -14.589810   -0.737380
  C      3.549950  -11.907050   -0.827940
  C      2.869350  -13.121480   -0.752170
  C      1.379580  -12.885450   -0.777870
  S      5.243870  -12.094170   -0.838780
  C      5.059620  -13.850990   -0.751650
  C      3.715400  -14.215590   -0.726720
  C     -4.069480   -6.655400   -0.861890
  C     -4.092040   -5.148280   -0.956560
  C     -2.802010   -4.644990   -1.013950
  C     -5.061320   -4.156670   -0.982900
  C     -4.513850   -2.880240   -1.008220
  S     -2.757670   -2.936200   -1.071860
  C      0.828470  -13.538030   -2.064150
  C      0.687620  -13.366120    0.512450
  C     -4.772540   -7.053050    0.459230
  C     -4.776920   -7.199150   -2.123950
  C     -4.303140   -8.335930    1.134220
  C     -4.931060   -8.709450   -2.233950
  C     -0.661180  -13.349850   -2.318240
  C      0.683040  -14.874590    0.722980
  H     -5.658820    3.508170   -2.109590
  H     -3.827780    5.126800   -1.629030
  H     -1.828260    4.401470   -0.408270
  H     -1.595800    2.088710    0.388290
  H      4.876940  -19.769930    0.026050
  H      6.587220  -21.578750    0.190050
  H      8.969800  -21.038450   -0.039390
  H      9.720120  -18.744710   -0.434220
  H     -2.383920   -9.059590   -0.767470
  H      0.047830   -4.709250   -1.120000
  H      3.477120   -6.719600   -2.085130
  H      2.274390   -5.428550   -2.146110
  H      2.002510   -8.149950   -3.504770
  H      2.372250   -6.620770   -4.303650
  H      0.795590   -6.864120   -3.548630
  H      3.422710   -6.926710    0.360460
  H      1.905640   -7.182810    1.221120
  H      2.706080   -4.552230   -0.115380
  H      2.836010   -4.923420    1.598800
  H      1.248540   -4.838630    0.847800
  H     -0.769730  -10.916060   -0.713330
  H      3.868340   -9.058130   -0.958890
  H     -6.247160   -1.744600   -1.454920
  H      7.131500  -13.959950   -0.814370
  H      3.415690  -15.246100   -0.695640
  H     -6.123260   -4.319860   -0.942090
  H      1.055900  -14.604040   -2.018370
  H      1.384260  -13.122410   -2.909270
  H     -0.340270  -12.999740    0.508540
  H      1.197450  -12.890000    1.354520
  H     -5.843920   -7.118370    0.257930
  H     -4.624080   -6.235980    1.169850
  H     -4.221660   -6.837210   -2.994040
  H     -5.770940   -6.746230   -2.158610
  H     -4.422330   -9.203840    0.493030
  H     -4.895650   -8.496780    2.032720
  H     -3.259840   -8.257310    1.428730
  H     -3.965060   -9.204570   -2.253810
  H     -5.446570   -8.946440   -3.162730
  H     -5.522200   -9.105660   -1.413460
  H     -1.255920  -13.713790   -1.484830
  H     -0.946750  -13.910260   -3.205990
  H     -0.897170  -12.303760   -2.492910
  H      0.193540  -15.103750    1.667280
  H      1.693790  -15.268950    0.763610
  H      0.141120  -15.384130   -0.068870

 Total Charge           Charge          ....    0
 Multiplicity           Mult            ....    1
 Number of Electrons    NEL             ....  488
 Basis Dimension        Dim             .... 2427

ORBITAL ENERGIES
----------------

  NO   OCC          E(Eh)            E(eV)
   0   2.0000     -88.905720     -2419.2476
   1   2.0000     -88.904803     -2419.2227
   2   2.0000     -19.125631      -520.4349
   3   2.0000     -19.124162      -520.3949
   4   2.0000     -14.323009      -389.7489
   5   2.0000     -14.322170      -389.7261
   6   2.0000     -14.321778      -389.7154
   7   2.0000     -14.317957      -389.6114
   8   2.0000     -10.270742      -279.4811
   9   2.0000     -10.269243      -279.4403
  10   2.0000     -10.249991      -278.9164
  11   2.0000     -10.247559      -278.8503
  12   2.0000     -10.246750      -278.8283
  13   2.0000     -10.244615      -278.7702
  14   2.0000     -10.229340      -278.3545
  15   2.0000     -10.228991      -278.3450
  16   2.0000     -10.227889      -278.3150
  17   2.0000     -10.224769      -278.2301
  18   2.0000     -10.223318      -278.1906
  19   2.0000     -10.222961      -278.1809
  20   2.0000     -10.221324      -278.1364
  21   2.0000     -10.221288      -278.1354
  22   2.0000     -10.220012      -278.1007
  23   2.0000     -10.217323      -278.0275
  24   2.0000     -10.216646      -278.0091
  25   2.0000     -10.212412      -277.8939
  26   2.0000     -10.211573      -277.8710
  27   2.0000     -10.209991      -277.8280
  28   2.0000     -10.206586      -277.7353
  29   2.0000     -10.206466      -277.7321
  30   2.0000     -10.205967      -277.7185
  31   2.0000     -10.205926      -277.7174
  32   2.0000     -10.204515      -277.6790
  33   2.0000     -10.203303      -277.6460
  34   2.0000     -10.203144      -277.6417
  35   2.0000     -10.203010      -277.6380
  36   2.0000     -10.202467      -277.6232
  37   2.0000     -10.202285      -277.6183
  38   2.0000     -10.201797      -277.6050
  39   2.0000     -10.201617      -277.6001
  40   2.0000     -10.200802      -277.5779
  41   2.0000     -10.200057      -277.5577
  42   2.0000     -10.199513      -277.5429
  43   2.0000     -10.199333      -277.5379
  44   2.0000     -10.199189      -277.5341
  45   2.0000     -10.198588      -277.5177
  46   2.0000     -10.198502      -277.5153
  47   2.0000     -10.198463      -277.5143
  48   2.0000     -10.196154      -277.4515
  49   2.0000     -10.195885      -277.4441
  50   2.0000     -10.195684      -277.4387
  51   2.0000     -10.195504      -277.4338
  52   2.0000     -10.195296      -277.4281
  53   2.0000     -10.194843      -277.4158
  54   2.0000     -10.194555      -277.4079
  55   2.0000     -10.194514      -277.4068
  56   2.0000     -10.194002      -277.3929
  57   2.0000     -10.187526      -277.2167
  58   2.0000     -10.184573      -277.1363
  59   2.0000     -10.183624      -277.1105
  60   2.0000     -10.183192      -277.0987
  61   2.0000     -10.182210      -277.0720
  62   2.0000     -10.182034      -277.0672
  63   2.0000     -10.172476      -276.8072
  64   2.0000     -10.170691      -276.7586
  65   2.0000     -10.167424      -276.6697
  66   2.0000     -10.165765      -276.6245
  67   2.0000     -10.164880      -276.6004
  68   2.0000     -10.163847      -276.5723
  69   2.0000      -7.982037      -217.2023
  70   2.0000      -7.981499      -217.1876
  71   2.0000      -5.944292      -161.7524
  72   2.0000      -5.943876      -161.7411
  73   2.0000      -5.940733      -161.6556
  74   2.0000      -5.940217      -161.6415
  75   2.0000      -5.938922      -161.6063
  76   2.0000      -5.938167      -161.5857
  77   2.0000      -1.055737       -28.7281
  78   2.0000      -1.054209       -28.6865
  79   2.0000      -0.939501       -25.5651
  80   2.0000      -0.936423       -25.4814
  81   2.0000      -0.934696       -25.4344
  82   2.0000      -0.931733       -25.3537
  83   2.0000      -0.918461       -24.9926
  84   2.0000      -0.916288       -24.9335
  85   2.0000      -0.915219       -24.9044
  86   2.0000      -0.913184       -24.8490
  87   2.0000      -0.911142       -24.7934
  88   2.0000      -0.884822       -24.0772
  89   2.0000      -0.874955       -23.8087
  90   2.0000      -0.865233       -23.5442
  91   2.0000      -0.862429       -23.4679
  92   2.0000      -0.843846       -22.9622
  93   2.0000      -0.831473       -22.6255
  94   2.0000      -0.825160       -22.4537
  95   2.0000      -0.822220       -22.3737
  96   2.0000      -0.816664       -22.2226
  97   2.0000      -0.809181       -22.0189
  98   2.0000      -0.797761       -21.7082
  99   2.0000      -0.782064       -21.2811
 100   2.0000      -0.780051       -21.2263
 101   2.0000      -0.778037       -21.1715
 102   2.0000      -0.771427       -20.9916
 103   2.0000      -0.770910       -20.9775
 104   2.0000      -0.767953       -20.8971
 105   2.0000      -0.767621       -20.8880
 106   2.0000      -0.767551       -20.8861
 107   2.0000      -0.765144       -20.8206
 108   2.0000      -0.762666       -20.7532
 109   2.0000      -0.750947       -20.4343
 110   2.0000      -0.727798       -19.8044
 111   2.0000      -0.720261       -19.5993
 112   2.0000      -0.702674       -19.1207
 113   2.0000      -0.700687       -19.0667
 114   2.0000      -0.690435       -18.7877
 115   2.0000      -0.687843       -18.7172
 116   2.0000      -0.686163       -18.6714
 117   2.0000      -0.677096       -18.4247
 118   2.0000      -0.658796       -17.9267
 119   2.0000      -0.642018       -17.4702
 120   2.0000      -0.638492       -17.3743
 121   2.0000      -0.636633       -17.3237
 122   2.0000      -0.632745       -17.2179
 123   2.0000      -0.628118       -17.0919
 124   2.0000      -0.626425       -17.0459
 125   2.0000      -0.619772       -16.8649
 126   2.0000      -0.614822       -16.7301
 127   2.0000      -0.610759       -16.6196
 128   2.0000      -0.605537       -16.4775
 129   2.0000      -0.603464       -16.4211
 130   2.0000      -0.597706       -16.2644
 131   2.0000      -0.588012       -16.0006
 132   2.0000      -0.579488       -15.7687
 133   2.0000      -0.572788       -15.5863
 134   2.0000      -0.570175       -15.5153
 135   2.0000      -0.568682       -15.4746
 136   2.0000      -0.556711       -15.1489
 137   2.0000      -0.549091       -14.9415
 138   2.0000      -0.547014       -14.8850
 139   2.0000      -0.538185       -14.6448
 140   2.0000      -0.536346       -14.5947
 141   2.0000      -0.535571       -14.5736
 142   2.0000      -0.522230       -14.2106
 143   2.0000      -0.518833       -14.1182
 144   2.0000      -0.508904       -13.8480
 145   2.0000      -0.503571       -13.7029
 146   2.0000      -0.500463       -13.6183
 147   2.0000      -0.495337       -13.4788
 148   2.0000      -0.493325       -13.4241
 149   2.0000      -0.488735       -13.2992
 150   2.0000      -0.481210       -13.0944
 151   2.0000      -0.480135       -13.0651
 152   2.0000      -0.477458       -12.9923
 153   2.0000      -0.475226       -12.9316
 154   2.0000      -0.474853       -12.9214
 155   2.0000      -0.470553       -12.8044
 156   2.0000      -0.469621       -12.7791
 157   2.0000      -0.466430       -12.6922
 158   2.0000      -0.463617       -12.6157
 159   2.0000      -0.461345       -12.5538
 160   2.0000      -0.460646       -12.5348
 161   2.0000      -0.458982       -12.4895
 162   2.0000      -0.457162       -12.4400
 163   2.0000      -0.456603       -12.4248
 164   2.0000      -0.455294       -12.3892
 165   2.0000      -0.452329       -12.3085
 166   2.0000      -0.449958       -12.2440
 167   2.0000      -0.447826       -12.1860
 168   2.0000      -0.441069       -12.0021
 169   2.0000      -0.439317       -11.9544
 170   2.0000      -0.435250       -11.8438
 171   2.0000      -0.433679       -11.8010
 172   2.0000      -0.432343       -11.7646
 173   2.0000      -0.430317       -11.7095
 174   2.0000      -0.425895       -11.5892
 175   2.0000      -0.425351       -11.5744
 176   2.0000      -0.424388       -11.5482
 177   2.0000      -0.423212       -11.5162
 178   2.0000      -0.419516       -11.4156
 179   2.0000      -0.418511       -11.3883
 180   2.0000      -0.417848       -11.3702
 181   2.0000      -0.412785       -11.2324
 182   2.0000      -0.407015       -11.0754
 183   2.0000      -0.406451       -11.0601
 184   2.0000      -0.402711       -10.9583
 185   2.0000      -0.401648       -10.9294
 186   2.0000      -0.396237       -10.7822
 187   2.0000      -0.394719       -10.7409
 188   2.0000      -0.391233       -10.6460
 189   2.0000      -0.390136       -10.6161
 190   2.0000      -0.388638       -10.5754
 191   2.0000      -0.387800       -10.5526
 192   2.0000      -0.386649       -10.5212
 193   2.0000      -0.386282       -10.5113
 194   2.0000      -0.385286       -10.4842
 195   2.0000      -0.383864       -10.4455
 196   2.0000      -0.382367       -10.4047
 197   2.0000      -0.380873       -10.3641
 198   2.0000      -0.379486       -10.3263
 199   2.0000      -0.378648       -10.3035
 200   2.0000      -0.378165       -10.2904
 201   2.0000      -0.377423       -10.2702
 202   2.0000      -0.376223       -10.2375
 203   2.0000      -0.375334       -10.2134
 204   2.0000      -0.372052       -10.1241
 205   2.0000      -0.371058       -10.0970
 206   2.0000      -0.370681       -10.0867
 207   2.0000      -0.368790       -10.0353
 208   2.0000      -0.366293        -9.9674
 209   2.0000      -0.362877        -9.8744
 210   2.0000      -0.359368        -9.7789
 211   2.0000      -0.358184        -9.7467
 212   2.0000      -0.355048        -9.6613
 213   2.0000      -0.354303        -9.6411
 214   2.0000      -0.352540        -9.5931
 215   2.0000      -0.350378        -9.5343
 216   2.0000      -0.347327        -9.4513
 217   2.0000      -0.346621        -9.4320
 218   2.0000      -0.344405        -9.3717
 219   2.0000      -0.341919        -9.3041
 220   2.0000      -0.340311        -9.2603
 221   2.0000      -0.338896        -9.2218
 222   2.0000      -0.336099        -9.1457
 223   2.0000      -0.335325        -9.1246
 224   2.0000      -0.333382        -9.0718
 225   2.0000      -0.331725        -9.0267
 226   2.0000      -0.328906        -8.9500
 227   2.0000      -0.326695        -8.8898
 228   2.0000      -0.323714        -8.8087
 229   2.0000      -0.313461        -8.5297
 230   2.0000      -0.294954        -8.0261
 231   2.0000      -0.286003        -7.7825
 232   2.0000      -0.283667        -7.7190
 233   2.0000      -0.276700        -7.5294
 234   2.0000      -0.274965        -7.4822
 235   2.0000      -0.274840        -7.4788
 236   2.0000      -0.272034        -7.4024
 237   2.0000      -0.269481        -7.3330
 238   2.0000      -0.267919        -7.2904
 239   2.0000      -0.267617        -7.2822
 240   2.0000      -0.260612        -7.0916
 241   2.0000      -0.254274        -6.9192
 242   2.0000      -0.228317        -6.2128
 243   2.0000      -0.206630        -5.6227
 244   0.0000      -0.127611        -3.4725
 245   0.0000      -0.118526        -3.2253
 246   0.0000      -0.100865        -2.7447
 247   0.0000      -0.098131        -2.6703
 248   0.0000      -0.066904        -1.8205

MULLIKEN ATOMIC CHARGES
-----------------------
   0 C :    0.201304
   1 O :   -0.290014
   2 C :   -0.007763
   3 C :   -0.204588
   4 C :   -0.068100
   5 C :   -0.102331
   6 C :   -0.180225
   7 C :    0.112662
   8 C :    0.008399
   9 C :    0.135239
  10 C :   -0.222669
  11 N :    0.033178
  12 C :   -0.251459
  13 N :    0.040391
  14 C :    0.006456
  15 C :    0.204116
  16 O :   -0.359171
  17 C :    0.107379
  18 C :   -0.227167
  19 C :   -0.061252
  20 C :   -0.107471
  21 C :   -0.184237
  22 C :    0.066246
  23 C :    0.028426
  24 C :    0.159600
  25 C :   -0.242139
  26 N :    0.047526
  27 C :   -0.232918
  28 N :    0.037445
  29 C :   -0.060780
  30 C :    0.339399
  31 C :   -0.016058
  32 C :   -0.459759
  33 C :    0.270166
  34 C :   -0.201711
  35 C :   -0.433489
  36 C :    0.461638
  37 C :   -0.214053
  38 C :   -0.361240
  39 C :   -0.157150
  40 C :   -0.372881
  41 C :   -0.112914
  42 C :    0.238458
  43 C :   -0.402114
  44 C :    0.012394
  45 C :    0.293987
  46 C :   -0.360412
  47 C :   -0.278791
  48 C :   -0.190360
  49 C :   -0.129846
  50 C :    0.022188
  51 C :    0.329554
  52 S :    0.028731
  53 C :    0.122711
  54 C :   -0.332986
  55 C :    0.359815
  56 C :    0.005134
  57 C :   -0.093789
  58 C :   -0.258678
  59 C :    0.236041
  60 S :    0.019451
  61 C :   -0.223172
  62 C :   -0.212912
  63 C :   -0.232716
  64 C :   -0.201454
  65 C :   -0.356723
  66 C :   -0.372418
  67 C :   -0.373690
  68 C :   -0.375510
  69 H :    0.133543
  70 H :    0.123386
  71 H :    0.124969
  72 H :    0.150491
  73 H :    0.127987
  74 H :    0.121541
  75 H :    0.124595
  76 H :    0.162041
  77 H :    0.141646
  78 H :    0.133362
  79 H :    0.093250
  80 H :    0.093818
  81 H :    0.122474
  82 H :    0.113051
  83 H :    0.120041
  84 H :    0.091268
  85 H :    0.100109
  86 H :    0.108077
  87 H :    0.119790
  88 H :    0.128717
  89 H :    0.144156
  90 H :    0.110836
  91 H :    0.142789
  92 H :    0.169151
  93 H :    0.217541
  94 H :    0.125869
  95 H :    0.117338
  96 H :    0.103432
  97 H :    0.097554
  98 H :    0.104399
  99 H :    0.092590
 100 H :    0.135778
 101 H :    0.103479
 102 H :    0.094144
 103 H :    0.102040
 104 H :    0.118578
 105 H :    0.128055
 106 H :    0.112770
 107 H :    0.118598
 108 H :    0.116660
 109 H :    0.110312
 110 H :    0.119102
 111 H :    0.119813
 112 H :    0.115358
 113 H :    0.134338
 114 H :    0.110244
Sum of atomic charges:   -0.0000000

LOEWDIN ATOMIC CHARGES
----------------------
   0 C :   -0.254067
   1 O :    0.132886
   2 C :   -0.056965
   3 C :   -0.069765
   4 C :   -0.112997
   5 C :   -0.109101
   6 C :   -0.074990
   7 C :   -0.041645
   8 C :   -0.000785
   9 C :   -0.151519
  10 C :   -0.177554
  11 N :    0.085282
  12 C :   -0.163353
  13 N :    0.079733
  14 C :   -0.088645
  15 C :   -0.248434
  16 O :    0.118099
  17 C :   -0.059117
  18 C :   -0.071854
  19 C :   -0.113709
  20 C :   -0.110559
  21 C :   -0.073078
  22 C :   -0.043189
  23 C :    0.011355
  24 C :   -0.136132
  25 C :   -0.174158
  26 N :    0.079784
  27 C :   -0.164444
  28 N :    0.077783
  29 C :   -0.080921
  30 C :   -0.085878
  31 C :   -0.022404
  32 C :   -0.067588
  33 C :   -0.051419
  34 C :   -0.034483
  35 C :   -0.065987
  36 C :   -0.179593
  37 C :   -0.219758
  38 C :   -0.290224
  39 C :   -0.216186
  40 C :   -0.296429
  41 C :   -0.038073
  42 C :   -0.050129
  43 C :   -0.065626
  44 C :   -0.023863
  45 C :   -0.089764
  46 C :   -0.060245
  47 C :   -0.057717
  48 C :   -0.069162
  49 C :   -0.283369
  50 C :   -0.087783
  51 C :   -0.177105
  52 S :    0.792832
  53 C :   -0.321442
  54 C :   -0.086600
  55 C :   -0.169737
  56 C :   -0.094447
  57 C :   -0.278642
  58 C :   -0.086399
  59 C :   -0.329593
  60 S :    0.823614
  61 C :   -0.218746
  62 C :   -0.220950
  63 C :   -0.215372
  64 C :   -0.220850
  65 C :   -0.298183
  66 C :   -0.297337
  67 C :   -0.296996
  68 C :   -0.292058
  69 H :    0.155181
  70 H :    0.147297
  71 H :    0.149114
  72 H :    0.158805
  73 H :    0.153645
  74 H :    0.146681
  75 H :    0.148957
  76 H :    0.160701
  77 H :    0.146244
  78 H :    0.150352
  79 H :    0.138735
  80 H :    0.136927
  81 H :    0.122657
  82 H :    0.117839
  83 H :    0.122464
  84 H :    0.139337
  85 H :    0.145653
  86 H :    0.116065
  87 H :    0.122264
  88 H :    0.121389
  89 H :    0.147039
  90 H :    0.149564
  91 H :    0.173056
  92 H :    0.173926
  93 H :    0.156219
  94 H :    0.150960
  95 H :    0.142445
  96 H :    0.146378
  97 H :    0.136663
  98 H :    0.146181
  99 H :    0.140497
 100 H :    0.153317
 101 H :    0.145892
 102 H :    0.140535
 103 H :    0.111107
 104 H :    0.121489
 105 H :    0.123468
 106 H :    0.116510
 107 H :    0.121628
 108 H :    0.117983
 109 H :    0.117228
 110 H :    0.121845
 111 H :    0.118548
 112 H :    0.121092
 113 H :    0.124108
 114 H :    0.117764

  Mayer bond orders larger than 0.100000
B(  0-C ,  1-O ) :   2.1918 B(  0-C ,  2-C ) :   0.9671 B(  0-C , 14-C ) :   0.9971
B(  1-O ,  2-C ) :  -0.1491 B(  1-O , 14-C ) :  -0.1460 B(  1-O , 47-C ) :   0.1105
B(  2-C ,  3-C ) :   1.3839 B(  2-C ,  7-C ) :   1.3174 B(  3-C ,  4-C ) :   1.3765
B(  3-C , 69-H ) :   0.9823 B(  4-C ,  5-C ) :   1.3854 B(  4-C , 70-H ) :   0.9725
B(  5-C ,  6-C ) :   1.4168 B(  5-C , 71-H ) :   0.9685 B(  6-C ,  7-C ) :   1.3766
B(  6-C , 72-H ) :   0.9468 B(  7-C ,  8-C ) :   1.0425 B(  8-C ,  9-C ) :   1.4301
B(  8-C , 14-C ) :   1.1463 B(  9-C , 10-C ) :   1.0428 B(  9-C , 12-C ) :   1.0470
B( 10-C , 11-N ) :   2.9710 B( 12-C , 13-N ) :   3.0060 B( 14-C , 47-C ) :   1.5129
B( 15-C , 16-O ) :   2.0185 B( 15-C , 17-C ) :   1.0452 B( 15-C , 29-C ) :   1.0144
B( 16-O , 17-C ) :  -0.1586 B( 17-C , 18-C ) :   1.3778 B( 17-C , 22-C ) :   1.3429
B( 18-C , 19-C ) :   1.3774 B( 18-C , 73-H ) :   0.9831 B( 19-C , 20-C ) :   1.3850
B( 19-C , 74-H ) :   0.9730 B( 20-C , 21-C ) :   1.4253 B( 20-C , 75-H ) :   0.9675
B( 21-C , 22-C ) :   1.3977 B( 21-C , 76-H ) :   0.9235 B( 22-C , 23-C ) :   1.0562
B( 23-C , 24-C ) :   1.4581 B( 23-C , 29-C ) :   1.1423 B( 24-C , 25-C ) :   1.0362
B( 24-C , 27-C ) :   1.0229 B( 25-C , 26-N ) :   2.9915 B( 27-C , 28-N ) :   2.9948
B( 29-C , 48-C ) :   1.4246 B( 30-C , 31-C ) :   1.2262 B( 30-C , 35-C ) :   1.2942
B( 30-C , 57-C ) :   1.0440 B( 31-C , 32-C ) :   1.3623 B( 31-C , 55-C ) :   1.1500
B( 31-C , 64-C ) :   0.1030 B( 32-C , 33-C ) :   1.3467 B( 32-C , 77-H ) :   0.9672
B( 33-C , 34-C ) :   1.2143 B( 33-C , 42-C ) :   1.1402 B( 34-C , 35-C ) :   1.3857
B( 34-C , 36-C ) :   1.0802 B( 34-C , 39-C ) :   0.1063 B( 35-C , 78-H ) :   0.9972
B( 36-C , 37-C ) :   0.7683 B( 36-C , 39-C ) :   0.8055 B( 36-C , 41-C ) :   1.0341
B( 37-C , 38-C ) :   0.9758 B( 37-C , 79-H ) :   0.9599 B( 37-C , 80-H ) :   0.9634
B( 38-C , 81-H ) :   0.9745 B( 38-C , 82-H ) :   0.9793 B( 38-C , 83-H ) :   0.9736
B( 39-C , 40-C ) :   0.9509 B( 39-C , 84-H ) :   0.9603 B( 39-C , 85-H ) :   0.9672
B( 40-C , 86-H ) :   0.9756 B( 40-C , 87-H ) :   0.9766 B( 40-C , 88-H ) :   0.9765
B( 41-C , 42-C ) :   1.2029 B( 41-C , 46-C ) :   1.4061 B( 42-C , 43-C ) :   1.3530
B( 43-C , 44-C ) :   1.4077 B( 43-C , 89-H ) :   0.9490 B( 44-C , 45-C ) :   1.2061
B( 44-C , 51-C ) :   1.1331 B( 44-C , 61-C ) :   0.1009 B( 45-C , 46-C ) :   1.3404
B( 45-C , 49-C ) :   1.0643 B( 46-C , 90-H ) :   0.9889 B( 47-C , 59-C ) :   1.0918
B( 47-C , 91-H ) :   0.9592 B( 48-C , 53-C ) :   1.3416 B( 48-C , 92-H ) :   0.8707
B( 49-C , 50-C ) :   1.2919 B( 49-C , 52-S ) :   1.4446 B( 50-C , 51-C ) :   1.0995
B( 50-C , 54-C ) :   1.3021 B( 50-C , 62-C ) :   0.1127 B( 51-C , 61-C ) :   0.8106
B( 51-C , 62-C ) :   0.8054 B( 52-S , 53-C ) :   1.1806 B( 52-S , 54-C ) :   0.1568
B( 53-C , 54-C ) :   1.4814 B( 54-C , 93-H ) :   0.8830 B( 55-C , 56-C ) :   1.0003
B( 55-C , 63-C ) :   0.8318 B( 55-C , 64-C ) :   0.8146 B( 56-C , 57-C ) :   1.3225
B( 56-C , 58-C ) :   1.3304 B( 57-C , 60-S ) :   1.3828 B( 58-C , 59-C ) :   1.4251
B( 58-C , 60-S ) :   0.1407 B( 58-C , 94-H ) :   0.9591 B( 59-C , 60-S ) :   1.1435
B( 61-C , 67-C ) :   0.9478 B( 61-C , 95-H ) :   0.9736 B( 61-C , 96-H ) :   0.9655
B( 62-C , 68-C ) :   0.9544 B( 62-C , 97-H ) :   0.9657 B( 62-C , 98-H ) :   0.9683
B( 63-C , 65-C ) :   0.9656 B( 63-C , 99-H ) :   0.9660 B( 63-C ,100-H ) :   0.9593
B( 64-C , 66-C ) :   0.9502 B( 64-C ,101-H ) :   0.9702 B( 64-C ,102-H ) :   0.9576
B( 65-C ,103-H ) :   0.9790 B( 65-C ,104-H ) :   0.9763 B( 65-C ,105-H ) :   0.9709
B( 66-C ,106-H ) :   0.9798 B( 66-C ,107-H ) :   0.9778 B( 66-C ,108-H ) :   0.9747
B( 67-C ,109-H ) :   0.9740 B( 67-C ,110-H ) :   0.9787 B( 67-C ,111-H ) :   0.9793
B( 68-C ,112-H ) :   0.9789 B( 68-C ,113-H ) :   0.9774 B( 68-C ,114-H ) :   0.9721

-----------------------------------------------------------------------------
         ABSORPTION SPECTRUM VIA TRANSITION ELECTRIC DIPOLE MOMENTS
-----------------------------------------------------------------------------
State   Energy    Wavelength  fosc         T2        TX        TY        TZ
        (cm-1)      (nm)                 (au**2)    (au)      (au)      (au)
-----------------------------------------------------------------------------
   1   15682.8    637.6   2.111515332  44.32469   3.54148  -5.62297  -0.40604
   2   17956.8    556.9   0.304401654   5.58078   1.82382  -1.49008   0.18470
   3   20363.3    491.1   0.241504878   3.90440  -1.64642   1.00515  -0.42823
   4   20709.5    482.9   0.290139781   4.61225   0.79380  -1.99549   0.01232
   5   21915.2    456.3   0.057443521   0.86292  -0.05765  -0.82589  -0.42131
   6   22987.5    435.0   0.472619625   6.76855  -2.08830   1.53561  -0.22241
   7   24813.8    403.0   0.011305803   0.15000   0.09734   0.27060  -0.25942
   8   25325.9    394.9   0.002023117   0.02630  -0.13492  -0.02506   0.08642
   9   25766.2    388.1   0.019318474   0.24683   0.37199  -0.32903   0.01389
  10   26017.2    384.4   0.039513748   0.49999  -0.08842   0.67275  -0.19897
  11   26319.6    379.9   0.029598157   0.37022   0.41688  -0.42384  -0.12960
  12   27168.6    368.1   0.007176736   0.08696   0.27175   0.04315   0.10609
  13   27369.3    365.4   0.000533009   0.00641   0.05709  -0.05351  -0.01699
  14   27493.5    363.7   0.008543394   0.10230  -0.21673  -0.23499  -0.01028
  15   27811.1    359.6   0.043652163   0.51673   0.50830  -0.49965  -0.09337
  16   28043.1    356.6   0.130143667   1.52782  -0.30882   1.19082  -0.11997
  17   28376.9    352.4   0.046509734   0.53958  -0.10285   0.72432   0.06598
  18   28416.1    351.9   0.233974107   2.71069  -0.59961   1.50659  -0.28524
  19   28804.4    347.2   0.021050184   0.24059   0.38654  -0.07077   0.29354
  20   29491.1    339.1   0.045828655   0.51159  -0.08624   0.69739  -0.13339
  21   29879.5    334.7   0.006673579   0.07353   0.13058  -0.22671   0.07126
  22   29889.6    334.6   0.009990618   0.11004   0.31315   0.07137   0.08295
  23   30247.3    330.6   0.010555365   0.11488   0.32878   0.06943   0.04437
  24   30566.4    327.2   0.055940529   0.60250  -0.38870   0.55901  -0.37272
  25   30642.9    326.3   0.005872230   0.06309  -0.08477   0.22736  -0.06488
  26   30770.8    325.0   0.004142588   0.04432   0.20710  -0.01306   0.03547
  27   31094.7    321.6   0.015078753   0.15964   0.27615   0.24988   0.14472
  28   31352.9    318.9   0.001698739   0.01784  -0.08024   0.07597   0.07502
  29   31756.3    314.9   0.000803486   0.00833  -0.05862  -0.06697   0.02021
  30   31924.2    313.2   0.005222240   0.05385   0.16361  -0.15670   0.05030
  31   31993.8    312.6   0.001212967   0.01248  -0.02443   0.07063  -0.08304
  32   32221.8    310.3   0.006401609   0.06541  -0.04144  -0.24578   0.05727
  33   32408.6    308.6   0.009043269   0.09186   0.17709  -0.23873   0.05925
  34   32690.7    305.9   0.052966231   0.53340   0.10144   0.71993  -0.06935
  35   32758.6    305.3   0.031364563   0.31520   0.01201  -0.55497   0.08408
  36   33009.2    302.9   0.013573402   0.13537  -0.29138  -0.21634   0.06055
  37   33743.1    296.4   0.262962178   2.56557  -0.83043  -1.34021   0.28247
  38   33829.3    295.6   0.172798487   1.68160   0.56269  -0.94489   0.68715
  39   33872.2    295.2   0.075834960   0.73706   0.49027  -0.53931   0.45369
  40   34212.7    292.3   0.076259284   0.73381   0.71047  -0.32157   0.35445
  41   34278.7    291.7   0.311432798   2.99099   0.87432   1.41165  -0.48352
  42   34497.6    289.9   0.008268732   0.07891   0.20421  -0.19249   0.01237
  43   34555.8    289.4   0.088145596   0.83976   0.21942   0.81367  -0.35993
  44   34931.4    286.3   0.004668325   0.04400  -0.16520  -0.11710   0.05473
  45   35004.8    285.7   0.064179274   0.60359  -0.32410   0.56776  -0.41977
  46   35059.6    285.2   0.001615329   0.01517   0.00787  -0.01703   0.12172
  47   35511.8    281.6   0.003560099   0.03300  -0.01022   0.05309  -0.17344
  48   35587.8    281.0   0.011244447   0.10402  -0.05989   0.30662   0.08009
  49   35928.0    278.3   0.006449110   0.05909  -0.11177   0.21071   0.04694
  50   36104.0    277.0   0.001916753   0.01748  -0.02868   0.12905  -0.00112

FINAL SINGLE POINT ENERGY     -3517.106340654056

DIPOLE MOMENT
-------------
                                X             Y             Z
Electronic contribution:     37.67580      24.36713       6.30311
Nuclear contribution   :    -40.53748     -25.00434      -7.43165
                        -----------------------------------------
Total Dipole Moment    :     -2.86168      -0.63721      -1.12854
                        -----------------------------------------
Magnitude (a.u.)       :      3.14147
Magnitude (Debye)      :      7.98499

Rotational constants in cm-1:     0.002915     0.000291     0.000273
Rotational constants in MHz :    87.402974     8.737504     8.196005

                             ****ORCA TERMINATED NORMALLY****
TOTAL RUN TIME: 3 days 9 hours 50 minutes 36 seconds 126 msec
