                         Program Version 4.2.0 -  RELEASE  -
|  1> # ORCA input file
|  2> # ../FDICTF.out
|  3> ! B3LYP def2-TZVP def2/J RIJCOSX Grid4 TightSCF
|  4> %maxcore 10000
|  5> %tddft
|  6>   maxdim 5
|  7>   nroots 50
|  8>   end
|  9> * xyz 0 1
| 10>    C        0.07759        -1.52869         0.93688
| 11>    O        0.48555        -1.65927         2.06911
| 12>    C        0.37228        -0.43876        -0.01512
| 13>    C        1.12046         0.70580         0.17670
| 14>    C        1.23074         1.60199        -0.87766
| 15>    C        0.59696         1.34976        -2.08554
| 16>    C       -0.15051         0.19610        -2.28561
| 17>    C       -0.25864        -0.70905        -1.24287
| 18>    C       -0.92348        -2.01126        -1.15458
| 19>    C       -1.27562        -2.77974        -2.23586
| 20>    C       -1.65469        -4.13344        -2.16044
| 21>    N       -1.94455        -5.24479        -2.16997
| 22>    C       -1.22616        -2.33334        -3.57183
| 23>    N       -1.23665        -2.02161        -4.67696
| 24>    C       -0.87739        -2.42213         0.22766
| 25>    C       -1.54716        -3.36406         0.95649
| 26>    C       -2.72105        -4.07795         0.65803
| 27>    C       -3.71448        -3.83011        -0.28565
| 28>    C       -4.72576        -4.77448        -0.24657
| 29>    C       -4.52112        -5.75173         0.71862
| 30>    S       -3.09798        -5.49733         1.62570
| 31>    C       -5.56603        -6.72237         0.67563
| 32>    C       -6.45030        -6.34224        -0.36392
| 33>    C       -5.97698        -5.06435        -1.04042
| 34>    C       -6.94934        -3.88386        -0.82271
| 35>    C       -8.26583        -3.93167        -1.58523
| 36>    C       -5.55249        -5.24516        -2.52023
| 37>    C       -6.37024        -6.21576        -3.36287
| 38>    C       -7.55397        -7.12449        -0.62586
| 39>    C       -7.75194        -8.26484         0.14853
| 40>    C       -6.87526        -8.62457         1.18974
| 41>    C       -5.76149        -7.85989         1.45313
| 42>    C       -7.33376        -9.90252         1.85141
| 43>    C       -6.23829       -10.97883         1.85679
| 44>    C       -5.76617       -11.33305         0.45126
| 45>    C       -7.88928        -9.64560         3.27302
| 46>    C       -6.90362        -9.05729         4.27362
| 47>    C       -8.51070       -10.28729         0.98196
| 48>    C       -8.76694        -9.28873         0.02484
| 49>    C       -9.82976        -9.38579        -0.86960
| 50>    C      -10.61623       -10.51469        -0.81565
| 51>    C      -10.35753       -11.50850         0.15765
| 52>    C       -9.30916       -11.40477         1.06680
| 53>    C      -11.35075       -12.51911        -0.00984
| 54>    C      -12.23553       -12.18502        -1.02663
| 55>    C      -11.82484       -10.88111        -1.66377
| 56>    C      -11.44206       -11.19661        -3.12673
| 57>    C      -10.90262       -10.02858        -3.94095
| 58>    C      -12.88910        -9.77728        -1.51570
| 59>    C      -14.20234       -10.03978        -2.24068
| 60>    C      -13.20314       -13.15835        -1.23287
| 61>    C      -13.04662       -14.25410        -0.39405
| 62>    S      -11.69216       -14.03511         0.70353
| 63>    C      -13.88910       -15.38654        -0.34416
| 64>    C      -13.63148       -16.62433         0.16211
| 65>    C      -12.39501       -17.28954         0.50915
| 66>    C      -11.18614       -17.11930        -0.11350
| 67>    C      -10.03256       -17.86849         0.19037
| 68>    N       -9.06100       -18.43832         0.41286
| 69>    C      -10.99470       -16.23986        -1.19945
| 70>    N      -10.81884       -15.57537        -2.11910
| 71>    C      -12.73586       -18.39332         1.40442
| 72>    C      -11.93971       -19.24179         2.15536
| 73>    C      -12.55546       -20.24799         2.88822
| 74>    C      -13.93287       -20.41543         2.87248
| 75>    C      -14.73962       -19.56572         2.12815
| 76>    C      -14.13369       -18.55796         1.40360
| 77>    C      -14.75357       -17.51596         0.55769
| 78>    O      -15.92350       -17.37849         0.27990
| 79>    H        1.60249         0.88447         1.12548
| 80>    H        1.81210         2.50372        -0.75752
| 81>    H        0.68559         2.06279        -2.89149
| 82>    H       -0.63788         0.02707        -3.23230
| 83>    H       -1.13090        -3.53640         1.94534
| 84>    H       -3.69909        -2.97210        -0.93372
| 85>    H       -6.41891        -2.97009        -1.10298
| 86>    H       -7.16279        -3.82362         0.24840
| 87>    H       -8.09758        -3.95390        -2.65802
| 88>    H       -8.84336        -3.03840        -1.35479
| 89>    H       -8.85695        -4.79517        -1.29592
| 90>    H       -4.51710        -5.59623        -2.52715
| 91>    H       -5.56088        -4.25943        -2.99072
| 92>    H       -6.30695        -7.22389        -2.96157
| 93>    H       -5.96461        -6.22904        -4.37245
| 94>    H       -7.41519        -5.92650        -3.42381
| 95>    H       -8.24689        -6.89094        -1.41685
| 96>    H       -5.04148        -8.12193         2.21262
| 97>    H       -6.62674       -11.87404         2.34659
| 98>    H       -5.38764       -10.62009         2.43727
| 99>    H       -6.58824       -11.72138        -0.14595
|100>    H       -4.98815       -12.09115         0.49814
|101>    H       -5.36213       -10.45621        -0.05017
|102>    H       -8.26454       -10.59644         3.65777
|103>    H       -8.74235        -8.96757         3.18174
|104>    H       -6.02943        -9.69192         4.39030
|105>    H       -7.38721        -8.96986         5.24427
|106>    H       -6.58318        -8.06548         3.96672
|107>    H      -10.02149        -8.59201        -1.57412
|108>    H       -9.14120       -12.18128         1.79775
|109>    H      -12.32530       -11.60324        -3.62169
|110>    H      -10.69076       -11.98988        -3.10541
|111>    H      -11.60357        -9.19795        -3.96078
|112>    H      -10.73808       -10.35456        -4.96566
|113>    H       -9.95221        -9.68285        -3.54442
|114>    H      -12.46203        -8.83932        -1.87335
|115>    H      -13.09104        -9.65543        -0.44788
|116>    H      -14.87566        -9.19957        -2.08440
|117>    H      -14.68587       -10.93326        -1.85655
|118>    H      -14.04886       -10.15435        -3.31012
|119>    H      -13.97332       -13.13141        -1.98229
|120>    H      -14.90681       -15.23081        -0.69087
|121>    H      -10.86815       -19.12521         2.18626
|122>    H      -11.94602       -20.91372         3.48086
|123>    H      -14.37986       -21.21320         3.44640
|124>    H      -15.81256       -19.67911         2.10583
|125> *
|126>
|127>                          ****END OF INPUT****

CARTESIAN COORDINATES (ANGSTROEM)
---------------------------------
  C      0.077590   -1.528690    0.936880
  O      0.485550   -1.659270    2.069110
  C      0.372280   -0.438760   -0.015120
  C      1.120460    0.705800    0.176700
  C      1.230740    1.601990   -0.877660
  C      0.596960    1.349760   -2.085540
  C     -0.150510    0.196100   -2.285610
  C     -0.258640   -0.709050   -1.242870
  C     -0.923480   -2.011260   -1.154580
  C     -1.275620   -2.779740   -2.235860
  C     -1.654690   -4.133440   -2.160440
  N     -1.944550   -5.244790   -2.169970
  C     -1.226160   -2.333340   -3.571830
  N     -1.236650   -2.021610   -4.676960
  C     -0.877390   -2.422130    0.227660
  C     -1.547160   -3.364060    0.956490
  C     -2.721050   -4.077950    0.658030
  C     -3.714480   -3.830110   -0.285650
  C     -4.725760   -4.774480   -0.246570
  C     -4.521120   -5.751730    0.718620
  S     -3.097980   -5.497330    1.625700
  C     -5.566030   -6.722370    0.675630
  C     -6.450300   -6.342240   -0.363920
  C     -5.976980   -5.064350   -1.040420
  C     -6.949340   -3.883860   -0.822710
  C     -8.265830   -3.931670   -1.585230
  C     -5.552490   -5.245160   -2.520230
  C     -6.370240   -6.215760   -3.362870
  C     -7.553970   -7.124490   -0.625860
  C     -7.751940   -8.264840    0.148530
  C     -6.875260   -8.624570    1.189740
  C     -5.761490   -7.859890    1.453130
  C     -7.333760   -9.902520    1.851410
  C     -6.238290  -10.978830    1.856790
  C     -5.766170  -11.333050    0.451260
  C     -7.889280   -9.645600    3.273020
  C     -6.903620   -9.057290    4.273620
  C     -8.510700  -10.287290    0.981960
  C     -8.766940   -9.288730    0.024840
  C     -9.829760   -9.385790   -0.869600
  C    -10.616230  -10.514690   -0.815650
  C    -10.357530  -11.508500    0.157650
  C     -9.309160  -11.404770    1.066800
  C    -11.350750  -12.519110   -0.009840
  C    -12.235530  -12.185020   -1.026630
  C    -11.824840  -10.881110   -1.663770
  C    -11.442060  -11.196610   -3.126730
  C    -10.902620  -10.028580   -3.940950
  C    -12.889100   -9.777280   -1.515700
  C    -14.202340  -10.039780   -2.240680
  C    -13.203140  -13.158350   -1.232870
  C    -13.046620  -14.254100   -0.394050
  S    -11.692160  -14.035110    0.703530
  C    -13.889100  -15.386540   -0.344160
  C    -13.631480  -16.624330    0.162110
  C    -12.395010  -17.289540    0.509150
  C    -11.186140  -17.119300   -0.113500
  C    -10.032560  -17.868490    0.190370
  N     -9.061000  -18.438320    0.412860
  C    -10.994700  -16.239860   -1.199450
  N    -10.818840  -15.575370   -2.119100
  C    -12.735860  -18.393320    1.404420
  C    -11.939710  -19.241790    2.155360
  C    -12.555460  -20.247990    2.888220
  C    -13.932870  -20.415430    2.872480
  C    -14.739620  -19.565720    2.128150
  C    -14.133690  -18.557960    1.403600
  C    -14.753570  -17.515960    0.557690
  O    -15.923500  -17.378490    0.279900
  H      1.602490    0.884470    1.125480
  H      1.812100    2.503720   -0.757520
  H      0.685590    2.062790   -2.891490
  H     -0.637880    0.027070   -3.232300
  H     -1.130900   -3.536400    1.945340
  H     -3.699090   -2.972100   -0.933720
  H     -6.418910   -2.970090   -1.102980
  H     -7.162790   -3.823620    0.248400
  H     -8.097580   -3.953900   -2.658020
  H     -8.843360   -3.038400   -1.354790
  H     -8.856950   -4.795170   -1.295920
  H     -4.517100   -5.596230   -2.527150
  H     -5.560880   -4.259430   -2.990720
  H     -6.306950   -7.223890   -2.961570
  H     -5.964610   -6.229040   -4.372450
  H     -7.415190   -5.926500   -3.423810
  H     -8.246890   -6.890940   -1.416850
  H     -5.041480   -8.121930    2.212620
  H     -6.626740  -11.874040    2.346590
  H     -5.387640  -10.620090    2.437270
  H     -6.588240  -11.721380   -0.145950
  H     -4.988150  -12.091150    0.498140
  H     -5.362130  -10.456210   -0.050170
  H     -8.264540  -10.596440    3.657770
  H     -8.742350   -8.967570    3.181740
  H     -6.029430   -9.691920    4.390300
  H     -7.387210   -8.969860    5.244270
  H     -6.583180   -8.065480    3.966720
  H    -10.021490   -8.592010   -1.574120
  H     -9.141200  -12.181280    1.797750
  H    -12.325300  -11.603240   -3.621690
  H    -10.690760  -11.989880   -3.105410
  H    -11.603570   -9.197950   -3.960780
  H    -10.738080  -10.354560   -4.965660
  H     -9.952210   -9.682850   -3.544420
  H    -12.462030   -8.839320   -1.873350
  H    -13.091040   -9.655430   -0.447880
  H    -14.875660   -9.199570   -2.084400
  H    -14.685870  -10.933260   -1.856550
  H    -14.048860  -10.154350   -3.310120
  H    -13.973320  -13.131410   -1.982290
  H    -14.906810  -15.230810   -0.690870
  H    -10.868150  -19.125210    2.186260
  H    -11.946020  -20.913720    3.480860
  H    -14.379860  -21.213200    3.446400
  H    -15.812560  -19.679110    2.105830

 Total Charge           Charge          ....    0
 Multiplicity           Mult            ....    1
 Number of Electrons    NEL             ....  488
 Basis Dimension        Dim             .... 2427

ORBITAL ENERGIES
----------------

  NO   OCC          E(Eh)            E(eV)
   0   2.0000     -88.905492     -2419.2414
   1   2.0000     -88.903142     -2419.1775
   2   2.0000     -19.122794      -520.3577
   3   2.0000     -19.122616      -520.3528
   4   2.0000     -14.324358      -389.7856
   5   2.0000     -14.322243      -389.7280
   6   2.0000     -14.321370      -389.7043
   7   2.0000     -14.319973      -389.6663
   8   2.0000     -10.267808      -279.4012
   9   2.0000     -10.266911      -279.3769
  10   2.0000     -10.249153      -278.8936
  11   2.0000     -10.248346      -278.8717
  12   2.0000     -10.247633      -278.8523
  13   2.0000     -10.245876      -278.8045
  14   2.0000     -10.228387      -278.3286
  15   2.0000     -10.226982      -278.2903
  16   2.0000     -10.224026      -278.2099
  17   2.0000     -10.223825      -278.2044
  18   2.0000     -10.222142      -278.1586
  19   2.0000     -10.221987      -278.1544
  20   2.0000     -10.221765      -278.1484
  21   2.0000     -10.221183      -278.1325
  22   2.0000     -10.219688      -278.0919
  23   2.0000     -10.218156      -278.0502
  24   2.0000     -10.215254      -277.9712
  25   2.0000     -10.215216      -277.9702
  26   2.0000     -10.208495      -277.7873
  27   2.0000     -10.208135      -277.7775
  28   2.0000     -10.204546      -277.6798
  29   2.0000     -10.204237      -277.6714
  30   2.0000     -10.204190      -277.6701
  31   2.0000     -10.203820      -277.6601
  32   2.0000     -10.203379      -277.6481
  33   2.0000     -10.202917      -277.6355
  34   2.0000     -10.201802      -277.6051
  35   2.0000     -10.201750      -277.6037
  36   2.0000     -10.201595      -277.5995
  37   2.0000     -10.201397      -277.5941
  38   2.0000     -10.201200      -277.5888
  39   2.0000     -10.201199      -277.5887
  40   2.0000     -10.201021      -277.5839
  41   2.0000     -10.200991      -277.5831
  42   2.0000     -10.200808      -277.5781
  43   2.0000     -10.200568      -277.5716
  44   2.0000     -10.200438      -277.5680
  45   2.0000     -10.199369      -277.5389
  46   2.0000     -10.197580      -277.4903
  47   2.0000     -10.196390      -277.4579
  48   2.0000     -10.195871      -277.4438
  49   2.0000     -10.194630      -277.4100
  50   2.0000     -10.194540      -277.4075
  51   2.0000     -10.193426      -277.3772
  52   2.0000     -10.192915      -277.3633
  53   2.0000     -10.192769      -277.3594
  54   2.0000     -10.191870      -277.3349
  55   2.0000     -10.191675      -277.3296
  56   2.0000     -10.191373      -277.3214
  57   2.0000     -10.184845      -277.1437
  58   2.0000     -10.183940      -277.1191
  59   2.0000     -10.181961      -277.0652
  60   2.0000     -10.179778      -277.0059
  61   2.0000     -10.178974      -276.9840
  62   2.0000     -10.176582      -276.9189
  63   2.0000     -10.169863      -276.7360
  64   2.0000     -10.169756      -276.7331
  65   2.0000     -10.166278      -276.6385
  66   2.0000     -10.166261      -276.6380
  67   2.0000     -10.162196      -276.5274
  68   2.0000     -10.158671      -276.4315
  69   2.0000      -7.981762      -217.1948
  70   2.0000      -7.979879      -217.1435
  71   2.0000      -5.944100      -161.7472
  72   2.0000      -5.942260      -161.6971
  73   2.0000      -5.940481      -161.6487
  74   2.0000      -5.938593      -161.5973
  75   2.0000      -5.938586      -161.5971
  76   2.0000      -5.936563      -161.5421
  77   2.0000      -1.052751       -28.6468
  78   2.0000      -1.052731       -28.6463
  79   2.0000      -0.939517       -25.5656
  80   2.0000      -0.937759       -25.5177
  81   2.0000      -0.932845       -25.3840
  82   2.0000      -0.930032       -25.3074
  83   2.0000      -0.919386       -25.0178
  84   2.0000      -0.916700       -24.9447
  85   2.0000      -0.914063       -24.8729
  86   2.0000      -0.913539       -24.8587
  87   2.0000      -0.910702       -24.7815
  88   2.0000      -0.883411       -24.0388
  89   2.0000      -0.873783       -23.7769
  90   2.0000      -0.864738       -23.5307
  91   2.0000      -0.862260       -23.4633
  92   2.0000      -0.841479       -22.8978
  93   2.0000      -0.829352       -22.5678
  94   2.0000      -0.823915       -22.4199
  95   2.0000      -0.822626       -22.3848
  96   2.0000      -0.816115       -22.2076
  97   2.0000      -0.808192       -21.9920
  98   2.0000      -0.796558       -21.6754
  99   2.0000      -0.780852       -21.2481
 100   2.0000      -0.780570       -21.2404
 101   2.0000      -0.778004       -21.1706
 102   2.0000      -0.770040       -20.9538
 103   2.0000      -0.768982       -20.9251
 104   2.0000      -0.766349       -20.8534
 105   2.0000      -0.765277       -20.8242
 106   2.0000      -0.764213       -20.7953
 107   2.0000      -0.763064       -20.7640
 108   2.0000      -0.761892       -20.7321
 109   2.0000      -0.750024       -20.4092
 110   2.0000      -0.726626       -19.7725
 111   2.0000      -0.718951       -19.5636
 112   2.0000      -0.701946       -19.1009
 113   2.0000      -0.698616       -19.0103
 114   2.0000      -0.691015       -18.8035
 115   2.0000      -0.686944       -18.6927
 116   2.0000      -0.684391       -18.6232
 117   2.0000      -0.675149       -18.3717
 118   2.0000      -0.656911       -17.8755
 119   2.0000      -0.640005       -17.4154
 120   2.0000      -0.637002       -17.3337
 121   2.0000      -0.634381       -17.2624
 122   2.0000      -0.628521       -17.1029
 123   2.0000      -0.627134       -17.0652
 124   2.0000      -0.626110       -17.0373
 125   2.0000      -0.623939       -16.9783
 126   2.0000      -0.612372       -16.6635
 127   2.0000      -0.609132       -16.5753
 128   2.0000      -0.603579       -16.4242
 129   2.0000      -0.602632       -16.3984
 130   2.0000      -0.595467       -16.2035
 131   2.0000      -0.586745       -15.9661
 132   2.0000      -0.577951       -15.7268
 133   2.0000      -0.573453       -15.6045
 134   2.0000      -0.569449       -15.4955
 135   2.0000      -0.564355       -15.3569
 136   2.0000      -0.556430       -15.1412
 137   2.0000      -0.551023       -14.9941
 138   2.0000      -0.546179       -14.8623
 139   2.0000      -0.539240       -14.6735
 140   2.0000      -0.534890       -14.5551
 141   2.0000      -0.531742       -14.4694
 142   2.0000      -0.521234       -14.1835
 143   2.0000      -0.517833       -14.0910
 144   2.0000      -0.505640       -13.7592
 145   2.0000      -0.503291       -13.6953
 146   2.0000      -0.502742       -13.6803
 147   2.0000      -0.496113       -13.4999
 148   2.0000      -0.491711       -13.3801
 149   2.0000      -0.486051       -13.2261
 150   2.0000      -0.480018       -13.0620
 151   2.0000      -0.477401       -12.9907
 152   2.0000      -0.475421       -12.9369
 153   2.0000      -0.473570       -12.8865
 154   2.0000      -0.472588       -12.8598
 155   2.0000      -0.470905       -12.8140
 156   2.0000      -0.469018       -12.7626
 157   2.0000      -0.465844       -12.6763
 158   2.0000      -0.461621       -12.5613
 159   2.0000      -0.460010       -12.5175
 160   2.0000      -0.459914       -12.5149
 161   2.0000      -0.457938       -12.4611
 162   2.0000      -0.456383       -12.4188
 163   2.0000      -0.454794       -12.3756
 164   2.0000      -0.453292       -12.3347
 165   2.0000      -0.450495       -12.2586
 166   2.0000      -0.448412       -12.2019
 167   2.0000      -0.441464       -12.0129
 168   2.0000      -0.440343       -11.9823
 169   2.0000      -0.437907       -11.9161
 170   2.0000      -0.435856       -11.8602
 171   2.0000      -0.432623       -11.7723
 172   2.0000      -0.429808       -11.6957
 173   2.0000      -0.429567       -11.6891
 174   2.0000      -0.426142       -11.5959
 175   2.0000      -0.424992       -11.5646
 176   2.0000      -0.423700       -11.5295
 177   2.0000      -0.422588       -11.4992
 178   2.0000      -0.419177       -11.4064
 179   2.0000      -0.417094       -11.3497
 180   2.0000      -0.412329       -11.2200
 181   2.0000      -0.410277       -11.1642
 182   2.0000      -0.407575       -11.0907
 183   2.0000      -0.403679       -10.9847
 184   2.0000      -0.401029       -10.9125
 185   2.0000      -0.398749       -10.8505
 186   2.0000      -0.393890       -10.7183
 187   2.0000      -0.392178       -10.6717
 188   2.0000      -0.391463       -10.6522
 189   2.0000      -0.390338       -10.6216
 190   2.0000      -0.387993       -10.5578
 191   2.0000      -0.387082       -10.5330
 192   2.0000      -0.386402       -10.5145
 193   2.0000      -0.385832       -10.4990
 194   2.0000      -0.385337       -10.4855
 195   2.0000      -0.384308       -10.4575
 196   2.0000      -0.382360       -10.4045
 197   2.0000      -0.380691       -10.3591
 198   2.0000      -0.380152       -10.3445
 199   2.0000      -0.378876       -10.3097
 200   2.0000      -0.377802       -10.2805
 201   2.0000      -0.375962       -10.2304
 202   2.0000      -0.374367       -10.1870
 203   2.0000      -0.373134       -10.1535
 204   2.0000      -0.371965       -10.1217
 205   2.0000      -0.370212       -10.0740
 206   2.0000      -0.369767       -10.0619
 207   2.0000      -0.365705        -9.9513
 208   2.0000      -0.364574        -9.9205
 209   2.0000      -0.361922        -9.8484
 210   2.0000      -0.358395        -9.7524
 211   2.0000      -0.357846        -9.7375
 212   2.0000      -0.356247        -9.6940
 213   2.0000      -0.355516        -9.6741
 214   2.0000      -0.352714        -9.5978
 215   2.0000      -0.350091        -9.5265
 216   2.0000      -0.345661        -9.4059
 217   2.0000      -0.343850        -9.3566
 218   2.0000      -0.342175        -9.3111
 219   2.0000      -0.341702        -9.2982
 220   2.0000      -0.339901        -9.2492
 221   2.0000      -0.337423        -9.1817
 222   2.0000      -0.336882        -9.1670
 223   2.0000      -0.333244        -9.0680
 224   2.0000      -0.332277        -9.0417
 225   2.0000      -0.327063        -8.8998
 226   2.0000      -0.325382        -8.8541
 227   2.0000      -0.323914        -8.8142
 228   2.0000      -0.321232        -8.7412
 229   2.0000      -0.310272        -8.4429
 230   2.0000      -0.292955        -7.9717
 231   2.0000      -0.284748        -7.7484
 232   2.0000      -0.284549        -7.7430
 233   2.0000      -0.274227        -7.4621
 234   2.0000      -0.273526        -7.4430
 235   2.0000      -0.271533        -7.3888
 236   2.0000      -0.270756        -7.3676
 237   2.0000      -0.270558        -7.3622
 238   2.0000      -0.266397        -7.2490
 239   2.0000      -0.264681        -7.2023
 240   2.0000      -0.259409        -7.0589
 241   2.0000      -0.253664        -6.9026
 242   2.0000      -0.226491        -6.1631
 243   2.0000      -0.203958        -5.5500
 244   0.0000      -0.126332        -3.4377
 245   0.0000      -0.118680        -3.2295
 246   0.0000      -0.099750        -2.7143
 247   0.0000      -0.096702        -2.6314
 248   0.0000      -0.066151        -1.8001

MULLIKEN ATOMIC CHARGES
-----------------------
   0 C :    0.221313
   1 O :   -0.292778
   2 C :   -0.003557
   3 C :   -0.212579
   4 C :   -0.064206
   5 C :   -0.107466
   6 C :   -0.174023
   7 C :    0.119858
   8 C :   -0.024607
   9 C :    0.095057
  10 C :   -0.195173
  11 N :    0.013491
  12 C :   -0.238502
  13 N :    0.038688
  14 C :    0.000646
  15 C :   -0.245540
  16 C :    0.287005
  17 C :   -0.456712
  18 C :    0.135925
  19 C :   -0.122766
  20 S :    0.039279
  21 C :    0.336453
  22 C :   -0.025176
  23 C :    0.372274
  24 C :   -0.199504
  25 C :   -0.371322
  26 C :   -0.241880
  27 C :   -0.360646
  28 C :   -0.451804
  29 C :    0.259358
  30 C :   -0.185388
  31 C :   -0.445610
  32 C :    0.438602
  33 C :   -0.218804
  34 C :   -0.359040
  35 C :   -0.153149
  36 C :   -0.372559
  37 C :   -0.102082
  38 C :    0.222289
  39 C :   -0.391658
  40 C :    0.002350
  41 C :    0.320696
  42 C :   -0.360918
  43 C :   -0.128106
  44 C :    0.006173
  45 C :    0.340295
  46 C :   -0.218990
  47 C :   -0.375120
  48 C :   -0.211753
  49 C :   -0.367486
  50 C :   -0.279884
  51 C :    0.238740
  52 S :    0.019481
  53 C :   -0.274314
  54 C :   -0.000881
  55 C :   -0.004629
  56 C :    0.142496
  57 C :   -0.249636
  58 N :    0.039862
  59 C :   -0.224742
  60 N :    0.032392
  61 C :    0.112301
  62 C :   -0.175515
  63 C :   -0.101975
  64 C :   -0.070530
  65 C :   -0.202555
  66 C :   -0.006649
  67 C :    0.203926
  68 O :   -0.290290
  69 H :    0.133244
  70 H :    0.122222
  71 H :    0.124347
  72 H :    0.153968
  73 H :    0.144016
  74 H :    0.153162
  75 H :    0.094121
  76 H :    0.101257
  77 H :    0.118742
  78 H :    0.117071
  79 H :    0.111100
  80 H :    0.151777
  81 H :    0.092875
  82 H :    0.127440
  83 H :    0.121610
  84 H :    0.101569
  85 H :    0.142790
  86 H :    0.132339
  87 H :    0.092789
  88 H :    0.093303
  89 H :    0.125740
  90 H :    0.113946
  91 H :    0.123397
  92 H :    0.089929
  93 H :    0.098201
  94 H :    0.109993
  95 H :    0.116557
  96 H :    0.123243
  97 H :    0.141384
  98 H :    0.106908
  99 H :    0.102941
 100 H :    0.127514
 101 H :    0.105734
 102 H :    0.121859
 103 H :    0.122856
 104 H :    0.099024
 105 H :    0.103590
 106 H :    0.117338
 107 H :    0.112246
 108 H :    0.115001
 109 H :    0.139450
 110 H :    0.143690
 111 H :    0.150180
 112 H :    0.125080
 113 H :    0.122912
 114 H :    0.133103
Sum of atomic charges:   -0.0000000

LOEWDIN ATOMIC CHARGES
----------------------
   0 C :   -0.254901
   1 O :    0.132195
   2 C :   -0.058143
   3 C :   -0.069942
   4 C :   -0.113587
   5 C :   -0.110186
   6 C :   -0.076323
   7 C :   -0.041580
   8 C :    0.005510
   9 C :   -0.145801
  10 C :   -0.156494
  11 N :    0.093375
  12 C :   -0.165956
  13 N :    0.077224
  14 C :   -0.083848
  15 C :   -0.068909
  16 C :   -0.335101
  17 C :   -0.084485
  18 C :   -0.090846
  19 C :   -0.281627
  20 S :    0.793394
  21 C :   -0.087458
  22 C :   -0.021606
  23 C :   -0.168607
  24 C :   -0.221413
  25 C :   -0.296910
  26 C :   -0.215382
  27 C :   -0.297472
  28 C :   -0.066972
  29 C :   -0.050705
  30 C :   -0.035360
  31 C :   -0.066963
  32 C :   -0.179750
  33 C :   -0.220404
  34 C :   -0.288532
  35 C :   -0.216472
  36 C :   -0.297982
  37 C :   -0.037808
  38 C :   -0.051304
  39 C :   -0.065268
  40 C :   -0.023496
  41 C :   -0.086884
  42 C :   -0.061409
  43 C :   -0.276939
  44 C :   -0.087804
  45 C :   -0.176872
  46 C :   -0.216520
  47 C :   -0.296969
  48 C :   -0.221570
  49 C :   -0.294074
  50 C :   -0.092489
  51 C :   -0.331579
  52 S :    0.823788
  53 C :   -0.057588
  54 C :   -0.089252
  55 C :   -0.001194
  56 C :   -0.150773
  57 C :   -0.163343
  58 N :    0.079224
  59 C :   -0.176559
  60 N :    0.086504
  61 C :   -0.041767
  62 C :   -0.075056
  63 C :   -0.109521
  64 C :   -0.113463
  65 C :   -0.069987
  66 C :   -0.057068
  67 C :   -0.254226
  68 O :    0.132431
  69 H :    0.155085
  70 H :    0.147069
  71 H :    0.148940
  72 H :    0.159120
  73 H :    0.169597
  74 H :    0.155379
  75 H :    0.140161
  76 H :    0.144899
  77 H :    0.118776
  78 H :    0.121129
  79 H :    0.116595
  80 H :    0.154785
  81 H :    0.140978
  82 H :    0.123185
  83 H :    0.122564
  84 H :    0.110364
  85 H :    0.146496
  86 H :    0.150105
  87 H :    0.138318
  88 H :    0.136546
  89 H :    0.123548
  90 H :    0.118722
  91 H :    0.123164
  92 H :    0.138982
  93 H :    0.145022
  94 H :    0.116441
  95 H :    0.120684
  96 H :    0.120403
  97 H :    0.147040
  98 H :    0.148749
  99 H :    0.139615
 100 H :    0.152354
 101 H :    0.115720
 102 H :    0.122775
 103 H :    0.119404
 104 H :    0.137079
 105 H :    0.145884
 106 H :    0.121310
 107 H :    0.118748
 108 H :    0.118337
 109 H :    0.150265
 110 H :    0.172662
 111 H :    0.158740
 112 H :    0.148982
 113 H :    0.147125
 114 H :    0.155008

  Mayer bond orders larger than 0.100000
B(  0-C ,  1-O ) :   2.1762 B(  0-C ,  2-C ) :   0.9713 B(  0-C , 14-C ) :   1.0022
B(  1-O ,  2-C ) :  -0.1490 B(  1-O , 14-C ) :  -0.1406 B(  1-O , 15-C ) :   0.1066
B(  2-C ,  3-C ) :   1.3837 B(  2-C ,  7-C ) :   1.3242 B(  3-C ,  4-C ) :   1.3739
B(  3-C , 69-H ) :   0.9826 B(  4-C ,  5-C ) :   1.3879 B(  4-C , 70-H ) :   0.9735
B(  5-C ,  6-C ) :   1.4187 B(  5-C , 71-H ) :   0.9682 B(  6-C ,  7-C ) :   1.3811
B(  6-C , 72-H ) :   0.9403 B(  7-C ,  8-C ) :   1.0286 B(  8-C ,  9-C ) :   1.4273
B(  8-C , 14-C ) :   1.1572 B(  9-C , 10-C ) :   1.0648 B(  9-C , 12-C ) :   1.0458
B( 10-C , 11-N ) :   2.9178 B( 12-C , 13-N ) :   3.0048 B( 14-C , 15-C ) :   1.4977
B( 15-C , 16-C ) :   1.1141 B( 15-C , 73-H ) :   0.9489 B( 16-C , 17-C ) :   1.4146
B( 16-C , 20-S ) :   1.1649 B( 17-C , 18-C ) :   1.2598 B( 17-C , 20-S ) :   0.1652
B( 17-C , 74-H ) :   0.9631 B( 18-C , 19-C ) :   1.3117 B( 18-C , 23-C ) :   0.9873
B( 19-C , 20-S ) :   1.4160 B( 19-C , 21-C ) :   1.0320 B( 21-C , 22-C ) :   1.2231
B( 21-C , 31-C ) :   1.2741 B( 22-C , 23-C ) :   1.1298 B( 22-C , 28-C ) :   1.3723
B( 23-C , 24-C ) :   0.8148 B( 23-C , 26-C ) :   0.8410 B( 24-C , 25-C ) :   0.9517
B( 24-C , 75-H ) :   0.9599 B( 24-C , 76-H ) :   0.9698 B( 25-C , 77-H ) :   0.9745
B( 25-C , 78-H ) :   0.9779 B( 25-C , 79-H ) :   0.9798 B( 26-C , 27-C ) :   0.9657
B( 26-C , 80-H ) :   0.9547 B( 26-C , 81-H ) :   0.9621 B( 27-C , 82-H ) :   0.9714
B( 27-C , 83-H ) :   0.9760 B( 27-C , 84-H ) :   0.9816 B( 28-C , 29-C ) :   1.3476
B( 28-C , 85-H ) :   0.9726 B( 29-C , 30-C ) :   1.2215 B( 29-C , 38-C ) :   1.1418
B( 30-C , 31-C ) :   1.3953 B( 30-C , 32-C ) :   1.0938 B( 30-C , 35-C ) :   0.1020
B( 31-C , 86-H ) :   0.9996 B( 32-C , 33-C ) :   0.7677 B( 32-C , 35-C ) :   0.8224
B( 32-C , 37-C ) :   1.0377 B( 33-C , 34-C ) :   0.9778 B( 33-C , 87-H ) :   0.9591
B( 33-C , 88-H ) :   0.9616 B( 34-C , 89-H ) :   0.9736 B( 34-C , 90-H ) :   0.9789
B( 34-C , 91-H ) :   0.9732 B( 35-C , 36-C ) :   0.9509 B( 35-C , 92-H ) :   0.9612
B( 35-C , 93-H ) :   0.9678 B( 36-C , 94-H ) :   0.9757 B( 36-C , 95-H ) :   0.9771
B( 36-C , 96-H ) :   0.9764 B( 37-C , 38-C ) :   1.2094 B( 37-C , 42-C ) :   1.4230
B( 38-C , 39-C ) :   1.3582 B( 39-C , 40-C ) :   1.3997 B( 39-C , 97-H ) :   0.9547
B( 40-C , 41-C ) :   1.2218 B( 40-C , 45-C ) :   1.1252 B( 40-C , 46-C ) :   0.1119
B( 41-C , 42-C ) :   1.3283 B( 41-C , 43-C ) :   1.0262 B( 42-C , 98-H ) :   0.9848
B( 43-C , 44-C ) :   1.3574 B( 43-C , 52-S ) :   1.3823 B( 44-C , 45-C ) :   1.0615
B( 44-C , 48-C ) :   0.1088 B( 44-C , 50-C ) :   1.3079 B( 45-C , 46-C ) :   0.8205
B( 45-C , 48-C ) :   0.8081 B( 46-C , 47-C ) :   0.9411 B( 46-C , 99-H ) :   0.9707
B( 46-C ,100-H ) :   0.9658 B( 47-C ,101-H ) :   0.9736 B( 47-C ,102-H ) :   0.9789
B( 47-C ,103-H ) :   0.9792 B( 48-C , 49-C ) :   0.9527 B( 48-C ,104-H ) :   0.9674
B( 48-C ,105-H ) :   0.9705 B( 49-C ,106-H ) :   0.9803 B( 49-C ,107-H ) :   0.9765
B( 49-C ,108-H ) :   0.9743 B( 50-C , 51-C ) :   1.4432 B( 50-C , 52-S ) :   0.1366
B( 50-C ,109-H ) :   0.9426 B( 51-C , 52-S ) :   1.1424 B( 51-C , 53-C ) :   1.0880
B( 53-C , 54-C ) :   1.5172 B( 53-C , 68-O ) :   0.1105 B( 53-C ,110-H ) :   0.9562
B( 54-C , 55-C ) :   1.1493 B( 54-C , 67-C ) :   0.9971 B( 54-C , 68-O ) :  -0.1453
B( 55-C , 56-C ) :   1.4318 B( 55-C , 61-C ) :   1.0453 B( 56-C , 57-C ) :   1.0448
B( 56-C , 59-C ) :   1.0416 B( 57-C , 58-N ) :   3.0058 B( 59-C , 60-N ) :   2.9698
B( 61-C , 62-C ) :   1.3770 B( 61-C , 66-C ) :   1.3228 B( 62-C , 63-C ) :   1.4188
B( 62-C ,111-H ) :   0.9452 B( 63-C , 64-C ) :   1.3873 B( 63-C ,112-H ) :   0.9669
B( 64-C , 65-C ) :   1.3779 B( 64-C ,113-H ) :   0.9722 B( 65-C , 66-C ) :   1.3850
B( 65-C ,114-H ) :   0.9805 B( 66-C , 67-C ) :   0.9656 B( 66-C , 68-O ) :  -0.1478
B( 67-C , 68-O ) :   2.1912

-----------------------------------------------------------------------------
         ABSORPTION SPECTRUM VIA TRANSITION ELECTRIC DIPOLE MOMENTS
-----------------------------------------------------------------------------
State   Energy    Wavelength  fosc         T2        TX        TY        TZ
        (cm-1)      (nm)                 (au**2)    (au)      (au)      (au)
-----------------------------------------------------------------------------
   1   15298.0    653.7   1.917292645  41.25997  -3.74002  -5.18868   0.59147
   2   17118.0    584.2   0.042370919   0.81488   0.81316  -0.10796  -0.37682
   3   19963.1    500.9   0.054327355   0.89591  -0.21790   0.79413   0.46668
   4   20316.5    492.2   0.579663855   9.39298  -2.20055  -2.13189   0.07497
   5   21609.3    462.8   0.117748381   1.79387  -0.20091  -1.27453   0.35927
   6   22060.6    453.3   0.150722468   2.24925   1.36871   0.32109  -0.52227
   7   24716.1    404.6   0.020506161   0.27314   0.44696   0.23882  -0.12777
   8   25131.7    397.9   0.007964313   0.10433   0.02918   0.14640   0.28643
   9   25855.0    386.8   0.042370341   0.53950   0.58274   0.43964   0.08143
  10   25999.5    384.6   0.024994240   0.31648   0.22876   0.51343  -0.02337
  11   26439.5    378.2   0.040445920   0.50361  -0.54284  -0.45709   0.00009
  12   27049.0    369.7   0.007262382   0.08839   0.12668   0.26467   0.04786
  13   27192.6    367.7   0.010304977   0.12476   0.30574   0.14962  -0.09431
  14   27281.5    366.5   0.055715344   0.67233  -0.12133  -0.63660   0.50235
  15   27585.5    362.5   0.043790430   0.52261  -0.56040  -0.45563  -0.03095
  16   27991.3    357.3   0.152337487   1.79168   0.85834   0.99712   0.24634
  17   28215.9    354.4   0.274730056   3.20544   1.13107   1.36262  -0.26342
  18   28440.1    351.6   0.015161410   0.17550   0.19765   0.04035   0.36716
  19   28733.9    348.0   0.020585425   0.23585  -0.16103   0.26750   0.37198
  20   28875.6    346.3   0.036242867   0.41321  -0.33657  -0.54430  -0.06061
  21   29199.9    342.5   0.060365116   0.68058  -0.29922  -0.76569   0.06905
  22   29466.3    339.4   0.025241795   0.28201  -0.29979  -0.43700   0.03421
  23   29892.4    334.5   0.001330727   0.01466  -0.04232   0.11250  -0.01440
  24   30276.9    330.3   0.160650581   1.74681   1.15155   0.32877   0.55916
  25   30621.7    326.6   0.006650518   0.07150  -0.02565  -0.11595  -0.23958
  26   30829.7    324.4   0.015956616   0.17039  -0.00863   0.26319  -0.31788
  27   30932.7    323.3   0.011966035   0.12735  -0.03361  -0.35495  -0.01524
  28   31146.5    321.1   0.002135739   0.02257  -0.14868  -0.02119  -0.00434
  29   31399.6    318.5   0.003681579   0.03860   0.07483   0.17286  -0.05586
  30   31492.3    317.5   0.011725589   0.12258   0.25047   0.20428   0.13458
  31   31672.0    315.7   0.000954621   0.00992  -0.07302  -0.02857   0.06144
  32   31800.3    314.5   0.000461096   0.00477  -0.03658  -0.04556   0.03687
  33   32176.6    310.8   0.006175959   0.06319  -0.19886  -0.07807  -0.13247
  34   32520.6    307.5   0.040148377   0.40643   0.27799   0.50552  -0.27128
  35   32735.3    305.5   0.004580769   0.04607   0.06173   0.19857   0.05318
  36   32781.1    305.1   0.021772108   0.21865  -0.16444  -0.36537   0.24107
  37   33402.0    299.4   0.199561888   1.96689  -0.59517  -1.22841  -0.32198
  38   33628.5    297.4   0.096673378   0.94640  -0.70388  -0.66269  -0.10860
  39   33831.7    295.6   0.191411753   1.86260  -0.92940  -0.52718   0.84906
  40   34158.6    292.8   0.098056240   0.94504  -0.65393  -0.62924   0.34853
  41   34335.0    291.2   0.058335383   0.55933   0.42265   0.59180   0.17456
  42   34414.6    290.6   0.009685690   0.09265   0.10141   0.10132  -0.26852
  43   34606.7    289.0   0.052280175   0.49734  -0.17379  -0.41119  -0.54595
  44   34696.9    288.2   0.047275481   0.44856   0.50175   0.18444  -0.40347
  45   34706.2    288.1   0.209341301   1.98575  -0.99125  -0.88665  -0.46586
  46   34901.0    286.5   0.039034628   0.36820   0.27065   0.43063  -0.33092
  47   35149.4    284.5   0.045051180   0.42195   0.21670   0.60767   0.07573
  48   35397.9    282.5   0.033405426   0.31068   0.00113   0.34364  -0.43885
  49   35504.6    281.7   0.017543965   0.16267   0.02794   0.07162   0.39594
  50   35853.9    278.9   0.018871299   0.17328   0.01262  -0.32286   0.26244

FINAL SINGLE POINT ENERGY     -3517.097071608523

DIPOLE MOMENT
-------------
                                X             Y             Z
Electronic contribution:     26.65029     -21.92130      14.71739
Nuclear contribution   :    -28.50590      23.76822     -12.96943
                        -----------------------------------------
Total Dipole Moment    :     -1.85561       1.84692       1.74796
                        -----------------------------------------
Magnitude (a.u.)       :      3.14798
Magnitude (Debye)      :      8.00153

Rotational constants in cm-1:     0.003035     0.000306     0.000293
Rotational constants in MHz :    90.975137     9.185461     8.795122

                             ****ORCA TERMINATED NORMALLY****
TOTAL RUN TIME: 1 days 11 hours 27 minutes 33 seconds 364 msec
