                         Program Version 4.2.0 -  RELEASE  -
|  1> # ORCA input file
|  2> # ../FO-2F.out
|  3> ! B3LYP def2-TZVP def2/J RIJCOSX Grid4 TightSCF
|  4> %maxcore 10000
|  5> %tddft
|  6>   maxdim 5
|  7>   nroots 50
|  8>   end
|  9> * xyz 0 1
| 10>    C        4.49030        -3.25906         2.00713
| 11>    O        5.64130        -3.42251         2.35873
| 12>    C        3.33413        -4.03274         2.51163
| 13>    C        3.34172        -5.07238         3.42027
| 14>    C        2.12625        -5.65582         3.73784
| 15>    F        2.08396        -6.66864         4.61238
| 16>    C        0.94535        -5.19808         3.15249
| 17>    F       -0.21473        -5.78220         3.47383
| 18>    C        0.93955        -4.15178         2.24212
| 19>    C        2.15254        -3.56241         1.91944
| 20>    C        2.48934        -2.46203         1.01559
| 21>    C        1.56867        -1.71606         0.32653
| 22>    C        1.83448        -0.61558        -0.51694
| 23>    N        1.94061         0.29370        -1.21115
| 24>    C        0.17476        -1.93462         0.38247
| 25>    N       -0.96670        -2.05283         0.37673
| 26>    C        3.93406        -2.30348         1.03012
| 27>    C        4.60340        -1.43085         0.20571
| 28>    C        5.96640        -1.13145         0.06766
| 29>    C        7.10737        -1.55620         0.73915
| 30>    C        8.27510        -0.98830         0.25250
| 31>    C        8.05610        -0.10279        -0.79535
| 32>    S        6.38981         0.02075        -1.19446
| 33>    C        9.13276         0.56786        -1.44748
| 34>    C       10.43249         0.14484        -1.08748
| 35>    O       10.66596        -0.81146        -0.16949
| 36>    C        9.66564        -1.16405         0.79888
| 37>    C        9.95277        -2.62494         1.17512
| 38>    C        9.68143        -3.58405         0.02167
| 39>    C        9.80011        -0.21111         2.01275
| 40>    C       11.17710        -0.23930         2.66372
| 41>    C       11.53368         0.66894        -1.75616
| 42>    C       11.33159         1.63528        -2.72516
| 43>    C       10.04015         2.10942        -3.03857
| 44>    C        8.94704         1.55419        -2.42444
| 45>    C       10.10753         3.18915        -4.09322
| 46>    C        9.24364         2.86237        -5.32081
| 47>    C        9.65135         1.55409        -5.98846
| 48>    C        9.76367         4.58089        -3.50959
| 49>    C        8.36065         4.73008        -2.93689
| 50>    C       11.58499         3.19271        -4.41917
| 51>    C       12.28577         2.29885        -3.58589
| 52>    C       13.65589         2.13567        -3.69282
| 53>    C       14.34768         2.87394        -4.64640
| 54>    C       13.65123         3.79822        -5.45820
| 55>    C       12.26449         3.94685        -5.34038
| 56>    C       14.45392         4.56617        -6.35207
| 57>    C       15.80124         4.30647        -6.53776
| 58>    C       16.42343         3.11025        -5.87022
| 59>    C       17.84342         3.40705        -5.36568
| 60>    C       17.89045         4.63208        -4.45920
| 61>    C       16.39449         1.95005        -6.89536
| 62>    C       16.96159         0.64336        -6.35475
| 63>    O       15.68354         2.71023        -4.70588
| 64>    C       16.40033         5.19472        -7.42323
| 65>    C       15.52166         6.13259        -7.94873
| 66>    S       13.92073         5.91912        -7.27476
| 67>    C       15.87209         7.18740        -8.81290
| 68>    C       15.07388         8.02693        -9.53597
| 69>    C       13.68513         7.94925        -9.92579
| 70>    C       12.98788         6.80407       -10.21005
| 71>    C       11.65036         6.78613       -10.65246
| 72>    N       10.55427         6.72077       -10.98651
| 73>    C       13.57455         5.52138       -10.17921
| 74>    N       14.03808         4.47196       -10.21900
| 75>    C       13.25697         9.30511       -10.26944
| 76>    C       12.00270         9.82085       -10.55037
| 77>    C       11.91522        11.16241       -10.89163
| 78>    F       10.71344        11.68829       -11.15298
| 79>    C       13.04777        11.97444       -10.96467
| 80>    F       12.91645        13.26187       -11.30632
| 81>    C       14.30550        11.46416       -10.68435
| 82>    C       14.39303        10.13163       -10.33306
| 83>    C       15.59579         9.34951        -9.95863
| 84>    O       16.74599         9.72117        -9.94657
| 85>    H        4.25854        -5.42131         3.86809
| 86>    H       -0.00098        -3.83960         1.81935
| 87>    H        3.98153        -0.87316        -0.48410
| 88>    H        7.05938        -2.25758         1.55060
| 89>    H        9.34570        -2.89397         2.03918
| 90>    H       11.00464        -2.69328         1.45125
| 91>    H        8.62508        -3.59805        -0.23647
| 92>    H        9.97816        -4.59149         0.30099
| 93>    H       10.25118        -3.28657        -0.85575
| 94>    H        9.03122        -0.47432         2.74080
| 95>    H        9.59341         0.80298         1.65726
| 96>    H       11.34951        -1.18169         3.17569
| 97>    H       11.25448         0.56368         3.39274
| 98>    H       11.95090        -0.10093         1.91259
| 99>    H       12.51892         0.30779        -1.50950
|100>    H        7.93693         1.83809        -2.67840
|101>    H        9.33032         3.67957        -6.03950
|102>    H        8.19982         2.79347        -5.01348
|103>    H       10.68087         1.60181        -6.33622
|104>    H        9.00955         1.35648        -6.84343
|105>    H        9.56298         0.72322        -5.29168
|106>    H        9.90500         5.31588        -4.30478
|107>    H       10.48969         4.80257        -2.72264
|108>    H        7.60142         4.50671        -3.68115
|109>    H        8.21562         5.75658        -2.60729
|110>    H        8.21862         4.07826        -2.07931
|111>    H       14.19899         1.44996        -3.06294
|112>    H       11.76255         4.65076        -5.98807
|113>    H       18.50425         3.54078        -6.22217
|114>    H       18.17980         2.53827        -4.80082
|115>    H       17.61332         5.53433        -4.99997
|116>    H       18.89404         4.76328        -4.06314
|117>    H       17.20414         4.50415        -3.62551
|118>    H       16.94226         2.26283        -7.78553
|119>    H       15.35098         1.79653        -7.18465
|120>    H       18.03890         0.70418        -6.22763
|121>    H       16.74586        -0.16448        -7.04932
|122>    H       16.50801         0.40537        -5.39580
|123>    H       17.43433         5.16136        -7.71541
|124>    H       16.93053         7.43029        -8.83917
|125>    H       11.10198         9.23044       -10.50418
|126>    H       15.18109        12.09091       -10.74199
|127> *
|128>
|129>                          ****END OF INPUT****

CARTESIAN COORDINATES (ANGSTROEM)
---------------------------------
  C      4.490300   -3.259060    2.007130
  O      5.641300   -3.422510    2.358730
  C      3.334130   -4.032740    2.511630
  C      3.341720   -5.072380    3.420270
  C      2.126250   -5.655820    3.737840
  F      2.083960   -6.668640    4.612380
  C      0.945350   -5.198080    3.152490
  F     -0.214730   -5.782200    3.473830
  C      0.939550   -4.151780    2.242120
  C      2.152540   -3.562410    1.919440
  C      2.489340   -2.462030    1.015590
  C      1.568670   -1.716060    0.326530
  C      1.834480   -0.615580   -0.516940
  N      1.940610    0.293700   -1.211150
  C      0.174760   -1.934620    0.382470
  N     -0.966700   -2.052830    0.376730
  C      3.934060   -2.303480    1.030120
  C      4.603400   -1.430850    0.205710
  C      5.966400   -1.131450    0.067660
  C      7.107370   -1.556200    0.739150
  C      8.275100   -0.988300    0.252500
  C      8.056100   -0.102790   -0.795350
  S      6.389810    0.020750   -1.194460
  C      9.132760    0.567860   -1.447480
  C     10.432490    0.144840   -1.087480
  O     10.665960   -0.811460   -0.169490
  C      9.665640   -1.164050    0.798880
  C      9.952770   -2.624940    1.175120
  C      9.681430   -3.584050    0.021670
  C      9.800110   -0.211110    2.012750
  C     11.177100   -0.239300    2.663720
  C     11.533680    0.668940   -1.756160
  C     11.331590    1.635280   -2.725160
  C     10.040150    2.109420   -3.038570
  C      8.947040    1.554190   -2.424440
  C     10.107530    3.189150   -4.093220
  C      9.243640    2.862370   -5.320810
  C      9.651350    1.554090   -5.988460
  C      9.763670    4.580890   -3.509590
  C      8.360650    4.730080   -2.936890
  C     11.584990    3.192710   -4.419170
  C     12.285770    2.298850   -3.585890
  C     13.655890    2.135670   -3.692820
  C     14.347680    2.873940   -4.646400
  C     13.651230    3.798220   -5.458200
  C     12.264490    3.946850   -5.340380
  C     14.453920    4.566170   -6.352070
  C     15.801240    4.306470   -6.537760
  C     16.423430    3.110250   -5.870220
  C     17.843420    3.407050   -5.365680
  C     17.890450    4.632080   -4.459200
  C     16.394490    1.950050   -6.895360
  C     16.961590    0.643360   -6.354750
  O     15.683540    2.710230   -4.705880
  C     16.400330    5.194720   -7.423230
  C     15.521660    6.132590   -7.948730
  S     13.920730    5.919120   -7.274760
  C     15.872090    7.187400   -8.812900
  C     15.073880    8.026930   -9.535970
  C     13.685130    7.949250   -9.925790
  C     12.987880    6.804070  -10.210050
  C     11.650360    6.786130  -10.652460
  N     10.554270    6.720770  -10.986510
  C     13.574550    5.521380  -10.179210
  N     14.038080    4.471960  -10.219000
  C     13.256970    9.305110  -10.269440
  C     12.002700    9.820850  -10.550370
  C     11.915220   11.162410  -10.891630
  F     10.713440   11.688290  -11.152980
  C     13.047770   11.974440  -10.964670
  F     12.916450   13.261870  -11.306320
  C     14.305500   11.464160  -10.684350
  C     14.393030   10.131630  -10.333060
  C     15.595790    9.349510   -9.958630
  O     16.745990    9.721170   -9.946570
  H      4.258540   -5.421310    3.868090
  H     -0.000980   -3.839600    1.819350
  H      3.981530   -0.873160   -0.484100
  H      7.059380   -2.257580    1.550600
  H      9.345700   -2.893970    2.039180
  H     11.004640   -2.693280    1.451250
  H      8.625080   -3.598050   -0.236470
  H      9.978160   -4.591490    0.300990
  H     10.251180   -3.286570   -0.855750
  H      9.031220   -0.474320    2.740800
  H      9.593410    0.802980    1.657260
  H     11.349510   -1.181690    3.175690
  H     11.254480    0.563680    3.392740
  H     11.950900   -0.100930    1.912590
  H     12.518920    0.307790   -1.509500
  H      7.936930    1.838090   -2.678400
  H      9.330320    3.679570   -6.039500
  H      8.199820    2.793470   -5.013480
  H     10.680870    1.601810   -6.336220
  H      9.009550    1.356480   -6.843430
  H      9.562980    0.723220   -5.291680
  H      9.905000    5.315880   -4.304780
  H     10.489690    4.802570   -2.722640
  H      7.601420    4.506710   -3.681150
  H      8.215620    5.756580   -2.607290
  H      8.218620    4.078260   -2.079310
  H     14.198990    1.449960   -3.062940
  H     11.762550    4.650760   -5.988070
  H     18.504250    3.540780   -6.222170
  H     18.179800    2.538270   -4.800820
  H     17.613320    5.534330   -4.999970
  H     18.894040    4.763280   -4.063140
  H     17.204140    4.504150   -3.625510
  H     16.942260    2.262830   -7.785530
  H     15.350980    1.796530   -7.184650
  H     18.038900    0.704180   -6.227630
  H     16.745860   -0.164480   -7.049320
  H     16.508010    0.405370   -5.395800
  H     17.434330    5.161360   -7.715410
  H     16.930530    7.430290   -8.839170
  H     11.101980    9.230440  -10.504180
  H     15.181090   12.090910  -10.741990

 Total Charge           Charge          ....    0
 Multiplicity           Mult            ....    1
 Number of Electrons    NEL             ....  536
 Basis Dimension        Dim             .... 2589

ORBITAL ENERGIES
----------------

  NO   OCC          E(Eh)            E(eV)
   0   2.0000     -88.911406     -2419.4024
   1   2.0000     -88.910703     -2419.3832
   2   2.0000     -24.725581      -672.8173
   3   2.0000     -24.725334      -672.8106
   4   2.0000     -24.724964      -672.8005
   5   2.0000     -24.723049      -672.7484
   6   2.0000     -19.181736      -521.9616
   7   2.0000     -19.180970      -521.9407
   8   2.0000     -19.136134      -520.7207
   9   2.0000     -19.132833      -520.6309
  10   2.0000     -14.330932      -389.9645
  11   2.0000     -14.330151      -389.9432
  12   2.0000     -14.328605      -389.9012
  13   2.0000     -14.326477      -389.8433
  14   2.0000     -10.301495      -280.3179
  15   2.0000     -10.300499      -280.2908
  16   2.0000     -10.299665      -280.2681
  17   2.0000     -10.299000      -280.2500
  18   2.0000     -10.282112      -279.7905
  19   2.0000     -10.278928      -279.7039
  20   2.0000     -10.265713      -279.3442
  21   2.0000     -10.265324      -279.3337
  22   2.0000     -10.264679      -279.3161
  23   2.0000     -10.264651      -279.3154
  24   2.0000     -10.258537      -279.1490
  25   2.0000     -10.256893      -279.1043
  26   2.0000     -10.256444      -279.0920
  27   2.0000     -10.255128      -279.0562
  28   2.0000     -10.242437      -278.7109
  29   2.0000     -10.241094      -278.6743
  30   2.0000     -10.237193      -278.5682
  31   2.0000     -10.237052      -278.5644
  32   2.0000     -10.232053      -278.4283
  33   2.0000     -10.232045      -278.4281
  34   2.0000     -10.231646      -278.4172
  35   2.0000     -10.229171      -278.3499
  36   2.0000     -10.228977      -278.3446
  37   2.0000     -10.228832      -278.3407
  38   2.0000     -10.226621      -278.2805
  39   2.0000     -10.225323      -278.2452
  40   2.0000     -10.221422      -278.1390
  41   2.0000     -10.221359      -278.1373
  42   2.0000     -10.219828      -278.0957
  43   2.0000     -10.218658      -278.0638
  44   2.0000     -10.218181      -278.0508
  45   2.0000     -10.216004      -277.9916
  46   2.0000     -10.215407      -277.9754
  47   2.0000     -10.215222      -277.9703
  48   2.0000     -10.214813      -277.9592
  49   2.0000     -10.214693      -277.9559
  50   2.0000     -10.212822      -277.9050
  51   2.0000     -10.209764      -277.8218
  52   2.0000     -10.208979      -277.8004
  53   2.0000     -10.206835      -277.7421
  54   2.0000     -10.205731      -277.7121
  55   2.0000     -10.205367      -277.7022
  56   2.0000     -10.203979      -277.6644
  57   2.0000     -10.202485      -277.6237
  58   2.0000     -10.201900      -277.6078
  59   2.0000     -10.196070      -277.4492
  60   2.0000     -10.195357      -277.4298
  61   2.0000     -10.195336      -277.4292
  62   2.0000     -10.194945      -277.4185
  63   2.0000     -10.188584      -277.2455
  64   2.0000     -10.186845      -277.1981
  65   2.0000     -10.185201      -277.1534
  66   2.0000     -10.184469      -277.1335
  67   2.0000     -10.183861      -277.1170
  68   2.0000     -10.181510      -277.0530
  69   2.0000     -10.170389      -276.7503
  70   2.0000     -10.169931      -276.7379
  71   2.0000     -10.168475      -276.6983
  72   2.0000     -10.167703      -276.6773
  73   2.0000     -10.166517      -276.6450
  74   2.0000     -10.162406      -276.5331
  75   2.0000      -7.988040      -217.3656
  76   2.0000      -7.987797      -217.3590
  77   2.0000      -5.950309      -161.9161
  78   2.0000      -5.950139      -161.9115
  79   2.0000      -5.946730      -161.8188
  80   2.0000      -5.946477      -161.8119
  81   2.0000      -5.944847      -161.7675
  82   2.0000      -5.944430      -161.7562
  83   2.0000      -1.268807       -34.5260
  84   2.0000      -1.267247       -34.4835
  85   2.0000      -1.255423       -34.1618
  86   2.0000      -1.253858       -34.1192
  87   2.0000      -1.102237       -29.9934
  88   2.0000      -1.101417       -29.9711
  89   2.0000      -1.067042       -29.0357
  90   2.0000      -1.063807       -28.9477
  91   2.0000      -0.947481       -25.7823
  92   2.0000      -0.945589       -25.7308
  93   2.0000      -0.929745       -25.2996
  94   2.0000      -0.928084       -25.2545
  95   2.0000      -0.927620       -25.2418
  96   2.0000      -0.926585       -25.2137
  97   2.0000      -0.924289       -25.1512
  98   2.0000      -0.923238       -25.1226
  99   2.0000      -0.920471       -25.0473
 100   2.0000      -0.885663       -24.1001
 101   2.0000      -0.882245       -24.0071
 102   2.0000      -0.880552       -23.9610
 103   2.0000      -0.860810       -23.4238
 104   2.0000      -0.846989       -23.0477
 105   2.0000      -0.844869       -22.9901
 106   2.0000      -0.830641       -22.6029
 107   2.0000      -0.828778       -22.5522
 108   2.0000      -0.826101       -22.4793
 109   2.0000      -0.817660       -22.2497
 110   2.0000      -0.804516       -21.8920
 111   2.0000      -0.802154       -21.8277
 112   2.0000      -0.800087       -21.7715
 113   2.0000      -0.788988       -21.4694
 114   2.0000      -0.776881       -21.1400
 115   2.0000      -0.775432       -21.1006
 116   2.0000      -0.774839       -21.0844
 117   2.0000      -0.774689       -21.0804
 118   2.0000      -0.769170       -20.9302
 119   2.0000      -0.766544       -20.8587
 120   2.0000      -0.764317       -20.7981
 121   2.0000      -0.759037       -20.6544
 122   2.0000      -0.739780       -20.1304
 123   2.0000      -0.724833       -19.7237
 124   2.0000      -0.717048       -19.5119
 125   2.0000      -0.711242       -19.3539
 126   2.0000      -0.702534       -19.1169
 127   2.0000      -0.701995       -19.1023
 128   2.0000      -0.688796       -18.7431
 129   2.0000      -0.684671       -18.6308
 130   2.0000      -0.676123       -18.3982
 131   2.0000      -0.659727       -17.9521
 132   2.0000      -0.651486       -17.7278
 133   2.0000      -0.649551       -17.6752
 134   2.0000      -0.645867       -17.5749
 135   2.0000      -0.640997       -17.4424
 136   2.0000      -0.638423       -17.3724
 137   2.0000      -0.633838       -17.2476
 138   2.0000      -0.630019       -17.1437
 139   2.0000      -0.626330       -17.0433
 140   2.0000      -0.623986       -16.9795
 141   2.0000      -0.618669       -16.8349
 142   2.0000      -0.617411       -16.8006
 143   2.0000      -0.611500       -16.6397
 144   2.0000      -0.603526       -16.4228
 145   2.0000      -0.597578       -16.2609
 146   2.0000      -0.593478       -16.1494
 147   2.0000      -0.588776       -16.0214
 148   2.0000      -0.580119       -15.7858
 149   2.0000      -0.577679       -15.7194
 150   2.0000      -0.574955       -15.6453
 151   2.0000      -0.574704       -15.6385
 152   2.0000      -0.573230       -15.5984
 153   2.0000      -0.563859       -15.3434
 154   2.0000      -0.549276       -14.9465
 155   2.0000      -0.545244       -14.8368
 156   2.0000      -0.543640       -14.7932
 157   2.0000      -0.538367       -14.6497
 158   2.0000      -0.532239       -14.4830
 159   2.0000      -0.529068       -14.3967
 160   2.0000      -0.524183       -14.2638
 161   2.0000      -0.520801       -14.1717
 162   2.0000      -0.519399       -14.1336
 163   2.0000      -0.518218       -14.1014
 164   2.0000      -0.514175       -13.9914
 165   2.0000      -0.502244       -13.6667
 166   2.0000      -0.500967       -13.6320
 167   2.0000      -0.498205       -13.5568
 168   2.0000      -0.497946       -13.5498
 169   2.0000      -0.489663       -13.3244
 170   2.0000      -0.485822       -13.2199
 171   2.0000      -0.485611       -13.2142
 172   2.0000      -0.485075       -13.1996
 173   2.0000      -0.484159       -13.1746
 174   2.0000      -0.483181       -13.1480
 175   2.0000      -0.479931       -13.0596
 176   2.0000      -0.478492       -13.0204
 177   2.0000      -0.475390       -12.9360
 178   2.0000      -0.474577       -12.9139
 179   2.0000      -0.470176       -12.7941
 180   2.0000      -0.467964       -12.7339
 181   2.0000      -0.466246       -12.6872
 182   2.0000      -0.465682       -12.6719
 183   2.0000      -0.463755       -12.6194
 184   2.0000      -0.462173       -12.5764
 185   2.0000      -0.460750       -12.5377
 186   2.0000      -0.460273       -12.5247
 187   2.0000      -0.458557       -12.4780
 188   2.0000      -0.456695       -12.4273
 189   2.0000      -0.453502       -12.3404
 190   2.0000      -0.451802       -12.2942
 191   2.0000      -0.449463       -12.2305
 192   2.0000      -0.446881       -12.1602
 193   2.0000      -0.442422       -12.0389
 194   2.0000      -0.438469       -11.9314
 195   2.0000      -0.437521       -11.9055
 196   2.0000      -0.433079       -11.7847
 197   2.0000      -0.432906       -11.7800
 198   2.0000      -0.431810       -11.7501
 199   2.0000      -0.430025       -11.7016
 200   2.0000      -0.429764       -11.6945
 201   2.0000      -0.429185       -11.6787
 202   2.0000      -0.427400       -11.6301
 203   2.0000      -0.422257       -11.4902
 204   2.0000      -0.421564       -11.4713
 205   2.0000      -0.420787       -11.4502
 206   2.0000      -0.418571       -11.3899
 207   2.0000      -0.414578       -11.2812
 208   2.0000      -0.411248       -11.1906
 209   2.0000      -0.403649       -10.9838
 210   2.0000      -0.402050       -10.9403
 211   2.0000      -0.398307       -10.8385
 212   2.0000      -0.396122       -10.7790
 213   2.0000      -0.393702       -10.7132
 214   2.0000      -0.392383       -10.6773
 215   2.0000      -0.391273       -10.6471
 216   2.0000      -0.390790       -10.6339
 217   2.0000      -0.389697       -10.6042
 218   2.0000      -0.389416       -10.5965
 219   2.0000      -0.388870       -10.5817
 220   2.0000      -0.387982       -10.5575
 221   2.0000      -0.386557       -10.5188
 222   2.0000      -0.385618       -10.4932
 223   2.0000      -0.383737       -10.4420
 224   2.0000      -0.382567       -10.4102
 225   2.0000      -0.381015       -10.3679
 226   2.0000      -0.377839       -10.2815
 227   2.0000      -0.376970       -10.2579
 228   2.0000      -0.376214       -10.2373
 229   2.0000      -0.375921       -10.2293
 230   2.0000      -0.372605       -10.1391
 231   2.0000      -0.369043       -10.0422
 232   2.0000      -0.366945        -9.9851
 233   2.0000      -0.366800        -9.9811
 234   2.0000      -0.364401        -9.9158
 235   2.0000      -0.363456        -9.8901
 236   2.0000      -0.363004        -9.8779
 237   2.0000      -0.361086        -9.8257
 238   2.0000      -0.360395        -9.8068
 239   2.0000      -0.359348        -9.7784
 240   2.0000      -0.358715        -9.7611
 241   2.0000      -0.356264        -9.6944
 242   2.0000      -0.352615        -9.5951
 243   2.0000      -0.348511        -9.4835
 244   2.0000      -0.347409        -9.4535
 245   2.0000      -0.345077        -9.3900
 246   2.0000      -0.342043        -9.3075
 247   2.0000      -0.337837        -9.1930
 248   2.0000      -0.336102        -9.1458
 249   2.0000      -0.334095        -9.0912
 250   2.0000      -0.332455        -9.0466
 251   2.0000      -0.330461        -8.9923
 252   2.0000      -0.328402        -8.9363
 253   2.0000      -0.316427        -8.6104
 254   2.0000      -0.300604        -8.1799
 255   2.0000      -0.296903        -8.0791
 256   2.0000      -0.293089        -7.9754
 257   2.0000      -0.283649        -7.7185
 258   2.0000      -0.282095        -7.6762
 259   2.0000      -0.280780        -7.6404
 260   2.0000      -0.279627        -7.6090
 261   2.0000      -0.274358        -7.4657
 262   2.0000      -0.267432        -7.2772
 263   2.0000      -0.264656        -7.2017
 264   2.0000      -0.256805        -6.9880
 265   2.0000      -0.254959        -6.9378
 266   2.0000      -0.230229        -6.2648
 267   2.0000      -0.211910        -5.7664
 268   0.0000      -0.136430        -3.7124
 269   0.0000      -0.127611        -3.4725
 270   0.0000      -0.109741        -2.9862
 271   0.0000      -0.106604        -2.9008
 272   0.0000      -0.078382        -2.1329

MULLIKEN ATOMIC CHARGES
-----------------------
   0 C :    0.219321
   1 O :   -0.356671
   2 C :    0.092025
   3 C :   -0.315050
   4 C :    0.285332
   5 F :   -0.179986
   6 C :    0.252583
   7 F :   -0.176164
   8 C :   -0.262489
   9 C :    0.082073
  10 C :    0.017606
  11 C :    0.164603
  12 C :   -0.233949
  13 N :    0.050797
  14 C :   -0.229980
  15 N :    0.043795
  16 C :   -0.044684
  17 C :   -0.189989
  18 C :    0.138723
  19 C :   -0.393441
  20 C :    0.129021
  21 C :   -0.024436
  22 S :    0.017115
  23 C :    0.194941
  24 C :    0.276157
  25 O :   -0.321158
  26 C :    0.292525
  27 C :   -0.219254
  28 C :   -0.356944
  29 C :   -0.158694
  30 C :   -0.377346
  31 C :   -0.377444
  32 C :    0.244505
  33 C :   -0.203772
  34 C :   -0.402691
  35 C :    0.401276
  36 C :   -0.215267
  37 C :   -0.358587
  38 C :   -0.146388
  39 C :   -0.375684
  40 C :   -0.159012
  41 C :    0.264440
  42 C :   -0.386851
  43 C :    0.269229
  44 C :    0.164431
  45 C :   -0.303926
  46 C :    0.005380
  47 C :    0.054048
  48 C :    0.295672
  49 C :   -0.221983
  50 C :   -0.354722
  51 C :   -0.151865
  52 C :   -0.376816
  53 O :   -0.323092
  54 C :   -0.274919
  55 C :    0.237064
  56 S :    0.012854
  57 C :   -0.256061
  58 C :    0.001622
  59 C :    0.016205
  60 C :    0.114436
  61 C :   -0.242108
  62 N :    0.043222
  63 C :   -0.223606
  64 N :    0.042157
  65 C :    0.114837
  66 C :   -0.259389
  67 C :    0.256952
  68 F :   -0.176152
  69 C :    0.280732
  70 F :   -0.179764
  71 C :   -0.292802
  72 C :   -0.008267
  73 C :    0.205132
  74 O :   -0.286157
  75 H :    0.147562
  76 H :    0.166153
  77 H :    0.166628
  78 H :    0.212134
  79 H :    0.104267
  80 H :    0.110407
  81 H :    0.124539
  82 H :    0.113494
  83 H :    0.115827
  84 H :    0.106089
  85 H :    0.103782
  86 H :    0.116211
  87 H :    0.117232
  88 H :    0.121990
  89 H :    0.100493
  90 H :    0.153744
  91 H :    0.097161
  92 H :    0.095227
  93 H :    0.123057
  94 H :    0.116962
  95 H :    0.118258
  96 H :    0.089659
  97 H :    0.096118
  98 H :    0.113697
  99 H :    0.117893
 100 H :    0.122957
 101 H :    0.099945
 102 H :    0.122537
 103 H :    0.094305
 104 H :    0.112253
 105 H :    0.120624
 106 H :    0.114016
 107 H :    0.118827
 108 H :    0.103980
 109 H :    0.113726
 110 H :    0.112992
 111 H :    0.119928
 112 H :    0.121489
 113 H :    0.132217
 114 H :    0.145095
 115 H :    0.161448
 116 H :    0.151825
Sum of atomic charges:   -0.0000000

LOEWDIN ATOMIC CHARGES
----------------------
   0 C :   -0.250077
   1 O :    0.121895
   2 C :   -0.059580
   3 C :   -0.046812
   4 C :   -0.224431
   5 F :    0.212978
   6 C :   -0.223097
   7 F :    0.216451
   8 C :   -0.048011
   9 C :   -0.044633
  10 C :    0.010408
  11 C :   -0.134395
  12 C :   -0.172530
  13 N :    0.084194
  14 C :   -0.163820
  15 N :    0.084227
  16 C :   -0.080777
  17 C :   -0.066306
  18 C :   -0.328564
  19 C :   -0.080892
  20 C :   -0.109881
  21 C :   -0.277308
  22 S :    0.801877
  23 C :   -0.119103
  24 C :   -0.190935
  25 O :    0.334632
  26 C :   -0.278225
  27 C :   -0.227507
  28 C :   -0.293622
  29 C :   -0.226749
  30 C :   -0.299808
  31 C :   -0.066245
  32 C :   -0.049987
  33 C :   -0.043099
  34 C :   -0.067404
  35 C :   -0.181546
  36 C :   -0.220175
  37 C :   -0.289424
  38 C :   -0.217605
  39 C :   -0.297115
  40 C :   -0.045814
  41 C :   -0.051479
  42 C :   -0.065883
  43 C :   -0.190495
  44 C :   -0.116052
  45 C :   -0.061582
  46 C :   -0.270188
  47 C :   -0.109831
  48 C :   -0.279496
  49 C :   -0.228888
  50 C :   -0.294802
  51 C :   -0.224559
  52 C :   -0.300027
  53 O :    0.332795
  54 C :   -0.085123
  55 C :   -0.335346
  56 S :    0.838814
  57 C :   -0.055512
  58 C :   -0.089415
  59 C :   -0.002168
  60 C :   -0.152059
  61 C :   -0.163856
  62 N :    0.084328
  63 C :   -0.182362
  64 N :    0.088533
  65 C :   -0.043506
  66 C :   -0.050369
  67 C :   -0.222753
  68 F :    0.217234
  69 C :   -0.224578
  70 F :    0.213836
  71 C :   -0.044823
  72 C :   -0.057459
  73 C :   -0.256205
  74 O :    0.137068
  75 H :    0.163555
  76 H :    0.169816
  77 H :    0.174278
  78 H :    0.159800
  79 H :    0.144234
  80 H :    0.143489
  81 H :    0.121944
  82 H :    0.119321
  83 H :    0.121736
  84 H :    0.143551
  85 H :    0.143933
  86 H :    0.117438
  87 H :    0.120174
  88 H :    0.121398
  89 H :    0.150661
  90 H :    0.150494
  91 H :    0.139428
  92 H :    0.137166
  93 H :    0.122713
  94 H :    0.119330
  95 H :    0.121795
  96 H :    0.138844
  97 H :    0.144340
  98 H :    0.117459
  99 H :    0.121346
 100 H :    0.120165
 101 H :    0.150411
 102 H :    0.149217
 103 H :    0.140028
 104 H :    0.144606
 105 H :    0.120411
 106 H :    0.118882
 107 H :    0.123066
 108 H :    0.143399
 109 H :    0.147085
 110 H :    0.116351
 111 H :    0.121013
 112 H :    0.121135
 113 H :    0.153835
 114 H :    0.174307
 115 H :    0.167901
 116 H :    0.164970

  Mayer bond orders larger than 0.100000
B(  0-C ,  1-O ) :   2.0121 B(  0-C ,  2-C ) :   1.0297 B(  0-C , 16-C ) :   1.0200
B(  1-O ,  2-C ) :  -0.1589 B(  2-C ,  3-C ) :   1.3024 B(  2-C ,  9-C ) :   1.3377
B(  3-C ,  4-C ) :   1.3581 B(  3-C , 75-H ) :   0.9831 B(  4-C ,  5-F ) :   1.0625
B(  4-C ,  6-C ) :   1.3447 B(  6-C ,  7-F ) :   1.0846 B(  6-C ,  8-C ) :   1.3902
B(  8-C ,  9-C ) :   1.3191 B(  8-C , 76-H ) :   0.9274 B(  9-C , 10-C ) :   1.0484
B( 10-C , 11-C ) :   1.4666 B( 10-C , 16-C ) :   1.1451 B( 11-C , 12-C ) :   1.0345
B( 11-C , 14-C ) :   1.0218 B( 12-C , 13-N ) :   2.9858 B( 14-C , 15-N ) :   2.9841
B( 16-C , 17-C ) :   1.4200 B( 17-C , 18-C ) :   1.3225 B( 17-C , 77-H ) :   0.8823
B( 18-C , 19-C ) :   1.4137 B( 18-C , 22-S ) :   1.1972 B( 19-C , 20-C ) :   1.2671
B( 19-C , 22-S ) :   0.1162 B( 19-C , 78-H ) :   0.9249 B( 20-C , 21-C ) :   1.2696
B( 20-C , 26-C ) :   0.9308 B( 21-C , 22-S ) :   1.4017 B( 21-C , 23-C ) :   1.0564
B( 22-S , 23-C ) :  -0.1019 B( 23-C , 24-C ) :   1.2277 B( 23-C , 34-C ) :   1.2672
B( 24-C , 25-O ) :   1.1120 B( 24-C , 31-C ) :   1.4158 B( 25-O , 26-C ) :   0.7902
B( 26-C , 27-C ) :   0.9037 B( 26-C , 29-C ) :   0.9813 B( 27-C , 28-C ) :   0.9803
B( 27-C , 79-H ) :   0.9518 B( 27-C , 80-H ) :   0.9855 B( 28-C , 81-H ) :   0.9711
B( 28-C , 82-H ) :   0.9777 B( 28-C , 83-H ) :   0.9763 B( 29-C , 30-C ) :   0.9534
B( 29-C , 84-H ) :   0.9622 B( 29-C , 85-H ) :   0.9608 B( 30-C , 86-H ) :   0.9762
B( 30-C , 87-H ) :   0.9767 B( 30-C , 88-H ) :   0.9782 B( 31-C , 32-C ) :   1.3292
B( 31-C , 89-H ) :   1.0109 B( 32-C , 33-C ) :   1.1740 B( 32-C , 41-C ) :   1.1085
B( 33-C , 34-C ) :   1.4287 B( 33-C , 35-C ) :   1.0699 B( 34-C , 90-H ) :   0.9479
B( 35-C , 36-C ) :   0.7984 B( 35-C , 38-C ) :   0.8339 B( 35-C , 40-C ) :   1.0210
B( 36-C , 37-C ) :   0.9770 B( 36-C , 91-H ) :   0.9600 B( 36-C , 92-H ) :   0.9620
B( 37-C , 93-H ) :   0.9738 B( 37-C , 94-H ) :   0.9789 B( 37-C , 95-H ) :   0.9736
B( 38-C , 39-C ) :   0.9500 B( 38-C , 96-H ) :   0.9606 B( 38-C , 97-H ) :   0.9662
B( 39-C , 98-H ) :   0.9757 B( 39-C , 99-H ) :   0.9771 B( 39-C ,100-H ) :   0.9767
B( 40-C , 41-C ) :   1.1593 B( 40-C , 45-C ) :   1.4578 B( 41-C , 42-C ) :   1.3146
B( 42-C , 43-C ) :   1.4164 B( 42-C ,101-H ) :   1.0130 B( 43-C , 44-C ) :   1.2264
B( 43-C , 53-O ) :   1.1071 B( 44-C , 45-C ) :   1.3110 B( 44-C , 46-C ) :   1.0340
B( 44-C , 56-S ) :  -0.1032 B( 45-C ,102-H ) :   0.9362 B( 46-C , 47-C ) :   1.3288
B( 46-C , 56-S ) :   1.3587 B( 47-C , 48-C ) :   0.9326 B( 47-C , 54-C ) :   1.3068
B( 48-C , 49-C ) :   0.8980 B( 48-C , 51-C ) :   0.9921 B( 48-C , 53-O ) :   0.7911
B( 49-C , 50-C ) :   0.9781 B( 49-C ,103-H ) :   0.9565 B( 49-C ,104-H ) :   0.9839
B( 50-C ,105-H ) :   0.9725 B( 50-C ,106-H ) :   0.9777 B( 50-C ,107-H ) :   0.9758
B( 51-C , 52-C ) :   0.9479 B( 51-C ,108-H ) :   0.9595 B( 51-C ,109-H ) :   0.9609
B( 52-C ,110-H ) :   0.9751 B( 52-C ,111-H ) :   0.9775 B( 52-C ,112-H ) :   0.9780
B( 54-C , 55-C ) :   1.3558 B( 54-C ,113-H ) :   0.9800 B( 55-C , 56-S ) :   1.1498
B( 55-C , 57-C ) :   1.1166 B( 57-C , 58-C ) :   1.5061 B( 57-C , 74-O ) :   0.1094
B( 57-C ,114-H ) :   0.9478 B( 58-C , 59-C ) :   1.1557 B( 58-C , 73-C ) :   1.0038
B( 58-C , 74-O ) :  -0.1430 B( 59-C , 60-C ) :   1.4174 B( 59-C , 65-C ) :   1.0400
B( 60-C , 61-C ) :   1.0560 B( 60-C , 63-C ) :   1.0420 B( 61-C , 62-N ) :   2.9934
B( 63-C , 64-N ) :   2.9853 B( 65-C , 66-C ) :   1.3072 B( 65-C , 72-C ) :   1.3222
B( 66-C , 67-C ) :   1.3880 B( 66-C ,115-H ) :   0.9455 B( 67-C , 68-F ) :   1.0748
B( 67-C , 69-C ) :   1.3430 B( 69-C , 70-F ) :   1.0617 B( 69-C , 71-C ) :   1.3570
B( 71-C , 72-C ) :   1.3112 B( 71-C ,116-H ) :   0.9833 B( 72-C , 73-C ) :   0.9539
B( 72-C , 74-O ) :  -0.1483 B( 73-C , 74-O ) :   2.1832

-----------------------------------------------------------------------------
         ABSORPTION SPECTRUM VIA TRANSITION ELECTRIC DIPOLE MOMENTS
-----------------------------------------------------------------------------
State   Energy    Wavelength  fosc         T2        TX        TY        TZ
        (cm-1)      (nm)                 (au**2)    (au)      (au)      (au)
-----------------------------------------------------------------------------
   1   14893.7    671.4   1.728915004  38.21614   3.28236   3.56992  -3.83379
   2   17049.7    586.5   0.182285158   3.51974   1.72995   0.58227  -0.43357
   3   19035.7    525.3   0.282541062   4.88638  -2.19425  -0.08611  -0.25342
   4   19916.7    502.1   0.278800014   4.60840   1.06120   1.35251  -1.28567
   5   20587.1    485.7   0.166175573   2.65735  -0.87849  -1.01298   0.92708
   6   21255.7    470.5   0.235479881   3.64715  -1.90453   0.00237  -0.14109
   7   23328.1    428.7   0.059939307   0.84588   0.54737  -0.22976   0.70247
   8   23919.9    418.1   0.096638064   1.33004   0.98560   0.43375  -0.41291
   9   24132.7    414.4   0.155631134   2.12308  -1.31251  -0.53619   0.33601
  10   24579.6    406.8   0.028427026   0.38074  -0.45073  -0.23383   0.35059
  11   25409.8    393.5   0.141132072   1.82852  -0.56954  -0.95032   0.77527
  12   25503.7    392.1   0.042404926   0.54738   0.36979  -0.56749   0.29764
  13   25806.1    387.5   0.057158256   0.72917  -0.83690  -0.15605   0.06651
  14   26006.8    384.5   0.031669986   0.40090  -0.50404  -0.30814   0.22779
  15   26154.7    382.3   0.009104280   0.11460   0.33176  -0.06247  -0.02514
  16   26837.7    372.6   0.036608177   0.44906   0.61111  -0.07919  -0.26332
  17   26939.9    371.2   0.123392641   1.50789  -0.39855  -0.94608   0.67378
  18   27415.3    364.8   0.047911502   0.57534  -0.06287   0.54010  -0.52884
  19   27870.1    358.8   0.026269687   0.31031  -0.11378  -0.49154   0.23612
  20   27891.8    358.5   0.019990195   0.23595  -0.02962   0.45918  -0.15564
  21   28251.9    354.0   0.015545836   0.18115   0.31146   0.06216   0.28334
  22   28659.2    348.9   0.008421912   0.09674   0.13405  -0.26584  -0.09003
  23   29045.4    344.3   0.003103920   0.03518   0.02453   0.15661  -0.10027
  24   29246.7    341.9   0.018950212   0.21331  -0.44769  -0.11256  -0.01474
  25   29601.1    337.8   0.127043512   1.41293  -0.51356  -0.84908   0.65440
  26   29971.7    333.6   0.024860993   0.27308   0.48890  -0.16947   0.07305
  27   30222.2    330.9   0.017731479   0.19315   0.16167  -0.37173   0.16979
  28   30564.4    327.2   0.006865885   0.07395   0.26443   0.03822  -0.05067
  29   30712.1    325.6   0.009569143   0.10257   0.31743   0.01889   0.03814
  30   30808.6    324.6   0.005615467   0.06001  -0.23920  -0.02388   0.04709
  31   30964.1    323.0   0.005765621   0.06130   0.20100  -0.10284   0.10160
  32   31098.7    321.6   0.001409537   0.01492  -0.09369  -0.06216   0.04776
  33   31330.7    319.2   0.003417529   0.03591  -0.10824   0.14844  -0.04648
  34   31468.7    317.8   0.010970146   0.11477  -0.00011   0.33347  -0.05968
  35   31490.6    317.6   0.014030202   0.14668  -0.05579   0.36403  -0.10511
  36   31787.2    314.6   0.026168540   0.27102  -0.06353  -0.39726   0.33040
  37   32007.1    312.4   0.007500452   0.07715   0.16316   0.22417  -0.01656
  38   32575.0    307.0   0.001659962   0.01678  -0.04937  -0.11701  -0.02547
  39   32632.7    306.4   0.004644894   0.04686  -0.00082  -0.21518   0.02356
  40   33359.3    299.8   0.107298398   1.05889  -0.58872  -0.81654   0.21346
  41   33383.5    299.5   0.319136065   3.14716   0.74242  -1.22738   1.04380
  42   33508.9    298.4   0.329847803   3.24063   0.60862   1.69054  -0.11089
  43   33624.0    297.4   0.263878083   2.58363   0.52310  -1.23659   0.88365
  44   33780.6    296.0   0.023955471   0.23346   0.09444  -0.36485   0.30237
  45   33922.9    294.8   0.011725237   0.11379   0.23707  -0.20565   0.12368
  46   34035.3    293.8   0.003624133   0.03506   0.03543   0.17816  -0.04537
  47   34191.2    292.5   0.005676543   0.05466  -0.08806  -0.15477   0.15149
  48   34466.5    290.1   0.035492792   0.33901  -0.04180  -0.47475   0.33449
  49   34810.6    287.3   0.027170084   0.25695  -0.44030  -0.23186   0.09661
  50   35033.5    285.4   0.034559847   0.32476   0.26083  -0.50649   0.01399

FINAL SINGLE POINT ENERGY     -4064.559498560403

DIPOLE MOMENT
-------------
                                X             Y             Z
Electronic contribution:    -78.50283      26.56649     -21.81309
Nuclear contribution   :     82.58952     -26.96152      23.79734
                        -----------------------------------------
Total Dipole Moment    :      4.08668      -0.39503       1.98425
                        -----------------------------------------
Magnitude (a.u.)       :      4.56008
Magnitude (Debye)      :     11.59079

Rotational constants in cm-1:     0.001693     0.000252     0.000227
Rotational constants in MHz :    50.759000     7.553165     6.802929

                             ****ORCA TERMINATED NORMALLY****
TOTAL RUN TIME: 1 days 20 hours 37 minutes 24 seconds 449 msec
