                         Program Version 4.2.0 -  RELEASE  -
|  1> # ORCA input file
|  2> # FO-2F.out: Geometry 97
|  3> ! B3LYP def2-TZVP def2/J RIJCOSX Grid4 TightSCF
|  4>
|  5> %maxcore 6000
|  6> %tddft
|  7>   maxdim 5
|  8>   nroots 50
|  9>   end
| 10> %pal
| 11>   nprocs 6
| 12>   end
| 13>
| 14>
| 15> * xyz 0 1
| 16>    C        5.08002        -3.50737         1.97359
| 17>    O        6.23184        -3.34276         2.33578
| 18>    C        4.36498        -4.80815         1.99662
| 19>    C        4.89574        -6.04912         2.32864
| 20>    C        4.05598        -7.15227         2.23629
| 21>    F        4.50073        -8.37293         2.51971
| 22>    C        2.71745        -6.99568         1.83095
| 23>    F        1.95809        -8.08355         1.73941
| 24>    C        2.18384        -5.74794         1.51784
| 25>    C        3.02948        -4.63284         1.59057
| 26>    C        2.81624        -3.20009         1.27711
| 27>    C        1.59858        -2.62703         0.96209
| 28>    C        1.42547        -1.22510         0.73431
| 29>    N        1.25449        -0.09086         0.54722
| 30>    C        0.39317        -3.39052         0.85999
| 31>    N       -0.58769        -4.00705         0.76773
| 32>    C        4.11588        -2.52630         1.39062
| 33>    C        4.44351        -1.33334         0.77607
| 34>    C        5.70031        -0.67444         0.69515
| 35>    C        6.85014        -0.74600         1.48776
| 36>    C        7.94326        -0.05550         0.94663
| 37>    C        7.64958         0.56505        -0.27005
| 38>    S        5.99736         0.33909        -0.72376
| 39>    C        8.68095         1.16150        -1.08140
| 40>    C       10.01263         0.84371        -0.69063
| 41>    O       10.28581         0.13495         0.42391
| 42>    C        9.33375         0.08666         1.52445
| 43>    C        9.74974        -1.12801         2.36255
| 44>    C        9.74737        -2.45649         1.60960
| 45>    C        9.43858         1.41222         2.31357
| 46>    C       10.82111         1.71108         2.89255
| 47>    C       11.08646         1.18329        -1.51618
| 48>    C       10.83314         1.88657        -2.69255
| 49>    C        9.52171         2.28406        -3.05982
| 50>    C        8.45392         1.89697        -2.26729
| 51>    C        9.53798         3.05291        -4.38327
| 52>    C        8.73575         2.30601        -5.48199
| 53>    C        9.16725         0.86463        -5.74385
| 54>    C        9.04423         4.52020        -4.24642
| 55>    C        7.57397         4.72818        -3.88756
| 56>    C       11.03379         3.05215        -4.70383
| 57>    C       11.76077         2.33100        -3.72598
| 58>    C       13.13187         2.11014        -3.85002
| 59>    C       13.79566         2.64440        -4.95543
| 60>    C       13.10161         3.46318        -5.89052
| 61>    C       11.70465         3.63379        -5.76637
| 62>    C       13.93591         4.09582        -6.88232
| 63>    C       15.24177         3.66047        -7.12284
| 64>    C       15.76368         2.45864        -6.36634
| 65>    C       17.26146         2.56031        -6.04614
| 66>    C       17.66141         3.83930        -5.30976
| 67>    C       15.39859         1.17424        -7.14354
| 68>    C       15.62783        -0.13678        -6.39572
| 69>    O       15.12205         2.41676        -5.06261
| 70>    C       15.87916         4.41514        -8.11251
| 71>    C       15.09870         5.46759        -8.62139
| 72>    S       13.51868         5.46831        -7.84603
| 73>    C       15.66223         6.46967        -9.45295
| 74>    C       15.30730         7.72804        -9.88080
| 75>    C       14.09173         8.52282        -9.86082
| 76>    C       12.79780         8.05924       -10.02308
| 77>    C       11.65871         8.92004        -9.95489
| 78>    N       10.73162         9.61705        -9.87867
| 79>    C       12.52731         6.71832       -10.43199
| 80>    N       12.29644         5.64544       -10.81485
| 81>    C       14.49947         9.95099        -9.88599
| 82>    C       13.76656        11.13411        -9.73742
| 83>    C       14.44157        12.34528        -9.87288
| 84>    F       13.78252        13.48862        -9.70258
| 85>    C       15.81195        12.39815       -10.19161
| 86>    F       16.39205        13.58481       -10.35107
| 87>    C       16.54827        11.22714       -10.33293
| 88>    C       15.87840        10.01947       -10.17366
| 89>    C       16.44069         8.64556       -10.24461
| 90>    O       17.59006         8.33516       -10.47842
| 91>    H        5.93396        -6.15563         2.64629
| 92>    H        1.14349        -5.69795         1.20402
| 93>    H        3.66173        -0.87448         0.16667
| 94>    H        6.86955        -1.31405         2.41153
| 95>    H        9.08148        -1.17456         3.23799
| 96>    H       10.75798        -0.93137         2.75579
| 97>    H        8.73659        -2.75359         1.29513
| 98>    H       10.14339        -3.25693         2.25253
| 99>    H       10.38212        -2.39102         0.71440
|100>    H        8.67846         1.38565         3.11224
|101>    H        9.13276         2.22384         1.63249
|102>    H       11.09813         1.00423         3.68847
|103>    H       10.84794         2.72113         3.32991
|104>    H       11.59294         1.65638         2.11017
|105>    H       12.09036         0.87227        -1.22328
|106>    H        7.42631         2.12854        -2.55353
|107>    H        8.80877         2.89515        -6.41258
|108>    H        7.67131         2.31476        -5.19810
|109>    H       10.21889         0.80588        -6.06532
|110>    H        8.55033         0.41564        -6.53682
|111>    H        9.05370         0.24279        -4.84222
|112>    H        9.24683         5.02086        -5.20861
|113>    H        9.68033         5.02440        -3.50139
|114>    H        6.89866         4.21374        -4.58644
|115>    H        7.32338         5.79954        -3.92926
|116>    H        7.34265         4.37623        -2.87134
|117>    H       13.70050         1.52941        -3.12208
|118>    H       11.17208         4.21946        -6.52006
|119>    H       17.82663         2.45332        -6.98650
|120>    H       17.51909         1.68534        -5.43076
|121>    H       17.57509         4.72934        -5.95021
|122>    H       18.70259         3.77809        -4.95824
|123>    H       17.01846         3.99473        -4.43193
|124>    H       15.96393         1.19450        -8.08897
|125>    H       14.33641         1.24931        -7.42875
|126>    H       16.68484        -0.29532        -6.13203
|127>    H       15.30779        -0.98662        -7.01785
|128>    H       15.04408        -0.16302        -5.46469
|129>    H       16.90088         4.24863        -8.45536
|130>    H       16.71375         6.26012        -9.69094
|131>    H       12.70398        11.15856        -9.50268
|132>    H       17.61158        11.26125       -10.57607
|133> *
|134>
|135>                          ****END OF INPUT****

CARTESIAN COORDINATES (ANGSTROEM)
---------------------------------
  C      5.080020   -3.507370    1.973590
  O      6.231840   -3.342760    2.335780
  C      4.364980   -4.808150    1.996620
  C      4.895740   -6.049120    2.328640
  C      4.055980   -7.152270    2.236290
  F      4.500730   -8.372930    2.519710
  C      2.717450   -6.995680    1.830950
  F      1.958090   -8.083550    1.739410
  C      2.183840   -5.747940    1.517840
  C      3.029480   -4.632840    1.590570
  C      2.816240   -3.200090    1.277110
  C      1.598580   -2.627030    0.962090
  C      1.425470   -1.225100    0.734310
  N      1.254490   -0.090860    0.547220
  C      0.393170   -3.390520    0.859990
  N     -0.587690   -4.007050    0.767730
  C      4.115880   -2.526300    1.390620
  C      4.443510   -1.333340    0.776070
  C      5.700310   -0.674440    0.695150
  C      6.850140   -0.746000    1.487760
  C      7.943260   -0.055500    0.946630
  C      7.649580    0.565050   -0.270050
  S      5.997360    0.339090   -0.723760
  C      8.680950    1.161500   -1.081400
  C     10.012630    0.843710   -0.690630
  O     10.285810    0.134950    0.423910
  C      9.333750    0.086660    1.524450
  C      9.749740   -1.128010    2.362550
  C      9.747370   -2.456490    1.609600
  C      9.438580    1.412220    2.313570
  C     10.821110    1.711080    2.892550
  C     11.086460    1.183290   -1.516180
  C     10.833140    1.886570   -2.692550
  C      9.521710    2.284060   -3.059820
  C      8.453920    1.896970   -2.267290
  C      9.537980    3.052910   -4.383270
  C      8.735750    2.306010   -5.481990
  C      9.167250    0.864630   -5.743850
  C      9.044230    4.520200   -4.246420
  C      7.573970    4.728180   -3.887560
  C     11.033790    3.052150   -4.703830
  C     11.760770    2.331000   -3.725980
  C     13.131870    2.110140   -3.850020
  C     13.795660    2.644400   -4.955430
  C     13.101610    3.463180   -5.890520
  C     11.704650    3.633790   -5.766370
  C     13.935910    4.095820   -6.882320
  C     15.241770    3.660470   -7.122840
  C     15.763680    2.458640   -6.366340
  C     17.261460    2.560310   -6.046140
  C     17.661410    3.839300   -5.309760
  C     15.398590    1.174240   -7.143540
  C     15.627830   -0.136780   -6.395720
  O     15.122050    2.416760   -5.062610
  C     15.879160    4.415140   -8.112510
  C     15.098700    5.467590   -8.621390
  S     13.518680    5.468310   -7.846030
  C     15.662230    6.469670   -9.452950
  C     15.307300    7.728040   -9.880800
  C     14.091730    8.522820   -9.860820
  C     12.797800    8.059240  -10.023080
  C     11.658710    8.920040   -9.954890
  N     10.731620    9.617050   -9.878670
  C     12.527310    6.718320  -10.431990
  N     12.296440    5.645440  -10.814850
  C     14.499470    9.950990   -9.885990
  C     13.766560   11.134110   -9.737420
  C     14.441570   12.345280   -9.872880
  F     13.782520   13.488620   -9.702580
  C     15.811950   12.398150  -10.191610
  F     16.392050   13.584810  -10.351070
  C     16.548270   11.227140  -10.332930
  C     15.878400   10.019470  -10.173660
  C     16.440690    8.645560  -10.244610
  O     17.590060    8.335160  -10.478420
  H      5.933960   -6.155630    2.646290
  H      1.143490   -5.697950    1.204020
  H      3.661730   -0.874480    0.166670
  H      6.869550   -1.314050    2.411530
  H      9.081480   -1.174560    3.237990
  H     10.757980   -0.931370    2.755790
  H      8.736590   -2.753590    1.295130
  H     10.143390   -3.256930    2.252530
  H     10.382120   -2.391020    0.714400
  H      8.678460    1.385650    3.112240
  H      9.132760    2.223840    1.632490
  H     11.098130    1.004230    3.688470
  H     10.847940    2.721130    3.329910
  H     11.592940    1.656380    2.110170
  H     12.090360    0.872270   -1.223280
  H      7.426310    2.128540   -2.553530
  H      8.808770    2.895150   -6.412580
  H      7.671310    2.314760   -5.198100
  H     10.218890    0.805880   -6.065320
  H      8.550330    0.415640   -6.536820
  H      9.053700    0.242790   -4.842220
  H      9.246830    5.020860   -5.208610
  H      9.680330    5.024400   -3.501390
  H      6.898660    4.213740   -4.586440
  H      7.323380    5.799540   -3.929260
  H      7.342650    4.376230   -2.871340
  H     13.700500    1.529410   -3.122080
  H     11.172080    4.219460   -6.520060
  H     17.826630    2.453320   -6.986500
  H     17.519090    1.685340   -5.430760
  H     17.575090    4.729340   -5.950210
  H     18.702590    3.778090   -4.958240
  H     17.018460    3.994730   -4.431930
  H     15.963930    1.194500   -8.088970
  H     14.336410    1.249310   -7.428750
  H     16.684840   -0.295320   -6.132030
  H     15.307790   -0.986620   -7.017850
  H     15.044080   -0.163020   -5.464690
  H     16.900880    4.248630   -8.455360
  H     16.713750    6.260120   -9.690940
  H     12.703980   11.158560   -9.502680
  H     17.611580   11.261250  -10.576070

 Total Charge           Charge          ....    0
 Multiplicity           Mult            ....    1
 Number of Electrons    NEL             ....  536
 Basis Dimension        Dim             .... 2589

ORBITAL ENERGIES
----------------

  NO   OCC          E(Eh)            E(eV)
   0   2.0000     -88.914542     -2419.4877
   1   2.0000     -88.912498     -2419.4321
   2   2.0000     -24.729204      -672.9159
   3   2.0000     -24.727520      -672.8700
   4   2.0000     -24.726821      -672.8510
   5   2.0000     -24.726516      -672.8427
   6   2.0000     -19.177968      -521.8590
   7   2.0000     -19.176976      -521.8321
   8   2.0000     -19.139162      -520.8031
   9   2.0000     -19.134718      -520.6822
  10   2.0000     -14.335708      -390.0944
  11   2.0000     -14.335143      -390.0791
  12   2.0000     -14.334640      -390.0654
  13   2.0000     -14.333965      -390.0470
  14   2.0000     -10.302945      -280.3574
  15   2.0000     -10.302258      -280.3387
  16   2.0000     -10.302236      -280.3381
  17   2.0000     -10.301473      -280.3173
  18   2.0000     -10.286754      -279.9168
  19   2.0000     -10.281356      -279.7699
  20   2.0000     -10.269502      -279.4473
  21   2.0000     -10.265945      -279.3506
  22   2.0000     -10.265564      -279.3402
  23   2.0000     -10.265453      -279.3372
  24   2.0000     -10.265134      -279.3285
  25   2.0000     -10.265015      -279.3253
  26   2.0000     -10.263038      -279.2715
  27   2.0000     -10.262380      -279.2536
  28   2.0000     -10.245799      -278.8024
  29   2.0000     -10.244239      -278.7599
  30   2.0000     -10.243304      -278.7345
  31   2.0000     -10.239800      -278.6391
  32   2.0000     -10.238725      -278.6099
  33   2.0000     -10.236099      -278.5384
  34   2.0000     -10.235973      -278.5350
  35   2.0000     -10.235885      -278.5326
  36   2.0000     -10.235105      -278.5114
  37   2.0000     -10.234685      -278.4999
  38   2.0000     -10.234442      -278.4933
  39   2.0000     -10.232388      -278.4374
  40   2.0000     -10.224164      -278.2136
  41   2.0000     -10.223726      -278.2017
  42   2.0000     -10.223513      -278.1959
  43   2.0000     -10.223292      -278.1899
  44   2.0000     -10.223218      -278.1879
  45   2.0000     -10.220215      -278.1062
  46   2.0000     -10.220038      -278.1014
  47   2.0000     -10.219473      -278.0860
  48   2.0000     -10.218714      -278.0653
  49   2.0000     -10.217828      -278.0412
  50   2.0000     -10.217632      -278.0359
  51   2.0000     -10.213301      -277.9180
  52   2.0000     -10.212029      -277.8834
  53   2.0000     -10.210764      -277.8490
  54   2.0000     -10.209948      -277.8268
  55   2.0000     -10.209269      -277.8083
  56   2.0000     -10.208921      -277.7989
  57   2.0000     -10.206656      -277.7372
  58   2.0000     -10.206025      -277.7201
  59   2.0000     -10.199574      -277.5445
  60   2.0000     -10.199105      -277.5318
  61   2.0000     -10.198720      -277.5213
  62   2.0000     -10.197595      -277.4907
  63   2.0000     -10.193554      -277.3807
  64   2.0000     -10.192085      -277.3407
  65   2.0000     -10.190206      -277.2896
  66   2.0000     -10.187005      -277.2025
  67   2.0000     -10.186566      -277.1906
  68   2.0000     -10.186084      -277.1774
  69   2.0000     -10.177531      -276.9447
  70   2.0000     -10.175729      -276.8957
  71   2.0000     -10.175637      -276.8932
  72   2.0000     -10.173147      -276.8254
  73   2.0000     -10.169391      -276.7232
  74   2.0000     -10.165943      -276.6294
  75   2.0000      -7.990608      -217.4355
  76   2.0000      -7.988606      -217.3810
  77   2.0000      -5.952976      -161.9887
  78   2.0000      -5.951000      -161.9349
  79   2.0000      -5.949268      -161.8878
  80   2.0000      -5.947390      -161.8367
  81   2.0000      -5.947380      -161.8364
  82   2.0000      -5.945321      -161.7804
  83   2.0000      -1.274460       -34.6798
  84   2.0000      -1.272896       -34.6373
  85   2.0000      -1.260190       -34.2915
  86   2.0000      -1.259134       -34.2628
  87   2.0000      -1.095711       -29.8158
  88   2.0000      -1.093690       -29.7608
  89   2.0000      -1.066693       -29.0262
  90   2.0000      -1.062656       -28.9163
  91   2.0000      -0.940646       -25.5963
  92   2.0000      -0.940290       -25.5866
  93   2.0000      -0.923642       -25.1336
  94   2.0000      -0.923161       -25.1205
  95   2.0000      -0.921752       -25.0822
  96   2.0000      -0.921455       -25.0741
  97   2.0000      -0.920246       -25.0412
  98   2.0000      -0.919191       -25.0125
  99   2.0000      -0.913743       -24.8642
 100   2.0000      -0.879399       -23.9297
 101   2.0000      -0.877306       -23.8727
 102   2.0000      -0.876006       -23.8373
 103   2.0000      -0.855125       -23.2691
 104   2.0000      -0.843147       -22.9432
 105   2.0000      -0.840378       -22.8679
 106   2.0000      -0.826214       -22.4824
 107   2.0000      -0.824922       -22.4473
 108   2.0000      -0.821115       -22.3437
 109   2.0000      -0.813678       -22.1413
 110   2.0000      -0.800689       -21.7879
 111   2.0000      -0.798547       -21.7296
 112   2.0000      -0.797884       -21.7115
 113   2.0000      -0.784120       -21.3370
 114   2.0000      -0.775056       -21.0904
 115   2.0000      -0.772739       -21.0273
 116   2.0000      -0.771170       -20.9846
 117   2.0000      -0.769998       -20.9527
 118   2.0000      -0.765615       -20.8334
 119   2.0000      -0.763087       -20.7647
 120   2.0000      -0.760323       -20.6894
 121   2.0000      -0.755910       -20.5694
 122   2.0000      -0.737117       -20.0580
 123   2.0000      -0.721454       -19.6318
 124   2.0000      -0.714192       -19.4341
 125   2.0000      -0.707282       -19.2461
 126   2.0000      -0.698926       -19.0187
 127   2.0000      -0.696830       -18.9617
 128   2.0000      -0.686805       -18.6889
 129   2.0000      -0.683673       -18.6037
 130   2.0000      -0.674301       -18.3487
 131   2.0000      -0.657832       -17.9005
 132   2.0000      -0.648572       -17.6485
 133   2.0000      -0.646124       -17.5819
 134   2.0000      -0.642555       -17.4848
 135   2.0000      -0.638829       -17.3834
 136   2.0000      -0.637124       -17.3370
 137   2.0000      -0.631467       -17.1831
 138   2.0000      -0.627493       -17.0749
 139   2.0000      -0.623864       -16.9762
 140   2.0000      -0.620426       -16.8827
 141   2.0000      -0.615531       -16.7495
 142   2.0000      -0.614971       -16.7342
 143   2.0000      -0.610180       -16.6038
 144   2.0000      -0.603033       -16.4094
 145   2.0000      -0.597046       -16.2465
 146   2.0000      -0.594801       -16.1854
 147   2.0000      -0.584779       -15.9127
 148   2.0000      -0.578147       -15.7322
 149   2.0000      -0.577798       -15.7227
 150   2.0000      -0.574409       -15.6305
 151   2.0000      -0.573308       -15.6005
 152   2.0000      -0.570109       -15.5134
 153   2.0000      -0.559906       -15.2358
 154   2.0000      -0.549560       -14.9543
 155   2.0000      -0.543403       -14.7868
 156   2.0000      -0.541975       -14.7479
 157   2.0000      -0.536247       -14.5920
 158   2.0000      -0.529555       -14.4099
 159   2.0000      -0.526196       -14.3185
 160   2.0000      -0.523698       -14.2505
 161   2.0000      -0.523382       -14.2419
 162   2.0000      -0.522250       -14.2111
 163   2.0000      -0.517123       -14.0716
 164   2.0000      -0.510826       -13.9003
 165   2.0000      -0.502617       -13.6769
 166   2.0000      -0.497777       -13.5452
 167   2.0000      -0.494794       -13.4640
 168   2.0000      -0.494388       -13.4530
 169   2.0000      -0.488996       -13.3063
 170   2.0000      -0.487997       -13.2791
 171   2.0000      -0.486844       -13.2477
 172   2.0000      -0.483729       -13.1629
 173   2.0000      -0.481958       -13.1147
 174   2.0000      -0.481155       -13.0929
 175   2.0000      -0.476440       -12.9646
 176   2.0000      -0.475432       -12.9372
 177   2.0000      -0.473891       -12.8952
 178   2.0000      -0.471235       -12.8229
 179   2.0000      -0.468415       -12.7462
 180   2.0000      -0.466937       -12.7060
 181   2.0000      -0.464726       -12.6459
 182   2.0000      -0.463525       -12.6132
 183   2.0000      -0.460796       -12.5389
 184   2.0000      -0.459939       -12.5156
 185   2.0000      -0.458188       -12.4679
 186   2.0000      -0.457203       -12.4411
 187   2.0000      -0.456632       -12.4256
 188   2.0000      -0.450289       -12.2530
 189   2.0000      -0.449679       -12.2364
 190   2.0000      -0.448374       -12.2009
 191   2.0000      -0.445062       -12.1108
 192   2.0000      -0.444158       -12.0862
 193   2.0000      -0.440930       -11.9983
 194   2.0000      -0.435046       -11.8382
 195   2.0000      -0.434108       -11.8127
 196   2.0000      -0.433144       -11.7864
 197   2.0000      -0.430991       -11.7279
 198   2.0000      -0.429251       -11.6805
 199   2.0000      -0.428553       -11.6615
 200   2.0000      -0.428076       -11.6485
 201   2.0000      -0.425432       -11.5766
 202   2.0000      -0.423379       -11.5207
 203   2.0000      -0.421099       -11.4587
 204   2.0000      -0.420329       -11.4377
 205   2.0000      -0.418588       -11.3904
 206   2.0000      -0.414174       -11.2703
 207   2.0000      -0.411741       -11.2040
 208   2.0000      -0.407564       -11.0904
 209   2.0000      -0.401324       -10.9206
 210   2.0000      -0.400545       -10.8994
 211   2.0000      -0.396846       -10.7987
 212   2.0000      -0.394225       -10.7274
 213   2.0000      -0.393914       -10.7190
 214   2.0000      -0.393690       -10.7128
 215   2.0000      -0.390775       -10.6335
 216   2.0000      -0.389964       -10.6115
 217   2.0000      -0.389740       -10.6054
 218   2.0000      -0.389585       -10.6011
 219   2.0000      -0.388614       -10.5747
 220   2.0000      -0.388163       -10.5625
 221   2.0000      -0.387301       -10.5390
 222   2.0000      -0.386529       -10.5180
 223   2.0000      -0.383451       -10.4342
 224   2.0000      -0.382956       -10.4208
 225   2.0000      -0.381700       -10.3866
 226   2.0000      -0.377004       -10.2588
 227   2.0000      -0.376508       -10.2453
 228   2.0000      -0.375038       -10.2053
 229   2.0000      -0.373537       -10.1645
 230   2.0000      -0.371041       -10.0965
 231   2.0000      -0.367004        -9.9867
 232   2.0000      -0.364753        -9.9254
 233   2.0000      -0.363149        -9.8818
 234   2.0000      -0.362756        -9.8711
 235   2.0000      -0.360318        -9.8048
 236   2.0000      -0.359809        -9.7909
 237   2.0000      -0.358468        -9.7544
 238   2.0000      -0.357904        -9.7391
 239   2.0000      -0.356366        -9.6972
 240   2.0000      -0.355621        -9.6769
 241   2.0000      -0.353347        -9.6151
 242   2.0000      -0.351003        -9.5513
 243   2.0000      -0.349571        -9.5123
 244   2.0000      -0.347563        -9.4577
 245   2.0000      -0.346665        -9.4332
 246   2.0000      -0.338976        -9.2240
 247   2.0000      -0.336255        -9.1500
 248   2.0000      -0.335877        -9.1397
 249   2.0000      -0.332575        -9.0498
 250   2.0000      -0.330153        -8.9839
 251   2.0000      -0.329804        -8.9744
 252   2.0000      -0.326104        -8.8738
 253   2.0000      -0.315852        -8.5948
 254   2.0000      -0.300251        -8.1702
 255   2.0000      -0.295410        -8.0385
 256   2.0000      -0.292680        -7.9642
 257   2.0000      -0.288237        -7.8433
 258   2.0000      -0.282766        -7.6944
 259   2.0000      -0.281485        -7.6596
 260   2.0000      -0.276972        -7.5368
 261   2.0000      -0.273183        -7.4337
 262   2.0000      -0.266867        -7.2618
 263   2.0000      -0.264638        -7.2012
 264   2.0000      -0.256227        -6.9723
 265   2.0000      -0.254164        -6.9161
 266   2.0000      -0.232193        -6.3183
 267   2.0000      -0.213430        -5.8077
 268   0.0000      -0.133992        -3.6461
 269   0.0000      -0.126739        -3.4487
 270   0.0000      -0.111661        -3.0384
 271   0.0000      -0.107960        -2.9377
 272   0.0000      -0.079832        -2.1723

MULLIKEN ATOMIC CHARGES
-----------------------
   0 C :    0.222064
   1 O :   -0.359092
   2 C :    0.095564
   3 C :   -0.300697
   4 C :    0.284526
   5 F :   -0.174975
   6 C :    0.254483
   7 F :   -0.171834
   8 C :   -0.264588
   9 C :    0.072894
  10 C :    0.060359
  11 C :    0.148219
  12 C :   -0.211507
  13 N :    0.022716
  14 C :   -0.197504
  15 N :    0.006620
  16 C :   -0.072026
  17 C :   -0.179993
  18 C :    0.122054
  19 C :   -0.262460
  20 C :    0.010997
  21 C :   -0.029830
  22 S :    0.032994
  23 C :    0.117794
  24 C :    0.304279
  25 O :   -0.327935
  26 C :    0.368604
  27 C :   -0.223620
  28 C :   -0.359871
  29 C :   -0.171478
  30 C :   -0.382670
  31 C :   -0.370910
  32 C :    0.228856
  33 C :   -0.244311
  34 C :   -0.332115
  35 C :    0.436684
  36 C :   -0.210861
  37 C :   -0.370041
  38 C :   -0.158670
  39 C :   -0.383077
  40 C :   -0.175103
  41 C :    0.253063
  42 C :   -0.378144
  43 C :    0.296183
  44 C :    0.069792
  45 C :   -0.275493
  46 C :    0.012823
  47 C :   -0.008797
  48 C :    0.331475
  49 C :   -0.218783
  50 C :   -0.357773
  51 C :   -0.170868
  52 C :   -0.369819
  53 O :   -0.329299
  54 C :   -0.239660
  55 C :    0.195813
  56 S :    0.038601
  57 C :   -0.203750
  58 C :   -0.052027
  59 C :    0.060347
  60 C :    0.093105
  61 C :   -0.211523
  62 N :    0.006217
  63 C :   -0.214906
  64 N :    0.026551
  65 C :    0.120633
  66 C :   -0.261325
  67 C :    0.258729
  68 F :   -0.172946
  69 C :    0.279284
  70 F :   -0.176065
  71 C :   -0.288161
  72 C :   -0.018659
  73 C :    0.226188
  74 O :   -0.296822
  75 H :    0.148704
  76 H :    0.168381
  77 H :    0.162603
  78 H :    0.171529
  79 H :    0.096166
  80 H :    0.107300
  81 H :    0.136803
  82 H :    0.107355
  83 H :    0.115988
  84 H :    0.103685
  85 H :    0.112613
  86 H :    0.115692
  87 H :    0.119001
  88 H :    0.124256
  89 H :    0.102610
  90 H :    0.149470
  91 H :    0.099449
  92 H :    0.093296
  93 H :    0.120357
  94 H :    0.117031
  95 H :    0.121389
  96 H :    0.092914
  97 H :    0.101096
  98 H :    0.115343
  99 H :    0.122514
 100 H :    0.117046
 101 H :    0.104687
 102 H :    0.134032
 103 H :    0.095754
 104 H :    0.107493
 105 H :    0.118179
 106 H :    0.115399
 107 H :    0.123513
 108 H :    0.102337
 109 H :    0.117062
 110 H :    0.109759
 111 H :    0.119856
 112 H :    0.124826
 113 H :    0.143121
 114 H :    0.144634
 115 H :    0.165205
 116 H :    0.153029
Sum of atomic charges:   -0.0000000

LOEWDIN ATOMIC CHARGES
----------------------
   0 C :   -0.241808
   1 O :    0.124781
   2 C :   -0.062831
   3 C :   -0.049484
   4 C :   -0.232320
   5 F :    0.225035
   6 C :   -0.230551
   7 F :    0.226909
   8 C :   -0.051899
   9 C :   -0.041123
  10 C :    0.016002
  11 C :   -0.135073
  12 C :   -0.157330
  13 N :    0.076421
  14 C :   -0.150154
  15 N :    0.074040
  16 C :   -0.077456
  17 C :   -0.065473
  18 C :   -0.325576
  19 C :   -0.081886
  20 C :   -0.105638
  21 C :   -0.275566
  22 S :    0.781618
  23 C :   -0.117402
  24 C :   -0.194285
  25 O :    0.320470
  26 C :   -0.269524
  27 C :   -0.231857
  28 C :   -0.299440
  29 C :   -0.230475
  30 C :   -0.304518
  31 C :   -0.070743
  32 C :   -0.050903
  33 C :   -0.040231
  34 C :   -0.069930
  35 C :   -0.171305
  36 C :   -0.225126
  37 C :   -0.298127
  38 C :   -0.223154
  39 C :   -0.304520
  40 C :   -0.042943
  41 C :   -0.051008
  42 C :   -0.071205
  43 C :   -0.195700
  44 C :   -0.115500
  45 C :   -0.064108
  46 C :   -0.271152
  47 C :   -0.109694
  48 C :   -0.272322
  49 C :   -0.232575
  50 C :   -0.299939
  51 C :   -0.231718
  52 C :   -0.301416
  53 O :    0.318200
  54 C :   -0.091930
  55 C :   -0.330456
  56 S :    0.827799
  57 C :   -0.058581
  58 C :   -0.088030
  59 C :    0.008716
  60 C :   -0.146176
  61 C :   -0.151178
  62 N :    0.073298
  63 C :   -0.177266
  64 N :    0.078809
  65 C :   -0.038208
  66 C :   -0.054752
  67 C :   -0.229294
  68 F :    0.225582
  69 C :   -0.232327
  70 F :    0.223578
  71 C :   -0.048316
  72 C :   -0.062009
  73 C :   -0.248750
  74 O :    0.129766
  75 H :    0.165803
  76 H :    0.170416
  77 H :    0.172044
  78 H :    0.160987
  79 H :    0.145649
  80 H :    0.144148
  81 H :    0.124423
  82 H :    0.121384
  83 H :    0.122037
  84 H :    0.145030
  85 H :    0.146983
  86 H :    0.118247
  87 H :    0.122446
  88 H :    0.123545
  89 H :    0.152558
  90 H :    0.150190
  91 H :    0.141249
  92 H :    0.137943
  93 H :    0.122920
  94 H :    0.121239
  95 H :    0.123375
  96 H :    0.141026
  97 H :    0.144229
  98 H :    0.118570
  99 H :    0.124063
 100 H :    0.119006
 101 H :    0.152624
 102 H :    0.151746
 103 H :    0.142063
 104 H :    0.145279
 105 H :    0.120439
 106 H :    0.121255
 107 H :    0.125423
 108 H :    0.144740
 109 H :    0.149126
 110 H :    0.117932
 111 H :    0.123615
 112 H :    0.123521
 113 H :    0.155828
 114 H :    0.181832
 115 H :    0.169366
 116 H :    0.166938

  Mayer bond orders larger than 0.100000
B(  0-C ,  1-O ) :   1.9552 B(  0-C ,  2-C ) :   1.0114 B(  0-C , 16-C ) :   1.0209
B(  1-O ,  2-C ) :  -0.1429 B(  2-C ,  3-C ) :   1.2945 B(  2-C ,  9-C ) :   1.3241
B(  3-C ,  4-C ) :   1.3640 B(  3-C , 75-H ) :   0.9777 B(  4-C ,  5-F ) :   1.0683
B(  4-C ,  6-C ) :   1.3292 B(  6-C ,  7-F ) :   1.0840 B(  6-C ,  8-C ) :   1.4015
B(  8-C ,  9-C ) :   1.3071 B(  8-C , 76-H ) :   0.9298 B(  9-C , 10-C ) :   1.0156
B( 10-C , 11-C ) :   1.4659 B( 10-C , 16-C ) :   1.1151 B( 11-C , 12-C ) :   1.0171
B( 11-C , 14-C ) :   1.0277 B( 12-C , 13-N ) :   2.9979 B( 14-C , 15-N ) :   2.9710
B( 16-C , 17-C ) :   1.4927 B( 17-C , 18-C ) :   1.2188 B( 17-C , 77-H ) :   0.9136
B( 18-C , 19-C ) :   1.4282 B( 18-C , 22-S ) :   1.1672 B( 19-C , 20-C ) :   1.2877
B( 19-C , 22-S ) :   0.1103 B( 19-C , 78-H ) :   0.9250 B( 20-C , 21-C ) :   1.3337
B( 20-C , 26-C ) :   0.9421 B( 21-C , 22-S ) :   1.3665 B( 21-C , 23-C ) :   1.0434
B( 23-C , 24-C ) :   1.2303 B( 23-C , 34-C ) :   1.2724 B( 24-C , 25-O ) :   1.0959
B( 24-C , 31-C ) :   1.4150 B( 25-O , 26-C ) :   0.7474 B( 26-C , 27-C ) :   0.8947
B( 26-C , 29-C ) :   0.9748 B( 27-C , 28-C ) :   0.9958 B( 27-C , 79-H ) :   0.9502
B( 27-C , 80-H ) :   0.9810 B( 28-C , 81-H ) :   0.9648 B( 28-C , 82-H ) :   0.9751
B( 28-C , 83-H ) :   0.9743 B( 29-C , 30-C ) :   0.9583 B( 29-C , 84-H ) :   0.9628
B( 29-C , 85-H ) :   0.9589 B( 30-C , 86-H ) :   0.9751 B( 30-C , 87-H ) :   0.9748
B( 30-C , 88-H ) :   0.9761 B( 31-C , 32-C ) :   1.3216 B( 31-C , 89-H ) :   1.0081
B( 32-C , 33-C ) :   1.2039 B( 32-C , 41-C ) :   1.0714 B( 33-C , 34-C ) :   1.4474
B( 33-C , 35-C ) :   1.0593 B( 34-C , 90-H ) :   0.9413 B( 35-C , 36-C ) :   0.7932
B( 35-C , 38-C ) :   0.8347 B( 35-C , 40-C ) :   1.0040 B( 36-C , 37-C ) :   0.9808
B( 36-C , 91-H ) :   0.9591 B( 36-C , 92-H ) :   0.9632 B( 37-C , 93-H ) :   0.9740
B( 37-C , 94-H ) :   0.9774 B( 37-C , 95-H ) :   0.9721 B( 38-C , 39-C ) :   0.9510
B( 38-C , 96-H ) :   0.9585 B( 38-C , 97-H ) :   0.9671 B( 39-C , 98-H ) :   0.9743
B( 39-C , 99-H ) :   0.9753 B( 39-C ,100-H ) :   0.9767 B( 40-C , 41-C ) :   1.1842
B( 40-C , 45-C ) :   1.4423 B( 41-C , 42-C ) :   1.3031 B( 42-C , 43-C ) :   1.4240
B( 42-C ,101-H ) :   1.0060 B( 43-C , 44-C ) :   1.2229 B( 43-C , 53-O ) :   1.1027
B( 44-C , 45-C ) :   1.3093 B( 44-C , 46-C ) :   1.0240 B( 45-C ,102-H ) :   0.9361
B( 46-C , 47-C ) :   1.3290 B( 46-C , 56-S ) :   1.3899 B( 47-C , 48-C ) :   0.9496
B( 47-C , 54-C ) :   1.3239 B( 48-C , 49-C ) :   0.9103 B( 48-C , 51-C ) :   0.9785
B( 48-C , 53-O ) :   0.7608 B( 49-C , 50-C ) :   0.9865 B( 49-C ,103-H ) :   0.9534
B( 49-C ,104-H ) :   0.9797 B( 50-C ,105-H ) :   0.9708 B( 50-C ,106-H ) :   0.9746
B( 50-C ,107-H ) :   0.9749 B( 51-C , 52-C ) :   0.9638 B( 51-C ,108-H ) :   0.9584
B( 51-C ,109-H ) :   0.9607 B( 52-C ,110-H ) :   0.9729 B( 52-C ,111-H ) :   0.9753
B( 52-C ,112-H ) :   0.9751 B( 54-C , 55-C ) :   1.3427 B( 54-C ,113-H ) :   0.9652
B( 55-C , 56-S ) :   1.1536 B( 55-C , 57-C ) :   1.1541 B( 57-C , 58-C ) :   1.4901
B( 57-C ,114-H ) :   0.9423 B( 58-C , 59-C ) :   1.1610 B( 58-C , 73-C ) :   1.0023
B( 59-C , 60-C ) :   1.4125 B( 59-C , 65-C ) :   1.0414 B( 60-C , 61-C ) :   1.0474
B( 60-C , 63-C ) :   1.0359 B( 61-C , 62-N ) :   2.9815 B( 63-C , 64-N ) :   3.0003
B( 65-C , 66-C ) :   1.3097 B( 65-C , 72-C ) :   1.3150 B( 66-C , 67-C ) :   1.3939
B( 66-C ,115-H ) :   0.9387 B( 67-C , 68-F ) :   1.0779 B( 67-C , 69-C ) :   1.3281
B( 69-C , 70-F ) :   1.0650 B( 69-C , 71-C ) :   1.3679 B( 71-C , 72-C ) :   1.3112
B( 71-C ,116-H ) :   0.9735 B( 72-C , 73-C ) :   0.9653 B( 72-C , 74-O ) :  -0.1408
B( 73-C , 74-O ) :   2.1323

-----------------------------------------------------------------------------
         ABSORPTION SPECTRUM VIA TRANSITION ELECTRIC DIPOLE MOMENTS
-----------------------------------------------------------------------------
State   Energy    Wavelength  fosc         T2        TX        TY        TZ
        (cm-1)      (nm)                 (au**2)    (au)      (au)      (au)
-----------------------------------------------------------------------------
   1   15676.8    637.9   1.943809796  40.81983   3.54139   3.93248  -3.57966
   2   17500.0    571.4   0.075254066   1.41569  -1.18235  -0.08746  -0.10048
   3   19584.9    510.6   0.169118980   2.84280  -0.18062  -1.16860   1.20189
   4   19863.1    503.4   0.315903358   5.23580  -1.97122  -0.86571   0.77501
   5   21164.3    472.5   0.192208147   2.98981  -0.80071  -1.34209   0.73991
   6   21467.2    465.8   0.121757984   1.86723   0.85062  -0.57652   0.90072
   7   23827.3    419.7   0.055225689   0.76303   0.76467   0.32434  -0.27039
   8   24010.9    416.5   0.117923049   1.61684  -0.69952  -0.85159   0.63427
   9   24204.8    413.1   0.063454594   0.86305  -0.85089   0.07242  -0.36579
  10   24826.0    402.8   0.106993531   1.41882  -0.10774  -0.88483   0.79011
  11   25477.2    392.5   0.034400589   0.44452   0.37843   0.44206  -0.32540
  12   25864.7    386.6   0.041104147   0.52318   0.05323   0.56605  -0.44714
  13   26103.3    383.1   0.070403902   0.88793   0.59165   0.68794  -0.25421
  14   26413.6    378.6   0.013782314   0.17178  -0.38582  -0.11998   0.09233
  15   26674.6    374.9   0.139407162   1.72053  -1.02799  -0.42078   0.69765
  16   27109.1    368.9   0.031506894   0.38262  -0.57007  -0.02351   0.23893
  17   27284.2    366.5   0.010646387   0.12846  -0.02603   0.05697   0.35290
  18   27544.2    363.1   0.046892486   0.56046   0.17691   0.62090  -0.37901
  19   27854.0    359.0   0.021042044   0.24870   0.37952   0.30965  -0.09372
  20   28446.0    351.5   0.024770625   0.28668  -0.25062   0.25684   0.39736
  21   28591.5    349.8   0.062908684   0.72435   0.77314   0.27251  -0.22878
  22   28667.8    348.8   0.009793229   0.11246  -0.27090   0.11331  -0.16197
  23   29053.4    344.2   0.006084656   0.06895  -0.19206  -0.15814   0.08397
  24   29214.0    342.3   0.025066997   0.28248   0.50272  -0.07305  -0.15625
  25   29547.8    338.4   0.102870846   1.14616  -0.03349  -1.00951   0.35487
  26   29836.6    335.2   0.005353114   0.05907   0.21895  -0.10545   0.00270
  27   30013.9    333.2   0.009551540   0.10477  -0.26887  -0.15157  -0.09747
  28   30287.8    330.2   0.014663857   0.15939  -0.28484   0.27811   0.03014
  29   30427.1    328.7   0.025535381   0.27628  -0.14171   0.26833   0.42919
  30   30676.4    326.0   0.004559882   0.04894   0.20872   0.01995   0.07051
  31   30714.5    325.6   0.015192406   0.16284  -0.35269  -0.09629   0.17081
  32   31058.0    322.0   0.009227140   0.09781  -0.30812  -0.04812  -0.02345
  33   31602.7    316.4   0.113691485   1.18435   0.64690   0.85624  -0.18088
  34   31684.1    315.6   0.011084386   0.11517  -0.33615  -0.04586   0.00843
  35   31740.3    315.1   0.029419273   0.30514   0.04458  -0.51975   0.18169
  36   32035.1    312.2   0.003216190   0.03305   0.17583  -0.04369   0.01498
  37   32149.8    311.0   0.071766247   0.73488  -0.70232  -0.48179   0.09753
  38   32370.6    308.9   0.024065613   0.24475  -0.23420  -0.42941  -0.07421
  39   32789.3    305.0   0.078604753   0.78921   0.87075  -0.07602   0.15882
  40   32976.6    303.2   0.107099031   1.06919  -0.00011  -0.98622   0.31075
  41   33068.4    302.4   0.127290363   1.26724   1.11737  -0.07502   0.11439
  42   33194.3    301.3   0.330476633   3.27758  -0.54620   1.67005  -0.43610
  43   33586.0    297.7   0.050786732   0.49781   0.65959   0.12935   0.21453
  44   33757.6    296.2   0.027163280   0.26490  -0.49092  -0.15459  -0.00153
  45   33803.6    295.8   0.071602661   0.69734   0.40014  -0.72605   0.10038
  46   34087.9    293.4   0.131205910   1.26715   0.70967   0.86435   0.12816
  47   34380.8    290.9   0.084128779   0.80557  -0.59063  -0.66744   0.10611
  48   34502.7    289.8   0.001441133   0.01375   0.09096   0.00218   0.07398
  49   34643.4    288.7   0.037950422   0.36064   0.44441  -0.40249   0.03373
  50   34812.7    287.3   0.004069387   0.03848   0.00654  -0.01004   0.19580

FINAL SINGLE POINT ENERGY     -4064.554272186882

DIPOLE MOMENT
-------------
                                X             Y             Z
Electronic contribution:    -49.50515      21.10795     -22.38874
Nuclear contribution   :     53.36417     -21.99009      23.88847
                        -----------------------------------------
Total Dipole Moment    :      3.85902      -0.88214       1.49973
                        -----------------------------------------
Magnitude (a.u.)       :      4.23313
Magnitude (Debye)      :     10.75977

Rotational constants in cm-1:     0.001861     0.000237     0.000226
Rotational constants in MHz :    55.780428     7.096787     6.762904

                             ****ORCA TERMINATED NORMALLY****
TOTAL RUN TIME: 0 days 5 hours 41 minutes 42 seconds 225 msec
