                         Program Version 4.2.0 -  RELEASE  -
|  1> # ORCA input file
|  2> # IDIC.out: Geometry 18
|  3> ! B3LYP def2-TZVP def2/J RIJCOSX Grid4 TightSCF
|  4>
|  5> %maxcore 6000
|  6> %tddft
|  7>   maxdim 5
|  8>   nroots 50
|  9>   end
| 10> %pal
| 11>   nprocs 6
| 12>   end
| 13>
| 14>
| 15> * xyz 0 1
| 16>    C        2.88191         1.08454        -0.59991
| 17>    C        2.82037        -0.33452        -0.73666
| 18>    C        1.58461        -0.96482        -0.75979
| 19>    C        0.43270        -0.16393        -0.69310
| 20>    C        0.49260         1.25982        -0.62596
| 21>    C        1.72839         1.88762        -0.55896
| 22>    C       -0.95897        -0.52598        -0.59248
| 23>    C       -1.76645         0.61186        -0.50140
| 24>    C       -0.91650         1.87205        -0.56645
| 25>    C        4.27625         1.42571        -0.46215
| 26>    C        5.07977         0.28107        -0.53139
| 27>    C        4.22450        -0.95861        -0.74531
| 28>    S       -1.83943        -1.98113        -0.42668
| 29>    C       -3.35239        -1.06830        -0.21208
| 30>    C       -3.11838         0.31614        -0.30161
| 31>    S        5.17547         2.85547        -0.18956
| 32>    C        6.69201         1.92493        -0.17157
| 33>    C        6.44226         0.55933        -0.38921
| 34>    C       -1.12412         2.75594         0.68761
| 35>    C       -1.26252         2.64808        -1.87311
| 36>    C       -0.54483         3.97696        -2.10097
| 37>    C       -0.98824         2.02354         2.02149
| 38>    C        4.57353        -1.58398        -2.12967
| 39>    C        4.35770        -1.96544         0.42906
| 40>    C        3.86962        -2.89059        -2.48912
| 41>    C        5.74614        -2.57111         0.63588
| 42>    C        7.86784         2.67212         0.09247
| 43>    C       -4.49036        -1.86273         0.08392
| 44>    C       -5.81356        -1.56233         0.33093
| 45>    C        9.19973         2.32301         0.19877
| 46>    C        9.80986         0.97762        -0.01182
| 47>    C       11.27586         1.16572         0.11652
| 48>    C       11.56406         2.51317         0.40747
| 49>    C       10.28659         3.25958         0.51772
| 50>    C       -6.47688        -0.22970         0.23396
| 51>    C       -7.92580        -0.47762         0.44094
| 52>    C       -8.15023        -1.84824         0.67663
| 53>    C       -6.84425        -2.55025         0.67937
| 54>    C       12.26784         0.20281        -0.01995
| 55>    C       13.59885         0.60562         0.12575
| 56>    C       13.90312         1.94644         0.39869
| 57>    C       12.90010         2.91163         0.54432
| 58>    C       -8.95831         0.45137         0.40953
| 59>    C      -10.26474        -0.00943         0.60122
| 60>    C      -10.50589        -1.37321         0.81736
| 61>    C       -9.46188        -2.30429         0.86220
| 62>    O        9.26441        -0.08904        -0.24697
| 63>    O       -5.97747         0.86257         0.01765
| 64>    C       -6.66776        -3.88054         1.01897
| 65>    C       10.18437         4.58481         0.90544
| 66>    C        8.94856         5.28437         1.08274
| 67>    C       11.31625         5.40396         1.21293
| 68>    C       -5.39588        -4.52981         1.11275
| 69>    C       -7.74803        -4.75323         1.36323
| 70>    N        7.96937         5.89277         1.23590
| 71>    N       12.19627         6.11499         1.47883
| 72>    N       -8.58788        -5.50338         1.65077
| 73>    N       -4.38661        -5.09971         1.20653
| 74>    H        1.49589        -2.05208        -0.79544
| 75>    H        1.81565         2.96911        -0.43756
| 76>    H       -3.93759         1.02367        -0.18835
| 77>    H        7.26807        -0.14615        -0.42518
| 78>    H       -2.12524         3.21484         0.61425
| 79>    H       -0.40681         3.59177         0.65049
| 80>    H       -2.35154         2.82479        -1.86345
| 81>    H       -1.06746         1.97244        -2.72209
| 82>    H       -0.74087         4.69857        -1.29320
| 83>    H       -0.90077         4.43681        -3.03624
| 84>    H        0.54490         3.85141        -2.19162
| 85>    H       -1.75217         1.23980         2.13577
| 86>    H       -1.10509         2.72647         2.86044
| 87>    H       -0.00289         1.54051         2.11895
| 88>    H        5.66406        -1.74222        -2.15933
| 89>    H        4.35756        -0.82316        -2.89747
| 90>    H        3.62617        -2.77384         0.26819
| 91>    H        4.03905        -1.44838         1.34936
| 92>    H        4.09244        -3.69209        -1.76831
| 93>    H        4.21022        -3.24041        -3.47612
| 94>    H        2.77653        -2.77439        -2.54306
| 95>    H        5.71969        -3.32475         1.43830
| 96>    H        6.48468        -1.81125         0.92699
| 97>    H        6.12098        -3.07291        -0.26949
| 98>    H        7.65360         3.72813         0.25624
| 99>    H       -4.24181        -2.92295         0.14218
|100>    H       11.99112        -0.83000        -0.24189
|101>    H       14.40655        -0.12211         0.02120
|102>    H       14.94681         2.25196         0.50462
|103>    H       13.17608         3.93997         0.76460
|104>    H       -8.73147         1.50463         0.23064
|105>    H      -11.10260         0.69076         0.57930
|106>    H      -11.53039        -1.72452         0.96065
|107>    H       -9.68810        -3.35294         1.04108
|108> *
|109>
|110>                          ****END OF INPUT****

CARTESIAN COORDINATES (ANGSTROEM)
---------------------------------
  C      2.881910    1.084540   -0.599910
  C      2.820370   -0.334520   -0.736660
  C      1.584610   -0.964820   -0.759790
  C      0.432700   -0.163930   -0.693100
  C      0.492600    1.259820   -0.625960
  C      1.728390    1.887620   -0.558960
  C     -0.958970   -0.525980   -0.592480
  C     -1.766450    0.611860   -0.501400
  C     -0.916500    1.872050   -0.566450
  C      4.276250    1.425710   -0.462150
  C      5.079770    0.281070   -0.531390
  C      4.224500   -0.958610   -0.745310
  S     -1.839430   -1.981130   -0.426680
  C     -3.352390   -1.068300   -0.212080
  C     -3.118380    0.316140   -0.301610
  S      5.175470    2.855470   -0.189560
  C      6.692010    1.924930   -0.171570
  C      6.442260    0.559330   -0.389210
  C     -1.124120    2.755940    0.687610
  C     -1.262520    2.648080   -1.873110
  C     -0.544830    3.976960   -2.100970
  C     -0.988240    2.023540    2.021490
  C      4.573530   -1.583980   -2.129670
  C      4.357700   -1.965440    0.429060
  C      3.869620   -2.890590   -2.489120
  C      5.746140   -2.571110    0.635880
  C      7.867840    2.672120    0.092470
  C     -4.490360   -1.862730    0.083920
  C     -5.813560   -1.562330    0.330930
  C      9.199730    2.323010    0.198770
  C      9.809860    0.977620   -0.011820
  C     11.275860    1.165720    0.116520
  C     11.564060    2.513170    0.407470
  C     10.286590    3.259580    0.517720
  C     -6.476880   -0.229700    0.233960
  C     -7.925800   -0.477620    0.440940
  C     -8.150230   -1.848240    0.676630
  C     -6.844250   -2.550250    0.679370
  C     12.267840    0.202810   -0.019950
  C     13.598850    0.605620    0.125750
  C     13.903120    1.946440    0.398690
  C     12.900100    2.911630    0.544320
  C     -8.958310    0.451370    0.409530
  C    -10.264740   -0.009430    0.601220
  C    -10.505890   -1.373210    0.817360
  C     -9.461880   -2.304290    0.862200
  O      9.264410   -0.089040   -0.246970
  O     -5.977470    0.862570    0.017650
  C     -6.667760   -3.880540    1.018970
  C     10.184370    4.584810    0.905440
  C      8.948560    5.284370    1.082740
  C     11.316250    5.403960    1.212930
  C     -5.395880   -4.529810    1.112750
  C     -7.748030   -4.753230    1.363230
  N      7.969370    5.892770    1.235900
  N     12.196270    6.114990    1.478830
  N     -8.587880   -5.503380    1.650770
  N     -4.386610   -5.099710    1.206530
  H      1.495890   -2.052080   -0.795440
  H      1.815650    2.969110   -0.437560
  H     -3.937590    1.023670   -0.188350
  H      7.268070   -0.146150   -0.425180
  H     -2.125240    3.214840    0.614250
  H     -0.406810    3.591770    0.650490
  H     -2.351540    2.824790   -1.863450
  H     -1.067460    1.972440   -2.722090
  H     -0.740870    4.698570   -1.293200
  H     -0.900770    4.436810   -3.036240
  H      0.544900    3.851410   -2.191620
  H     -1.752170    1.239800    2.135770
  H     -1.105090    2.726470    2.860440
  H     -0.002890    1.540510    2.118950
  H      5.664060   -1.742220   -2.159330
  H      4.357560   -0.823160   -2.897470
  H      3.626170   -2.773840    0.268190
  H      4.039050   -1.448380    1.349360
  H      4.092440   -3.692090   -1.768310
  H      4.210220   -3.240410   -3.476120
  H      2.776530   -2.774390   -2.543060
  H      5.719690   -3.324750    1.438300
  H      6.484680   -1.811250    0.926990
  H      6.120980   -3.072910   -0.269490
  H      7.653600    3.728130    0.256240
  H     -4.241810   -2.922950    0.142180
  H     11.991120   -0.830000   -0.241890
  H     14.406550   -0.122110    0.021200
  H     14.946810    2.251960    0.504620
  H     13.176080    3.939970    0.764600
  H     -8.731470    1.504630    0.230640
  H    -11.102600    0.690760    0.579300
  H    -11.530390   -1.724520    0.960650
  H     -9.688100   -3.352940    1.041080

 Total Charge           Charge          ....    0
 Multiplicity           Mult            ....    1
 Number of Electrons    NEL             ....  410
 Basis Dimension        Dim             .... 2014

ORBITAL ENERGIES
----------------

  NO   OCC          E(Eh)            E(eV)
   0   2.0000     -88.911876     -2419.4152
   1   2.0000     -88.911851     -2419.4145
   2   2.0000     -19.132115      -520.6113
   3   2.0000     -19.131910      -520.6057
   4   2.0000     -14.332150      -389.9976
   5   2.0000     -14.331982      -389.9931
   6   2.0000     -14.328331      -389.8937
   7   2.0000     -14.328122      -389.8880
   8   2.0000     -10.278409      -279.6897
   9   2.0000     -10.278174      -279.6833
  10   2.0000     -10.259370      -279.1716
  11   2.0000     -10.259159      -279.1659
  12   2.0000     -10.256274      -279.0874
  13   2.0000     -10.256233      -279.0863
  14   2.0000     -10.239879      -278.6413
  15   2.0000     -10.238697      -278.6091
  16   2.0000     -10.236829      -278.5583
  17   2.0000     -10.235908      -278.5332
  18   2.0000     -10.232456      -278.4393
  19   2.0000     -10.232213      -278.4327
  20   2.0000     -10.232015      -278.4273
  21   2.0000     -10.231677      -278.4181
  22   2.0000     -10.228607      -278.3346
  23   2.0000     -10.228435      -278.3299
  24   2.0000     -10.222023      -278.1554
  25   2.0000     -10.221912      -278.1524
  26   2.0000     -10.220838      -278.1232
  27   2.0000     -10.220814      -278.1225
  28   2.0000     -10.220487      -278.1136
  29   2.0000     -10.220225      -278.1065
  30   2.0000     -10.217008      -278.0189
  31   2.0000     -10.216760      -278.0122
  32   2.0000     -10.213452      -277.9221
  33   2.0000     -10.213413      -277.9211
  34   2.0000     -10.209311      -277.8095
  35   2.0000     -10.208883      -277.7978
  36   2.0000     -10.208770      -277.7947
  37   2.0000     -10.208645      -277.7913
  38   2.0000     -10.207943      -277.7722
  39   2.0000     -10.207850      -277.7697
  40   2.0000     -10.207520      -277.7607
  41   2.0000     -10.207355      -277.7562
  42   2.0000     -10.207201      -277.7521
  43   2.0000     -10.207069      -277.7485
  44   2.0000     -10.206914      -277.7442
  45   2.0000     -10.206399      -277.7302
  46   2.0000     -10.206143      -277.7233
  47   2.0000     -10.205948      -277.7180
  48   2.0000     -10.205854      -277.7154
  49   2.0000     -10.205003      -277.6923
  50   2.0000     -10.192470      -277.3512
  51   2.0000     -10.192135      -277.3421
  52   2.0000     -10.191011      -277.3115
  53   2.0000     -10.190869      -277.3076
  54   2.0000     -10.177961      -276.9564
  55   2.0000     -10.177409      -276.9414
  56   2.0000     -10.173641      -276.8389
  57   2.0000     -10.172259      -276.8012
  58   2.0000      -7.987806      -217.3593
  59   2.0000      -7.987731      -217.3572
  60   2.0000      -5.950098      -161.9104
  61   2.0000      -5.950045      -161.9090
  62   2.0000      -5.946506      -161.8127
  63   2.0000      -5.946466      -161.8116
  64   2.0000      -5.944718      -161.7640
  65   2.0000      -5.944597      -161.7607
  66   2.0000      -1.058355       -28.7993
  67   2.0000      -1.057997       -28.7895
  68   2.0000      -0.936975       -25.4964
  69   2.0000      -0.934861       -25.4389
  70   2.0000      -0.934492       -25.4288
  71   2.0000      -0.926791       -25.2193
  72   2.0000      -0.917232       -24.9591
  73   2.0000      -0.917188       -24.9579
  74   2.0000      -0.910471       -24.7752
  75   2.0000      -0.910205       -24.7679
  76   2.0000      -0.889656       -24.2088
  77   2.0000      -0.870968       -23.7002
  78   2.0000      -0.862986       -23.4830
  79   2.0000      -0.859897       -23.3990
  80   2.0000      -0.836394       -22.7594
  81   2.0000      -0.824715       -22.4416
  82   2.0000      -0.820306       -22.3217
  83   2.0000      -0.814149       -22.1541
  84   2.0000      -0.805287       -21.9130
  85   2.0000      -0.791201       -21.5297
  86   2.0000      -0.779008       -21.1979
  87   2.0000      -0.778841       -21.1933
  88   2.0000      -0.774739       -21.0817
  89   2.0000      -0.769643       -20.9431
  90   2.0000      -0.767588       -20.8871
  91   2.0000      -0.765100       -20.8194
  92   2.0000      -0.762606       -20.7516
  93   2.0000      -0.758617       -20.6430
  94   2.0000      -0.731877       -19.9154
  95   2.0000      -0.719861       -19.5884
  96   2.0000      -0.700514       -19.0620
  97   2.0000      -0.693616       -18.8742
  98   2.0000      -0.687872       -18.7180
  99   2.0000      -0.686654       -18.6848
 100   2.0000      -0.677526       -18.4364
 101   2.0000      -0.653713       -17.7884
 102   2.0000      -0.642039       -17.4708
 103   2.0000      -0.634104       -17.2548
 104   2.0000      -0.631418       -17.1817
 105   2.0000      -0.629740       -17.1361
 106   2.0000      -0.618391       -16.8273
 107   2.0000      -0.617876       -16.8133
 108   2.0000      -0.613297       -16.6887
 109   2.0000      -0.606351       -16.4996
 110   2.0000      -0.602298       -16.3894
 111   2.0000      -0.592535       -16.1237
 112   2.0000      -0.579620       -15.7723
 113   2.0000      -0.577937       -15.7265
 114   2.0000      -0.574488       -15.6326
 115   2.0000      -0.564075       -15.3493
 116   2.0000      -0.553350       -15.0574
 117   2.0000      -0.541523       -14.7356
 118   2.0000      -0.538042       -14.6409
 119   2.0000      -0.537758       -14.6331
 120   2.0000      -0.536964       -14.6115
 121   2.0000      -0.525629       -14.3031
 122   2.0000      -0.506416       -13.7803
 123   2.0000      -0.504166       -13.7191
 124   2.0000      -0.503292       -13.6953
 125   2.0000      -0.495384       -13.4801
 126   2.0000      -0.489542       -13.3211
 127   2.0000      -0.482426       -13.1275
 128   2.0000      -0.479469       -13.0470
 129   2.0000      -0.478526       -13.0213
 130   2.0000      -0.475088       -12.9278
 131   2.0000      -0.471134       -12.8202
 132   2.0000      -0.469789       -12.7836
 133   2.0000      -0.465361       -12.6631
 134   2.0000      -0.462712       -12.5910
 135   2.0000      -0.460895       -12.5416
 136   2.0000      -0.459438       -12.5019
 137   2.0000      -0.457052       -12.4370
 138   2.0000      -0.456908       -12.4331
 139   2.0000      -0.455963       -12.4074
 140   2.0000      -0.455068       -12.3830
 141   2.0000      -0.449303       -12.2262
 142   2.0000      -0.446626       -12.1533
 143   2.0000      -0.443903       -12.0792
 144   2.0000      -0.435607       -11.8535
 145   2.0000      -0.431329       -11.7371
 146   2.0000      -0.429595       -11.6899
 147   2.0000      -0.427657       -11.6371
 148   2.0000      -0.423333       -11.5195
 149   2.0000      -0.421652       -11.4737
 150   2.0000      -0.419521       -11.4157
 151   2.0000      -0.419117       -11.4048
 152   2.0000      -0.418521       -11.3885
 153   2.0000      -0.413738       -11.2584
 154   2.0000      -0.409958       -11.1555
 155   2.0000      -0.403961       -10.9923
 156   2.0000      -0.400313       -10.8931
 157   2.0000      -0.396900       -10.8002
 158   2.0000      -0.391105       -10.6425
 159   2.0000      -0.390797       -10.6341
 160   2.0000      -0.389840       -10.6081
 161   2.0000      -0.389227       -10.5914
 162   2.0000      -0.388174       -10.5628
 163   2.0000      -0.386211       -10.5093
 164   2.0000      -0.385926       -10.5016
 165   2.0000      -0.385494       -10.4898
 166   2.0000      -0.384043       -10.4503
 167   2.0000      -0.383392       -10.4326
 168   2.0000      -0.381466       -10.3802
 169   2.0000      -0.379729       -10.3329
 170   2.0000      -0.378034       -10.2868
 171   2.0000      -0.377602       -10.2751
 172   2.0000      -0.376747       -10.2518
 173   2.0000      -0.373987       -10.1767
 174   2.0000      -0.372194       -10.1279
 175   2.0000      -0.365404        -9.9431
 176   2.0000      -0.361423        -9.8348
 177   2.0000      -0.358554        -9.7568
 178   2.0000      -0.357921        -9.7395
 179   2.0000      -0.356953        -9.7132
 180   2.0000      -0.352423        -9.5899
 181   2.0000      -0.352194        -9.5837
 182   2.0000      -0.350160        -9.5283
 183   2.0000      -0.348870        -9.4932
 184   2.0000      -0.346030        -9.4160
 185   2.0000      -0.343487        -9.3468
 186   2.0000      -0.341234        -9.2854
 187   2.0000      -0.341017        -9.2795
 188   2.0000      -0.338412        -9.2087
 189   2.0000      -0.337280        -9.1779
 190   2.0000      -0.331824        -9.0294
 191   2.0000      -0.330462        -8.9923
 192   2.0000      -0.313201        -8.5226
 193   2.0000      -0.290314        -7.8998
 194   2.0000      -0.286286        -7.7902
 195   2.0000      -0.285618        -7.7721
 196   2.0000      -0.281372        -7.6565
 197   2.0000      -0.278947        -7.5905
 198   2.0000      -0.275889        -7.5073
 199   2.0000      -0.275117        -7.4863
 200   2.0000      -0.275023        -7.4838
 201   2.0000      -0.267680        -7.2840
 202   2.0000      -0.263127        -7.1600
 203   2.0000      -0.243363        -6.6222
 204   2.0000      -0.216272        -5.8851
 205   0.0000      -0.135179        -3.6784
 206   0.0000      -0.119744        -3.2584
 207   0.0000      -0.106693        -2.9033
 208   0.0000      -0.102395        -2.7863
 209   0.0000      -0.067598        -1.8394

MULLIKEN ATOMIC CHARGES
-----------------------
   0 C :    0.255148
   1 C :   -0.060932
   2 C :   -0.306036
   3 C :    0.240392
   4 C :   -0.152174
   5 C :   -0.338395
   6 C :   -0.091500
   7 C :    0.049743
   8 C :    0.437678
   9 C :   -0.120712
  10 C :    0.069426
  11 C :    0.352197
  12 S :    0.040222
  13 C :    0.161993
  14 C :   -0.400475
  15 S :    0.038790
  16 C :    0.136607
  17 C :   -0.378727
  18 C :   -0.246203
  19 C :   -0.178815
  20 C :   -0.376748
  21 C :   -0.361902
  22 C :   -0.220483
  23 C :   -0.225796
  24 C :   -0.376590
  25 C :   -0.372618
  26 C :   -0.196585
  27 C :   -0.193399
  28 C :   -0.055461
  29 C :   -0.064665
  30 C :    0.218311
  31 C :    0.100452
  32 C :    0.061069
  33 C :    0.033732
  34 C :    0.213664
  35 C :    0.095308
  36 C :    0.057117
  37 C :    0.043890
  38 C :   -0.219817
  39 C :   -0.061303
  40 C :   -0.112793
  41 C :   -0.173834
  42 C :   -0.214495
  43 C :   -0.065418
  44 C :   -0.110261
  45 C :   -0.175741
  46 O :   -0.362853
  47 O :   -0.356842
  48 C :    0.152355
  49 C :    0.151629
  50 C :   -0.198726
  51 C :   -0.207484
  52 C :   -0.207780
  53 C :   -0.206364
  54 N :    0.013295
  55 N :    0.008543
  56 N :    0.008587
  57 N :    0.013136
  58 H :    0.142449
  59 H :    0.140073
  60 H :    0.193752
  61 H :    0.239180
  62 H :    0.105665
  63 H :    0.103221
  64 H :    0.107134
  65 H :    0.103073
  66 H :    0.119237
  67 H :    0.121554
  68 H :    0.115206
  69 H :    0.127882
  70 H :    0.117505
  71 H :    0.118766
  72 H :    0.116932
  73 H :    0.105615
  74 H :    0.106842
  75 H :    0.106373
  76 H :    0.118544
  77 H :    0.121822
  78 H :    0.113890
  79 H :    0.120415
  80 H :    0.129518
  81 H :    0.111993
  82 H :    0.168706
  83 H :    0.162901
  84 H :    0.134092
  85 H :    0.124042
  86 H :    0.127616
  87 H :    0.164832
  88 H :    0.134391
  89 H :    0.124488
  90 H :    0.127914
  91 H :    0.163021
Sum of atomic charges:   -0.0000000

LOEWDIN ATOMIC CHARGES
----------------------
   0 C :   -0.080552
   1 C :   -0.021359
   2 C :   -0.066968
   3 C :   -0.081774
   4 C :   -0.022601
   5 C :   -0.067583
   6 C :   -0.287946
   7 C :   -0.088805
   8 C :   -0.170005
   9 C :   -0.284715
  10 C :   -0.084393
  11 C :   -0.167846
  12 S :    0.786375
  13 C :   -0.311465
  14 C :   -0.083704
  15 S :    0.783466
  16 C :   -0.313837
  17 C :   -0.088236
  18 C :   -0.225144
  19 C :   -0.220482
  20 C :   -0.303703
  21 C :   -0.296107
  22 C :   -0.221887
  23 C :   -0.223685
  24 C :   -0.302638
  25 C :   -0.297369
  26 C :   -0.068931
  27 C :   -0.070633
  28 C :   -0.079079
  29 C :   -0.078693
  30 C :   -0.240254
  31 C :   -0.062767
  32 C :   -0.040463
  33 C :    0.018855
  34 C :   -0.240961
  35 C :   -0.062265
  36 C :   -0.040574
  37 C :    0.018650
  38 C :   -0.072563
  39 C :   -0.112212
  40 C :   -0.110320
  41 C :   -0.075371
  42 C :   -0.072556
  43 C :   -0.112119
  44 C :   -0.110349
  45 C :   -0.075244
  46 O :    0.113470
  47 O :    0.114778
  48 C :   -0.135515
  49 C :   -0.135632
  50 C :   -0.159615
  51 C :   -0.153677
  52 C :   -0.159943
  53 C :   -0.153206
  54 N :    0.069652
  55 N :    0.070682
  56 N :    0.070729
  57 N :    0.070070
  58 H :    0.151153
  59 H :    0.151810
  60 H :    0.161452
  61 H :    0.159384
  62 H :    0.144356
  63 H :    0.139242
  64 H :    0.144559
  65 H :    0.145262
  66 H :    0.120161
  67 H :    0.124544
  68 H :    0.119123
  69 H :    0.124455
  70 H :    0.122064
  71 H :    0.123299
  72 H :    0.143628
  73 H :    0.145805
  74 H :    0.139162
  75 H :    0.145932
  76 H :    0.120582
  77 H :    0.124752
  78 H :    0.118869
  79 H :    0.123575
  80 H :    0.124642
  81 H :    0.120615
  82 H :    0.173748
  83 H :    0.173482
  84 H :    0.156254
  85 H :    0.148312
  86 H :    0.150715
  87 H :    0.161391
  88 H :    0.156296
  89 H :    0.148329
  90 H :    0.150701
  91 H :    0.161366

  Mayer bond orders larger than 0.100000
B(  0-C ,  1-C ) :   1.2121 B(  0-C ,  5-C ) :   1.3200 B(  0-C ,  9-C ) :   1.0478
B(  1-C ,  2-C ) :   1.4198 B(  1-C , 11-C ) :   1.0980 B(  1-C , 22-C ) :   0.1035
B(  2-C ,  3-C ) :   1.3560 B(  2-C , 58-H ) :   0.9432 B(  3-C ,  4-C ) :   1.2057
B(  3-C ,  6-C ) :   1.0507 B(  4-C ,  5-C ) :   1.4108 B(  4-C ,  8-C ) :   1.1267
B(  5-C , 59-H ) :   0.9590 B(  6-C ,  7-C ) :   1.2999 B(  6-C , 12-S ) :   1.4117
B(  7-C ,  8-C ) :   0.9994 B(  7-C , 14-C ) :   1.2438 B(  8-C , 18-C ) :   0.7800
B(  8-C , 19-C ) :   0.8086 B(  9-C , 10-C ) :   1.3090 B(  9-C , 15-S ) :   1.4187
B( 10-C , 11-C ) :   1.0720 B( 10-C , 17-C ) :   1.2791 B( 11-C , 22-C ) :   0.8115
B( 11-C , 23-C ) :   0.8128 B( 12-S , 13-C ) :   1.1710 B( 12-S , 14-C ) :   0.1627
B( 13-C , 14-C ) :   1.4500 B( 13-C , 27-C ) :   1.2947 B( 14-C , 60-H ) :   0.9303
B( 15-S , 16-C ) :   1.1769 B( 15-S , 17-C ) :   0.1625 B( 16-C , 17-C ) :   1.4793
B( 16-C , 26-C ) :   1.3133 B( 17-C , 61-H ) :   0.8767 B( 18-C , 21-C ) :   0.9801
B( 18-C , 62-H ) :   0.9590 B( 18-C , 63-H ) :   0.9695 B( 19-C , 20-C ) :   0.9548
B( 19-C , 64-H ) :   0.9603 B( 19-C , 65-H ) :   0.9671 B( 20-C , 66-H ) :   0.9735
B( 20-C , 67-H ) :   0.9753 B( 20-C , 68-H ) :   0.9745 B( 21-C , 69-H ) :   0.9730
B( 21-C , 70-H ) :   0.9765 B( 21-C , 71-H ) :   0.9725 B( 22-C , 24-C ) :   0.9532
B( 22-C , 72-H ) :   0.9674 B( 22-C , 73-H ) :   0.9656 B( 23-C , 25-C ) :   0.9580
B( 23-C , 74-H ) :   0.9697 B( 23-C , 75-H ) :   0.9641 B( 24-C , 76-H ) :   0.9728
B( 24-C , 77-H ) :   0.9762 B( 24-C , 78-H ) :   0.9753 B( 25-C , 79-H ) :   0.9761
B( 25-C , 80-H ) :   0.9748 B( 25-C , 81-H ) :   0.9726 B( 26-C , 29-C ) :   1.4350
B( 26-C , 82-H ) :   0.8791 B( 27-C , 28-C ) :   1.4388 B( 27-C , 83-H ) :   0.8876
B( 28-C , 34-C ) :   1.0068 B( 28-C , 37-C ) :   1.1239 B( 29-C , 30-C ) :   1.0047
B( 29-C , 33-C ) :   1.1310 B( 30-C , 31-C ) :   1.0424 B( 30-C , 46-O ) :   2.0026
B( 31-C , 32-C ) :   1.3414 B( 31-C , 38-C ) :   1.3779 B( 31-C , 46-O ) :  -0.1477
B( 32-C , 33-C ) :   1.0391 B( 32-C , 41-C ) :   1.3885 B( 33-C , 49-C ) :   1.4623
B( 34-C , 35-C ) :   1.0366 B( 34-C , 47-O ) :   2.0107 B( 35-C , 36-C ) :   1.3378
B( 35-C , 42-C ) :   1.3783 B( 35-C , 47-O ) :  -0.1448 B( 36-C , 37-C ) :   1.0397
B( 36-C , 45-C ) :   1.3878 B( 37-C , 48-C ) :   1.4601 B( 38-C , 39-C ) :   1.3844
B( 38-C , 84-H ) :   0.9744 B( 39-C , 40-C ) :   1.3795 B( 39-C , 85-H ) :   0.9697
B( 40-C , 41-C ) :   1.4272 B( 40-C , 86-H ) :   0.9655 B( 41-C , 87-H ) :   0.9217
B( 42-C , 43-C ) :   1.3848 B( 42-C , 88-H ) :   0.9747 B( 43-C , 44-C ) :   1.3798
B( 43-C , 89-H ) :   0.9696 B( 44-C , 45-C ) :   1.4275 B( 44-C , 90-H ) :   0.9645
B( 45-C , 91-H ) :   0.9244 B( 48-C , 52-C ) :   1.0337 B( 48-C , 53-C ) :   1.0180
B( 49-C , 50-C ) :   1.0336 B( 49-C , 51-C ) :   1.0162 B( 50-C , 54-N ) :   2.9759
B( 51-C , 55-N ) :   2.9893 B( 52-C , 57-N ) :   2.9802 B( 53-C , 56-N ) :   2.9900

-----------------------------------------------------------------------------
         ABSORPTION SPECTRUM VIA TRANSITION ELECTRIC DIPOLE MOMENTS
-----------------------------------------------------------------------------
State   Energy    Wavelength  fosc         T2        TX        TY        TZ
        (cm-1)      (nm)                 (au**2)    (au)      (au)      (au)
-----------------------------------------------------------------------------
   1   16949.6    590.0   3.072321518  59.67379   7.35386   2.36383  -0.08288
   2   19423.7    514.8   0.006494509   0.11008  -0.08047  -0.00401  -0.32184
   3   21366.2    468.0   0.271079747   4.17682  -2.04340   0.00564   0.03596
   4   21844.8    457.8   0.004984493   0.07512   0.04564  -0.01001   0.27007
   5   24684.4    405.1   0.045998690   0.61348   0.15952  -0.06043   0.76445
   6   24983.5    400.3   0.175496574   2.31255  -1.44706  -0.45561   0.10477
   7   25140.7    397.8   0.028980422   0.37949  -0.52235  -0.32613  -0.01685
   8   25291.5    395.4   0.018485456   0.24062   0.05370   0.06864   0.48273
   9   26413.2    378.6   0.005972367   0.07444  -0.04105   0.04825  -0.26538
  10   26419.6    378.5   0.069421987   0.86506   0.24124  -0.89825   0.00438
  11   27344.2    365.7   0.000547906   0.00660   0.06264  -0.04877  -0.01717
  12   27362.6    365.5   0.000373607   0.00450   0.06595  -0.01209  -0.00018
  13   27675.2    361.3   0.021476639   0.25548   0.31968  -0.38922  -0.04226
  14   28180.3    354.9   0.008214267   0.09596  -0.06306   0.04599  -0.29978
  15   28280.3    353.6   0.056004490   0.65195  -0.76422   0.25531   0.05227
  16   28766.6    347.6   0.001663504   0.01904   0.00192   0.04322  -0.13102
  17   28946.8    345.5   0.054551423   0.62041   0.72566   0.30627  -0.00514
  18   29617.4    337.6   0.000462129   0.00514   0.06849   0.02068  -0.00430
  19   29691.9    336.8   0.000710823   0.00788  -0.00098   0.01153  -0.08802
  20   30126.5    331.9   0.142490510   1.55709   1.22003  -0.26071  -0.02559
  21   30239.9    330.7   0.000155070   0.00169   0.01387  -0.03427   0.01793
  22   30776.0    324.9   0.063972172   0.68431   0.82322  -0.07841  -0.02192
  23   31084.0    321.7   0.001298589   0.01375  -0.02612   0.02684  -0.11113
  24   31265.3    319.8   0.000649256   0.00684  -0.07737   0.02763   0.00934
  25   31310.6    319.4   0.000708515   0.00745  -0.01852   0.08430  -0.00048
  26   31817.7    314.3   0.015990518   0.16545  -0.37918  -0.14595   0.01931
  27   32265.7    309.9   0.000195907   0.00200  -0.01642  -0.02110  -0.03583
  28   32813.9    304.7   0.236374520   2.37148  -0.65450   1.39389   0.01279
  29   33015.7    302.9   0.010817607   0.10787   0.02741   0.04015   0.32481
  30   33309.1    300.2   0.292890074   2.89479   0.99454  -1.37776  -0.08637
  31   33386.1    299.5   0.008745788   0.08624  -0.16965   0.17307  -0.16585
  32   33902.4    295.0   0.010482707   0.10179  -0.06939   0.31134   0.00692
  33   33915.3    294.9   0.029393631   0.28532   0.35369  -0.39890   0.03326
  34   33942.9    294.6   0.215807402   2.09311   0.94172  -1.09457  -0.09049
  35   34168.4    292.7   0.005327538   0.05133  -0.02770   0.18920   0.12152
  36   34258.0    291.9   0.269223843   2.58718  -0.36632   1.56528   0.05368
  37   34291.4    291.6   0.022255097   0.21366  -0.11606   0.06898  -0.44208
  38   34582.4    289.2   0.047670137   0.45380   0.54995   0.38803  -0.02796
  39   34842.4    287.0   0.002071917   0.01958  -0.00086  -0.01410   0.13920
  40   35323.2    283.1   0.037920112   0.35341   0.57109  -0.16014  -0.04026
  41   35484.5    281.8   0.001445589   0.01341  -0.08691   0.02914  -0.07077
  42   35694.2    280.2   0.000051619   0.00048   0.00605  -0.00900  -0.01893
  43   35785.9    279.4   0.001121848   0.01032   0.09885  -0.02097  -0.01047
  44   35791.8    279.4   0.000144254   0.00133   0.03404  -0.01230   0.00411
  45   36365.9    275.0   0.080605222   0.72970  -0.84659  -0.11304   0.01433
  46   36480.2    274.1   0.003809563   0.03438  -0.04200  -0.02202   0.17925
  47   36591.0    273.3   0.043674345   0.39294  -0.62391   0.06013  -0.00800
  48   36653.8    272.8   0.010484859   0.09417  -0.29929   0.01272   0.06659
  49   36995.3    270.3   0.079966060   0.71160   0.57609   0.61617  -0.00691
  50   37588.4    266.0   0.000381597   0.00334   0.02585   0.00883   0.05095

FINAL SINGLE POINT ENERGY     -3090.838014873875

DIPOLE MOMENT
-------------
                                X             Y             Z
Electronic contribution:     -2.36476       2.15933       9.54998
Nuclear contribution   :      2.25677      -2.16733     -11.09936
                        -----------------------------------------
Total Dipole Moment    :     -0.10799      -0.00800      -1.54938
                        -----------------------------------------
Magnitude (a.u.)       :      1.55316
Magnitude (Debye)      :      3.94783

Rotational constants in cm-1:     0.003992     0.000404     0.000378
Rotational constants in MHz :   119.676587    12.121101    11.343179

                             ****ORCA TERMINATED NORMALLY****
TOTAL RUN TIME: 0 days 3 hours 24 minutes 4 seconds 935 msec
