                         Program Version 4.2.0 -  RELEASE  -
|  1> # ORCA input file
|  2> # IDTCF.out: Geometry 15
|  3> ! B3LYP def2-TZVP def2/J RIJCOSX Grid4 TightSCF
|  4>
|  5> %maxcore 6000
|  6> %tddft
|  7>   maxdim 5
|  8>   nroots 50
|  9>   end
| 10> %pal
| 11>   nprocs 6
| 12>   end
| 13>
| 14>
| 15> * xyz 0 1
| 16>    C        2.64853         1.22107        -0.53170
| 17>    C        2.82642        -0.19418        -0.54917
| 18>    C        1.71829        -1.02750        -0.63989
| 19>    C        0.45052        -0.43424        -0.75726
| 20>    C        0.28039         0.98255        -0.78465
| 21>    C        1.38117         1.81519        -0.65105
| 22>    C       -0.87432        -1.01231        -0.79590
| 23>    C       -1.84454        -0.01235        -0.84581
| 24>    C       -1.19968         1.35937        -0.93046
| 25>    C        3.95487         1.80500        -0.34863
| 26>    C        4.93554         0.81362        -0.26833
| 27>    C        4.30919        -0.56883        -0.39407
| 28>    S       -1.55781        -2.58702        -0.67249
| 29>    C       -3.18517        -1.90149        -0.62367
| 30>    C       -3.15078        -0.50842        -0.75089
| 31>    S        4.59883         3.39297        -0.21657
| 32>    C        6.23288         2.74377        -0.07352
| 33>    C        6.22543         1.34280        -0.13306
| 34>    C       -1.69329         2.29512         0.19825
| 35>    C       -1.49177         1.95409        -2.34298
| 36>    C       -0.98208         3.36868        -2.61157
| 37>    C       -1.66476         1.67583         1.59492
| 38>    C        4.88087        -1.26122        -1.66589
| 39>    C        4.50513        -1.41249         0.89614
| 40>    C        4.38461        -2.67419        -1.97098
| 41>    C        5.94648        -1.79864         1.22626
| 42>    C        7.33913         3.62994         0.08775
| 43>    C       -4.30602        -2.75160        -0.36998
| 44>    C        8.64469         3.21144         0.13682
| 45>    C        9.80556         4.01154         0.32280
| 46>    C       11.18144         3.37024         0.28913
| 47>    O       12.08289         4.48612         0.50765
| 48>    C       11.40203         5.62593         0.67182
| 49>    C        9.97838         5.36204         0.56520
| 50>    C       11.50661         2.76748        -1.07714
| 51>    C       11.38074         2.38284         1.43917
| 52>    C        8.92705         6.30621         0.69470
| 53>    C       12.08212         6.80497         0.89829
| 54>    C       11.40928         8.05051         1.07430
| 55>    C       13.50931         6.79218         0.95541
| 56>    N       10.88916         9.07922         1.22122
| 57>    N       14.67021         6.78556         1.00232
| 58>    N        7.99739         6.99784         0.78210
| 59>    C       -5.50444        -2.29311         0.11226
| 60>    C       -6.63956        -3.08113         0.46251
| 61>    C       -7.76638        -2.49693         1.30019
| 62>    O       -8.69278        -3.60746         1.43967
| 63>    C       -8.22832        -4.70016         0.82533
| 64>    C       -6.94985        -4.40207         0.20402
| 65>    C       -6.15511        -5.29539        -0.56166
| 66>    C       -8.95753        -5.87082         0.85163
| 67>    C       -8.49808        -7.06708         0.22447
| 68>    C      -10.20992        -5.90420         1.53698
| 69>    C       -8.51381        -1.36319         0.60130
| 70>    C       -7.29551        -2.10599         2.70371
| 71>    N      -11.22870        -5.93555         2.09420
| 72>    N       -8.14754        -8.05486        -0.27689
| 73>    N       -5.44473        -5.95908        -1.19791
| 74>    H        1.81384        -2.11376        -0.59696
| 75>    H        1.27475         2.90091        -0.61504
| 76>    H       -4.05518         0.09970        -0.76716
| 77>    H        7.13859         0.75385        -0.07237
| 78>    H       -2.72006         2.61708        -0.04970
| 79>    H       -1.08296         3.21183         0.18718
| 80>    H       -2.58612         1.93180        -2.48375
| 81>    H       -1.07449         1.25979        -3.08994
| 82>    H       -1.39904         4.09933        -1.90274
| 83>    H       -1.28251         3.69098        -3.62070
| 84>    H        0.11588         3.43098        -2.56085
| 85>    H       -2.35942         0.82630         1.67717
| 86>    H       -1.95253         2.41718         2.35571
| 87>    H       -0.66021         1.30068         1.84862
| 88>    H        5.97804        -1.28110        -1.56392
| 89>    H        4.67241        -0.60188        -2.52410
| 90>    H        3.89599        -2.32566         0.80388
| 91>    H        4.07100        -0.84424         1.73489
| 92>    H        4.54561        -3.36398        -1.12813
| 93>    H        4.92990        -3.08541        -2.83419
| 94>    H        3.31502        -2.69172        -2.22589
| 95>    H        6.41701        -2.37985         0.41822
| 96>    H        5.97959        -2.41851         2.13547
| 97>    H        6.57155        -0.91386         1.41635
| 98>    H        7.11094         4.69433         0.18027
| 99>    H       -4.15956        -3.82414        -0.51896
|100>    H        8.83994         2.14379         0.01073
|101>    H       11.39643         3.52710        -1.86406
|102>    H       10.82621         1.93329        -1.29768
|103>    H       12.53932         2.38984        -1.08652
|104>    H       11.13798         2.86186         2.39906
|105>    H       12.42675         2.04551         1.46481
|106>    H       10.73376         1.50343         1.30970
|107>    H       -5.58952        -1.22594         0.33260
|108>    H       -8.87878        -1.68946        -0.38277
|109>    H       -7.85471        -0.49356         0.46704
|110>    H       -9.37518        -1.05743         1.21240
|111>    H       -6.80729        -2.95825         3.19761
|112>    H       -8.15678        -1.78731         3.30851
|113>    H       -6.57684        -1.27463         2.65001
|114> *
|115>
|116>                          ****END OF INPUT****

CARTESIAN COORDINATES (ANGSTROEM)
---------------------------------
  C      2.648530    1.221070   -0.531700
  C      2.826420   -0.194180   -0.549170
  C      1.718290   -1.027500   -0.639890
  C      0.450520   -0.434240   -0.757260
  C      0.280390    0.982550   -0.784650
  C      1.381170    1.815190   -0.651050
  C     -0.874320   -1.012310   -0.795900
  C     -1.844540   -0.012350   -0.845810
  C     -1.199680    1.359370   -0.930460
  C      3.954870    1.805000   -0.348630
  C      4.935540    0.813620   -0.268330
  C      4.309190   -0.568830   -0.394070
  S     -1.557810   -2.587020   -0.672490
  C     -3.185170   -1.901490   -0.623670
  C     -3.150780   -0.508420   -0.750890
  S      4.598830    3.392970   -0.216570
  C      6.232880    2.743770   -0.073520
  C      6.225430    1.342800   -0.133060
  C     -1.693290    2.295120    0.198250
  C     -1.491770    1.954090   -2.342980
  C     -0.982080    3.368680   -2.611570
  C     -1.664760    1.675830    1.594920
  C      4.880870   -1.261220   -1.665890
  C      4.505130   -1.412490    0.896140
  C      4.384610   -2.674190   -1.970980
  C      5.946480   -1.798640    1.226260
  C      7.339130    3.629940    0.087750
  C     -4.306020   -2.751600   -0.369980
  C      8.644690    3.211440    0.136820
  C      9.805560    4.011540    0.322800
  C     11.181440    3.370240    0.289130
  O     12.082890    4.486120    0.507650
  C     11.402030    5.625930    0.671820
  C      9.978380    5.362040    0.565200
  C     11.506610    2.767480   -1.077140
  C     11.380740    2.382840    1.439170
  C      8.927050    6.306210    0.694700
  C     12.082120    6.804970    0.898290
  C     11.409280    8.050510    1.074300
  C     13.509310    6.792180    0.955410
  N     10.889160    9.079220    1.221220
  N     14.670210    6.785560    1.002320
  N      7.997390    6.997840    0.782100
  C     -5.504440   -2.293110    0.112260
  C     -6.639560   -3.081130    0.462510
  C     -7.766380   -2.496930    1.300190
  O     -8.692780   -3.607460    1.439670
  C     -8.228320   -4.700160    0.825330
  C     -6.949850   -4.402070    0.204020
  C     -6.155110   -5.295390   -0.561660
  C     -8.957530   -5.870820    0.851630
  C     -8.498080   -7.067080    0.224470
  C    -10.209920   -5.904200    1.536980
  C     -8.513810   -1.363190    0.601300
  C     -7.295510   -2.105990    2.703710
  N    -11.228700   -5.935550    2.094200
  N     -8.147540   -8.054860   -0.276890
  N     -5.444730   -5.959080   -1.197910
  H      1.813840   -2.113760   -0.596960
  H      1.274750    2.900910   -0.615040
  H     -4.055180    0.099700   -0.767160
  H      7.138590    0.753850   -0.072370
  H     -2.720060    2.617080   -0.049700
  H     -1.082960    3.211830    0.187180
  H     -2.586120    1.931800   -2.483750
  H     -1.074490    1.259790   -3.089940
  H     -1.399040    4.099330   -1.902740
  H     -1.282510    3.690980   -3.620700
  H      0.115880    3.430980   -2.560850
  H     -2.359420    0.826300    1.677170
  H     -1.952530    2.417180    2.355710
  H     -0.660210    1.300680    1.848620
  H      5.978040   -1.281100   -1.563920
  H      4.672410   -0.601880   -2.524100
  H      3.895990   -2.325660    0.803880
  H      4.071000   -0.844240    1.734890
  H      4.545610   -3.363980   -1.128130
  H      4.929900   -3.085410   -2.834190
  H      3.315020   -2.691720   -2.225890
  H      6.417010   -2.379850    0.418220
  H      5.979590   -2.418510    2.135470
  H      6.571550   -0.913860    1.416350
  H      7.110940    4.694330    0.180270
  H     -4.159560   -3.824140   -0.518960
  H      8.839940    2.143790    0.010730
  H     11.396430    3.527100   -1.864060
  H     10.826210    1.933290   -1.297680
  H     12.539320    2.389840   -1.086520
  H     11.137980    2.861860    2.399060
  H     12.426750    2.045510    1.464810
  H     10.733760    1.503430    1.309700
  H     -5.589520   -1.225940    0.332600
  H     -8.878780   -1.689460   -0.382770
  H     -7.854710   -0.493560    0.467040
  H     -9.375180   -1.057430    1.212400
  H     -6.807290   -2.958250    3.197610
  H     -8.156780   -1.787310    3.308510
  H     -6.576840   -1.274630    2.650010

 Total Charge           Charge          ....    0
 Multiplicity           Mult            ....    1
 Number of Electrons    NEL             ....  418
 Basis Dimension        Dim             .... 2050

ORBITAL ENERGIES
----------------

  NO   OCC          E(Eh)            E(eV)
   0   2.0000     -88.927180     -2419.8316
   1   2.0000     -88.927171     -2419.8314
   2   2.0000     -19.209434      -522.7153
   3   2.0000     -19.207697      -522.6680
   4   2.0000     -14.337665      -390.1477
   5   2.0000     -14.336376      -390.1126
   6   2.0000     -14.315099      -389.5336
   7   2.0000     -14.314755      -389.5243
   8   2.0000     -14.313491      -389.4899
   9   2.0000     -14.313377      -389.4868
  10   2.0000     -10.305868      -280.4369
  11   2.0000     -10.304255      -280.3930
  12   2.0000     -10.292443      -280.0716
  13   2.0000     -10.290063      -280.0069
  14   2.0000     -10.255813      -279.0749
  15   2.0000     -10.253580      -279.0141
  16   2.0000     -10.253489      -279.0116
  17   2.0000     -10.252528      -278.9855
  18   2.0000     -10.251886      -278.9680
  19   2.0000     -10.251313      -278.9524
  20   2.0000     -10.246864      -278.8313
  21   2.0000     -10.246737      -278.8279
  22   2.0000     -10.246001      -278.8079
  23   2.0000     -10.244815      -278.7756
  24   2.0000     -10.241560      -278.6870
  25   2.0000     -10.240363      -278.6544
  26   2.0000     -10.235542      -278.5233
  27   2.0000     -10.235139      -278.5123
  28   2.0000     -10.234168      -278.4859
  29   2.0000     -10.233349      -278.4636
  30   2.0000     -10.231725      -278.4194
  31   2.0000     -10.231177      -278.4045
  32   2.0000     -10.227204      -278.2964
  33   2.0000     -10.227176      -278.2956
  34   2.0000     -10.226228      -278.2698
  35   2.0000     -10.224968      -278.2355
  36   2.0000     -10.224528      -278.2235
  37   2.0000     -10.223606      -278.1985
  38   2.0000     -10.221598      -278.1438
  39   2.0000     -10.219903      -278.0977
  40   2.0000     -10.219675      -278.0915
  41   2.0000     -10.219361      -278.0830
  42   2.0000     -10.215864      -277.9878
  43   2.0000     -10.215433      -277.9761
  44   2.0000     -10.214438      -277.9490
  45   2.0000     -10.214151      -277.9412
  46   2.0000     -10.208180      -277.7787
  47   2.0000     -10.207605      -277.7630
  48   2.0000     -10.206863      -277.7428
  49   2.0000     -10.206806      -277.7413
  50   2.0000     -10.206769      -277.7403
  51   2.0000     -10.206302      -277.7276
  52   2.0000     -10.206293      -277.7273
  53   2.0000     -10.206278      -277.7269
  54   2.0000     -10.193178      -277.3705
  55   2.0000     -10.191201      -277.3167
  56   2.0000     -10.189576      -277.2725
  57   2.0000     -10.188245      -277.2362
  58   2.0000      -8.002842      -217.7684
  59   2.0000      -8.002747      -217.7658
  60   2.0000      -5.965196      -162.3212
  61   2.0000      -5.965152      -162.3200
  62   2.0000      -5.961586      -162.2230
  63   2.0000      -5.961476      -162.2200
  64   2.0000      -5.959719      -162.1722
  65   2.0000      -5.959599      -162.1689
  66   2.0000      -1.136967       -30.9384
  67   2.0000      -1.135407       -30.8960
  68   2.0000      -0.949392       -25.8343
  69   2.0000      -0.940849       -25.6018
  70   2.0000      -0.931371       -25.3439
  71   2.0000      -0.930152       -25.3107
  72   2.0000      -0.915279       -24.9060
  73   2.0000      -0.913748       -24.8644
  74   2.0000      -0.904873       -24.6228
  75   2.0000      -0.900832       -24.5129
  76   2.0000      -0.899325       -24.4719
  77   2.0000      -0.891522       -24.2595
  78   2.0000      -0.886153       -24.1134
  79   2.0000      -0.878333       -23.9006
  80   2.0000      -0.861900       -23.4535
  81   2.0000      -0.860087       -23.4042
  82   2.0000      -0.849944       -23.1282
  83   2.0000      -0.838259       -22.8102
  84   2.0000      -0.830918       -22.6104
  85   2.0000      -0.812109       -22.0986
  86   2.0000      -0.805005       -21.9053
  87   2.0000      -0.803034       -21.8517
  88   2.0000      -0.787184       -21.4204
  89   2.0000      -0.783884       -21.3306
  90   2.0000      -0.782770       -21.3003
  91   2.0000      -0.780845       -21.2479
  92   2.0000      -0.778099       -21.1732
  93   2.0000      -0.772600       -21.0235
  94   2.0000      -0.740950       -20.1623
  95   2.0000      -0.736935       -20.0530
  96   2.0000      -0.736365       -20.0375
  97   2.0000      -0.729465       -19.8498
  98   2.0000      -0.713356       -19.4114
  99   2.0000      -0.706630       -19.2284
 100   2.0000      -0.695400       -18.9228
 101   2.0000      -0.684568       -18.6280
 102   2.0000      -0.679727       -18.4963
 103   2.0000      -0.671082       -18.2611
 104   2.0000      -0.658757       -17.9257
 105   2.0000      -0.655862       -17.8469
 106   2.0000      -0.647935       -17.6312
 107   2.0000      -0.644623       -17.5411
 108   2.0000      -0.631942       -17.1960
 109   2.0000      -0.624186       -16.9850
 110   2.0000      -0.620334       -16.8801
 111   2.0000      -0.607169       -16.5219
 112   2.0000      -0.593628       -16.1534
 113   2.0000      -0.590552       -16.0697
 114   2.0000      -0.585856       -15.9420
 115   2.0000      -0.580337       -15.7918
 116   2.0000      -0.577964       -15.7272
 117   2.0000      -0.573612       -15.6088
 118   2.0000      -0.572484       -15.5781
 119   2.0000      -0.557297       -15.1648
 120   2.0000      -0.551779       -15.0147
 121   2.0000      -0.544406       -14.8140
 122   2.0000      -0.537858       -14.6359
 123   2.0000      -0.532578       -14.4922
 124   2.0000      -0.515183       -14.0188
 125   2.0000      -0.513905       -13.9841
 126   2.0000      -0.513132       -13.9630
 127   2.0000      -0.506001       -13.7690
 128   2.0000      -0.505267       -13.7490
 129   2.0000      -0.495952       -13.4955
 130   2.0000      -0.495488       -13.4829
 131   2.0000      -0.489667       -13.3245
 132   2.0000      -0.489104       -13.3092
 133   2.0000      -0.488196       -13.2845
 134   2.0000      -0.485234       -13.2039
 135   2.0000      -0.481349       -13.0982
 136   2.0000      -0.479319       -13.0429
 137   2.0000      -0.473719       -12.8906
 138   2.0000      -0.469386       -12.7726
 139   2.0000      -0.459303       -12.4983
 140   2.0000      -0.455911       -12.4060
 141   2.0000      -0.448371       -12.2008
 142   2.0000      -0.444401       -12.0928
 143   2.0000      -0.443450       -12.0669
 144   2.0000      -0.441965       -12.0265
 145   2.0000      -0.441014       -12.0006
 146   2.0000      -0.440297       -11.9811
 147   2.0000      -0.438102       -11.9214
 148   2.0000      -0.436269       -11.8715
 149   2.0000      -0.435161       -11.8413
 150   2.0000      -0.434116       -11.8129
 151   2.0000      -0.432688       -11.7740
 152   2.0000      -0.431014       -11.7285
 153   2.0000      -0.426933       -11.6174
 154   2.0000      -0.423269       -11.5177
 155   2.0000      -0.420205       -11.4344
 156   2.0000      -0.417106       -11.3500
 157   2.0000      -0.415164       -11.2972
 158   2.0000      -0.412790       -11.2326
 159   2.0000      -0.410329       -11.1656
 160   2.0000      -0.406001       -11.0478
 161   2.0000      -0.403811       -10.9883
 162   2.0000      -0.403206       -10.9718
 163   2.0000      -0.402777       -10.9601
 164   2.0000      -0.402036       -10.9400
 165   2.0000      -0.399561       -10.8726
 166   2.0000      -0.399173       -10.8621
 167   2.0000      -0.397969       -10.8293
 168   2.0000      -0.395638       -10.7659
 169   2.0000      -0.393304       -10.7023
 170   2.0000      -0.392634       -10.6841
 171   2.0000      -0.390404       -10.6234
 172   2.0000      -0.385722       -10.4960
 173   2.0000      -0.383424       -10.4335
 174   2.0000      -0.382819       -10.4170
 175   2.0000      -0.380747       -10.3606
 176   2.0000      -0.376640       -10.2489
 177   2.0000      -0.374323       -10.1858
 178   2.0000      -0.373272       -10.1573
 179   2.0000      -0.369834       -10.0637
 180   2.0000      -0.368643       -10.0313
 181   2.0000      -0.368327       -10.0227
 182   2.0000      -0.364553        -9.9200
 183   2.0000      -0.363701        -9.8968
 184   2.0000      -0.363215        -9.8836
 185   2.0000      -0.359754        -9.7894
 186   2.0000      -0.359206        -9.7745
 187   2.0000      -0.357382        -9.7249
 188   2.0000      -0.357039        -9.7155
 189   2.0000      -0.355599        -9.6763
 190   2.0000      -0.353666        -9.6237
 191   2.0000      -0.352205        -9.5840
 192   2.0000      -0.344113        -9.3638
 193   2.0000      -0.343106        -9.3364
 194   2.0000      -0.341655        -9.2969
 195   2.0000      -0.340254        -9.2588
 196   2.0000      -0.338833        -9.2201
 197   2.0000      -0.334316        -9.0972
 198   2.0000      -0.329577        -8.9682
 199   2.0000      -0.328522        -8.9395
 200   2.0000      -0.314942        -8.5700
 201   2.0000      -0.298122        -8.1123
 202   2.0000      -0.295243        -8.0340
 203   2.0000      -0.294219        -8.0061
 204   2.0000      -0.288166        -7.8414
 205   2.0000      -0.268822        -7.3150
 206   2.0000      -0.254163        -6.9161
 207   2.0000      -0.239828        -6.5260
 208   2.0000      -0.220898        -6.0109
 209   0.0000      -0.144073        -3.9204
 210   0.0000      -0.129227        -3.5164
 211   0.0000      -0.082599        -2.2476
 212   0.0000      -0.060775        -1.6538
 213   0.0000      -0.056797        -1.5455

MULLIKEN ATOMIC CHARGES
-----------------------
   0 C :    0.258750
   1 C :   -0.029588
   2 C :   -0.339345
   3 C :    0.273523
   4 C :   -0.156538
   5 C :   -0.338958
   6 C :   -0.138056
   7 C :    0.013754
   8 C :    0.461073
   9 C :   -0.129621
  10 C :   -0.005558
  11 C :    0.339609
  12 S :    0.061165
  13 C :    0.174802
  14 C :   -0.363649
  15 S :    0.060434
  16 C :    0.166340
  17 C :   -0.282850
  18 C :   -0.255957
  19 C :   -0.168299
  20 C :   -0.380257
  21 C :   -0.356374
  22 C :   -0.218624
  23 C :   -0.218497
  24 C :   -0.379338
  25 C :   -0.375795
  26 C :   -0.239291
  27 C :   -0.185012
  28 C :   -0.214208
  29 C :    0.128579
  30 C :    0.232375
  31 O :   -0.257374
  32 C :    0.169622
  33 C :    0.019705
  34 C :   -0.331707
  35 C :   -0.334486
  36 C :   -0.202340
  37 C :    0.117186
  38 C :   -0.216540
  39 C :   -0.253802
  40 N :    0.020778
  41 N :    0.014513
  42 N :    0.033515
  43 C :   -0.238275
  44 C :    0.128201
  45 C :    0.237513
  46 O :   -0.255815
  47 C :    0.169963
  48 C :    0.024962
  49 C :   -0.218417
  50 C :    0.118029
  51 C :   -0.216993
  52 C :   -0.249958
  53 C :   -0.335588
  54 C :   -0.333598
  55 N :    0.016391
  56 N :    0.022434
  57 N :    0.041869
  58 H :    0.142850
  59 H :    0.138286
  60 H :    0.123045
  61 H :    0.137020
  62 H :    0.097643
  63 H :    0.108449
  64 H :    0.095716
  65 H :    0.107935
  66 H :    0.120284
  67 H :    0.124470
  68 H :    0.117174
  69 H :    0.118546
  70 H :    0.119522
  71 H :    0.122219
  72 H :    0.103267
  73 H :    0.110480
  74 H :    0.108679
  75 H :    0.110275
  76 H :    0.116322
  77 H :    0.124432
  78 H :    0.120602
  79 H :    0.117166
  80 H :    0.126215
  81 H :    0.109437
  82 H :    0.176189
  83 H :    0.167419
  84 H :    0.111246
  85 H :    0.133605
  86 H :    0.108814
  87 H :    0.138145
  88 H :    0.133633
  89 H :    0.139964
  90 H :    0.107880
  91 H :    0.111492
  92 H :    0.134656
  93 H :    0.107998
  94 H :    0.140630
  95 H :    0.133055
  96 H :    0.138142
  97 H :    0.112725
Sum of atomic charges:   -0.0000000

LOEWDIN ATOMIC CHARGES
----------------------
   0 C :   -0.083995
   1 C :   -0.022810
   2 C :   -0.070463
   3 C :   -0.082357
   4 C :   -0.026557
   5 C :   -0.070304
   6 C :   -0.286152
   7 C :   -0.092964
   8 C :   -0.171342
   9 C :   -0.285649
  10 C :   -0.086669
  11 C :   -0.167952
  12 S :    0.780440
  13 C :   -0.332286
  14 C :   -0.106702
  15 S :    0.785639
  16 C :   -0.334717
  17 C :   -0.107940
  18 C :   -0.226226
  19 C :   -0.219127
  20 C :   -0.302510
  21 C :   -0.296367
  22 C :   -0.223016
  23 C :   -0.223078
  24 C :   -0.301714
  25 C :   -0.300118
  26 C :   -0.100052
  27 C :   -0.099698
  28 C :   -0.118557
  29 C :   -0.036241
  30 C :   -0.300621
  31 O :    0.353693
  32 C :   -0.144753
  33 C :   -0.095493
  34 C :   -0.231792
  35 C :   -0.232223
  36 C :   -0.153810
  37 C :   -0.160289
  38 C :   -0.161271
  39 C :   -0.154215
  40 N :    0.079075
  41 N :    0.068193
  42 N :    0.086557
  43 C :   -0.117711
  44 C :   -0.033840
  45 C :   -0.297746
  46 O :    0.353643
  47 C :   -0.145265
  48 C :   -0.094124
  49 C :   -0.154769
  50 C :   -0.159346
  51 C :   -0.161033
  52 C :   -0.153814
  53 C :   -0.233099
  54 C :   -0.231672
  55 N :    0.069557
  56 N :    0.080685
  57 N :    0.090749
  58 H :    0.150938
  59 H :    0.151319
  60 H :    0.149341
  61 H :    0.145530
  62 H :    0.141229
  63 H :    0.140453
  64 H :    0.141355
  65 H :    0.146582
  66 H :    0.120354
  67 H :    0.125377
  68 H :    0.120013
  69 H :    0.121759
  70 H :    0.121872
  71 H :    0.125197
  72 H :    0.139813
  73 H :    0.146819
  74 H :    0.139748
  75 H :    0.146792
  76 H :    0.120189
  77 H :    0.125484
  78 H :    0.120255
  79 H :    0.120246
  80 H :    0.125333
  81 H :    0.119111
  82 H :    0.167045
  83 H :    0.166962
  84 H :    0.152514
  85 H :    0.135541
  86 H :    0.128792
  87 H :    0.135188
  88 H :    0.135571
  89 H :    0.135681
  90 H :    0.128227
  91 H :    0.153431
  92 H :    0.135117
  93 H :    0.128286
  94 H :    0.136446
  95 H :    0.134860
  96 H :    0.135315
  97 H :    0.130134

  Mayer bond orders larger than 0.100000
B(  0-C ,  1-C ) :   1.2335 B(  0-C ,  5-C ) :   1.3265 B(  0-C ,  9-C ) :   1.0208
B(  1-C ,  2-C ) :   1.4134 B(  1-C , 11-C ) :   1.0952 B(  1-C , 22-C ) :   0.1018
B(  2-C ,  3-C ) :   1.3439 B(  2-C , 58-H ) :   0.9544 B(  3-C ,  4-C ) :   1.2139
B(  3-C ,  6-C ) :   1.0163 B(  4-C ,  5-C ) :   1.4108 B(  4-C ,  8-C ) :   1.1212
B(  5-C , 59-H ) :   0.9579 B(  6-C ,  7-C ) :   1.3485 B(  6-C , 12-S ) :   1.3845
B(  7-C ,  8-C ) :   0.9662 B(  7-C , 14-C ) :   1.3012 B(  8-C , 18-C ) :   0.7670
B(  8-C , 19-C ) :   0.8271 B(  9-C , 10-C ) :   1.3438 B(  9-C , 15-S ) :   1.3939
B( 10-C , 11-C ) :   1.0689 B( 10-C , 17-C ) :   1.3364 B( 11-C , 22-C ) :   0.8103
B( 11-C , 23-C ) :   0.8193 B( 12-S , 13-C ) :   1.1978 B( 12-S , 14-C ) :   0.1407
B( 13-C , 14-C ) :   1.4224 B( 13-C , 27-C ) :   1.1737 B( 14-C , 60-H ) :   0.9576
B( 15-S , 16-C ) :   1.2106 B( 15-S , 17-C ) :   0.1367 B( 16-C , 17-C ) :   1.4272
B( 16-C , 26-C ) :   1.2021 B( 17-C , 61-H ) :   0.9105 B( 18-C , 21-C ) :   0.9812
B( 18-C , 62-H ) :   0.9594 B( 18-C , 63-H ) :   0.9705 B( 19-C , 20-C ) :   0.9568
B( 19-C , 64-H ) :   0.9583 B( 19-C , 65-H ) :   0.9664 B( 20-C , 66-H ) :   0.9730
B( 20-C , 67-H ) :   0.9749 B( 20-C , 68-H ) :   0.9746 B( 21-C , 69-H ) :   0.9741
B( 21-C , 70-H ) :   0.9766 B( 21-C , 71-H ) :   0.9726 B( 22-C , 24-C ) :   0.9538
B( 22-C , 72-H ) :   0.9687 B( 22-C , 73-H ) :   0.9653 B( 23-C , 25-C ) :   0.9554
B( 23-C , 74-H ) :   0.9673 B( 23-C , 75-H ) :   0.9664 B( 24-C , 76-H ) :   0.9734
B( 24-C , 77-H ) :   0.9756 B( 24-C , 78-H ) :   0.9756 B( 25-C , 79-H ) :   0.9724
B( 25-C , 80-H ) :   0.9773 B( 25-C , 81-H ) :   0.9751 B( 26-C , 28-C ) :   1.7050
B( 26-C , 82-H ) :   0.8845 B( 27-C , 43-C ) :   1.6770 B( 27-C , 83-H ) :   0.9000
B( 28-C , 29-C ) :   1.1519 B( 28-C , 84-H ) :   0.9355 B( 29-C , 30-C ) :   0.9752
B( 29-C , 33-C ) :   1.4345 B( 30-C , 31-O ) :   0.7960 B( 30-C , 34-C ) :   0.9470
B( 30-C , 35-C ) :   0.9478 B( 31-O , 32-C ) :   1.2900 B( 32-C , 33-C ) :   1.0936
B( 32-C , 37-C ) :   1.4729 B( 33-C , 36-C ) :   1.0979 B( 34-C , 85-H ) :   0.9684
B( 34-C , 86-H ) :   0.9601 B( 34-C , 87-H ) :   0.9689 B( 35-C , 88-H ) :   0.9680
B( 35-C , 89-H ) :   0.9686 B( 35-C , 90-H ) :   0.9604 B( 36-C , 42-N ) :   2.9651
B( 37-C , 38-C ) :   1.0167 B( 37-C , 39-C ) :   1.0142 B( 38-C , 40-N ) :   3.0322
B( 39-C , 41-N ) :   3.0427 B( 43-C , 44-C ) :   1.1389 B( 43-C , 91-H ) :   0.9411
B( 44-C , 45-C ) :   0.9688 B( 44-C , 48-C ) :   1.4543 B( 45-C , 46-O ) :   0.7908
B( 45-C , 53-C ) :   0.9430 B( 45-C , 54-C ) :   0.9541 B( 46-O , 47-C ) :   1.2939
B( 47-C , 48-C ) :   1.0858 B( 47-C , 50-C ) :   1.4745 B( 48-C , 49-C ) :   1.0871
B( 49-C , 57-N ) :   2.9770 B( 50-C , 51-C ) :   1.0165 B( 50-C , 52-C ) :   1.0164
B( 51-C , 56-N ) :   3.0318 B( 52-C , 55-N ) :   3.0412 B( 53-C , 92-H ) :   0.9687
B( 53-C , 93-H ) :   0.9615 B( 53-C , 94-H ) :   0.9690 B( 54-C , 95-H ) :   0.9677
B( 54-C , 96-H ) :   0.9678 B( 54-C , 97-H ) :   0.9597

-----------------------------------------------------------------------------
         ABSORPTION SPECTRUM VIA TRANSITION ELECTRIC DIPOLE MOMENTS
-----------------------------------------------------------------------------
State   Energy    Wavelength  fosc         T2        TX        TY        TZ
        (cm-1)      (nm)                 (au**2)    (au)      (au)      (au)
-----------------------------------------------------------------------------
   1   16307.6    613.2   3.631813862  73.31767  -7.38936  -4.32455  -0.11530
   2   18392.5    543.7   0.027569906   0.49348   0.59392   0.35397   0.12430
   3   22118.2    452.1   0.062422497   0.92911   0.71243   0.15501  -0.63050
   4   22302.0    448.4   0.189989822   2.80454   1.45787   0.73259   0.37744
   5   23319.3    428.8   0.287206836   4.05467   1.33674   1.50481  -0.05788
   6   25682.2    389.4   0.003682269   0.04720  -0.16173  -0.10845   0.09634
   7   26358.6    379.4   0.037828884   0.47247  -0.18312  -0.15889  -0.64319
   8   28155.7    355.2   0.144462372   1.68913   1.29708   0.08179  -0.00626
   9   28367.6    352.5   0.041573137   0.48247  -0.58966  -0.36491   0.04014
  10   29045.1    344.3   0.021151353   0.23974   0.38821   0.29722  -0.02633
  11   30090.3    332.3   0.005581353   0.06106   0.04862   0.21745  -0.10684
  12   30573.9    327.1   0.036471620   0.39272  -0.07081   0.62264   0.00479
  13   31461.6    317.8   0.000616751   0.00645   0.02418   0.01509  -0.07511
  14   32121.5    311.3   0.005879088   0.06025   0.16152   0.16508  -0.08315
  15   32400.7    308.6   0.131218497   1.33326  -0.82486  -0.80792   0.01158
  16   32829.8    304.6   0.001875050   0.01880  -0.13402  -0.01457   0.02507
  17   33073.3    302.4   0.027436219   0.27310   0.32980   0.40456  -0.02579
  18   33449.8    299.0   0.069787599   0.68685   0.34449   0.75376   0.00486
  19   33637.0    297.3   0.141264400   1.38258  -0.37412  -1.11334   0.05558
  20   34743.9    287.8   0.001227488   0.01163  -0.00567   0.00249   0.10767
  21   35233.7    283.8   0.026671514   0.24921   0.48558   0.05507  -0.10192
  22   36212.1    276.2   0.001779208   0.01618  -0.12337  -0.02511   0.01800
  23   36247.6    275.9   0.005664798   0.05145  -0.19714   0.04232   0.10389
  24   36293.7    275.5   0.008485872   0.07697   0.27323   0.04316   0.02131
  25   36434.8    274.5   0.007091320   0.06407  -0.18822   0.14737  -0.08325
  26   36626.0    273.0   0.000893828   0.00803   0.07010   0.05453  -0.01209
  27   36801.8    271.7   0.007987225   0.07145  -0.17880  -0.19849   0.00911
  28   36933.5    270.8   0.003548798   0.03163   0.14585  -0.09654   0.03226
  29   37135.6    269.3   0.000877828   0.00778   0.04601  -0.01142   0.07440
  30   37285.9    268.2   0.002144973   0.01894   0.11845   0.03223   0.06220
  31   38700.2    258.4   0.050659085   0.43094   0.14262   0.63971   0.03700
  32   38731.9    258.2   0.000149483   0.00127  -0.01633  -0.03100  -0.00654
  33   38885.0    257.2   0.007780877   0.06588  -0.19532  -0.16602   0.01271
  34   38988.7    256.5   0.003963238   0.03346   0.14969   0.10275  -0.02234
  35   39266.5    254.7   0.000674575   0.00566  -0.04178   0.02255   0.05832
  36   39531.3    253.0   0.000126602   0.00105   0.02145  -0.00068  -0.02437
  37   39688.5    252.0   0.000547031   0.00454   0.01820   0.06446   0.00719
  38   39816.9    251.1   0.000867966   0.00718   0.01676   0.08264  -0.00811
  39   40059.6    249.6   0.001053895   0.00866  -0.01776   0.08048  -0.04322
  40   40362.7    247.8   0.067108390   0.54736  -0.19025   0.71383   0.04017
  41   40460.9    247.2   0.029757818   0.24213   0.26906  -0.37669  -0.16683
  42   40506.1    246.9   0.014463289   0.11755  -0.00096  -0.31345  -0.13891
  43   40610.7    246.2   0.019023661   0.15422   0.17248   0.32200   0.14415
  44   40826.4    244.9   0.007518586   0.06063  -0.20757  -0.03842   0.12675
  45   41203.3    242.7   0.014943396   0.11940  -0.25179  -0.17423   0.16013
  46   41257.6    242.4   0.002246072   0.01792  -0.11247  -0.07200  -0.00941
  47   41437.6    241.3   0.054163458   0.43032   0.54154   0.36923  -0.02681
  48   41462.5    241.2   0.028557862   0.22675  -0.38785  -0.26841   0.06538
  49   41545.5    240.7   0.000304203   0.00241   0.03059   0.02613   0.02814
  50   41608.7    240.3   0.001394092   0.01103   0.05308  -0.03042   0.08536

FINAL SINGLE POINT ENERGY     -3127.678917632255

DIPOLE MOMENT
-------------
                                X             Y             Z
Electronic contribution:     -5.16700       2.74124       3.61042
Nuclear contribution   :      5.30128      -3.00063      -4.40021
                        -----------------------------------------
Total Dipole Moment    :      0.13429      -0.25938      -0.78979
                        -----------------------------------------
Magnitude (a.u.)       :      0.84207
Magnitude (Debye)      :      2.14038

Rotational constants in cm-1:     0.004318     0.000325     0.000312
Rotational constants in MHz :   129.463166     9.738263     9.360710

                             ****ORCA TERMINATED NORMALLY****
TOTAL RUN TIME: 0 days 6 hours 43 minutes 0 seconds 838 msec
