                         Program Version 4.2.0 -  RELEASE  -
|  1> # ORCA input file
|  2> # M34.out
|  3> ! B3LYP def2-TZVP def2/J RIJCOSX Grid4 TightSCF
|  4> %maxcore 1000
|  5> %tddft
|  6>   maxdim 5
|  7>   nroots 50
|  8>   end
|  9> * xyz 0 1
| 10>    C       -1.15780        -0.55646        -0.11151
| 11>    C       -1.80821        -0.44266         1.15485
| 12>    C       -1.20500        -1.02894         2.27491
| 13>    C       -0.07249        -1.79735         2.07557
| 14>    C        0.53508        -1.99503         0.80789
| 15>    C       -0.02989        -1.34638        -0.31365
| 16>    O        0.62345        -1.51828        -1.49175
| 17>    C       -0.05473        -1.50843        -2.74043
| 18>    O       -1.66550        -0.85581         3.55920
| 19>    C       -1.37197         0.42374         4.12335
| 20>    S        0.71106        -2.61245         3.40716
| 21>    C        1.88974        -3.21990         2.29994
| 22>    C        1.69137        -2.81936         0.95870
| 23>    S       -1.90390         0.46970        -1.34214
| 24>    C       -3.12877         0.94320        -0.22260
| 25>    C       -2.98595         0.34935         1.04371
| 26>    C       -4.27549         1.73147        -0.19789
| 27>    C       -4.82689         1.56260         1.09935
| 28>    N       -4.03664         0.72127         1.84711
| 29>    S       -5.19956         2.79381        -1.18290
| 30>    C       -6.34461         3.01432         0.14377
| 31>    C       -5.99159         2.28175         1.28438
| 32>    C        3.03787        -3.99947         2.34308
| 33>    C        3.52212        -4.05560         1.01290
| 34>    N        2.70373        -3.33250         0.18818
| 35>    S        4.04264        -4.86849         3.42716
| 36>    C        5.14511        -5.26820         2.10329
| 37>    C        4.70386        -4.77154         0.88163
| 38>    C       -7.49152         3.81634         0.12573
| 39>    C       -8.01374         4.61819        -0.86073
| 40>    C        6.26588        -6.05640         2.40591
| 41>    C        7.38682        -6.33704         1.66947
| 42>    C       -7.43945         4.82414        -2.19317
| 43>    C       -8.33119         5.78618        -2.87506
| 44>    C       -9.38537         6.13426        -2.01448
| 45>    C       -9.21944         5.41380        -0.75036
| 46>    C        8.18632        -7.53108         2.04163
| 47>    C        9.10545        -7.75539         0.90137
| 48>    C        8.95091        -6.71557        -0.03116
| 49>    C        7.98337        -5.74917         0.49668
| 50>    C       -8.21448         6.30867        -4.14733
| 51>    C       -9.18444         7.20634        -4.56379
| 52>    C      -10.23534         7.55936        -3.71722
| 53>    C      -10.35167         7.03272        -2.43906
| 54>    C        9.98921        -8.79586         0.69683
| 55>    C       10.72372        -8.79459        -0.47870
| 56>    C       10.56661        -7.77279        -1.41498
| 57>    C        9.68677        -6.72098        -1.20459
| 58>    F       -9.11239         7.73987        -5.78905
| 59>    F      -11.15752         8.42913        -4.14449
| 60>    O       -6.43753         4.32021        -2.66374
| 61>    C      -10.07432         5.49693         0.31817
| 62>    C       -9.94192         4.80386         1.53970
| 63>    C      -11.23423         6.30071         0.34268
| 64>    C       -4.52768         0.06536         3.03878
| 65>    C       -5.65061        -0.91439         2.70343
| 66>    C        2.96975        -3.20728        -1.22424
| 67>    C        2.37438        -4.37770        -2.00252
| 68>    C       -1.18480        -2.52490        -2.82217
| 69>    C        0.11429         0.65131         4.35870
| 70>    O        8.07835        -8.19825         3.04402
| 71>    C        7.88254        -4.44659         0.07501
| 72>    F       11.27723        -7.80483        -2.54823
| 73>    F       11.58980        -9.78602        -0.72042
| 74>    N      -12.18969         6.93042         0.43202
| 75>    N       -9.91349         4.27945         2.56168
| 76>    C        7.16823        -3.44579         0.76159
| 77>    C        8.53814        -3.92992        -1.06062
| 78>    N        9.00951        -3.45695        -1.99457
| 79>    N        6.62213        -2.58468         1.28927
| 80>    H        0.73362        -1.76619        -3.45334
| 81>    H       -0.41906        -0.50549        -2.98379
| 82>    H       -1.91091         0.42805         5.07355
| 83>    H       -1.77486         1.21632         3.47833
| 84>    H       -6.57968         2.30916         2.18426
| 85>    H        5.20406        -4.97710        -0.04717
| 86>    H       -8.03957         3.78592         1.05967
| 87>    H        6.21761        -6.59071         3.35068
| 88>    H       -7.39982         6.03198        -4.79714
| 89>    H      -11.18255         7.34014        -1.82613
| 90>    H       10.10885        -9.58438         1.42244
| 91>    H        9.60004        -5.95560        -1.95846
| 92>    H       -4.89172         0.83489         3.72583
| 93>    H       -3.70760        -0.47681         3.50587
| 94>    H       -6.49046        -0.40148         2.24096
| 95>    H       -5.99475        -1.39872         3.61249
| 96>    H       -5.29043        -1.67868         2.01845
| 97>    H        4.05544        -3.18154        -1.35183
| 98>    H        2.55360        -2.26598        -1.57576
| 99>    H        2.78678        -5.32144        -1.65207
|100>    H        2.59517        -4.27175        -3.06077
|101>    H        1.29604        -4.40310        -1.87001
|102>    H       -0.81680        -3.52205        -2.59199
|103>    H       -1.59249        -2.52495        -3.82843
|104>    H       -1.98254        -2.28024        -2.12557
|105>    H        0.65743         0.66173         3.41577
|106>    H        0.52027        -0.13628         4.98800
|107>    H        0.25590         1.60845         4.85266
|108> *
|109>
|110>                          ****END OF INPUT****

CARTESIAN COORDINATES (ANGSTROEM)
---------------------------------
  C     -1.157800   -0.556460   -0.111510
  C     -1.808210   -0.442660    1.154850
  C     -1.205000   -1.028940    2.274910
  C     -0.072490   -1.797350    2.075570
  C      0.535080   -1.995030    0.807890
  C     -0.029890   -1.346380   -0.313650
  O      0.623450   -1.518280   -1.491750
  C     -0.054730   -1.508430   -2.740430
  O     -1.665500   -0.855810    3.559200
  C     -1.371970    0.423740    4.123350
  S      0.711060   -2.612450    3.407160
  C      1.889740   -3.219900    2.299940
  C      1.691370   -2.819360    0.958700
  S     -1.903900    0.469700   -1.342140
  C     -3.128770    0.943200   -0.222600
  C     -2.985950    0.349350    1.043710
  C     -4.275490    1.731470   -0.197890
  C     -4.826890    1.562600    1.099350
  N     -4.036640    0.721270    1.847110
  S     -5.199560    2.793810   -1.182900
  C     -6.344610    3.014320    0.143770
  C     -5.991590    2.281750    1.284380
  C      3.037870   -3.999470    2.343080
  C      3.522120   -4.055600    1.012900
  N      2.703730   -3.332500    0.188180
  S      4.042640   -4.868490    3.427160
  C      5.145110   -5.268200    2.103290
  C      4.703860   -4.771540    0.881630
  C     -7.491520    3.816340    0.125730
  C     -8.013740    4.618190   -0.860730
  C      6.265880   -6.056400    2.405910
  C      7.386820   -6.337040    1.669470
  C     -7.439450    4.824140   -2.193170
  C     -8.331190    5.786180   -2.875060
  C     -9.385370    6.134260   -2.014480
  C     -9.219440    5.413800   -0.750360
  C      8.186320   -7.531080    2.041630
  C      9.105450   -7.755390    0.901370
  C      8.950910   -6.715570   -0.031160
  C      7.983370   -5.749170    0.496680
  C     -8.214480    6.308670   -4.147330
  C     -9.184440    7.206340   -4.563790
  C    -10.235340    7.559360   -3.717220
  C    -10.351670    7.032720   -2.439060
  C      9.989210   -8.795860    0.696830
  C     10.723720   -8.794590   -0.478700
  C     10.566610   -7.772790   -1.414980
  C      9.686770   -6.720980   -1.204590
  F     -9.112390    7.739870   -5.789050
  F    -11.157520    8.429130   -4.144490
  O     -6.437530    4.320210   -2.663740
  C    -10.074320    5.496930    0.318170
  C     -9.941920    4.803860    1.539700
  C    -11.234230    6.300710    0.342680
  C     -4.527680    0.065360    3.038780
  C     -5.650610   -0.914390    2.703430
  C      2.969750   -3.207280   -1.224240
  C      2.374380   -4.377700   -2.002520
  C     -1.184800   -2.524900   -2.822170
  C      0.114290    0.651310    4.358700
  O      8.078350   -8.198250    3.044020
  C      7.882540   -4.446590    0.075010
  F     11.277230   -7.804830   -2.548230
  F     11.589800   -9.786020   -0.720420
  N    -12.189690    6.930420    0.432020
  N     -9.913490    4.279450    2.561680
  C      7.168230   -3.445790    0.761590
  C      8.538140   -3.929920   -1.060620
  N      9.009510   -3.456950   -1.994570
  N      6.622130   -2.584680    1.289270
  H      0.733620   -1.766190   -3.453340
  H     -0.419060   -0.505490   -2.983790
  H     -1.910910    0.428050    5.073550
  H     -1.774860    1.216320    3.478330
  H     -6.579680    2.309160    2.184260
  H      5.204060   -4.977100   -0.047170
  H     -8.039570    3.785920    1.059670
  H      6.217610   -6.590710    3.350680
  H     -7.399820    6.031980   -4.797140
  H    -11.182550    7.340140   -1.826130
  H     10.108850   -9.584380    1.422440
  H      9.600040   -5.955600   -1.958460
  H     -4.891720    0.834890    3.725830
  H     -3.707600   -0.476810    3.505870
  H     -6.490460   -0.401480    2.240960
  H     -5.994750   -1.398720    3.612490
  H     -5.290430   -1.678680    2.018450
  H      4.055440   -3.181540   -1.351830
  H      2.553600   -2.265980   -1.575760
  H      2.786780   -5.321440   -1.652070
  H      2.595170   -4.271750   -3.060770
  H      1.296040   -4.403100   -1.870010
  H     -0.816800   -3.522050   -2.591990
  H     -1.592490   -2.524950   -3.828430
  H     -1.982540   -2.280240   -2.125570
  H      0.657430    0.661730    3.415770
  H      0.520270   -0.136280    4.988000
  H      0.255900    1.608450    4.852660

 Total Charge           Charge          ....    0
 Multiplicity           Mult            ....    1
 Number of Electrons    NEL             ....  514
 Basis Dimension        Dim             .... 2362

ORBITAL ENERGIES
----------------

  NO   OCC          E(Eh)            E(eV)
   0   2.0000     -88.907324     -2419.2913
   1   2.0000     -88.905767     -2419.2489
   2   2.0000     -88.902220     -2419.1524
   3   2.0000     -88.901867     -2419.1428
   4   2.0000     -24.724605      -672.7907
   5   2.0000     -24.723853      -672.7702
   6   2.0000     -24.723413      -672.7583
   7   2.0000     -24.722814      -672.7420
   8   2.0000     -19.188989      -522.1589
   9   2.0000     -19.178368      -521.8699
  10   2.0000     -19.137940      -520.7698
  11   2.0000     -19.129869      -520.5502
  12   2.0000     -14.397362      -391.7721
  13   2.0000     -14.396899      -391.7595
  14   2.0000     -14.330883      -389.9632
  15   2.0000     -14.329536      -389.9265
  16   2.0000     -14.329050      -389.9133
  17   2.0000     -14.326288      -389.8381
  18   2.0000     -10.299108      -280.2530
  19   2.0000     -10.299085      -280.2523
  20   2.0000     -10.298483      -280.2360
  21   2.0000     -10.298220      -280.2288
  22   2.0000     -10.280089      -279.7354
  23   2.0000     -10.276551      -279.6392
  24   2.0000     -10.275215      -279.6028
  25   2.0000     -10.263366      -279.2804
  26   2.0000     -10.255986      -279.0796
  27   2.0000     -10.255902      -279.0773
  28   2.0000     -10.255588      -279.0687
  29   2.0000     -10.255249      -279.0595
  30   2.0000     -10.254415      -279.0368
  31   2.0000     -10.250698      -278.9357
  32   2.0000     -10.249927      -278.9147
  33   2.0000     -10.248896      -278.8866
  34   2.0000     -10.240997      -278.6717
  35   2.0000     -10.237751      -278.5834
  36   2.0000     -10.237612      -278.5796
  37   2.0000     -10.237467      -278.5757
  38   2.0000     -10.235810      -278.5305
  39   2.0000     -10.234998      -278.5085
  40   2.0000     -10.234113      -278.4844
  41   2.0000     -10.231936      -278.4251
  42   2.0000     -10.230026      -278.3732
  43   2.0000     -10.229917      -278.3702
  44   2.0000     -10.229484      -278.3584
  45   2.0000     -10.229304      -278.3535
  46   2.0000     -10.229043      -278.3464
  47   2.0000     -10.228949      -278.3439
  48   2.0000     -10.228012      -278.3184
  49   2.0000     -10.227927      -278.3160
  50   2.0000     -10.227774      -278.3119
  51   2.0000     -10.226703      -278.2827
  52   2.0000     -10.226617      -278.2804
  53   2.0000     -10.225837      -278.2592
  54   2.0000     -10.225754      -278.2569
  55   2.0000     -10.225172      -278.2411
  56   2.0000     -10.219698      -278.0921
  57   2.0000     -10.219168      -278.0777
  58   2.0000     -10.219031      -278.0740
  59   2.0000     -10.218328      -278.0548
  60   2.0000     -10.217405      -278.0297
  61   2.0000     -10.216903      -278.0161
  62   2.0000     -10.215465      -277.9769
  63   2.0000     -10.215231      -277.9706
  64   2.0000     -10.211642      -277.8729
  65   2.0000     -10.210046      -277.8295
  66   2.0000     -10.187817      -277.2246
  67   2.0000     -10.187671      -277.2206
  68   2.0000     -10.185513      -277.1619
  69   2.0000     -10.179819      -277.0070
  70   2.0000      -7.983281      -217.2361
  71   2.0000      -7.982312      -217.2098
  72   2.0000      -7.978272      -217.0998
  73   2.0000      -7.976901      -217.0625
  74   2.0000      -5.946035      -161.7998
  75   2.0000      -5.945330      -161.7807
  76   2.0000      -5.942289      -161.6979
  77   2.0000      -5.941610      -161.6794
  78   2.0000      -5.941222      -161.6689
  79   2.0000      -5.939935      -161.6338
  80   2.0000      -5.939419      -161.6198
  81   2.0000      -5.937723      -161.5737
  82   2.0000      -5.937474      -161.5669
  83   2.0000      -5.935708      -161.5188
  84   2.0000      -5.933887      -161.4693
  85   2.0000      -5.932861      -161.4414
  86   2.0000      -1.267066       -34.4786
  87   2.0000      -1.266939       -34.4752
  88   2.0000      -1.253658       -34.1138
  89   2.0000      -1.253608       -34.1124
  90   2.0000      -1.104707       -30.0606
  91   2.0000      -1.092475       -29.7278
  92   2.0000      -1.069454       -29.1013
  93   2.0000      -1.061050       -28.8726
  94   2.0000      -1.033298       -28.1175
  95   2.0000      -1.032687       -28.1008
  96   2.0000      -0.945901       -25.7393
  97   2.0000      -0.945361       -25.7246
  98   2.0000      -0.927451       -25.2372
  99   2.0000      -0.926588       -25.2137
 100   2.0000      -0.926344       -25.2071
 101   2.0000      -0.925388       -25.1811
 102   2.0000      -0.923553       -25.1312
 103   2.0000      -0.909265       -24.7424
 104   2.0000      -0.908026       -24.7087
 105   2.0000      -0.901943       -24.5431
 106   2.0000      -0.879534       -23.9333
 107   2.0000      -0.878993       -23.9186
 108   2.0000      -0.856233       -23.2993
 109   2.0000      -0.836973       -22.7752
 110   2.0000      -0.829712       -22.5776
 111   2.0000      -0.826665       -22.4947
 112   2.0000      -0.822090       -22.3702
 113   2.0000      -0.814212       -22.1558
 114   2.0000      -0.804990       -21.9049
 115   2.0000      -0.801850       -21.8194
 116   2.0000      -0.799861       -21.7653
 117   2.0000      -0.799641       -21.7593
 118   2.0000      -0.786268       -21.3954
 119   2.0000      -0.781771       -21.2731
 120   2.0000      -0.777145       -21.1472
 121   2.0000      -0.776518       -21.1301
 122   2.0000      -0.760289       -20.6885
 123   2.0000      -0.753761       -20.5109
 124   2.0000      -0.744113       -20.2483
 125   2.0000      -0.740445       -20.1485
 126   2.0000      -0.724190       -19.7062
 127   2.0000      -0.720990       -19.6191
 128   2.0000      -0.704184       -19.1618
 129   2.0000      -0.701778       -19.0963
 130   2.0000      -0.696962       -18.9653
 131   2.0000      -0.685967       -18.6661
 132   2.0000      -0.675760       -18.3884
 133   2.0000      -0.666620       -18.1397
 134   2.0000      -0.664277       -18.0759
 135   2.0000      -0.656727       -17.8704
 136   2.0000      -0.648984       -17.6598
 137   2.0000      -0.644079       -17.5263
 138   2.0000      -0.637929       -17.3589
 139   2.0000      -0.632118       -17.2008
 140   2.0000      -0.619110       -16.8468
 141   2.0000      -0.617418       -16.8008
 142   2.0000      -0.614167       -16.7123
 143   2.0000      -0.607446       -16.5294
 144   2.0000      -0.604350       -16.4452
 145   2.0000      -0.597805       -16.2671
 146   2.0000      -0.589301       -16.0357
 147   2.0000      -0.580669       -15.8008
 148   2.0000      -0.578144       -15.7321
 149   2.0000      -0.576169       -15.6784
 150   2.0000      -0.575409       -15.6577
 151   2.0000      -0.572572       -15.5805
 152   2.0000      -0.570207       -15.5161
 153   2.0000      -0.553830       -15.0705
 154   2.0000      -0.547576       -14.9003
 155   2.0000      -0.545673       -14.8485
 156   2.0000      -0.542973       -14.7750
 157   2.0000      -0.539007       -14.6671
 158   2.0000      -0.536879       -14.6092
 159   2.0000      -0.532445       -14.4886
 160   2.0000      -0.527081       -14.3426
 161   2.0000      -0.523887       -14.2557
 162   2.0000      -0.520541       -14.1646
 163   2.0000      -0.519129       -14.1262
 164   2.0000      -0.518901       -14.1200
 165   2.0000      -0.515793       -14.0354
 166   2.0000      -0.513730       -13.9793
 167   2.0000      -0.502358       -13.6699
 168   2.0000      -0.496304       -13.5051
 169   2.0000      -0.495670       -13.4879
 170   2.0000      -0.493484       -13.4284
 171   2.0000      -0.489934       -13.3318
 172   2.0000      -0.484626       -13.1873
 173   2.0000      -0.484211       -13.1760
 174   2.0000      -0.483942       -13.1687
 175   2.0000      -0.483880       -13.1670
 176   2.0000      -0.483841       -13.1660
 177   2.0000      -0.483765       -13.1639
 178   2.0000      -0.478444       -13.0191
 179   2.0000      -0.471489       -12.8299
 180   2.0000      -0.469136       -12.7658
 181   2.0000      -0.468324       -12.7437
 182   2.0000      -0.466259       -12.6876
 183   2.0000      -0.463800       -12.6206
 184   2.0000      -0.462235       -12.5780
 185   2.0000      -0.460718       -12.5368
 186   2.0000      -0.458081       -12.4650
 187   2.0000      -0.457479       -12.4486
 188   2.0000      -0.447989       -12.1904
 189   2.0000      -0.445154       -12.1133
 190   2.0000      -0.437787       -11.9128
 191   2.0000      -0.435494       -11.8504
 192   2.0000      -0.434515       -11.8238
 193   2.0000      -0.431386       -11.7386
 194   2.0000      -0.430540       -11.7156
 195   2.0000      -0.429926       -11.6989
 196   2.0000      -0.428931       -11.6718
 197   2.0000      -0.427412       -11.6305
 198   2.0000      -0.427152       -11.6234
 199   2.0000      -0.424597       -11.5539
 200   2.0000      -0.422401       -11.4941
 201   2.0000      -0.421886       -11.4801
 202   2.0000      -0.419210       -11.4073
 203   2.0000      -0.417753       -11.3676
 204   2.0000      -0.413118       -11.2415
 205   2.0000      -0.410781       -11.1779
 206   2.0000      -0.408975       -11.1288
 207   2.0000      -0.406246       -11.0545
 208   2.0000      -0.405348       -11.0301
 209   2.0000      -0.403381       -10.9765
 210   2.0000      -0.400784       -10.9059
 211   2.0000      -0.398130       -10.8337
 212   2.0000      -0.394157       -10.7255
 213   2.0000      -0.392819       -10.6891
 214   2.0000      -0.390706       -10.6316
 215   2.0000      -0.388353       -10.5676
 216   2.0000      -0.388044       -10.5592
 217   2.0000      -0.387463       -10.5434
 218   2.0000      -0.386322       -10.5124
 219   2.0000      -0.382983       -10.4215
 220   2.0000      -0.382523       -10.4090
 221   2.0000      -0.382335       -10.4039
 222   2.0000      -0.380544       -10.3551
 223   2.0000      -0.379652       -10.3309
 224   2.0000      -0.377277       -10.2662
 225   2.0000      -0.372929       -10.1479
 226   2.0000      -0.368400       -10.0247
 227   2.0000      -0.365861        -9.9556
 228   2.0000      -0.364352        -9.9145
 229   2.0000      -0.363516        -9.8918
 230   2.0000      -0.362579        -9.8663
 231   2.0000      -0.360066        -9.7979
 232   2.0000      -0.357406        -9.7255
 233   2.0000      -0.352576        -9.5941
 234   2.0000      -0.349142        -9.5006
 235   2.0000      -0.348571        -9.4851
 236   2.0000      -0.345572        -9.4035
 237   2.0000      -0.344205        -9.3663
 238   2.0000      -0.340253        -9.2588
 239   2.0000      -0.332596        -9.0504
 240   2.0000      -0.318233        -8.6596
 241   2.0000      -0.313549        -8.5321
 242   2.0000      -0.304186        -8.2773
 243   2.0000      -0.295608        -8.0439
 244   2.0000      -0.295114        -8.0305
 245   2.0000      -0.292845        -7.9687
 246   2.0000      -0.286852        -7.8056
 247   2.0000      -0.279159        -7.5963
 248   2.0000      -0.278029        -7.5655
 249   2.0000      -0.276247        -7.5171
 250   2.0000      -0.266501        -7.2518
 251   2.0000      -0.264277        -7.1913
 252   2.0000      -0.256975        -6.9927
 253   2.0000      -0.241408        -6.5690
 254   2.0000      -0.231565        -6.3012
 255   2.0000      -0.225915        -6.1475
 256   2.0000      -0.203275        -5.5314
 257   0.0000      -0.133586        -3.6351
 258   0.0000      -0.123459        -3.3595
 259   0.0000      -0.108617        -2.9556
 260   0.0000      -0.104114        -2.8331
 261   0.0000      -0.068982        -1.8771

MULLIKEN ATOMIC CHARGES
-----------------------
   0 C :   -0.025367
   1 C :    0.023374
   2 C :    0.095214
   3 C :    0.013358
   4 C :   -0.008808
   5 C :    0.089828
   6 O :   -0.352505
   7 C :   -0.039924
   8 O :   -0.377428
   9 C :   -0.025179
  10 S :    0.012810
  11 C :   -0.024821
  12 C :    0.162009
  13 S :   -0.022193
  14 C :   -0.069883
  15 C :    0.166012
  16 C :   -0.082031
  17 C :    0.249954
  18 N :   -0.076677
  19 S :    0.088306
  20 C :    0.081987
  21 C :   -0.351303
  22 C :   -0.113183
  23 C :    0.356745
  24 N :   -0.029626
  25 S :    0.034833
  26 C :    0.254827
  27 C :   -0.498927
  28 C :   -0.182313
  29 C :   -0.017461
  30 C :   -0.216897
  31 C :   -0.007128
  32 C :    0.203244
  33 C :    0.100455
  34 C :    0.069843
  35 C :    0.013842
  36 C :    0.222933
  37 C :   -0.005536
  38 C :    0.125444
  39 C :   -0.013927
  40 C :   -0.310609
  41 C :    0.285410
  42 C :    0.253516
  43 C :   -0.262314
  44 C :   -0.299110
  45 C :    0.280454
  46 C :    0.256894
  47 C :   -0.258665
  48 F :   -0.180841
  49 F :   -0.176771
  50 O :   -0.335135
  51 C :    0.152646
  52 C :   -0.220325
  53 C :   -0.227108
  54 C :   -0.135925
  55 C :   -0.340708
  56 C :   -0.135141
  57 C :   -0.346063
  58 C :   -0.327364
  59 C :   -0.337172
  60 O :   -0.289168
  61 C :    0.085210
  62 F :   -0.177972
  63 F :   -0.180691
  64 N :    0.042935
  65 N :    0.042769
  66 C :   -0.227312
  67 C :   -0.233155
  68 N :    0.040883
  69 N :    0.046563
  70 H :    0.112683
  71 H :    0.123709
  72 H :    0.110906
  73 H :    0.104331
  74 H :    0.148622
  75 H :    0.161524
  76 H :    0.164415
  77 H :    0.146119
  78 H :    0.147572
  79 H :    0.165339
  80 H :    0.150562
  81 H :    0.160628
  82 H :    0.107970
  83 H :    0.162843
  84 H :    0.128471
  85 H :    0.119582
  86 H :    0.116744
  87 H :    0.124844
  88 H :    0.144238
  89 H :    0.124104
  90 H :    0.116156
  91 H :    0.109521
  92 H :    0.112425
  93 H :    0.120348
  94 H :    0.134210
  95 H :    0.129285
  96 H :    0.123211
  97 H :    0.120003
Sum of atomic charges:   -0.0000000

LOEWDIN ATOMIC CHARGES
----------------------
   0 C :   -0.265099
   1 C :   -0.096211
   2 C :   -0.238128
   3 C :   -0.274507
   4 C :   -0.085163
   5 C :   -0.224849
   6 O :    0.263767
   7 C :   -0.337010
   8 O :    0.227404
   9 C :   -0.326253
  10 S :    0.753172
  11 C :   -0.347180
  12 C :   -0.117019
  13 S :    0.729616
  14 C :   -0.352086
  15 C :   -0.131647
  16 C :   -0.335794
  17 C :   -0.181921
  18 N :    0.292360
  19 S :    0.789786
  20 C :   -0.320858
  21 C :   -0.102631
  22 C :   -0.336982
  23 C :   -0.175218
  24 N :    0.305131
  25 S :    0.764399
  26 C :   -0.333947
  27 C :   -0.094862
  28 C :   -0.055106
  29 C :   -0.091547
  30 C :   -0.067524
  31 C :   -0.086093
  32 C :   -0.257508
  33 C :   -0.058281
  34 C :   -0.043466
  35 C :    0.009954
  36 C :   -0.257629
  37 C :   -0.058693
  38 C :   -0.043884
  39 C :    0.002375
  40 C :   -0.046863
  41 C :   -0.225245
  42 C :   -0.223831
  43 C :   -0.048429
  44 C :   -0.045509
  45 C :   -0.225842
  46 C :   -0.223960
  47 C :   -0.052558
  48 F :    0.213415
  49 F :    0.216513
  50 O :    0.122532
  51 C :   -0.136361
  52 C :   -0.168653
  53 C :   -0.164582
  54 C :   -0.263641
  55 C :   -0.289399
  56 C :   -0.258488
  57 C :   -0.294893
  58 C :   -0.304981
  59 C :   -0.305934
  60 O :    0.136408
  61 C :   -0.148368
  62 F :    0.215529
  63 F :    0.212982
  64 N :    0.082675
  65 N :    0.077208
  66 C :   -0.162293
  67 C :   -0.168130
  68 N :    0.079612
  69 N :    0.099374
  70 H :    0.131059
  71 H :    0.117358
  72 H :    0.128784
  73 H :    0.126249
  74 H :    0.153617
  75 H :    0.155630
  76 H :    0.179474
  77 H :    0.170595
  78 H :    0.163658
  79 H :    0.169481
  80 H :    0.164671
  81 H :    0.167930
  82 H :    0.135767
  83 H :    0.148341
  84 H :    0.121349
  85 H :    0.124037
  86 H :    0.122585
  87 H :    0.139825
  88 H :    0.143250
  89 H :    0.120256
  90 H :    0.122343
  91 H :    0.117665
  92 H :    0.117513
  93 H :    0.128241
  94 H :    0.122364
  95 H :    0.124898
  96 H :    0.118549
  97 H :    0.125360

  Mayer bond orders larger than 0.100000
B(  0-C ,  1-C ) :   1.2275 B(  0-C ,  5-C ) :   1.3816 B(  0-C , 13-S ) :   1.1764
B(  1-C ,  2-C ) :   1.2330 B(  1-C , 15-C ) :   1.1398 B(  2-C ,  3-C ) :   1.4235
B(  2-C ,  5-C ) :   0.1084 B(  2-C ,  8-O ) :   1.0553 B(  3-C ,  4-C ) :   1.2878
B(  3-C , 10-S ) :   1.2722 B(  4-C ,  5-C ) :   1.2405 B(  4-C , 12-C ) :   1.1674
B(  5-C ,  6-O ) :   1.1168 B(  6-O ,  7-C ) :   0.8933 B(  7-C , 58-C ) :   0.9560
B(  7-C , 70-H ) :   0.9651 B(  7-C , 71-H ) :   0.9583 B(  8-O ,  9-C ) :   0.8801
B(  9-C , 59-C ) :   0.9797 B(  9-C , 72-H ) :   0.9635 B(  9-C , 73-H ) :   0.9612
B( 10-S , 11-C ) :   1.2360 B( 11-C , 12-C ) :   1.3198 B( 11-C , 22-C ) :   1.1541
B( 12-C , 24-N ) :   1.2016 B( 13-S , 14-C ) :   1.2908 B( 14-C , 15-C ) :   1.2977
B( 14-C , 16-C ) :   1.1148 B( 15-C , 18-N ) :   1.1845 B( 16-C , 17-C ) :   1.1847
B( 16-C , 19-S ) :   1.4155 B( 17-C , 18-N ) :   1.1441 B( 17-C , 21-C ) :   1.3614
B( 18-N , 54-C ) :   0.8852 B( 19-S , 20-C ) :   1.2648 B( 19-S , 21-C ) :   0.1077
B( 20-C , 21-C ) :   1.3226 B( 20-C , 28-C ) :   1.3260 B( 21-C , 74-H ) :   0.9567
B( 22-C , 23-C ) :   1.2278 B( 22-C , 25-S ) :   1.3470 B( 23-C , 24-N ) :   1.1539
B( 23-C , 27-C ) :   1.2363 B( 24-N , 56-C ) :   0.8864 B( 25-S , 26-C ) :   1.1702
B( 25-S , 27-C ) :   0.1552 B( 26-C , 27-C ) :   1.4067 B( 26-C , 30-C ) :   1.1353
B( 27-C , 75-H ) :   0.9600 B( 28-C , 29-C ) :   1.3734 B( 28-C , 76-H ) :   0.8891
B( 29-C , 32-C ) :   1.0251 B( 29-C , 35-C ) :   1.1505 B( 30-C , 31-C ) :   1.4851
B( 30-C , 60-O ) :   0.1033 B( 30-C , 77-H ) :   0.9391 B( 31-C , 36-C ) :   1.0098
B( 31-C , 39-C ) :   1.1735 B( 31-C , 60-O ) :  -0.1343 B( 32-C , 33-C ) :   1.0349
B( 32-C , 50-O ) :   2.0141 B( 33-C , 34-C ) :   1.3384 B( 33-C , 40-C ) :   1.3064
B( 33-C , 50-O ) :  -0.1499 B( 34-C , 35-C ) :   1.0408 B( 34-C , 43-C ) :   1.3324
B( 35-C , 51-C ) :   1.4614 B( 36-C , 37-C ) :   0.9595 B( 36-C , 60-O ) :   2.1678
B( 37-C , 38-C ) :   1.3276 B( 37-C , 44-C ) :   1.3141 B( 37-C , 60-O ) :  -0.1499
B( 38-C , 39-C ) :   1.0282 B( 38-C , 47-C ) :   1.3100 B( 39-C , 61-C ) :   1.4108
B( 40-C , 41-C ) :   1.3538 B( 40-C , 78-H ) :   0.9851 B( 41-C , 42-C ) :   1.3451
B( 41-C , 48-F ) :   1.0615 B( 42-C , 43-C ) :   1.3863 B( 42-C , 49-F ) :   1.0841
B( 43-C , 79-H ) :   0.9274 B( 44-C , 45-C ) :   1.3541 B( 44-C , 80-H ) :   0.9826
B( 45-C , 46-C ) :   1.3468 B( 45-C , 63-F ) :   1.0618 B( 46-C , 47-C ) :   1.3864
B( 46-C , 62-F ) :   1.0752 B( 47-C , 81-H ) :   0.9427 B( 51-C , 52-C ) :   1.0336
B( 51-C , 53-C ) :   1.0241 B( 52-C , 65-N ) :   2.9875 B( 53-C , 64-N ) :   2.9869
B( 54-C , 55-C ) :   0.9578 B( 54-C , 82-H ) :   0.9609 B( 54-C , 83-H ) :   0.9476
B( 55-C , 84-H ) :   0.9771 B( 55-C , 85-H ) :   0.9723 B( 55-C , 86-H ) :   0.9721
B( 56-C , 57-C ) :   0.9277 B( 56-C , 87-H ) :   0.9651 B( 56-C , 88-H ) :   0.9538
B( 57-C , 89-H ) :   0.9745 B( 57-C , 90-H ) :   0.9746 B( 57-C , 91-H ) :   0.9778
B( 58-C , 92-H ) :   0.9704 B( 58-C , 93-H ) :   0.9636 B( 58-C , 94-H ) :   0.9681
B( 59-C , 95-H ) :   0.9697 B( 59-C , 96-H ) :   0.9723 B( 59-C , 97-H ) :   0.9633
B( 61-C , 66-C ) :   1.0582 B( 61-C , 67-C ) :   1.0519 B( 66-C , 69-N ) :   2.9687
B( 67-C , 68-N ) :   2.9955

-----------------------------------------------------------------------------
         ABSORPTION SPECTRUM VIA TRANSITION ELECTRIC DIPOLE MOMENTS
-----------------------------------------------------------------------------
State   Energy    Wavelength  fosc         T2        TX        TY        TZ
        (cm-1)      (nm)                 (au**2)    (au)      (au)      (au)
-----------------------------------------------------------------------------
   1   14031.7    712.7   1.722035998  40.40256  -5.31049   3.40226  -0.79111
   2   15872.5    630.0   0.085693660   1.77738  -0.84586   0.94222  -0.41729
   3   17927.0    557.8   0.905214841  16.62335  -3.55941   1.94510   0.41301
   4   18478.7    541.2   0.378716573   6.74714   1.98937  -1.52831   0.67365
   5   19084.9    524.0   0.336562495   5.80565  -1.83727   1.51627  -0.36196
   6   19400.2    515.5   0.013707688   0.23261  -0.39097   0.27707  -0.05465
   7   20830.4    480.1   0.017930947   0.28339  -0.47678  -0.07060   0.22601
   8   21573.5    463.5   0.066107023   1.00879   0.94891  -0.28584  -0.16329
   9   22149.9    451.5   0.129609098   1.92637  -0.58177   1.07899  -0.65091
  10   22827.2    438.1   0.012525285   0.18064   0.17717  -0.34573   0.17238
  11   23502.9    425.5   0.375066478   5.25367  -1.88028   1.30280  -0.14458
  12   24319.8    411.2   0.042667786   0.57758   0.02967   0.52669  -0.54708
  13   24523.8    407.8   0.061094784   0.82015   0.40605  -0.66653   0.45936
  14   24563.4    407.1   0.016228734   0.21751  -0.41102   0.21359   0.05429
  15   25527.0    391.7   0.034942423   0.45064   0.52886  -0.28400   0.30049
  16   25904.0    386.0   0.041627540   0.52904  -0.51856   0.50961  -0.02096
  17   26273.6    380.6   0.010328779   0.12942  -0.30165   0.19113  -0.04355
  18   26298.3    380.3   0.010493940   0.13137   0.27271  -0.23327   0.05082
  19   26557.0    376.5   0.025529373   0.31647   0.50135  -0.24716   0.06352
  20   27035.3    369.9   0.002751503   0.03351   0.08208   0.12145   0.10963
  21   27289.0    366.4   0.019092740   0.23033   0.08023   0.24723  -0.40345
  22   27455.2    364.2   0.243178997   2.91593   0.92543  -1.07853   0.94673
  23   27461.7    364.1   0.000587757   0.00705   0.04227  -0.06349   0.03504
  24   27695.6    361.1   0.022950035   0.27280  -0.04025   0.23992  -0.46219
  25   27920.0    358.2   0.057321669   0.67589  -0.52635   0.59750   0.20456
  26   29406.9    340.1   0.034084490   0.38158   0.33625  -0.39484  -0.33558
  27   29641.3    337.4   0.074751659   0.83023   0.70175  -0.57151  -0.10562
  28   29963.8    333.7   0.001527860   0.01679  -0.08157   0.09716  -0.02633
  29   30046.1    332.8   0.053956335   0.59119   0.00574   0.47959  -0.60096
  30   30252.9    330.5   0.001268039   0.01380   0.03309   0.03510  -0.10711
  31   30756.8    325.1   0.006266751   0.06708   0.18252   0.02463  -0.18210
  32   30867.9    324.0   0.008973408   0.09570  -0.18246   0.18989   0.16233
  33   31177.2    320.7   0.015973406   0.16867  -0.30615   0.24258   0.12687
  34   31458.7    317.9   0.011031431   0.11544   0.15879  -0.29700   0.04493
  35   31593.4    316.5   0.000197002   0.00205  -0.02470   0.03799  -0.00005
  36   31773.5    314.7   0.006765402   0.07010   0.11993  -0.17241  -0.16121
  37   31893.9    313.5   0.017158055   0.17711  -0.28140   0.25709   0.17839
  38   32154.2    311.0   0.003058933   0.03132   0.01195  -0.16452  -0.06409
  39   32202.6    310.5   0.060844135   0.62202  -0.27470   0.51012  -0.53510
  40   32882.8    304.1   0.108194101   1.08320  -0.75717   0.55136   0.45377
  41   32992.6    303.1   0.234566610   2.34059   0.82842  -1.23235   0.36827
  42   33086.7    302.2   0.233528066   2.32360  -0.97052   0.63496   0.98920
  43   33279.7    300.5   0.036080507   0.35692   0.19859   0.30357  -0.47468
  44   33397.7    299.4   0.195663744   1.92872   0.20608   0.92476  -1.01542
  45   33448.3    299.0   0.032566933   0.32054  -0.38382   0.32589   0.25887
  46   33527.6    298.3   0.113521235   1.11468  -0.78767   0.41037   0.57083
  47   34089.1    293.3   0.028414993   0.27441  -0.22323   0.45809  -0.12141
  48   34165.6    292.7   0.022693208   0.21867  -0.33437   0.11413   0.30633
  49   34529.6    289.6   0.056985511   0.54331  -0.17255   0.51942  -0.49371
  50   34651.3    288.6   0.107387596   1.02026  -0.69408   0.67785   0.28111

FINAL SINGLE POINT ENERGY     -4619.038094831862

DIPOLE MOMENT
-------------
                                X             Y             Z
Electronic contribution:     12.45359      14.48197     -21.65106
Nuclear contribution   :    -12.40805     -16.26638      21.19419
                        -----------------------------------------
Total Dipole Moment    :      0.04553      -1.78441      -0.45687
                        -----------------------------------------
Magnitude (a.u.)       :      1.84254
Magnitude (Debye)      :      4.68335

Rotational constants in cm-1:     0.002794     0.000238     0.000224
Rotational constants in MHz :    83.755002     7.124170     6.704385

                             ****ORCA TERMINATED NORMALLY****
TOTAL RUN TIME: 4 days 21 hours 54 minutes 32 seconds 873 msec
