                         Program Version 4.2.0 -  RELEASE  -
|  1> # ORCA input file
|  2> # M8.out: Geometry 83
|  3> ! B3LYP def2-TZVP def2/J RIJCOSX Grid4 TightSCF
|  4>
|  5> %maxcore 6000
|  6> %tddft
|  7>   maxdim 5
|  8>   nroots 50
|  9>   end
| 10> %pal
| 11>   nprocs 6
| 12>   end
| 13>
| 14>
| 15> * xyz 0 1
| 16>    C       -0.33965         0.26688        -0.38377
| 17>    C       -0.85681         0.57339         0.92275
| 18>    C       -0.15402         0.16596         2.08311
| 19>    C        0.99235        -0.59849         1.85691
| 20>    C        1.45866        -0.94501         0.54497
| 21>    C        0.78994        -0.50752        -0.61212
| 22>    O        1.26288        -0.87204        -1.82760
| 23>    C        0.34336        -1.37114        -2.82090
| 24>    O       -0.61279         0.45189         3.33344
| 25>    C       -0.22693         1.73078         3.87099
| 26>    O        1.76666        -1.18292         2.83688
| 27>    C        2.70395        -1.93069         2.17409
| 28>    C        2.57406        -1.80181         0.78055
| 29>    O       -1.14410         0.75037        -1.38965
| 30>    C       -2.20204         1.31871        -0.75463
| 31>    C       -2.10222         1.24243         0.64186
| 32>    C       -3.39746         1.94741        -1.09332
| 33>    C       -4.04490         2.22083         0.15361
| 34>    N       -3.23481         1.80266         1.20951
| 35>    S       -4.31090         2.49986        -2.43523
| 36>    C       -5.59781         3.07897        -1.34092
| 37>    C       -5.29752         2.83542         0.01090
| 38>    C        3.71838        -2.86734         2.43315
| 39>    C        4.19008        -3.25595         1.13716
| 40>    N        3.49428        -2.59438         0.14142
| 41>    S        4.57016        -3.72944         3.67275
| 42>    C        5.54242        -4.60167         2.44950
| 43>    C        5.20426        -4.20968         1.14845
| 44>    C       -6.64141         3.76418        -2.00814
| 45>    C       -7.84883         4.29395        -1.59855
| 46>    C        6.38800        -5.65233         2.87268
| 47>    C        7.26382        -6.48553         2.19601
| 48>    C       -8.53068         4.06441        -0.29723
| 49>    C       -9.91253         4.59413        -0.46603
| 50>    C      -10.04092         5.18948        -1.73627
| 51>    C       -8.75087         5.06813        -2.45363
| 52>    C        7.56546        -7.80400         2.84945
| 53>    C        8.18401        -8.64830         1.79276
| 54>    C        8.35809        -7.88292         0.62262
| 55>    C        7.90350        -6.48948         0.89224
| 56>    C      -10.96924         4.52868         0.43604
| 57>    C      -12.18822         5.06935         0.03853
| 58>    C      -12.32554         5.67684        -1.22203
| 59>    C      -11.26552         5.74911        -2.11958
| 60>    C        8.55431        -9.98584         1.87645
| 61>    C        9.11128       -10.57230         0.74501
| 62>    C        9.29839        -9.82199        -0.42935
| 63>    C        8.93079        -8.47983        -0.50951
| 64>    F      -13.25315         5.02089         0.83405
| 65>    F      -13.50935         6.18280        -1.55300
| 66>    O       -8.09343         3.53033         0.70868
| 67>    C       -8.47025         5.64617        -3.67998
| 68>    C       -7.19284         5.57495        -4.32056
| 69>    C       -9.42475         6.41004        -4.42191
| 70>    C       -3.67061         1.69442         2.59877
| 71>    C       -4.08166         0.27469         2.97689
| 72>    C        3.76677        -2.72753        -1.28693
| 73>    C        3.34938        -4.09017        -1.83526
| 74>    C       -0.54182        -2.48704        -2.29684
| 75>    C        1.23741         1.79656         4.26685
| 76>    O        7.31636        -8.13083         3.99163
| 77>    C        8.23058        -5.39652         0.10045
| 78>    F        9.84640       -10.42850        -1.48108
| 79>    F        9.47941       -11.85050         0.74798
| 80>    N      -10.17037         7.03880        -5.05426
| 81>    N       -6.17075         5.53245        -4.87304
| 82>    C        8.07304        -4.04900         0.53751
| 83>    C        8.84976        -5.53077        -1.18074
| 84>    N        9.33231        -5.62788        -2.23398
| 85>    N        7.95865        -2.94274         0.87689
| 86>    H        1.00082        -1.73636        -3.62293
| 87>    H       -0.25777        -0.54050        -3.21913
| 88>    H       -0.87512         1.86977         4.74885
| 89>    H       -0.47297         2.51928         3.13696
| 90>    H       -5.99469         3.12125         0.79638
| 91>    H        5.63923        -4.66167         0.26219
| 92>    H       -6.42670         3.89051        -3.06983
| 93>    H        6.25439        -5.97271         3.91451
| 94>    H      -10.85652         4.05919         1.41425
| 95>    H      -11.43604         6.22851        -3.08101
| 96>    H        8.41163       -10.55998         2.79357
| 97>    H        9.11080        -7.95552        -1.44611
| 98>    H       -4.50815         2.39561         2.72308
| 99>    H       -2.85838         2.04883         3.24844
|100>    H       -4.85983        -0.10266         2.29603
|101>    H       -4.48420         0.25489         4.00168
|102>    H       -3.21316        -0.39885         2.94014
|103>    H        4.84525        -2.55812        -1.44119
|104>    H        3.22587        -1.92043        -1.79325
|105>    H        3.85980        -4.91157        -1.31154
|106>    H        3.60576        -4.16442        -2.90364
|107>    H        2.26440        -4.24090        -1.72316
|108>    H        0.06142        -3.28435        -1.83657
|109>    H       -1.11765        -2.92374        -3.12745
|110>    H       -1.25831        -2.12291        -1.54603
|111>    H        1.49257         0.96852         4.94345
|112>    H        1.44381         2.74863         4.78163
|113>    H        1.89500         1.73658         3.38699
|114> *
|115>
|116>                          ****END OF INPUT****

CARTESIAN COORDINATES (ANGSTROEM)
---------------------------------
  C     -0.339650    0.266880   -0.383770
  C     -0.856810    0.573390    0.922750
  C     -0.154020    0.165960    2.083110
  C      0.992350   -0.598490    1.856910
  C      1.458660   -0.945010    0.544970
  C      0.789940   -0.507520   -0.612120
  O      1.262880   -0.872040   -1.827600
  C      0.343360   -1.371140   -2.820900
  O     -0.612790    0.451890    3.333440
  C     -0.226930    1.730780    3.870990
  O      1.766660   -1.182920    2.836880
  C      2.703950   -1.930690    2.174090
  C      2.574060   -1.801810    0.780550
  O     -1.144100    0.750370   -1.389650
  C     -2.202040    1.318710   -0.754630
  C     -2.102220    1.242430    0.641860
  C     -3.397460    1.947410   -1.093320
  C     -4.044900    2.220830    0.153610
  N     -3.234810    1.802660    1.209510
  S     -4.310900    2.499860   -2.435230
  C     -5.597810    3.078970   -1.340920
  C     -5.297520    2.835420    0.010900
  C      3.718380   -2.867340    2.433150
  C      4.190080   -3.255950    1.137160
  N      3.494280   -2.594380    0.141420
  S      4.570160   -3.729440    3.672750
  C      5.542420   -4.601670    2.449500
  C      5.204260   -4.209680    1.148450
  C     -6.641410    3.764180   -2.008140
  C     -7.848830    4.293950   -1.598550
  C      6.388000   -5.652330    2.872680
  C      7.263820   -6.485530    2.196010
  C     -8.530680    4.064410   -0.297230
  C     -9.912530    4.594130   -0.466030
  C    -10.040920    5.189480   -1.736270
  C     -8.750870    5.068130   -2.453630
  C      7.565460   -7.804000    2.849450
  C      8.184010   -8.648300    1.792760
  C      8.358090   -7.882920    0.622620
  C      7.903500   -6.489480    0.892240
  C    -10.969240    4.528680    0.436040
  C    -12.188220    5.069350    0.038530
  C    -12.325540    5.676840   -1.222030
  C    -11.265520    5.749110   -2.119580
  C      8.554310   -9.985840    1.876450
  C      9.111280  -10.572300    0.745010
  C      9.298390   -9.821990   -0.429350
  C      8.930790   -8.479830   -0.509510
  F    -13.253150    5.020890    0.834050
  F    -13.509350    6.182800   -1.553000
  O     -8.093430    3.530330    0.708680
  C     -8.470250    5.646170   -3.679980
  C     -7.192840    5.574950   -4.320560
  C     -9.424750    6.410040   -4.421910
  C     -3.670610    1.694420    2.598770
  C     -4.081660    0.274690    2.976890
  C      3.766770   -2.727530   -1.286930
  C      3.349380   -4.090170   -1.835260
  C     -0.541820   -2.487040   -2.296840
  C      1.237410    1.796560    4.266850
  O      7.316360   -8.130830    3.991630
  C      8.230580   -5.396520    0.100450
  F      9.846400  -10.428500   -1.481080
  F      9.479410  -11.850500    0.747980
  N    -10.170370    7.038800   -5.054260
  N     -6.170750    5.532450   -4.873040
  C      8.073040   -4.049000    0.537510
  C      8.849760   -5.530770   -1.180740
  N      9.332310   -5.627880   -2.233980
  N      7.958650   -2.942740    0.876890
  H      1.000820   -1.736360   -3.622930
  H     -0.257770   -0.540500   -3.219130
  H     -0.875120    1.869770    4.748850
  H     -0.472970    2.519280    3.136960
  H     -5.994690    3.121250    0.796380
  H      5.639230   -4.661670    0.262190
  H     -6.426700    3.890510   -3.069830
  H      6.254390   -5.972710    3.914510
  H    -10.856520    4.059190    1.414250
  H    -11.436040    6.228510   -3.081010
  H      8.411630  -10.559980    2.793570
  H      9.110800   -7.955520   -1.446110
  H     -4.508150    2.395610    2.723080
  H     -2.858380    2.048830    3.248440
  H     -4.859830   -0.102660    2.296030
  H     -4.484200    0.254890    4.001680
  H     -3.213160   -0.398850    2.940140
  H      4.845250   -2.558120   -1.441190
  H      3.225870   -1.920430   -1.793250
  H      3.859800   -4.911570   -1.311540
  H      3.605760   -4.164420   -2.903640
  H      2.264400   -4.240900   -1.723160
  H      0.061420   -3.284350   -1.836570
  H     -1.117650   -2.923740   -3.127450
  H     -1.258310   -2.122910   -1.546030
  H      1.492570    0.968520    4.943450
  H      1.443810    2.748630    4.781630
  H      1.895000    1.736580    3.386990

 Total Charge           Charge          ....    0
 Multiplicity           Mult            ....    1
 Number of Electrons    NEL             ....  498
 Basis Dimension        Dim             .... 2350

ORBITAL ENERGIES
----------------

  NO   OCC          E(Eh)            E(eV)
   0   2.0000     -88.911538     -2419.4059
   1   2.0000     -88.911381     -2419.4017
   2   2.0000     -24.727506      -672.8696
   3   2.0000     -24.725574      -672.8171
   4   2.0000     -24.725362      -672.8113
   5   2.0000     -24.724223      -672.7803
   6   2.0000     -19.225647      -523.1564
   7   2.0000     -19.220733      -523.0227
   8   2.0000     -19.186255      -522.0845
   9   2.0000     -19.175741      -521.7985
  10   2.0000     -19.137016      -520.7447
  11   2.0000     -19.131348      -520.5904
  12   2.0000     -14.404686      -391.9714
  13   2.0000     -14.401435      -391.8830
  14   2.0000     -14.333715      -390.0402
  15   2.0000     -14.333637      -390.0381
  16   2.0000     -14.333557      -390.0359
  17   2.0000     -14.331980      -389.9930
  18   2.0000     -10.301157      -280.3087
  19   2.0000     -10.300097      -280.2799
  20   2.0000     -10.299328      -280.2590
  21   2.0000     -10.298680      -280.2413
  22   2.0000     -10.284294      -279.8499
  23   2.0000     -10.277893      -279.6757
  24   2.0000     -10.274863      -279.5932
  25   2.0000     -10.272838      -279.5381
  26   2.0000     -10.272049      -279.5167
  27   2.0000     -10.270933      -279.4863
  28   2.0000     -10.264627      -279.3147
  29   2.0000     -10.264428      -279.3093
  30   2.0000     -10.262620      -279.2601
  31   2.0000     -10.261901      -279.2405
  32   2.0000     -10.261118      -279.2192
  33   2.0000     -10.260038      -279.1898
  34   2.0000     -10.254204      -279.0311
  35   2.0000     -10.253611      -279.0149
  36   2.0000     -10.253358      -279.0081
  37   2.0000     -10.250907      -278.9414
  38   2.0000     -10.249325      -278.8983
  39   2.0000     -10.245733      -278.8006
  40   2.0000     -10.245544      -278.7954
  41   2.0000     -10.243818      -278.7485
  42   2.0000     -10.242596      -278.7152
  43   2.0000     -10.241933      -278.6972
  44   2.0000     -10.240392      -278.6552
  45   2.0000     -10.240135      -278.6482
  46   2.0000     -10.236056      -278.5372
  47   2.0000     -10.234377      -278.4916
  48   2.0000     -10.233854      -278.4773
  49   2.0000     -10.233825      -278.4765
  50   2.0000     -10.233815      -278.4763
  51   2.0000     -10.233545      -278.4689
  52   2.0000     -10.232892      -278.4512
  53   2.0000     -10.232056      -278.4284
  54   2.0000     -10.231618      -278.4165
  55   2.0000     -10.229165      -278.3497
  56   2.0000     -10.223381      -278.1923
  57   2.0000     -10.221912      -278.1524
  58   2.0000     -10.221399      -278.1384
  59   2.0000     -10.221149      -278.1316
  60   2.0000     -10.221052      -278.1290
  61   2.0000     -10.219617      -278.0899
  62   2.0000     -10.219235      -278.0795
  63   2.0000     -10.218623      -278.0629
  64   2.0000     -10.217153      -278.0229
  65   2.0000     -10.215683      -277.9829
  66   2.0000     -10.196061      -277.4489
  67   2.0000     -10.194283      -277.4005
  68   2.0000     -10.190943      -277.3097
  69   2.0000     -10.185565      -277.1633
  70   2.0000      -7.987220      -217.3433
  71   2.0000      -7.986468      -217.3229
  72   2.0000      -5.949990      -161.9075
  73   2.0000      -5.949373      -161.8907
  74   2.0000      -5.946214      -161.8047
  75   2.0000      -5.945652      -161.7894
  76   2.0000      -5.943348      -161.7267
  77   2.0000      -5.942417      -161.7014
  78   2.0000      -1.273159       -34.6444
  79   2.0000      -1.270881       -34.5824
  80   2.0000      -1.258737       -34.2520
  81   2.0000      -1.256512       -34.1914
  82   2.0000      -1.148829       -31.2612
  83   2.0000      -1.138642       -30.9840
  84   2.0000      -1.096693       -29.8425
  85   2.0000      -1.087224       -29.5849
  86   2.0000      -1.063146       -28.9297
  87   2.0000      -1.059023       -28.8175
  88   2.0000      -1.026839       -27.9417
  89   2.0000      -1.025400       -27.9026
  90   2.0000      -0.938765       -25.5451
  91   2.0000      -0.938399       -25.5351
  92   2.0000      -0.921421       -25.0731
  93   2.0000      -0.920485       -25.0477
  94   2.0000      -0.919242       -25.0139
  95   2.0000      -0.919035       -25.0082
  96   2.0000      -0.908659       -24.7259
  97   2.0000      -0.905361       -24.6361
  98   2.0000      -0.892718       -24.2921
  99   2.0000      -0.875199       -23.8154
 100   2.0000      -0.872885       -23.7524
 101   2.0000      -0.854355       -23.2482
 102   2.0000      -0.849220       -23.1085
 103   2.0000      -0.830777       -22.6066
 104   2.0000      -0.823673       -22.4133
 105   2.0000      -0.820397       -22.3241
 106   2.0000      -0.807082       -21.9618
 107   2.0000      -0.805087       -21.9075
 108   2.0000      -0.797359       -21.6972
 109   2.0000      -0.795830       -21.6556
 110   2.0000      -0.795049       -21.6344
 111   2.0000      -0.789217       -21.4757
 112   2.0000      -0.788687       -21.4613
 113   2.0000      -0.783797       -21.3282
 114   2.0000      -0.763464       -20.7749
 115   2.0000      -0.760096       -20.6833
 116   2.0000      -0.755365       -20.5545
 117   2.0000      -0.752592       -20.4791
 118   2.0000      -0.736078       -20.0297
 119   2.0000      -0.722901       -19.6711
 120   2.0000      -0.703313       -19.1381
 121   2.0000      -0.697377       -18.9766
 122   2.0000      -0.694249       -18.8915
 123   2.0000      -0.690039       -18.7769
 124   2.0000      -0.681680       -18.5494
 125   2.0000      -0.673803       -18.3351
 126   2.0000      -0.668865       -18.2007
 127   2.0000      -0.657940       -17.9035
 128   2.0000      -0.651858       -17.7379
 129   2.0000      -0.646943       -17.6042
 130   2.0000      -0.645589       -17.5674
 131   2.0000      -0.636660       -17.3244
 132   2.0000      -0.633454       -17.2371
 133   2.0000      -0.627285       -17.0693
 134   2.0000      -0.620736       -16.8911
 135   2.0000      -0.614472       -16.7206
 136   2.0000      -0.607563       -16.5326
 137   2.0000      -0.599293       -16.3076
 138   2.0000      -0.593722       -16.1560
 139   2.0000      -0.589992       -16.0545
 140   2.0000      -0.581873       -15.8336
 141   2.0000      -0.576273       -15.6812
 142   2.0000      -0.573605       -15.6086
 143   2.0000      -0.570664       -15.5286
 144   2.0000      -0.570369       -15.5205
 145   2.0000      -0.561764       -15.2864
 146   2.0000      -0.553312       -15.0564
 147   2.0000      -0.548505       -14.9256
 148   2.0000      -0.544771       -14.8240
 149   2.0000      -0.541975       -14.7479
 150   2.0000      -0.538864       -14.6632
 151   2.0000      -0.535571       -14.5736
 152   2.0000      -0.534252       -14.5377
 153   2.0000      -0.527655       -14.3582
 154   2.0000      -0.523080       -14.2337
 155   2.0000      -0.522974       -14.2308
 156   2.0000      -0.522255       -14.2113
 157   2.0000      -0.520253       -14.1568
 158   2.0000      -0.517372       -14.0784
 159   2.0000      -0.514436       -13.9985
 160   2.0000      -0.505234       -13.7481
 161   2.0000      -0.502960       -13.6862
 162   2.0000      -0.500020       -13.6062
 163   2.0000      -0.497840       -13.5469
 164   2.0000      -0.494272       -13.4498
 165   2.0000      -0.487656       -13.2698
 166   2.0000      -0.487552       -13.2670
 167   2.0000      -0.485584       -13.2134
 168   2.0000      -0.485243       -13.2041
 169   2.0000      -0.485167       -13.2021
 170   2.0000      -0.482171       -13.1205
 171   2.0000      -0.480027       -13.0622
 172   2.0000      -0.477387       -12.9904
 173   2.0000      -0.470173       -12.7940
 174   2.0000      -0.468867       -12.7585
 175   2.0000      -0.466999       -12.7077
 176   2.0000      -0.463729       -12.6187
 177   2.0000      -0.462581       -12.5875
 178   2.0000      -0.460981       -12.5439
 179   2.0000      -0.458080       -12.4650
 180   2.0000      -0.457083       -12.4378
 181   2.0000      -0.455593       -12.3973
 182   2.0000      -0.454519       -12.3681
 183   2.0000      -0.450449       -12.2573
 184   2.0000      -0.443490       -12.0680
 185   2.0000      -0.440618       -11.9898
 186   2.0000      -0.437929       -11.9167
 187   2.0000      -0.433867       -11.8061
 188   2.0000      -0.431799       -11.7498
 189   2.0000      -0.431470       -11.7409
 190   2.0000      -0.427652       -11.6370
 191   2.0000      -0.426686       -11.6107
 192   2.0000      -0.423372       -11.5205
 193   2.0000      -0.421864       -11.4795
 194   2.0000      -0.420802       -11.4506
 195   2.0000      -0.419109       -11.4045
 196   2.0000      -0.415349       -11.3022
 197   2.0000      -0.414919       -11.2905
 198   2.0000      -0.413742       -11.2585
 199   2.0000      -0.407192       -11.0803
 200   2.0000      -0.406258       -11.0548
 201   2.0000      -0.405323       -11.0294
 202   2.0000      -0.404727       -11.0132
 203   2.0000      -0.400719       -10.9041
 204   2.0000      -0.398109       -10.8331
 205   2.0000      -0.394719       -10.7408
 206   2.0000      -0.392439       -10.6788
 207   2.0000      -0.391904       -10.6643
 208   2.0000      -0.390725       -10.6322
 209   2.0000      -0.388847       -10.5811
 210   2.0000      -0.387936       -10.5563
 211   2.0000      -0.387551       -10.5458
 212   2.0000      -0.385104       -10.4792
 213   2.0000      -0.384463       -10.4618
 214   2.0000      -0.383127       -10.4254
 215   2.0000      -0.381611       -10.3842
 216   2.0000      -0.380234       -10.3467
 217   2.0000      -0.379175       -10.3179
 218   2.0000      -0.378768       -10.3068
 219   2.0000      -0.371610       -10.1120
 220   2.0000      -0.370620       -10.0851
 221   2.0000      -0.366615        -9.9761
 222   2.0000      -0.361464        -9.8359
 223   2.0000      -0.360686        -9.8148
 224   2.0000      -0.359458        -9.7813
 225   2.0000      -0.357611        -9.7311
 226   2.0000      -0.356545        -9.7021
 227   2.0000      -0.350552        -9.5390
 228   2.0000      -0.347803        -9.4642
 229   2.0000      -0.344981        -9.3874
 230   2.0000      -0.342367        -9.3163
 231   2.0000      -0.332167        -9.0387
 232   2.0000      -0.319507        -8.6942
 233   2.0000      -0.315674        -8.5899
 234   2.0000      -0.312131        -8.4935
 235   2.0000      -0.307403        -8.3649
 236   2.0000      -0.298006        -8.1091
 237   2.0000      -0.293310        -7.9814
 238   2.0000      -0.290562        -7.9066
 239   2.0000      -0.282574        -7.6892
 240   2.0000      -0.278790        -7.5863
 241   2.0000      -0.275989        -7.5100
 242   2.0000      -0.265773        -7.2320
 243   2.0000      -0.263644        -7.1741
 244   2.0000      -0.262583        -7.1453
 245   2.0000      -0.249298        -6.7837
 246   2.0000      -0.237445        -6.4612
 247   2.0000      -0.233924        -6.3654
 248   2.0000      -0.207229        -5.6390
 249   0.0000      -0.135402        -3.6845
 250   0.0000      -0.124590        -3.3903
 251   0.0000      -0.110012        -2.9936
 252   0.0000      -0.105009        -2.8574
 253   0.0000      -0.068854        -1.8736

MULLIKEN ATOMIC CHARGES
-----------------------
   0 C :    0.222091
   1 C :    0.069645
   2 C :    0.017778
   3 C :    0.275076
   4 C :    0.032437
   5 C :   -0.021014
   6 O :   -0.356834
   7 C :   -0.011768
   8 O :   -0.343336
   9 C :   -0.052116
  10 O :   -0.268240
  11 C :    0.249678
  12 C :    0.061231
  13 O :   -0.296697
  14 C :    0.299771
  15 C :    0.040644
  16 C :   -0.222508
  17 C :    0.220141
  18 N :   -0.070932
  19 S :    0.030495
  20 C :    0.087652
  21 C :   -0.302745
  22 C :   -0.230855
  23 C :    0.331094
  24 N :   -0.047187
  25 S :    0.041437
  26 C :    0.208736
  27 C :   -0.445696
  28 C :   -0.183002
  29 C :   -0.052523
  30 C :   -0.196714
  31 C :   -0.026575
  32 C :    0.205000
  33 C :    0.084045
  34 C :    0.088499
  35 C :    0.045822
  36 C :    0.234475
  37 C :   -0.004917
  38 C :    0.124319
  39 C :    0.026074
  40 C :   -0.307597
  41 C :    0.279653
  42 C :    0.255620
  43 C :   -0.264966
  44 C :   -0.305677
  45 C :    0.283849
  46 C :    0.252700
  47 C :   -0.261404
  48 F :   -0.176274
  49 F :   -0.172081
  50 O :   -0.353747
  51 C :    0.145491
  52 C :   -0.208369
  53 C :   -0.200447
  54 C :   -0.103367
  55 C :   -0.335434
  56 C :   -0.159400
  57 C :   -0.338685
  58 C :   -0.344354
  59 C :   -0.309763
  60 O :   -0.296732
  61 C :    0.048108
  62 F :   -0.174328
  63 F :   -0.176767
  64 N :    0.008066
  65 N :    0.014917
  66 C :   -0.207194
  67 C :   -0.199551
  68 N :    0.003820
  69 N :    0.016664
  70 H :    0.113783
  71 H :    0.124384
  72 H :    0.115331
  73 H :    0.099561
  74 H :    0.185332
  75 H :    0.176619
  76 H :    0.159473
  77 H :    0.149314
  78 H :    0.147099
  79 H :    0.164880
  80 H :    0.151954
  81 H :    0.164971
  82 H :    0.128313
  83 H :    0.112300
  84 H :    0.119821
  85 H :    0.115786
  86 H :    0.131858
  87 H :    0.135165
  88 H :    0.157007
  89 H :    0.122450
  90 H :    0.122214
  91 H :    0.107580
  92 H :    0.108083
  93 H :    0.125993
  94 H :    0.128062
  95 H :    0.119764
  96 H :    0.117582
  97 H :    0.120090
Sum of atomic charges:   -0.0000000

LOEWDIN ATOMIC CHARGES
----------------------
   0 C :   -0.148393
   1 C :   -0.058212
   2 C :   -0.219520
   3 C :   -0.135970
   4 C :   -0.060973
   5 C :   -0.216697
   6 O :    0.250891
   7 C :   -0.308548
   8 O :    0.236891
   9 C :   -0.323517
  10 O :    0.348560
  11 C :   -0.192976
  12 C :   -0.107449
  13 O :    0.353657
  14 C :   -0.211213
  15 C :   -0.102762
  16 C :   -0.323170
  17 C :   -0.161610
  18 N :    0.285240
  19 S :    0.758487
  20 C :   -0.313513
  21 C :   -0.094301
  22 C :   -0.303488
  23 C :   -0.168263
  24 N :    0.295933
  25 S :    0.741713
  26 C :   -0.322649
  27 C :   -0.093542
  28 C :   -0.072178
  29 C :   -0.084375
  30 C :   -0.067871
  31 C :   -0.085097
  32 C :   -0.244205
  33 C :   -0.060668
  34 C :   -0.041924
  35 C :    0.014843
  36 C :   -0.250326
  37 C :   -0.063086
  38 C :   -0.038724
  39 C :    0.006318
  40 C :   -0.051263
  41 C :   -0.232715
  42 C :   -0.232841
  43 C :   -0.052536
  44 C :   -0.049318
  45 C :   -0.234167
  46 C :   -0.230254
  47 C :   -0.057080
  48 F :    0.223578
  49 F :    0.227378
  50 O :    0.112638
  51 C :   -0.135783
  52 C :   -0.159458
  53 C :   -0.153918
  54 C :   -0.257071
  55 C :   -0.296512
  56 C :   -0.255001
  57 C :   -0.298490
  58 C :   -0.305359
  59 C :   -0.305066
  60 O :    0.129160
  61 C :   -0.151998
  62 F :    0.222919
  63 F :    0.223379
  64 N :    0.072670
  65 N :    0.072669
  66 C :   -0.159005
  67 C :   -0.156914
  68 N :    0.067570
  69 N :    0.085011
  70 H :    0.130082
  71 H :    0.128807
  72 H :    0.128146
  73 H :    0.122249
  74 H :    0.159517
  75 H :    0.158859
  76 H :    0.173687
  77 H :    0.173836
  78 H :    0.164960
  79 H :    0.170761
  80 H :    0.166652
  81 H :    0.169299
  82 H :    0.142617
  83 H :    0.138909
  84 H :    0.124210
  85 H :    0.127134
  86 H :    0.126628
  87 H :    0.142129
  88 H :    0.146763
  89 H :    0.120936
  90 H :    0.128070
  91 H :    0.119072
  92 H :    0.119268
  93 H :    0.131552
  94 H :    0.126617
  95 H :    0.126888
  96 H :    0.127980
  97 H :    0.124834

  Mayer bond orders larger than 0.100000
B(  0-C ,  1-C ) :   1.1983 B(  0-C ,  5-C ) :   1.4583 B(  0-C , 13-O ) :   0.9813
B(  1-C ,  2-C ) :   1.2286 B(  1-C , 15-C ) :   1.1659 B(  2-C ,  3-C ) :   1.4716
B(  2-C ,  5-C ) :   0.1101 B(  2-C ,  8-O ) :   1.0468 B(  3-C ,  4-C ) :   1.2140
B(  3-C , 10-O ) :   1.0481 B(  4-C ,  5-C ) :   1.2116 B(  4-C , 12-C ) :   1.1841
B(  5-C ,  6-O ) :   1.0989 B(  6-O ,  7-C ) :   0.8834 B(  7-C , 58-C ) :   0.9569
B(  7-C , 70-H ) :   0.9670 B(  7-C , 71-H ) :   0.9678 B(  8-O ,  9-C ) :   0.9054
B(  9-C , 59-C ) :   0.9906 B(  9-C , 72-H ) :   0.9614 B(  9-C , 73-H ) :   0.9562
B( 10-O , 11-C ) :   1.0639 B( 11-C , 12-C ) :   1.2909 B( 11-C , 22-C ) :   1.2884
B( 12-C , 24-N ) :   1.1930 B( 13-O , 14-C ) :   1.0551 B( 14-C , 15-C ) :   1.3105
B( 14-C , 16-C ) :   1.2542 B( 15-C , 18-N ) :   1.1589 B( 16-C , 17-C ) :   1.2165
B( 16-C , 19-S ) :   1.3692 B( 17-C , 18-N ) :   1.1625 B( 17-C , 21-C ) :   1.3232
B( 18-N , 54-C ) :   0.8996 B( 19-S , 20-C ) :   1.1927 B( 19-S , 21-C ) :   0.1423
B( 20-C , 21-C ) :   1.4854 B( 20-C , 28-C ) :   1.2898 B( 21-C , 74-H ) :   0.8917
B( 22-C , 23-C ) :   1.2190 B( 22-C , 25-S ) :   1.3424 B( 23-C , 24-N ) :   1.1564
B( 23-C , 27-C ) :   1.2617 B( 24-N , 56-C ) :   0.8901 B( 25-S , 26-C ) :   1.1712
B( 25-S , 27-C ) :   0.1546 B( 26-C , 27-C ) :   1.4344 B( 26-C , 30-C ) :   1.1673
B( 27-C , 75-H ) :   0.9273 B( 28-C , 29-C ) :   1.4468 B( 28-C , 76-H ) :   0.8978
B( 29-C , 32-C ) :   1.0123 B( 29-C , 35-C ) :   1.1387 B( 30-C , 31-C ) :   1.4799
B( 30-C , 77-H ) :   0.9294 B( 31-C , 36-C ) :   1.0135 B( 31-C , 39-C ) :   1.1845
B( 31-C , 60-O ) :  -0.1119 B( 32-C , 33-C ) :   1.0076 B( 32-C , 50-O ) :   2.0218
B( 33-C , 34-C ) :   1.3332 B( 33-C , 40-C ) :   1.2942 B( 33-C , 50-O ) :  -0.1486
B( 34-C , 35-C ) :   1.0241 B( 34-C , 43-C ) :   1.3076 B( 35-C , 51-C ) :   1.4577
B( 36-C , 37-C ) :   0.9544 B( 36-C , 60-O ) :   2.1369 B( 37-C , 38-C ) :   1.3305
B( 37-C , 44-C ) :   1.3094 B( 37-C , 60-O ) :  -0.1446 B( 38-C , 39-C ) :   1.0224
B( 38-C , 47-C ) :   1.3017 B( 39-C , 61-C ) :   1.3914 B( 40-C , 41-C ) :   1.3662
B( 40-C , 78-H ) :   0.9821 B( 41-C , 42-C ) :   1.3310 B( 41-C , 48-F ) :   1.0652
B( 42-C , 43-C ) :   1.3983 B( 42-C , 49-F ) :   1.0866 B( 43-C , 79-H ) :   0.9303
B( 44-C , 45-C ) :   1.3617 B( 44-C , 80-H ) :   0.9793 B( 45-C , 46-C ) :   1.3330
B( 45-C , 63-F ) :   1.0657 B( 46-C , 47-C ) :   1.3975 B( 46-C , 62-F ) :   1.0800
B( 47-C , 81-H ) :   0.9343 B( 51-C , 52-C ) :   1.0294 B( 51-C , 53-C ) :   1.0233
B( 52-C , 65-N ) :   2.9832 B( 53-C , 64-N ) :   2.9767 B( 54-C , 55-C ) :   0.9625
B( 54-C , 82-H ) :   0.9608 B( 54-C , 83-H ) :   0.9609 B( 55-C , 84-H ) :   0.9701
B( 55-C , 85-H ) :   0.9667 B( 55-C , 86-H ) :   0.9700 B( 56-C , 57-C ) :   0.9437
B( 56-C , 87-H ) :   0.9634 B( 56-C , 88-H ) :   0.9509 B( 57-C , 89-H ) :   0.9772
B( 57-C , 90-H ) :   0.9675 B( 57-C , 91-H ) :   0.9703 B( 58-C , 92-H ) :   0.9699
B( 58-C , 93-H ) :   0.9603 B( 58-C , 94-H ) :   0.9708 B( 59-C , 95-H ) :   0.9683
B( 59-C , 96-H ) :   0.9614 B( 59-C , 97-H ) :   0.9699 B( 61-C , 66-C ) :   1.0660
B( 61-C , 67-C ) :   1.0493 B( 66-C , 69-N ) :   2.9714 B( 67-C , 68-N ) :   2.9819

-----------------------------------------------------------------------------
         ABSORPTION SPECTRUM VIA TRANSITION ELECTRIC DIPOLE MOMENTS
-----------------------------------------------------------------------------
State   Energy    Wavelength  fosc         T2        TX        TY        TZ
        (cm-1)      (nm)                 (au**2)    (au)      (au)      (au)
-----------------------------------------------------------------------------
   1   14879.3    672.1   2.664045961  58.94327   6.21839  -4.27772   1.40572
   2   16747.8    597.1   0.018208928   0.35793  -0.07842   0.01809  -0.59284
   3   19015.9    525.9   0.268319857   4.64528  -1.80939   1.13863  -0.27373
   4   19532.8    512.0   0.453691981   7.64667  -2.05055   1.65077  -0.84669
   5   19904.5    502.4   0.350744436   5.80117  -1.98691   1.28322   0.45468
   6   21078.5    474.4   0.058428264   0.91255   0.61752  -0.72241  -0.09665
   7   22195.8    450.5   0.175468601   2.60258  -1.31853   0.88898  -0.27164
   8   22572.9    443.0   0.019776403   0.28843   0.14890   0.06137   0.51234
   9   23073.2    433.4   0.097129547   1.38586  -0.50644   0.16376  -1.05003
  10   24148.7    414.1   0.000345397   0.00471  -0.01146   0.03118   0.06004
  11   24678.3    405.2   0.092546837   1.23459   0.89414  -0.48932   0.44235
  12   25255.2    396.0   0.032709370   0.42638   0.62053  -0.19040  -0.07117
  13   25477.4    392.5   0.011981629   0.15482  -0.31462   0.22768   0.06323
  14   25665.5    389.6   0.007967214   0.10220  -0.06944   0.29275   0.10803
  15   26091.0    383.3   0.031873956   0.40218  -0.43444   0.41495  -0.20312
  16   26176.6    382.0   0.158211704   1.98976   1.20971  -0.72227  -0.06845
  17   26549.4    376.7   0.013883812   0.17216   0.25236  -0.03247   0.32775
  18   26771.6    373.5   0.020609413   0.25343   0.34484   0.02714  -0.36576
  19   26903.8    371.7   0.024603651   0.30107  -0.20646  -0.47678  -0.17642
  20   27402.7    364.9   0.004515179   0.05424  -0.22650   0.05405   0.00470
  21   27630.7    361.9   0.018912492   0.22534   0.16935   0.44224   0.03293
  22   27787.4    359.9   0.034626315   0.41024   0.33543  -0.50792   0.19935
  23   28078.3    356.1   0.161802174   1.89710  -1.08331   0.75652  -0.38887
  24   28176.7    354.9   0.022532371   0.26326  -0.46748   0.20599  -0.04792
  25   28920.8    345.8   0.013392947   0.15245   0.22771   0.29315  -0.12109
  26   29194.3    342.5   0.031702637   0.35750   0.17041   0.49165  -0.29452
  27   29486.5    339.1   0.059726292   0.66683  -0.45792   0.64471   0.20368
  28   30397.4    329.0   0.008922065   0.09663   0.15417  -0.02908   0.26836
  29   30431.6    328.6   0.038871197   0.42051   0.28149  -0.39369   0.43161
  30   30978.8    322.8   0.014895352   0.15829  -0.03183  -0.39646  -0.01006
  31   31093.4    321.6   0.009178013   0.09718   0.11964   0.28774   0.00826
  32   31199.0    320.5   0.007571677   0.07990  -0.12038   0.25389  -0.03071
  33   31503.2    317.4   0.020120040   0.21026   0.34359   0.13582  -0.27158
  34   31733.2    315.1   0.014512012   0.15055   0.25150  -0.26386  -0.13296
  35   31918.3    313.3   0.020286321   0.20924   0.22768   0.29671  -0.26336
  36   32324.4    309.4   0.008654939   0.08815  -0.20733   0.21016  -0.03153
  37   32525.3    307.5   0.133507783   1.35133  -0.27007  -0.64766   0.92679
  38   32818.3    304.7   0.096913876   0.97218  -0.67748   0.64221   0.31745
  39   32866.6    304.3   0.156371327   1.56631   0.12792   1.17532  -0.41056
  40   33117.7    302.0   0.388910144   3.86603  -0.54925  -0.96312   1.62381
  41   33561.8    298.0   0.068094842   0.66795  -0.52686   0.52967   0.33139
  42   33608.4    297.5   0.022148804   0.21696  -0.00707   0.44970  -0.12117
  43   33822.9    295.7   0.077392439   0.75329   0.77219  -0.28759  -0.27259
  44   34168.5    292.7   0.019120916   0.18423   0.25273  -0.25466   0.23559
  45   34299.1    291.6   0.076856399   0.73769  -0.49992   0.36565   0.59503
  46   34575.5    289.2   0.026515411   0.25247  -0.08761  -0.23190   0.43705
  47   34813.3    287.2   0.045539098   0.43064  -0.25677   0.36244   0.48306
  48   34844.6    287.0   0.044687400   0.42221  -0.13506   0.49922  -0.39338
  49   35473.2    281.9   0.065756396   0.61026   0.06808  -0.76853   0.12238
  50   35656.9    280.5   0.004269529   0.03942   0.09317  -0.12829  -0.11950

FINAL SINGLE POINT ENERGY     -3973.131334307539

DIPOLE MOMENT
-------------
                                X             Y             Z
Electronic contribution:     -9.23181      -6.29228     -11.64575
Nuclear contribution   :      8.14077       5.17742      13.72406
                        -----------------------------------------
Total Dipole Moment    :     -1.09103      -1.11485       2.07831
                        -----------------------------------------
Magnitude (a.u.)       :      2.59858
Magnitude (Debye)      :      6.60506

Rotational constants in cm-1:     0.002906     0.000233     0.000226
Rotational constants in MHz :    87.122068     6.991327     6.780976

                             ****ORCA TERMINATED NORMALLY****
TOTAL RUN TIME: 0 days 4 hours 14 minutes 13 seconds 959 msec
