                         Program Version 4.2.0 -  RELEASE  -
|  1> # ORCA input file
|  2> # N3.out
|  3> ! B3LYP def2-TZVP def2/J RIJCOSX Grid4 TightSCF
|  4>
|  5> %maxcore 6000
|  6> %tddft
|  7>   maxdim 5
|  8>   nroots 50
|  9>   end
| 10> %pal
| 11>   nprocs 6
| 12>   end
| 13>
| 14>
| 15> * xyz 0 1
| 16>    C        4.26621         0.50096         0.84590
| 17>    O        4.01263         1.10439         1.86897
| 18>    C        5.27765         0.88221        -0.16589
| 19>    C        6.06584         2.01517        -0.20129
| 20>    C        6.96650         2.13882        -1.24710
| 21>    F        7.74817         3.22284        -1.32385
| 22>    C        7.06817         1.14382        -2.21997
| 23>    F        7.95090         1.28728        -3.21481
| 24>    C        6.27931         0.00351        -2.18164
| 25>    C        5.37396        -0.12514        -1.14010
| 26>    C        4.41293        -1.17932        -0.81958
| 27>    C        4.14015        -2.27416        -1.59715
| 28>    C        3.12784        -3.22114        -1.33193
| 29>    N        2.30831        -4.01405        -1.19675
| 30>    C        4.82202        -2.58278        -2.79309
| 31>    N        5.34701        -2.88915        -3.76633
| 32>    C        3.74473        -0.80471         0.40978
| 33>    C        2.93176        -1.62848         1.14792
| 34>    C        2.11144        -1.33236         2.25105
| 35>    S        1.88607        -2.69888         3.35984
| 36>    C        0.88936        -1.74620         4.38753
| 37>    C        0.69399        -0.46741         3.84487
| 38>    C        1.36597        -0.21877         2.64281
| 39>    C        1.15346         1.05133         1.89315
| 40>    C        0.70562         0.83672         0.44889
| 41>    S       -0.35538         0.54195         4.81766
| 42>    C       -0.50017        -0.75130         5.95411
| 43>    C        0.21490        -1.90055         5.60093
| 44>    N        0.03239        -2.87319         6.54510
| 45>    C        0.58407        -4.18410         6.29264
| 46>    C        2.07394        -4.24613         6.63101
| 47>    C       -0.78259        -2.36337         7.54034
| 48>    C       -1.14880        -1.03458         7.16179
| 49>    C       -2.05139        -0.24925         7.91115
| 50>    N       -2.49059         0.97418         7.65968
| 51>    S       -3.54316         1.38708         8.81796
| 52>    N       -3.47668         0.02145         9.68450
| 53>    C       -2.62685        -0.80576         9.09601
| 54>    C       -2.21507        -2.09071         9.51103
| 55>    C       -1.27133        -2.87414         8.77720
| 56>    N       -1.01484        -4.01762         9.51288
| 57>    C       -0.09856        -5.12051         9.34170
| 58>    C       -0.80625        -6.36183         8.79772
| 59>    C       -1.77752        -3.97846        10.64691
| 60>    C       -2.53485        -2.80319        10.67276
| 61>    S       -3.50980        -2.63297        12.08845
| 62>    C       -2.87460        -4.15239        12.68314
| 63>    C       -1.97106        -4.75349        11.79327
| 64>    S       -1.41791        -6.26723        12.39711
| 65>    C       -2.34443        -6.04248        13.88293
| 66>    C       -3.09471        -4.87021        13.86549
| 67>    C       -4.14522        -4.48805        14.85746
| 68>    C       -3.89860        -3.10977        15.47083
| 69>    C       -2.29091        -7.10096        14.81525
| 70>    C       -2.31946        -6.98741        16.17961
| 71>    C       -2.47619        -8.06456        17.13099
| 72>    C       -2.91250        -9.33470        16.85622
| 73>    C       -3.06537       -10.34532        17.82803
| 74>    N       -3.19972       -11.20365        18.57798
| 75>    C       -3.28675        -9.78807        15.57358
| 76>    N       -3.62410       -10.21093        14.56071
| 77>    C       -2.17089        -7.53072        18.45738
| 78>    C       -2.15743        -8.13408        19.70528
| 79>    C       -1.82565        -7.35244        20.80198
| 80>    F       -1.80558        -7.91465        22.01534
| 81>    C       -1.50959        -5.99978        20.67002
| 82>    F       -1.19713        -5.28343        21.75641
| 83>    C       -1.51507        -5.39141        19.42512
| 84>    C       -1.85153        -6.16800        18.33426
| 85>    C       -1.91505        -5.76641        16.91059
| 86>    O       -1.57527        -4.69983        16.44818
| 87>    H        5.98737         2.78067         0.55427
| 88>    H        6.40029        -0.73955        -2.95285
| 89>    H        2.96130        -2.68444         0.89952
| 90>    H        2.08465         1.62571         1.90866
| 91>    H        0.39547         1.62957         2.42621
| 92>    H        1.46829         0.32498        -0.13204
| 93>    H        0.50671         1.79776        -0.01816
| 94>    H       -0.20551         0.24268         0.41805
| 95>    H        0.46273        -4.38348         5.22232
| 96>    H        0.01176        -4.93407         6.83041
| 97>    H        2.26876        -3.89944         7.64397
| 98>    H        2.63772        -3.61545         5.94904
| 99>    H        2.43345        -5.26612         6.53043
|100>    H        0.30729        -5.35683        10.33094
|101>    H        0.73226        -4.81621         8.71290
|102>    H       -1.51667        -6.73622         9.52996
|103>    H       -0.07932        -7.14309         8.59513
|104>    H       -1.35323        -6.14111         7.88312
|105>    H       -4.20316        -5.24111        15.64388
|106>    H       -5.10486        -4.47263        14.33028
|107>    H       -4.66449        -2.89749        16.21223
|108>    H       -3.93125        -2.33811        14.70653
|109>    H       -2.92548        -3.08465        15.95218
|110>    H       -2.16011        -8.08747        14.38506
|111>    H       -2.38630        -9.17598        19.85827
|112>    H       -1.26772        -4.34723        19.31865
|113> *
|114>
|115>                          ****END OF INPUT****

CARTESIAN COORDINATES (ANGSTROEM)
---------------------------------
  C      4.266210    0.500960    0.845900
  O      4.012630    1.104390    1.868970
  C      5.277650    0.882210   -0.165890
  C      6.065840    2.015170   -0.201290
  C      6.966500    2.138820   -1.247100
  F      7.748170    3.222840   -1.323850
  C      7.068170    1.143820   -2.219970
  F      7.950900    1.287280   -3.214810
  C      6.279310    0.003510   -2.181640
  C      5.373960   -0.125140   -1.140100
  C      4.412930   -1.179320   -0.819580
  C      4.140150   -2.274160   -1.597150
  C      3.127840   -3.221140   -1.331930
  N      2.308310   -4.014050   -1.196750
  C      4.822020   -2.582780   -2.793090
  N      5.347010   -2.889150   -3.766330
  C      3.744730   -0.804710    0.409780
  C      2.931760   -1.628480    1.147920
  C      2.111440   -1.332360    2.251050
  S      1.886070   -2.698880    3.359840
  C      0.889360   -1.746200    4.387530
  C      0.693990   -0.467410    3.844870
  C      1.365970   -0.218770    2.642810
  C      1.153460    1.051330    1.893150
  C      0.705620    0.836720    0.448890
  S     -0.355380    0.541950    4.817660
  C     -0.500170   -0.751300    5.954110
  C      0.214900   -1.900550    5.600930
  N      0.032390   -2.873190    6.545100
  C      0.584070   -4.184100    6.292640
  C      2.073940   -4.246130    6.631010
  C     -0.782590   -2.363370    7.540340
  C     -1.148800   -1.034580    7.161790
  C     -2.051390   -0.249250    7.911150
  N     -2.490590    0.974180    7.659680
  S     -3.543160    1.387080    8.817960
  N     -3.476680    0.021450    9.684500
  C     -2.626850   -0.805760    9.096010
  C     -2.215070   -2.090710    9.511030
  C     -1.271330   -2.874140    8.777200
  N     -1.014840   -4.017620    9.512880
  C     -0.098560   -5.120510    9.341700
  C     -0.806250   -6.361830    8.797720
  C     -1.777520   -3.978460   10.646910
  C     -2.534850   -2.803190   10.672760
  S     -3.509800   -2.632970   12.088450
  C     -2.874600   -4.152390   12.683140
  C     -1.971060   -4.753490   11.793270
  S     -1.417910   -6.267230   12.397110
  C     -2.344430   -6.042480   13.882930
  C     -3.094710   -4.870210   13.865490
  C     -4.145220   -4.488050   14.857460
  C     -3.898600   -3.109770   15.470830
  C     -2.290910   -7.100960   14.815250
  C     -2.319460   -6.987410   16.179610
  C     -2.476190   -8.064560   17.130990
  C     -2.912500   -9.334700   16.856220
  C     -3.065370  -10.345320   17.828030
  N     -3.199720  -11.203650   18.577980
  C     -3.286750   -9.788070   15.573580
  N     -3.624100  -10.210930   14.560710
  C     -2.170890   -7.530720   18.457380
  C     -2.157430   -8.134080   19.705280
  C     -1.825650   -7.352440   20.801980
  F     -1.805580   -7.914650   22.015340
  C     -1.509590   -5.999780   20.670020
  F     -1.197130   -5.283430   21.756410
  C     -1.515070   -5.391410   19.425120
  C     -1.851530   -6.168000   18.334260
  C     -1.915050   -5.766410   16.910590
  O     -1.575270   -4.699830   16.448180
  H      5.987370    2.780670    0.554270
  H      6.400290   -0.739550   -2.952850
  H      2.961300   -2.684440    0.899520
  H      2.084650    1.625710    1.908660
  H      0.395470    1.629570    2.426210
  H      1.468290    0.324980   -0.132040
  H      0.506710    1.797760   -0.018160
  H     -0.205510    0.242680    0.418050
  H      0.462730   -4.383480    5.222320
  H      0.011760   -4.934070    6.830410
  H      2.268760   -3.899440    7.643970
  H      2.637720   -3.615450    5.949040
  H      2.433450   -5.266120    6.530430
  H      0.307290   -5.356830   10.330940
  H      0.732260   -4.816210    8.712900
  H     -1.516670   -6.736220    9.529960
  H     -0.079320   -7.143090    8.595130
  H     -1.353230   -6.141110    7.883120
  H     -4.203160   -5.241110   15.643880
  H     -5.104860   -4.472630   14.330280
  H     -4.664490   -2.897490   16.212230
  H     -3.931250   -2.338110   14.706530
  H     -2.925480   -3.084650   15.952180
  H     -2.160110   -8.087470   14.385060
  H     -2.386300   -9.175980   19.858270
  H     -1.267720   -4.347230   19.318650

 Total Charge           Charge          ....    0
 Multiplicity           Mult            ....    1
 Number of Electrons    NEL             ....  526
 Basis Dimension        Dim             .... 2387

ORBITAL ENERGIES
----------------

  NO   OCC          E(Eh)            E(eV)
   0   2.0000     -88.948728     -2420.4179
   1   2.0000     -88.915059     -2419.5018
   2   2.0000     -88.914565     -2419.4883
   3   2.0000     -88.911112     -2419.3944
   4   2.0000     -88.911005     -2419.3915
   5   2.0000     -24.728483      -672.8962
   6   2.0000     -24.727004      -672.8560
   7   2.0000     -24.726606      -672.8451
   8   2.0000     -24.724921      -672.7993
   9   2.0000     -19.137653      -520.7620
  10   2.0000     -19.136326      -520.7259
  11   2.0000     -14.412720      -392.1900
  12   2.0000     -14.412645      -392.1880
  13   2.0000     -14.355460      -390.6319
  14   2.0000     -14.355415      -390.6307
  15   2.0000     -14.331718      -389.9859
  16   2.0000     -14.331133      -389.9700
  17   2.0000     -14.330849      -389.9622
  18   2.0000     -14.329734      -389.9319
  19   2.0000     -10.303703      -280.3780
  20   2.0000     -10.303162      -280.3633
  21   2.0000     -10.301560      -280.3197
  22   2.0000     -10.300921      -280.3023
  23   2.0000     -10.283897      -279.8391
  24   2.0000     -10.281275      -279.7677
  25   2.0000     -10.267905      -279.4039
  26   2.0000     -10.267139      -279.3831
  27   2.0000     -10.260044      -279.1900
  28   2.0000     -10.259098      -279.1642
  29   2.0000     -10.258023      -279.1350
  30   2.0000     -10.257523      -279.1214
  31   2.0000     -10.257423      -279.1187
  32   2.0000     -10.256335      -279.0891
  33   2.0000     -10.247405      -278.8461
  34   2.0000     -10.246852      -278.8310
  35   2.0000     -10.246849      -278.8309
  36   2.0000     -10.246258      -278.8149
  37   2.0000     -10.240505      -278.6583
  38   2.0000     -10.239924      -278.6425
  39   2.0000     -10.239496      -278.6309
  40   2.0000     -10.238699      -278.6092
  41   2.0000     -10.235035      -278.5095
  42   2.0000     -10.234314      -278.4898
  43   2.0000     -10.233769      -278.4750
  44   2.0000     -10.233755      -278.4746
  45   2.0000     -10.233577      -278.4698
  46   2.0000     -10.231488      -278.4129
  47   2.0000     -10.231318      -278.4083
  48   2.0000     -10.230247      -278.3792
  49   2.0000     -10.230240      -278.3790
  50   2.0000     -10.229810      -278.3673
  51   2.0000     -10.229106      -278.3481
  52   2.0000     -10.228123      -278.3214
  53   2.0000     -10.228055      -278.3195
  54   2.0000     -10.227805      -278.3127
  55   2.0000     -10.224130      -278.2127
  56   2.0000     -10.222912      -278.1796
  57   2.0000     -10.221911      -278.1523
  58   2.0000     -10.221070      -278.1294
  59   2.0000     -10.220471      -278.1132
  60   2.0000     -10.218192      -278.0511
  61   2.0000     -10.217775      -278.0398
  62   2.0000     -10.217680      -278.0372
  63   2.0000     -10.217409      -278.0298
  64   2.0000     -10.215854      -277.9875
  65   2.0000     -10.203857      -277.6611
  66   2.0000     -10.203753      -277.6582
  67   2.0000     -10.195836      -277.4428
  68   2.0000     -10.188891      -277.2538
  69   2.0000     -10.174148      -276.8526
  70   2.0000     -10.167558      -276.6733
  71   2.0000      -8.019764      -218.2289
  72   2.0000      -7.991508      -217.4600
  73   2.0000      -7.991041      -217.4473
  74   2.0000      -7.986638      -217.3275
  75   2.0000      -7.986554      -217.3252
  76   2.0000      -5.984456      -162.8453
  77   2.0000      -5.977117      -162.6456
  78   2.0000      -5.976511      -162.6291
  79   2.0000      -5.954236      -162.0230
  80   2.0000      -5.953750      -162.0098
  81   2.0000      -5.950418      -161.9191
  82   2.0000      -5.949970      -161.9069
  83   2.0000      -5.949658      -161.8984
  84   2.0000      -5.949551      -161.8955
  85   2.0000      -5.947679      -161.8446
  86   2.0000      -5.947196      -161.8314
  87   2.0000      -5.945840      -161.7945
  88   2.0000      -5.945733      -161.7916
  89   2.0000      -5.942372      -161.7002
  90   2.0000      -5.942310      -161.6985
  91   2.0000      -1.271119       -34.5889
  92   2.0000      -1.269081       -34.5335
  93   2.0000      -1.257724       -34.2244
  94   2.0000      -1.255703       -34.1694
  95   2.0000      -1.070090       -29.1186
  96   2.0000      -1.067300       -29.0427
  97   2.0000      -1.050389       -28.5825
  98   2.0000      -1.038748       -28.2658
  99   2.0000      -1.035109       -28.1668
 100   2.0000      -0.948368       -25.8064
 101   2.0000      -0.947493       -25.7826
 102   2.0000      -0.940316       -25.5873
 103   2.0000      -0.939130       -25.5550
 104   2.0000      -0.930096       -25.3092
 105   2.0000      -0.928743       -25.2724
 106   2.0000      -0.926994       -25.2248
 107   2.0000      -0.926106       -25.2006
 108   2.0000      -0.905941       -24.6519
 109   2.0000      -0.898028       -24.4366
 110   2.0000      -0.888516       -24.1777
 111   2.0000      -0.885537       -24.0967
 112   2.0000      -0.879233       -23.9252
 113   2.0000      -0.872278       -23.7359
 114   2.0000      -0.844321       -22.9751
 115   2.0000      -0.832513       -22.6538
 116   2.0000      -0.830057       -22.5870
 117   2.0000      -0.826098       -22.4793
 118   2.0000      -0.823915       -22.4199
 119   2.0000      -0.822448       -22.3800
 120   2.0000      -0.812210       -22.1013
 121   2.0000      -0.808422       -21.9983
 122   2.0000      -0.804166       -21.8825
 123   2.0000      -0.802198       -21.8289
 124   2.0000      -0.788507       -21.4564
 125   2.0000      -0.781957       -21.2781
 126   2.0000      -0.764717       -20.8090
 127   2.0000      -0.763294       -20.7703
 128   2.0000      -0.756310       -20.5803
 129   2.0000      -0.745029       -20.2733
 130   2.0000      -0.734550       -19.9881
 131   2.0000      -0.729896       -19.8615
 132   2.0000      -0.721846       -19.6424
 133   2.0000      -0.705242       -19.1906
 134   2.0000      -0.703907       -19.1543
 135   2.0000      -0.697981       -18.9930
 136   2.0000      -0.695446       -18.9241
 137   2.0000      -0.687711       -18.7136
 138   2.0000      -0.674656       -18.3583
 139   2.0000      -0.662701       -18.0330
 140   2.0000      -0.659088       -17.9347
 141   2.0000      -0.650392       -17.6981
 142   2.0000      -0.645358       -17.5611
 143   2.0000      -0.641680       -17.4610
 144   2.0000      -0.639743       -17.4083
 145   2.0000      -0.637343       -17.3430
 146   2.0000      -0.632921       -17.2227
 147   2.0000      -0.622558       -16.9407
 148   2.0000      -0.611903       -16.6507
 149   2.0000      -0.603557       -16.4236
 150   2.0000      -0.598546       -16.2873
 151   2.0000      -0.597641       -16.2627
 152   2.0000      -0.597036       -16.2462
 153   2.0000      -0.588248       -16.0071
 154   2.0000      -0.577888       -15.7251
 155   2.0000      -0.577264       -15.7082
 156   2.0000      -0.576108       -15.6767
 157   2.0000      -0.569915       -15.5082
 158   2.0000      -0.568525       -15.4703
 159   2.0000      -0.556087       -15.1319
 160   2.0000      -0.550813       -14.9884
 161   2.0000      -0.546404       -14.8684
 162   2.0000      -0.543282       -14.7835
 163   2.0000      -0.532708       -14.4957
 164   2.0000      -0.528495       -14.3811
 165   2.0000      -0.526655       -14.3310
 166   2.0000      -0.525156       -14.2902
 167   2.0000      -0.523216       -14.2374
 168   2.0000      -0.521337       -14.1863
 169   2.0000      -0.521136       -14.1808
 170   2.0000      -0.519385       -14.1332
 171   2.0000      -0.509524       -13.8649
 172   2.0000      -0.508656       -13.8412
 173   2.0000      -0.505760       -13.7624
 174   2.0000      -0.495677       -13.4881
 175   2.0000      -0.489635       -13.3236
 176   2.0000      -0.488350       -13.2887
 177   2.0000      -0.487835       -13.2747
 178   2.0000      -0.486446       -13.2369
 179   2.0000      -0.485930       -13.2228
 180   2.0000      -0.483520       -13.1572
 181   2.0000      -0.482027       -13.1166
 182   2.0000      -0.479458       -13.0467
 183   2.0000      -0.476363       -12.9625
 184   2.0000      -0.473203       -12.8765
 185   2.0000      -0.469961       -12.7883
 186   2.0000      -0.467633       -12.7249
 187   2.0000      -0.467238       -12.7142
 188   2.0000      -0.467033       -12.7086
 189   2.0000      -0.465545       -12.6681
 190   2.0000      -0.463362       -12.6087
 191   2.0000      -0.460826       -12.5397
 192   2.0000      -0.460431       -12.5290
 193   2.0000      -0.451458       -12.2848
 194   2.0000      -0.449522       -12.2321
 195   2.0000      -0.447497       -12.1770
 196   2.0000      -0.444436       -12.0937
 197   2.0000      -0.438437       -11.9305
 198   2.0000      -0.435679       -11.8554
 199   2.0000      -0.433833       -11.8052
 200   2.0000      -0.432854       -11.7785
 201   2.0000      -0.432226       -11.7615
 202   2.0000      -0.431243       -11.7347
 203   2.0000      -0.428410       -11.6576
 204   2.0000      -0.427388       -11.6298
 205   2.0000      -0.427042       -11.6204
 206   2.0000      -0.422058       -11.4848
 207   2.0000      -0.421735       -11.4760
 208   2.0000      -0.420861       -11.4522
 209   2.0000      -0.417302       -11.3554
 210   2.0000      -0.415057       -11.2943
 211   2.0000      -0.410591       -11.1727
 212   2.0000      -0.407840       -11.0979
 213   2.0000      -0.406552       -11.0629
 214   2.0000      -0.400204       -10.8901
 215   2.0000      -0.398118       -10.8333
 216   2.0000      -0.396921       -10.8008
 217   2.0000      -0.395725       -10.7682
 218   2.0000      -0.395509       -10.7623
 219   2.0000      -0.393407       -10.7052
 220   2.0000      -0.392518       -10.6810
 221   2.0000      -0.389296       -10.5933
 222   2.0000      -0.388576       -10.5737
 223   2.0000      -0.385951       -10.5022
 224   2.0000      -0.383407       -10.4330
 225   2.0000      -0.382988       -10.4216
 226   2.0000      -0.382095       -10.3973
 227   2.0000      -0.377183       -10.2637
 228   2.0000      -0.375932       -10.2296
 229   2.0000      -0.368794       -10.0354
 230   2.0000      -0.367814       -10.0087
 231   2.0000      -0.366009        -9.9596
 232   2.0000      -0.365428        -9.9438
 233   2.0000      -0.365332        -9.9412
 234   2.0000      -0.364131        -9.9085
 235   2.0000      -0.362667        -9.8687
 236   2.0000      -0.358836        -9.7644
 237   2.0000      -0.357578        -9.7302
 238   2.0000      -0.353959        -9.6317
 239   2.0000      -0.353130        -9.6091
 240   2.0000      -0.349802        -9.5186
 241   2.0000      -0.349712        -9.5161
 242   2.0000      -0.346813        -9.4373
 243   2.0000      -0.342414        -9.3176
 244   2.0000      -0.341645        -9.2966
 245   2.0000      -0.337396        -9.1810
 246   2.0000      -0.312825        -8.5124
 247   2.0000      -0.310603        -8.4519
 248   2.0000      -0.309689        -8.4271
 249   2.0000      -0.301943        -8.2163
 250   2.0000      -0.298838        -8.1318
 251   2.0000      -0.292943        -7.9714
 252   2.0000      -0.289039        -7.8652
 253   2.0000      -0.285578        -7.7710
 254   2.0000      -0.283281        -7.7085
 255   2.0000      -0.273950        -7.4546
 256   2.0000      -0.270897        -7.3715
 257   2.0000      -0.268274        -7.3001
 258   2.0000      -0.261529        -7.1166
 259   2.0000      -0.247006        -6.7214
 260   2.0000      -0.239759        -6.5242
 261   2.0000      -0.235561        -6.4100
 262   2.0000      -0.209259        -5.6942
 263   0.0000      -0.136648        -3.7184
 264   0.0000      -0.127790        -3.4773
 265   0.0000      -0.113151        -3.0790
 266   0.0000      -0.109952        -2.9920
 267   0.0000      -0.091708        -2.4955

MULLIKEN ATOMIC CHARGES
-----------------------
   0 C :    0.201582
   1 O :   -0.330518
   2 C :    0.087780
   3 C :   -0.295884
   4 C :    0.282132
   5 F :   -0.179597
   6 C :    0.255688
   7 F :   -0.175621
   8 C :   -0.262924
   9 C :    0.062066
  10 C :    0.080149
  11 C :    0.136319
  12 C :   -0.234809
  13 N :    0.054308
  14 C :   -0.225695
  15 N :    0.043668
  16 C :   -0.131538
  17 C :   -0.209017
  18 C :    0.138636
  19 S :   -0.030607
  20 C :   -0.242016
  21 C :    0.034760
  22 C :    0.027289
  23 C :   -0.224475
  24 C :   -0.349405
  25 S :    0.032281
  26 C :   -0.175069
  27 C :    0.419004
  28 N :   -0.034148
  29 C :   -0.219593
  30 C :   -0.311838
  31 C :   -0.042592
  32 C :    0.138439
  33 C :   -0.018043
  34 N :   -0.256423
  35 S :    0.351386
  36 N :   -0.254309
  37 C :   -0.021154
  38 C :    0.120668
  39 C :    0.042746
  40 N :   -0.032790
  41 C :   -0.216127
  42 C :   -0.308900
  43 C :    0.428575
  44 C :   -0.181431
  45 S :    0.023121
  46 C :    0.008298
  47 C :   -0.226731
  48 S :   -0.028041
  49 C :    0.111697
  50 C :    0.064501
  51 C :   -0.163459
  52 C :   -0.371714
  53 C :   -0.234583
  54 C :   -0.050218
  55 C :    0.027309
  56 C :    0.138953
  57 C :   -0.223037
  58 N :    0.043226
  59 C :   -0.237967
  60 N :    0.053284
  61 C :    0.057986
  62 C :   -0.259243
  63 C :    0.255598
  64 F :   -0.175049
  65 C :    0.282510
  66 F :   -0.179368
  67 C :   -0.297183
  68 C :    0.099960
  69 C :    0.177185
  70 O :   -0.326139
  71 H :    0.147961
  72 H :    0.165966
  73 H :    0.159911
  74 H :    0.161946
  75 H :    0.093346
  76 H :    0.128167
  77 H :    0.116719
  78 H :    0.113860
  79 H :    0.135997
  80 H :    0.127565
  81 H :    0.119896
  82 H :    0.136853
  83 H :    0.126141
  84 H :    0.133746
  85 H :    0.123034
  86 H :    0.135618
  87 H :    0.126571
  88 H :    0.120261
  89 H :    0.112843
  90 H :    0.111529
  91 H :    0.107675
  92 H :    0.113222
  93 H :    0.158276
  94 H :    0.164732
  95 H :    0.165919
  96 H :    0.148394
Sum of atomic charges:   -0.0000000

LOEWDIN ATOMIC CHARGES
----------------------
   0 C :   -0.259480
   1 O :    0.135608
   2 C :   -0.058385
   3 C :   -0.046874
   4 C :   -0.224247
   5 F :    0.213589
   6 C :   -0.223688
   7 F :    0.216855
   8 C :   -0.048275
   9 C :   -0.045060
  10 C :    0.007177
  11 C :   -0.134574
  12 C :   -0.168658
  13 N :    0.084317
  14 C :   -0.162578
  15 N :    0.085238
  16 C :   -0.094564
  17 C :   -0.070442
  18 C :   -0.290621
  19 S :    0.754808
  20 C :   -0.342523
  21 C :   -0.317344
  22 C :   -0.120845
  23 C :   -0.231564
  24 C :   -0.283514
  25 S :    0.763226
  26 C :   -0.287521
  27 C :   -0.186445
  28 N :    0.299050
  29 C :   -0.266256
  30 C :   -0.298360
  31 C :   -0.087112
  32 C :   -0.091115
  33 C :   -0.246654
  34 N :   -0.126338
  35 S :    0.660600
  36 N :   -0.126336
  37 C :   -0.246711
  38 C :   -0.091035
  39 C :   -0.087883
  40 N :    0.299891
  41 C :   -0.266791
  42 C :   -0.296600
  43 C :   -0.186849
  44 C :   -0.288929
  45 S :    0.766749
  46 C :   -0.313000
  47 C :   -0.341214
  48 S :    0.753887
  49 C :   -0.300252
  50 C :   -0.122924
  51 C :   -0.225938
  52 C :   -0.294375
  53 C :   -0.061410
  54 C :   -0.092309
  55 C :    0.006456
  56 C :   -0.134326
  57 C :   -0.162485
  58 N :    0.085342
  59 C :   -0.165934
  60 N :    0.084631
  61 C :   -0.044149
  62 C :   -0.047706
  63 C :   -0.222804
  64 F :    0.218042
  65 C :   -0.224145
  66 F :    0.214501
  67 C :   -0.046185
  68 C :   -0.058659
  69 C :   -0.259049
  70 O :    0.148478
  71 H :    0.163944
  72 H :    0.169326
  73 H :    0.171263
  74 H :    0.159103
  75 H :    0.139794
  76 H :    0.122693
  77 H :    0.121191
  78 H :    0.122470
  79 H :    0.143245
  80 H :    0.138136
  81 H :    0.118815
  82 H :    0.120518
  83 H :    0.126434
  84 H :    0.142338
  85 H :    0.137775
  86 H :    0.121770
  87 H :    0.126570
  88 H :    0.119041
  89 H :    0.147965
  90 H :    0.149577
  91 H :    0.119151
  92 H :    0.110897
  93 H :    0.127939
  94 H :    0.169140
  95 H :    0.169428
  96 H :    0.164071

  Mayer bond orders larger than 0.100000
B(  0-C ,  1-O ) :   2.0778 B(  0-C ,  2-C ) :   0.9606 B(  0-C , 16-C ) :   1.0254
B(  1-O ,  2-C ) :  -0.1556 B(  2-C ,  3-C ) :   1.3133 B(  2-C ,  9-C ) :   1.3353
B(  3-C ,  4-C ) :   1.3514 B(  3-C , 71-H ) :   0.9834 B(  4-C ,  5-F ) :   1.0645
B(  4-C ,  6-C ) :   1.3453 B(  6-C ,  7-F ) :   1.0831 B(  6-C ,  8-C ) :   1.3891
B(  8-C ,  9-C ) :   1.3315 B(  8-C , 72-H ) :   0.9290 B(  9-C , 10-C ) :   1.0363
B( 10-C , 11-C ) :   1.4579 B( 10-C , 16-C ) :   1.0973 B( 11-C , 12-C ) :   1.0255
B( 11-C , 14-C ) :   1.0332 B( 12-C , 13-N ) :   3.0058 B( 14-C , 15-N ) :   2.9815
B( 16-C , 17-C ) :   1.4524 B( 17-C , 18-C ) :   1.2382 B( 17-C , 73-H ) :   0.9184
B( 18-C , 19-S ) :   1.1790 B( 18-C , 22-C ) :   1.3842 B( 19-S , 20-C ) :   1.3812
B( 19-S , 27-C ) :  -0.1861 B( 20-C , 21-C ) :   1.3687 B( 20-C , 25-S ) :   0.1288
B( 20-C , 27-C ) :   1.0263 B( 21-C , 22-C ) :   1.2378 B( 21-C , 25-S ) :   1.1971
B( 22-C , 23-C ) :   0.9517 B( 23-C , 24-C ) :   0.9468 B( 23-C , 74-H ) :   0.9493
B( 23-C , 75-H ) :   0.9645 B( 24-C , 76-H ) :   0.9762 B( 24-C , 77-H ) :   0.9766
B( 24-C , 78-H ) :   0.9715 B( 25-S , 26-C ) :   1.3727 B( 26-C , 27-C ) :   1.2483
B( 26-C , 32-C ) :   1.1731 B( 27-C , 28-N ) :   1.1259 B( 28-N , 29-C ) :   0.8822
B( 28-N , 31-C ) :   1.2468 B( 29-C , 30-C ) :   0.9487 B( 29-C , 79-H ) :   0.9634
B( 29-C , 80-H ) :   0.9561 B( 30-C , 81-H ) :   0.9630 B( 30-C , 82-H ) :   0.9602
B( 30-C , 83-H ) :   0.9734 B( 31-C , 32-C ) :   1.2316 B( 31-C , 39-C ) :   1.3131
B( 32-C , 33-C ) :   1.1083 B( 33-C , 34-N ) :   1.5834 B( 33-C , 35-S ) :   0.1178
B( 33-C , 37-C ) :   1.1995 B( 34-N , 35-S ) :   1.2876 B( 34-N , 36-N ) :   0.1021
B( 35-S , 36-N ) :   1.2872 B( 35-S , 37-C ) :   0.1182 B( 36-N , 37-C ) :   1.5847
B( 37-C , 38-C ) :   1.1110 B( 38-C , 39-C ) :   1.2275 B( 38-C , 44-C ) :   1.1764
B( 39-C , 40-N ) :   1.2464 B( 40-N , 41-C ) :   0.8837 B( 40-N , 43-C ) :   1.1227
B( 41-C , 42-C ) :   0.9497 B( 41-C , 84-H ) :   0.9624 B( 41-C , 85-H ) :   0.9574
B( 42-C , 86-H ) :   0.9619 B( 42-C , 87-H ) :   0.9738 B( 42-C , 88-H ) :   0.9631
B( 43-C , 44-C ) :   1.2467 B( 43-C , 47-C ) :   1.0127 B( 43-C , 48-S ) :  -0.1970
B( 44-C , 45-S ) :   1.3810 B( 45-S , 46-C ) :   1.1664 B( 45-S , 47-C ) :   0.1234
B( 46-C , 47-C ) :   1.3844 B( 46-C , 50-C ) :   1.2376 B( 47-C , 48-S ) :   1.3693
B( 48-S , 49-C ) :   1.1990 B( 49-C , 50-C ) :   1.3955 B( 49-C , 53-C ) :   1.1993
B( 50-C , 51-C ) :   0.9621 B( 51-C , 52-C ) :   0.9529 B( 51-C , 89-H ) :   0.9740
B( 51-C , 90-H ) :   0.9444 B( 52-C , 91-H ) :   0.9719 B( 52-C , 92-H ) :   0.9672
B( 52-C , 93-H ) :   0.9698 B( 53-C , 54-C ) :   1.4920 B( 53-C , 94-H ) :   0.9069
B( 54-C , 55-C ) :   1.1386 B( 54-C , 69-C ) :   1.0321 B( 55-C , 56-C ) :   1.4570
B( 55-C , 61-C ) :   1.0373 B( 56-C , 57-C ) :   1.0316 B( 56-C , 59-C ) :   1.0340
B( 57-C , 58-N ) :   2.9793 B( 59-C , 60-N ) :   3.0046 B( 61-C , 62-C ) :   1.3240
B( 61-C , 68-C ) :   1.3307 B( 62-C , 63-C ) :   1.3902 B( 62-C , 95-H ) :   0.9300
B( 63-C , 64-F ) :   1.0836 B( 63-C , 65-C ) :   1.3432 B( 65-C , 66-F ) :   1.0633
B( 65-C , 67-C ) :   1.3569 B( 67-C , 68-C ) :   1.3108 B( 67-C , 96-H ) :   0.9819
B( 68-C , 69-C ) :   0.9531 B( 68-C , 70-O ) :  -0.1491 B( 69-C , 70-O ) :   2.0639

-----------------------------------------------------------------------------
         ABSORPTION SPECTRUM VIA TRANSITION ELECTRIC DIPOLE MOMENTS
-----------------------------------------------------------------------------
State   Energy    Wavelength  fosc         T2        TX        TY        TZ
        (cm-1)      (nm)                 (au**2)    (au)      (au)      (au)
-----------------------------------------------------------------------------
   1   14831.3    674.2   2.658229557  59.00496   2.49697   2.67009  -6.75579
   2   16819.6    594.5   0.094417316   1.84804  -0.90303   0.84827   0.55948
   3   18576.2    538.3   0.250991017   4.44813   0.46230   0.80059  -1.89564
   4   19080.7    524.1   0.028905543   0.49873  -0.44853   0.46492   0.28530
   5   19389.2    515.8   0.075996597   1.29036   0.73360   0.47591  -0.72505
   6   20459.7    488.8   0.092213459   1.48378   0.36899   0.47866  -1.05760
   7   21673.4    461.4   0.105545875   1.60321  -0.82486   0.95383  -0.11413
   8   21902.3    456.6   0.174106922   2.61699  -1.22217   0.99309   0.37021
   9   22191.3    450.6   0.169065521   2.50811  -0.71623  -0.32642   1.37426
  10   23181.1    431.4   0.031118029   0.44193  -0.36217   0.01650   0.55722
  11   23268.2    429.8   0.017940387   0.25383  -0.34337   0.35654   0.09384
  12   24293.4    411.6   0.004725600   0.06404   0.16237   0.04137  -0.18964
  13   24380.8    410.2   0.009936728   0.13418  -0.10026   0.33929   0.09490
  14   24849.8    402.4   0.005331748   0.07064  -0.01459  -0.22918   0.13379
  15   25019.5    399.7   0.006997872   0.09208   0.13794  -0.25069   0.10104
  16   25524.7    391.8   0.006985572   0.09010  -0.08167  -0.07863   0.27793
  17   26454.2    378.0   0.006781166   0.08439  -0.17620  -0.22600  -0.04760
  18   26646.0    375.3   0.023647311   0.29216   0.39942  -0.31803  -0.17745
  19   26867.8    372.2   0.004554699   0.05581  -0.01864  -0.20214  -0.12083
  20   27073.5    369.4   0.020280354   0.24661   0.17982   0.15944  -0.43457
  21   27259.9    366.8   0.073081078   0.88258  -0.83237  -0.41260  -0.13969
  22   27456.6    364.2   0.022671828   0.27184   0.50334  -0.09997   0.09218
  23   27690.5    361.1   0.095945146   1.14069  -0.66835   0.50704   0.66099
  24   27978.7    357.4   0.201685560   2.37314  -0.35557  -0.68068   1.33543
  25   28024.2    356.8   0.115549190   1.35741  -0.19584  -0.19692   1.13149
  26   28142.5    355.3   0.099370367   1.16244   0.31850   0.37600  -0.95897
  27   28451.4    351.5   0.112189313   1.29815   0.12066   0.97910  -0.57004
  28   29145.0    343.1   0.077384134   0.87410  -0.65646   0.63871   0.18765
  29   29278.8    341.5   0.005404516   0.06077  -0.07946  -0.22777   0.05075
  30   29562.4    338.3   0.027299014   0.30401   0.32414  -0.23509  -0.37904
  31   29666.3    337.1   0.011859108   0.13160   0.04452  -0.16645   0.31924
  32   29890.0    334.6   0.025707589   0.28315   0.41394  -0.32223   0.08927
  33   30260.7    330.5   0.030698246   0.33397   0.00578   0.42442  -0.39218
  34   30627.5    326.5   0.103565045   1.11321  -0.31661  -0.34606   0.94510
  35   30711.4    325.6   0.063657570   0.68238   0.61059  -0.51872  -0.20123
  36   31123.9    321.3   0.002384886   0.02523   0.04401   0.10754   0.10827
  37   31371.0    318.8   0.002413140   0.02532   0.01814   0.14658   0.05923
  38   31660.9    315.8   0.023197908   0.24121   0.38810   0.29991   0.02531
  39   31771.2    314.8   0.008423734   0.08729   0.28891   0.05962   0.01614
  40   31871.9    313.8   0.013619273   0.14068   0.23188  -0.12333  -0.26776
  41   32060.3    311.9   0.032688859   0.33567  -0.25907  -0.12653  -0.50253
  42   32248.6    310.1   0.049730261   0.50767   0.32111   0.24080  -0.58871
  43   32422.5    308.4   0.019750449   0.20054   0.12751   0.38023  -0.19926
  44   32860.1    304.3   0.051264720   0.51360  -0.06884   0.63501   0.32501
  45   33243.0    300.8   0.011728147   0.11615  -0.14264  -0.28630  -0.11762
  46   33316.1    300.2   0.316504442   3.12753  -0.65997  -1.54510  -0.55194
  47   33398.1    299.4   0.443730701   4.37395   0.60478   1.75957   0.95503
  48   33587.9    297.7   0.037138846   0.36402   0.35361   0.36783   0.32199
  49   34040.8    293.8   0.000395270   0.00382  -0.04724  -0.02662  -0.02970
  50   34095.5    293.3   0.089507856   0.86425  -0.45806  -0.72969  -0.34925

FINAL SINGLE POINT ENERGY     -4975.060341673362

DIPOLE MOMENT
-------------
                                X             Y             Z
Electronic contribution:     14.89356      12.19708      13.06741
Nuclear contribution   :    -14.64816     -10.41345     -12.13528
                        -----------------------------------------
Total Dipole Moment    :      0.24541       1.78363       0.93213
                        -----------------------------------------
Magnitude (a.u.)       :      2.02742
Magnitude (Debye)      :      5.15329

Rotational constants in cm-1:     0.002129     0.000231     0.000223
Rotational constants in MHz :    63.834462     6.910959     6.679320

                             ****ORCA TERMINATED NORMALLY****
TOTAL RUN TIME: 0 days 4 hours 54 minutes 14 seconds 406 msec
