                         Program Version 4.2.0 -  RELEASE  -
|  1> # ORCA input file
|  2> # NITV.out: Geometry 179
|  3> ! B3LYP def2-TZVP def2/J RIJCOSX Grid4 TightSCF
|  4>
|  5> %maxcore 6000
|  6> %tddft
|  7>   maxdim 5
|  8>   nroots 50
|  9>   end
| 10> %pal
| 11>   nprocs 6
| 12>   end
| 13>
| 14>
| 15> * xyz 0 1
| 16>    C       -0.46756        -1.96794        -0.02366
| 17>    C        5.00748         4.57405        -0.02868
| 18>    C       -0.96698        -3.30325        -0.03489
| 19>    C       -0.41830        -4.54903        -0.11183
| 20>    C        5.40157         5.94811        -0.03005
| 21>    C        4.69935         7.12218        -0.05316
| 22>    C        0.93275        -5.12255        -0.17111
| 23>    C        0.76407        -6.53176        -0.33938
| 24>    C       -0.57862        -6.94534        -0.37557
| 25>    C       -1.40415        -5.70826        -0.21113
| 26>    C        5.28670         8.46885        -0.13839
| 27>    C        4.20422         9.38911        -0.18122
| 28>    C        2.94614         8.76990        -0.11676
| 29>    C        3.20000         7.29479        -0.03683
| 30>    C        2.24484        -4.65875        -0.09499
| 31>    C        3.32927        -5.56996        -0.19530
| 32>    C        3.14368        -6.93520        -0.38752
| 33>    C        1.82313        -7.43506        -0.46463
| 34>    C        1.50929        -8.79765        -0.66661
| 35>    C        0.17649        -9.20919        -0.70126
| 36>    C       -0.88630        -8.28481        -0.54955
| 37>    C        4.27117        -7.88494        -0.51191
| 38>    N        3.92748        -9.23011        -0.76631
| 39>    C        2.62421        -9.75689        -0.86942
| 40>    C        5.04886       -10.16368        -0.94028
| 41>    C        5.66587       -10.66430         0.37637
| 42>    C        4.63102       -11.33385         1.28394
| 43>    C        6.82550       -11.60682         0.04348
| 44>    C        1.79774         9.54379        -0.16090
| 45>    C        1.93539        10.95005        -0.28233
| 46>    C        3.18872        11.55817        -0.36375
| 47>    C        4.35961        10.77000        -0.31062
| 48>    C        5.67168        11.28760        -0.40498
| 49>    C        6.74683        10.40100        -0.34836
| 50>    C        6.57178         8.99709        -0.21420
| 51>    C        5.84529        12.74442        -0.60116
| 52>    N        4.65480        13.51320        -0.63395
| 53>    C        3.33881        13.02419        -0.53778
| 54>    C        4.77844        14.96203        -0.85352
| 55>    C        4.51787        15.81376         0.39835
| 56>    C        5.54505        15.54732         1.49881
| 57>    C        4.48921        17.29102        -0.00383
| 58>    O        5.43836        -7.55047        -0.41772
| 59>    O        2.43276       -10.93218        -1.11774
| 60>    O       -2.61365        -5.62325        -0.17906
| 61>    O        2.35422         6.42204         0.02067
| 62>    O        6.93536        13.26573        -0.74084
| 63>    O        2.38419        13.77674        -0.60833
| 64>    C       -1.29649        -0.84957         0.04957
| 65>    C       -0.63136         0.39201        -0.00127
| 66>    C        0.75714         0.23270        -0.11496
| 67>    S        1.20124        -1.45728        -0.16661
| 68>    C        5.94009         3.53147        -0.04105
| 69>    C        5.38960         2.23673        -0.10282
| 70>    C        3.98729         2.28392        -0.13403
| 71>    S        3.38179         3.92117        -0.08359
| 72>    C        1.72505         1.28553        -0.15325
| 73>    C        3.08127         1.17037        -0.17392
| 74>    C        6.22647         0.98669        -0.10841
| 75>    C        6.63266         0.47012         1.29179
| 76>    C        5.42435        -0.00217         2.10386
| 77>    C        7.68387        -0.63364         1.15103
| 78>    C       -1.35320         1.70796         0.08752
| 79>    C       -1.63910         2.19473         1.52734
| 80>    C       -0.35525         2.52036         2.29328
| 81>    C       -2.58148         3.39968         1.48397
| 82>    H       -2.06414        -3.34288         0.00101
| 83>    H        6.49287         6.05712        -0.03480
| 84>    H        2.47184        -3.60531         0.05447
| 85>    H        4.35440        -5.20008        -0.12444
| 86>    H       -0.02645       -10.26993        -0.86039
| 87>    H       -1.92506        -8.62015        -0.57748
| 88>    H        5.81754        -9.64186        -1.52450
| 89>    H        4.66240       -11.01212        -1.51797
| 90>    H        6.07972        -9.78564         0.90006
| 91>    H        4.14024       -12.17843         0.77473
| 92>    H        3.84252       -10.62741         1.58630
| 93>    H        5.10440       -11.71295         2.20346
| 94>    H        6.46863       -12.48607        -0.51928
| 95>    H        7.31613       -11.97241         0.95915
| 96>    H        7.58964       -11.10216        -0.57013
| 97>    H        0.80950         9.08217        -0.11128
| 98>    H        1.05377        11.59202        -0.32825
| 99>    H        7.75333        10.81758        -0.42403
|100>    H        7.45544         8.35563        -0.18531
|101>    H        4.05366        15.23408        -1.63187
|102>    H        5.79364        15.13895        -1.22925
|103>    H        3.51699        15.54520         0.77370
|104>    H        6.56555        15.78325         1.15404
|105>    H        5.53714        14.49298         1.81671
|106>    H        5.33214        16.16079         2.38855
|107>    H        5.46535        17.61236        -0.40677
|108>    H        4.25532        17.93155         0.86049
|109>    H        3.72880        17.48297        -0.77738
|110>    H       -2.38068        -0.94744         0.13187
|111>    H        7.01523         3.72388        -0.02044
|112>    H        1.29739         2.28981        -0.12843
|113>    H        3.53699         0.17776        -0.19277
|114>    H        7.14320         1.19209        -0.68450
|115>    H        5.70626         0.17638        -0.64587
|116>    H        7.09476         1.31595         1.83343
|117>    H        4.90905        -0.83576         1.59641
|118>    H        4.69071         0.80431         2.25566
|119>    H        5.73548        -0.36593         3.09556
|120>    H        7.28307        -1.48886         0.58107
|121>    H        8.00898        -1.01093         2.13329
|122>    H        8.57567        -0.26708         0.61727
|123>    H       -2.31307         1.60529        -0.44305
|124>    H       -0.79429         2.49273        -0.44743
|125>    H       -2.15394         1.37187         2.05695
|126>    H        0.20138         3.33666         1.80212
|127>    H        0.31334         1.64850         2.36323
|128>    H       -0.58498         2.85150         3.31847
|129>    H       -2.11770         4.23876         0.93828
|130>    H       -2.82728         3.75581         2.49650
|131>    H       -3.52591         3.14844         0.97481
|132> *
|133>
|134>                          ****END OF INPUT****

CARTESIAN COORDINATES (ANGSTROEM)
---------------------------------
  C     -0.467560   -1.967940   -0.023660
  C      5.007480    4.574050   -0.028680
  C     -0.966980   -3.303250   -0.034890
  C     -0.418300   -4.549030   -0.111830
  C      5.401570    5.948110   -0.030050
  C      4.699350    7.122180   -0.053160
  C      0.932750   -5.122550   -0.171110
  C      0.764070   -6.531760   -0.339380
  C     -0.578620   -6.945340   -0.375570
  C     -1.404150   -5.708260   -0.211130
  C      5.286700    8.468850   -0.138390
  C      4.204220    9.389110   -0.181220
  C      2.946140    8.769900   -0.116760
  C      3.200000    7.294790   -0.036830
  C      2.244840   -4.658750   -0.094990
  C      3.329270   -5.569960   -0.195300
  C      3.143680   -6.935200   -0.387520
  C      1.823130   -7.435060   -0.464630
  C      1.509290   -8.797650   -0.666610
  C      0.176490   -9.209190   -0.701260
  C     -0.886300   -8.284810   -0.549550
  C      4.271170   -7.884940   -0.511910
  N      3.927480   -9.230110   -0.766310
  C      2.624210   -9.756890   -0.869420
  C      5.048860  -10.163680   -0.940280
  C      5.665870  -10.664300    0.376370
  C      4.631020  -11.333850    1.283940
  C      6.825500  -11.606820    0.043480
  C      1.797740    9.543790   -0.160900
  C      1.935390   10.950050   -0.282330
  C      3.188720   11.558170   -0.363750
  C      4.359610   10.770000   -0.310620
  C      5.671680   11.287600   -0.404980
  C      6.746830   10.401000   -0.348360
  C      6.571780    8.997090   -0.214200
  C      5.845290   12.744420   -0.601160
  N      4.654800   13.513200   -0.633950
  C      3.338810   13.024190   -0.537780
  C      4.778440   14.962030   -0.853520
  C      4.517870   15.813760    0.398350
  C      5.545050   15.547320    1.498810
  C      4.489210   17.291020   -0.003830
  O      5.438360   -7.550470   -0.417720
  O      2.432760  -10.932180   -1.117740
  O     -2.613650   -5.623250   -0.179060
  O      2.354220    6.422040    0.020670
  O      6.935360   13.265730   -0.740840
  O      2.384190   13.776740   -0.608330
  C     -1.296490   -0.849570    0.049570
  C     -0.631360    0.392010   -0.001270
  C      0.757140    0.232700   -0.114960
  S      1.201240   -1.457280   -0.166610
  C      5.940090    3.531470   -0.041050
  C      5.389600    2.236730   -0.102820
  C      3.987290    2.283920   -0.134030
  S      3.381790    3.921170   -0.083590
  C      1.725050    1.285530   -0.153250
  C      3.081270    1.170370   -0.173920
  C      6.226470    0.986690   -0.108410
  C      6.632660    0.470120    1.291790
  C      5.424350   -0.002170    2.103860
  C      7.683870   -0.633640    1.151030
  C     -1.353200    1.707960    0.087520
  C     -1.639100    2.194730    1.527340
  C     -0.355250    2.520360    2.293280
  C     -2.581480    3.399680    1.483970
  H     -2.064140   -3.342880    0.001010
  H      6.492870    6.057120   -0.034800
  H      2.471840   -3.605310    0.054470
  H      4.354400   -5.200080   -0.124440
  H     -0.026450  -10.269930   -0.860390
  H     -1.925060   -8.620150   -0.577480
  H      5.817540   -9.641860   -1.524500
  H      4.662400  -11.012120   -1.517970
  H      6.079720   -9.785640    0.900060
  H      4.140240  -12.178430    0.774730
  H      3.842520  -10.627410    1.586300
  H      5.104400  -11.712950    2.203460
  H      6.468630  -12.486070   -0.519280
  H      7.316130  -11.972410    0.959150
  H      7.589640  -11.102160   -0.570130
  H      0.809500    9.082170   -0.111280
  H      1.053770   11.592020   -0.328250
  H      7.753330   10.817580   -0.424030
  H      7.455440    8.355630   -0.185310
  H      4.053660   15.234080   -1.631870
  H      5.793640   15.138950   -1.229250
  H      3.516990   15.545200    0.773700
  H      6.565550   15.783250    1.154040
  H      5.537140   14.492980    1.816710
  H      5.332140   16.160790    2.388550
  H      5.465350   17.612360   -0.406770
  H      4.255320   17.931550    0.860490
  H      3.728800   17.482970   -0.777380
  H     -2.380680   -0.947440    0.131870
  H      7.015230    3.723880   -0.020440
  H      1.297390    2.289810   -0.128430
  H      3.536990    0.177760   -0.192770
  H      7.143200    1.192090   -0.684500
  H      5.706260    0.176380   -0.645870
  H      7.094760    1.315950    1.833430
  H      4.909050   -0.835760    1.596410
  H      4.690710    0.804310    2.255660
  H      5.735480   -0.365930    3.095560
  H      7.283070   -1.488860    0.581070
  H      8.008980   -1.010930    2.133290
  H      8.575670   -0.267080    0.617270
  H     -2.313070    1.605290   -0.443050
  H     -0.794290    2.492730   -0.447430
  H     -2.153940    1.371870    2.056950
  H      0.201380    3.336660    1.802120
  H      0.313340    1.648500    2.363230
  H     -0.584980    2.851500    3.318470
  H     -2.117700    4.238760    0.938280
  H     -2.827280    3.755810    2.496500
  H     -3.525910    3.148440    0.974810

 Total Charge           Charge          ....    0
 Multiplicity           Mult            ....    1
 Number of Electrons    NEL             ....  480
 Basis Dimension        Dim             .... 2358

ORBITAL ENERGIES
----------------

  NO   OCC          E(Eh)            E(eV)
   0   2.0000     -88.903573     -2419.1892
   1   2.0000     -88.895547     -2418.9708
   2   2.0000     -19.133626      -520.6524
   3   2.0000     -19.126169      -520.4495
   4   2.0000     -19.115382      -520.1560
   5   2.0000     -19.114157      -520.1227
   6   2.0000     -19.113665      -520.1093
   7   2.0000     -19.112903      -520.0885
   8   2.0000     -14.373342      -391.1185
   9   2.0000     -14.372531      -391.0965
  10   2.0000     -10.297324      -280.2044
  11   2.0000     -10.297023      -280.1962
  12   2.0000     -10.296911      -280.1932
  13   2.0000     -10.295389      -280.1518
  14   2.0000     -10.279987      -279.7327
  15   2.0000     -10.272439      -279.5273
  16   2.0000     -10.234775      -278.5024
  17   2.0000     -10.234177      -278.4861
  18   2.0000     -10.233114      -278.4572
  19   2.0000     -10.227299      -278.2989
  20   2.0000     -10.226856      -278.2869
  21   2.0000     -10.220891      -278.1246
  22   2.0000     -10.219857      -278.0965
  23   2.0000     -10.216539      -278.0062
  24   2.0000     -10.215737      -277.9843
  25   2.0000     -10.213804      -277.9317
  26   2.0000     -10.213203      -277.9154
  27   2.0000     -10.212733      -277.9026
  28   2.0000     -10.212642      -277.9001
  29   2.0000     -10.212386      -277.8931
  30   2.0000     -10.212190      -277.8878
  31   2.0000     -10.211551      -277.8704
  32   2.0000     -10.210429      -277.8399
  33   2.0000     -10.210225      -277.8344
  34   2.0000     -10.209725      -277.8207
  35   2.0000     -10.209617      -277.8178
  36   2.0000     -10.209584      -277.8169
  37   2.0000     -10.208985      -277.8006
  38   2.0000     -10.208810      -277.7958
  39   2.0000     -10.208794      -277.7954
  40   2.0000     -10.208661      -277.7918
  41   2.0000     -10.208348      -277.7833
  42   2.0000     -10.208016      -277.7742
  43   2.0000     -10.206686      -277.7380
  44   2.0000     -10.206112      -277.7224
  45   2.0000     -10.205954      -277.7181
  46   2.0000     -10.204330      -277.6739
  47   2.0000     -10.203664      -277.6558
  48   2.0000     -10.203551      -277.6528
  49   2.0000     -10.202971      -277.6370
  50   2.0000     -10.201031      -277.5842
  51   2.0000     -10.200831      -277.5787
  52   2.0000     -10.192587      -277.3544
  53   2.0000     -10.192260      -277.3455
  54   2.0000     -10.191503      -277.3249
  55   2.0000     -10.190004      -277.2841
  56   2.0000     -10.173660      -276.8394
  57   2.0000     -10.172814      -276.8164
  58   2.0000     -10.171940      -276.7926
  59   2.0000     -10.171316      -276.7756
  60   2.0000     -10.169142      -276.7164
  61   2.0000     -10.167235      -276.6645
  62   2.0000     -10.158799      -276.4350
  63   2.0000     -10.158453      -276.4256
  64   2.0000     -10.155167      -276.3361
  65   2.0000     -10.154147      -276.3084
  66   2.0000      -7.980192      -217.1521
  67   2.0000      -7.971091      -216.9044
  68   2.0000      -5.942465      -161.7027
  69   2.0000      -5.939023      -161.6090
  70   2.0000      -5.936887      -161.5509
  71   2.0000      -5.933559      -161.4604
  72   2.0000      -5.929754      -161.3568
  73   2.0000      -5.927726      -161.3016
  74   2.0000      -1.070441       -29.1282
  75   2.0000      -1.069791       -29.1105
  76   2.0000      -1.059993       -28.8439
  77   2.0000      -1.053234       -28.6600
  78   2.0000      -1.052993       -28.6534
  79   2.0000      -1.052326       -28.6353
  80   2.0000      -0.946872       -25.7657
  81   2.0000      -0.946557       -25.7571
  82   2.0000      -0.922656       -25.1068
  83   2.0000      -0.919937       -25.0328
  84   2.0000      -0.911651       -24.8073
  85   2.0000      -0.905449       -24.6385
  86   2.0000      -0.862313       -23.4647
  87   2.0000      -0.858478       -23.3604
  88   2.0000      -0.851689       -23.1756
  89   2.0000      -0.850170       -23.1343
  90   2.0000      -0.836007       -22.7489
  91   2.0000      -0.830660       -22.6034
  92   2.0000      -0.827147       -22.5078
  93   2.0000      -0.810691       -22.0600
  94   2.0000      -0.804858       -21.9013
  95   2.0000      -0.799552       -21.7569
  96   2.0000      -0.792626       -21.5684
  97   2.0000      -0.775948       -21.1146
  98   2.0000      -0.774655       -21.0794
  99   2.0000      -0.769261       -20.9326
 100   2.0000      -0.766571       -20.8595
 101   2.0000      -0.765910       -20.8415
 102   2.0000      -0.759072       -20.6554
 103   2.0000      -0.752283       -20.4707
 104   2.0000      -0.733447       -19.9581
 105   2.0000      -0.717470       -19.5233
 106   2.0000      -0.710527       -19.3344
 107   2.0000      -0.697198       -18.9717
 108   2.0000      -0.694266       -18.8919
 109   2.0000      -0.690740       -18.7960
 110   2.0000      -0.689874       -18.7724
 111   2.0000      -0.689295       -18.7567
 112   2.0000      -0.687611       -18.7109
 113   2.0000      -0.687267       -18.7015
 114   2.0000      -0.679847       -18.4996
 115   2.0000      -0.679816       -18.4987
 116   2.0000      -0.668557       -18.1924
 117   2.0000      -0.649995       -17.6873
 118   2.0000      -0.643262       -17.5040
 119   2.0000      -0.641258       -17.4495
 120   2.0000      -0.637040       -17.3348
 121   2.0000      -0.632740       -17.2177
 122   2.0000      -0.617518       -16.8035
 123   2.0000      -0.601634       -16.3713
 124   2.0000      -0.592324       -16.1180
 125   2.0000      -0.585389       -15.9292
 126   2.0000      -0.580126       -15.7860
 127   2.0000      -0.578246       -15.7349
 128   2.0000      -0.573311       -15.6006
 129   2.0000      -0.571531       -15.5521
 130   2.0000      -0.567637       -15.4462
 131   2.0000      -0.561854       -15.2888
 132   2.0000      -0.559439       -15.2231
 133   2.0000      -0.557910       -15.1815
 134   2.0000      -0.545992       -14.8572
 135   2.0000      -0.542176       -14.7533
 136   2.0000      -0.534970       -14.5573
 137   2.0000      -0.531478       -14.4623
 138   2.0000      -0.526312       -14.3217
 139   2.0000      -0.519354       -14.1323
 140   2.0000      -0.517484       -14.0815
 141   2.0000      -0.506024       -13.7696
 142   2.0000      -0.502164       -13.6646
 143   2.0000      -0.492727       -13.4078
 144   2.0000      -0.488464       -13.2918
 145   2.0000      -0.487202       -13.2574
 146   2.0000      -0.484778       -13.1915
 147   2.0000      -0.482003       -13.1160
 148   2.0000      -0.481716       -13.1082
 149   2.0000      -0.476090       -12.9551
 150   2.0000      -0.474546       -12.9131
 151   2.0000      -0.471361       -12.8264
 152   2.0000      -0.467719       -12.7273
 153   2.0000      -0.462858       -12.5950
 154   2.0000      -0.459796       -12.5117
 155   2.0000      -0.458505       -12.4766
 156   2.0000      -0.457180       -12.4405
 157   2.0000      -0.456478       -12.4214
 158   2.0000      -0.455375       -12.3914
 159   2.0000      -0.453999       -12.3539
 160   2.0000      -0.452715       -12.3190
 161   2.0000      -0.451146       -12.2763
 162   2.0000      -0.450485       -12.2583
 163   2.0000      -0.449718       -12.2374
 164   2.0000      -0.448682       -12.2093
 165   2.0000      -0.444546       -12.0967
 166   2.0000      -0.441428       -12.0119
 167   2.0000      -0.439431       -11.9575
 168   2.0000      -0.437427       -11.9030
 169   2.0000      -0.435862       -11.8604
 170   2.0000      -0.434374       -11.8199
 171   2.0000      -0.428706       -11.6657
 172   2.0000      -0.426469       -11.6048
 173   2.0000      -0.424197       -11.5430
 174   2.0000      -0.420649       -11.4465
 175   2.0000      -0.417145       -11.3511
 176   2.0000      -0.415417       -11.3041
 177   2.0000      -0.412541       -11.2258
 178   2.0000      -0.411661       -11.2019
 179   2.0000      -0.411191       -11.1891
 180   2.0000      -0.410448       -11.1689
 181   2.0000      -0.408429       -11.1139
 182   2.0000      -0.407400       -11.0859
 183   2.0000      -0.403648       -10.9838
 184   2.0000      -0.400942       -10.9102
 185   2.0000      -0.398374       -10.8403
 186   2.0000      -0.397310       -10.8114
 187   2.0000      -0.396564       -10.7911
 188   2.0000      -0.394327       -10.7302
 189   2.0000      -0.393989       -10.7210
 190   2.0000      -0.393483       -10.7072
 191   2.0000      -0.391065       -10.6414
 192   2.0000      -0.387552       -10.5458
 193   2.0000      -0.385068       -10.4782
 194   2.0000      -0.382109       -10.3977
 195   2.0000      -0.381641       -10.3850
 196   2.0000      -0.380659       -10.3583
 197   2.0000      -0.377478       -10.2717
 198   2.0000      -0.375053       -10.2057
 199   2.0000      -0.372631       -10.1398
 200   2.0000      -0.372481       -10.1357
 201   2.0000      -0.366521        -9.9735
 202   2.0000      -0.362992        -9.8775
 203   2.0000      -0.361558        -9.8385
 204   2.0000      -0.361091        -9.8258
 205   2.0000      -0.356930        -9.7125
 206   2.0000      -0.356293        -9.6952
 207   2.0000      -0.350839        -9.5468
 208   2.0000      -0.349134        -9.5004
 209   2.0000      -0.347631        -9.4595
 210   2.0000      -0.346337        -9.4243
 211   2.0000      -0.345645        -9.4055
 212   2.0000      -0.340932        -9.2772
 213   2.0000      -0.340240        -9.2584
 214   2.0000      -0.338105        -9.2003
 215   2.0000      -0.336466        -9.1557
 216   2.0000      -0.336112        -9.1461
 217   2.0000      -0.335737        -9.1359
 218   2.0000      -0.331623        -9.0239
 219   2.0000      -0.327331        -8.9071
 220   2.0000      -0.326727        -8.8907
 221   2.0000      -0.322682        -8.7806
 222   2.0000      -0.311221        -8.4687
 223   2.0000      -0.291940        -7.9441
 224   2.0000      -0.291071        -7.9204
 225   2.0000      -0.289776        -7.8852
 226   2.0000      -0.282385        -7.6841
 227   2.0000      -0.280193        -7.6244
 228   2.0000      -0.276257        -7.5173
 229   2.0000      -0.275459        -7.4956
 230   2.0000      -0.274236        -7.4624
 231   2.0000      -0.273998        -7.4559
 232   2.0000      -0.271894        -7.3986
 233   2.0000      -0.271061        -7.3759
 234   2.0000      -0.269187        -7.3250
 235   2.0000      -0.267912        -7.2903
 236   2.0000      -0.263153        -7.1608
 237   2.0000      -0.250742        -6.8230
 238   2.0000      -0.235739        -6.4148
 239   2.0000      -0.205751        -5.5988
 240   0.0000      -0.124391        -3.3849
 241   0.0000      -0.114953        -3.1280
 242   0.0000      -0.112246        -3.0544
 243   0.0000      -0.097972        -2.6659
 244   0.0000      -0.061302        -1.6681

MULLIKEN ATOMIC CHARGES
-----------------------
   0 C :    0.198559
   1 C :    0.130813
   2 C :   -0.263671
   3 C :   -0.021669
   4 C :   -0.203478
   5 C :   -0.007787
   6 C :   -0.022642
   7 C :    0.194094
   8 C :   -0.028290
   9 C :    0.224694
  10 C :    0.024865
  11 C :    0.153699
  12 C :    0.064819
  13 C :    0.179069
  14 C :   -0.119362
  15 C :   -0.191014
  16 C :    0.049517
  17 C :   -0.057510
  18 C :    0.060560
  19 C :   -0.135965
  20 C :   -0.179226
  21 C :    0.210651
  22 N :   -0.082149
  23 C :    0.193362
  24 C :   -0.086845
  25 C :   -0.026801
  26 C :   -0.336093
  27 C :   -0.349991
  28 C :   -0.175878
  29 C :   -0.132587
  30 C :    0.046610
  31 C :   -0.066979
  32 C :    0.045202
  33 C :   -0.152779
  34 C :   -0.169636
  35 C :    0.210038
  36 N :   -0.091970
  37 C :    0.225739
  38 C :   -0.080246
  39 C :   -0.032880
  40 C :   -0.329608
  41 C :   -0.349680
  42 O :   -0.342049
  43 O :   -0.337485
  44 O :   -0.286095
  45 O :   -0.326871
  46 O :   -0.338501
  47 O :   -0.339927
  48 C :   -0.170157
  49 C :    0.079871
  50 C :    0.099595
  51 S :   -0.034466
  52 C :   -0.178379
  53 C :    0.057402
  54 C :    0.139072
  55 S :    0.036504
  56 C :   -0.174251
  57 C :   -0.191414
  58 C :   -0.295137
  59 C :    0.031300
  60 C :   -0.377774
  61 C :   -0.333451
  62 C :   -0.303475
  63 C :    0.034408
  64 C :   -0.389416
  65 C :   -0.337894
  66 H :    0.137806
  67 H :    0.116258
  68 H :    0.134004
  69 H :    0.141481
  70 H :    0.148448
  71 H :    0.136620
  72 H :    0.115794
  73 H :    0.137680
  74 H :    0.088866
  75 H :    0.115707
  76 H :    0.100529
  77 H :    0.106539
  78 H :    0.103085
  79 H :    0.108849
  80 H :    0.111327
  81 H :    0.134133
  82 H :    0.148398
  83 H :    0.145892
  84 H :    0.110353
  85 H :    0.109649
  86 H :    0.142370
  87 H :    0.093074
  88 H :    0.106287
  89 H :    0.102071
  90 H :    0.106687
  91 H :    0.100847
  92 H :    0.108721
  93 H :    0.113717
  94 H :    0.127331
  95 H :    0.113107
  96 H :    0.134902
  97 H :    0.119545
  98 H :    0.107260
  99 H :    0.114148
 100 H :    0.064935
 101 H :    0.092920
 102 H :    0.136834
 103 H :    0.115994
 104 H :    0.102801
 105 H :    0.113266
 106 H :    0.106812
 107 H :    0.109029
 108 H :    0.123804
 109 H :    0.066939
 110 H :    0.115037
 111 H :    0.131678
 112 H :    0.113449
 113 H :    0.108443
 114 H :    0.111472
 115 H :    0.106134
Sum of atomic charges:   -0.0000000

LOEWDIN ATOMIC CHARGES
----------------------
   0 C :   -0.341049
   1 C :   -0.335477
   2 C :   -0.080453
   3 C :   -0.082061
   4 C :   -0.076495
   5 C :   -0.083145
   6 C :   -0.040274
   7 C :   -0.010486
   8 C :   -0.051083
   9 C :   -0.235420
  10 C :   -0.040848
  11 C :   -0.016117
  12 C :   -0.049427
  13 C :   -0.236942
  14 C :   -0.100830
  15 C :   -0.052368
  16 C :   -0.076618
  17 C :   -0.029815
  18 C :   -0.061868
  19 C :   -0.049437
  20 C :   -0.064906
  21 C :   -0.340703
  22 N :    0.260044
  23 C :   -0.343968
  24 C :   -0.211182
  25 C :   -0.306837
  26 C :   -0.284355
  27 C :   -0.282431
  28 C :   -0.065598
  29 C :   -0.049217
  30 C :   -0.060501
  31 C :   -0.030101
  32 C :   -0.077883
  33 C :   -0.049176
  34 C :   -0.090472
  35 C :   -0.342509
  36 N :    0.259143
  37 C :   -0.340891
  38 C :   -0.210412
  39 C :   -0.309162
  40 C :   -0.284176
  41 C :   -0.282023
  42 O :    0.104394
  43 O :    0.109231
  44 O :    0.129119
  45 O :    0.120814
  46 O :    0.105065
  47 O :    0.109620
  48 C :   -0.105155
  49 C :   -0.146102
  50 C :   -0.317538
  51 S :    0.766322
  52 C :   -0.112990
  53 C :   -0.151209
  54 C :   -0.315882
  55 S :    0.795260
  56 C :   -0.148914
  57 C :   -0.148250
  58 C :   -0.193261
  59 C :   -0.298319
  60 C :   -0.283069
  61 C :   -0.283887
  62 C :   -0.191565
  63 C :   -0.297840
  64 C :   -0.283219
  65 C :   -0.283659
  66 H :    0.178642
  67 H :    0.166063
  68 H :    0.134369
  69 H :    0.159644
  70 H :    0.160801
  71 H :    0.156114
  72 H :    0.144191
  73 H :    0.147189
  74 H :    0.152589
  75 H :    0.125318
  76 H :    0.119035
  77 H :    0.119732
  78 H :    0.121113
  79 H :    0.121255
  80 H :    0.121722
  81 H :    0.154933
  82 H :    0.160620
  83 H :    0.160409
  84 H :    0.145934
  85 H :    0.143241
  86 H :    0.147817
  87 H :    0.153932
  88 H :    0.123839
  89 H :    0.119068
  90 H :    0.120110
  91 H :    0.120538
  92 H :    0.121395
  93 H :    0.122027
  94 H :    0.153367
  95 H :    0.148649
  96 H :    0.152834
  97 H :    0.147799
  98 H :    0.149352
  99 H :    0.144631
 100 H :    0.149396
 101 H :    0.117638
 102 H :    0.126336
 103 H :    0.122773
 104 H :    0.121182
 105 H :    0.121985
 106 H :    0.120065
 107 H :    0.150296
 108 H :    0.146647
 109 H :    0.149309
 110 H :    0.122613
 111 H :    0.125204
 112 H :    0.122614
 113 H :    0.122810
 114 H :    0.121745
 115 H :    0.119680

  Mayer bond orders larger than 0.100000
B(  0-C ,  2-C ) :   1.0882 B(  0-C , 48-C ) :   1.3661 B(  0-C , 51-S ) :   1.2026
B(  1-C ,  4-C ) :   1.1741 B(  1-C , 52-C ) :   1.3220 B(  1-C , 55-S ) :   1.2767
B(  2-C ,  3-C ) :   1.5662 B(  2-C , 44-O ) :   0.1044 B(  2-C , 66-H ) :   0.9448
B(  3-C ,  6-C ) :   1.1323 B(  3-C ,  7-C ) :  -0.1208 B(  3-C ,  9-C ) :   0.9595
B(  3-C , 44-O ) :  -0.1279 B(  4-C ,  5-C ) :   1.5526 B(  4-C , 67-H ) :   0.9436
B(  5-C , 10-C ) :   1.0957 B(  5-C , 11-C ) :  -0.1152 B(  5-C , 13-C ) :   0.9570
B(  6-C ,  7-C ) :   1.1790 B(  6-C , 14-C ) :   1.4335 B(  7-C ,  8-C ) :   1.2403
B(  7-C , 17-C ) :   1.3553 B(  8-C ,  9-C ) :   1.0180 B(  8-C , 20-C ) :   1.4248
B(  8-C , 44-O ) :  -0.1423 B(  9-C , 44-O ) :   2.1753 B( 10-C , 11-C ) :   1.1944
B( 10-C , 34-C ) :   1.4161 B( 11-C , 12-C ) :   1.2536 B( 11-C , 31-C ) :   1.3555
B( 12-C , 13-C ) :   1.0668 B( 12-C , 28-C ) :   1.4090 B( 12-C , 45-O ) :  -0.1444
B( 13-C , 45-O ) :   2.0746 B( 14-C , 15-C ) :   1.2803 B( 14-C , 68-H ) :   0.9434
B( 15-C , 16-C ) :   1.4859 B( 15-C , 42-O ) :   0.1069 B( 15-C , 69-H ) :   0.9670
B( 16-C , 17-C ) :   1.2345 B( 16-C , 21-C ) :   0.9919 B( 16-C , 42-O ) :  -0.1572
B( 17-C , 18-C ) :   1.2487 B( 18-C , 19-C ) :   1.4551 B( 18-C , 23-C ) :   0.9808
B( 18-C , 43-O ) :  -0.1228 B( 19-C , 20-C ) :   1.2685 B( 19-C , 70-H ) :   0.9682
B( 20-C , 71-H ) :   0.9907 B( 21-C , 22-N ) :   1.1426 B( 21-C , 42-O ) :   2.0543
B( 22-N , 23-C ) :   1.1547 B( 22-N , 24-C ) :   0.8589 B( 23-C , 43-O ) :   2.0226
B( 24-C , 25-C ) :   0.9773 B( 24-C , 72-H ) :   0.9498 B( 24-C , 73-H ) :   0.9451
B( 25-C , 26-C ) :   0.9772 B( 25-C , 27-C ) :   0.9492 B( 25-C , 74-H ) :   0.9665
B( 26-C , 75-H ) :   0.9630 B( 26-C , 76-H ) :   0.9749 B( 26-C , 77-H ) :   0.9755
B( 27-C , 78-H ) :   0.9715 B( 27-C , 79-H ) :   0.9783 B( 27-C , 80-H ) :   0.9776
B( 28-C , 29-C ) :   1.2652 B( 28-C , 81-H ) :   0.9934 B( 29-C , 30-C ) :   1.4635
B( 29-C , 82-H ) :   0.9656 B( 30-C , 31-C ) :   1.2485 B( 30-C , 37-C ) :   0.9831
B( 30-C , 47-O ) :  -0.1300 B( 31-C , 32-C ) :   1.2349 B( 32-C , 33-C ) :   1.4752
B( 32-C , 35-C ) :   0.9956 B( 32-C , 46-O ) :  -0.1337 B( 33-C , 34-C ) :   1.2754
B( 33-C , 83-H ) :   0.9638 B( 34-C , 84-H ) :   0.9812 B( 35-C , 36-N ) :   1.1296
B( 35-C , 46-O ) :   2.0271 B( 36-N , 37-C ) :   1.1625 B( 36-N , 38-C ) :   0.8630
B( 37-C , 47-O ) :   2.0404 B( 38-C , 39-C ) :   0.9732 B( 38-C , 85-H ) :   0.9536
B( 38-C , 86-H ) :   0.9440 B( 39-C , 40-C ) :   0.9758 B( 39-C , 41-C ) :   0.9523
B( 39-C , 87-H ) :   0.9655 B( 40-C , 88-H ) :   0.9630 B( 40-C , 89-H ) :   0.9765
B( 40-C , 90-H ) :   0.9766 B( 41-C , 91-H ) :   0.9710 B( 41-C , 92-H ) :   0.9781
B( 41-C , 93-H ) :   0.9780 B( 48-C , 49-C ) :   1.3165 B( 48-C , 94-H ) :   0.9641
B( 49-C , 50-C ) :   1.3529 B( 49-C , 62-C ) :   0.8895 B( 50-C , 51-S ) :   1.2671
B( 50-C , 56-C ) :   1.1385 B( 52-C , 53-C ) :   1.3537 B( 52-C , 95-H ) :   0.9620
B( 53-C , 54-C ) :   1.3445 B( 53-C , 58-C ) :   0.8876 B( 54-C , 55-S ) :   1.2772
B( 54-C , 57-C ) :   1.1329 B( 56-C , 57-C ) :   1.7150 B( 56-C , 96-H ) :   0.9030
B( 57-C , 97-H ) :   0.9085 B( 58-C , 59-C ) :   0.9536 B( 58-C , 98-H ) :   0.9732
B( 58-C , 99-H ) :   0.9832 B( 59-C , 60-C ) :   0.9661 B( 59-C , 61-C ) :   0.9498
B( 59-C ,100-H ) :   0.9565 B( 60-C ,101-H ) :   0.9726 B( 60-C ,102-H ) :   0.9714
B( 60-C ,103-H ) :   0.9741 B( 61-C ,104-H ) :   0.9703 B( 61-C ,105-H ) :   0.9786
B( 61-C ,106-H ) :   0.9763 B( 62-C , 63-C ) :   0.9479 B( 62-C ,107-H ) :   0.9720
B( 62-C ,108-H ) :   0.9828 B( 63-C , 64-C ) :   0.9656 B( 63-C , 65-C ) :   0.9478
B( 63-C ,109-H ) :   0.9575 B( 64-C ,110-H ) :   0.9711 B( 64-C ,111-H ) :   0.9712
B( 64-C ,112-H ) :   0.9732 B( 65-C ,113-H ) :   0.9709 B( 65-C ,114-H ) :   0.9785
B( 65-C ,115-H ) :   0.9757

-----------------------------------------------------------------------------
         ABSORPTION SPECTRUM VIA TRANSITION ELECTRIC DIPOLE MOMENTS
-----------------------------------------------------------------------------
State   Energy    Wavelength  fosc         T2        TX        TY        TZ
        (cm-1)      (nm)                 (au**2)    (au)      (au)      (au)
-----------------------------------------------------------------------------
   1   16872.0    592.7   1.001128892  19.53431  -1.02561  -4.29910   0.01157
   2   17234.6    580.2   0.867424041  16.56932  -0.74233  -4.00168  -0.06951
   3   18003.5    555.4   0.920283445  16.82832  -1.49007  -3.82198   0.02242
   4   20782.7    481.2   0.003969754   0.06288  -0.18423  -0.16859  -0.02284
   5   24042.1    415.9   0.029545697   0.40457  -0.07369  -0.62945   0.05422
   6   24514.5    407.9   0.024570422   0.32996  -0.07546  -0.56870   0.02920
   7   24659.1    405.5   0.030082089   0.40161   0.58652  -0.14877  -0.18833
   8   24899.6    401.6   0.003752643   0.04962  -0.22160  -0.01670   0.01516
   9   24981.1    400.3   0.021958793   0.28938   0.51873   0.13844   0.03374
  10   25305.2    395.2   0.000604169   0.00786  -0.02810  -0.08277   0.01483
  11   27391.7    365.1   0.000024886   0.00030   0.01491  -0.00539  -0.00691
  12   27421.2    364.7   0.000329624   0.00396  -0.06054   0.01662   0.00402
  13   27675.0    361.3   0.002613034   0.03108   0.11859   0.12988   0.01235
  14   27925.9    358.1   0.021485846   0.25329  -0.07559   0.49530   0.04751
  15   27992.0    357.2   0.126881006   1.49224  -0.16965  -1.20437   0.11385
  16   28149.8    355.2   0.017335462   0.20274  -0.12901  -0.43133   0.00737
  17   28336.0    352.9   0.000789828   0.00918  -0.05972   0.06895  -0.02926
  18   28603.8    349.6   0.054328258   0.62528  -0.40080   0.67241   0.11185
  19   28851.2    346.6   0.004315026   0.04924   0.06363   0.20840  -0.04194
  20   29266.8    341.7   0.052587431   0.59154  -0.55233  -0.53481   0.02101
  21   29554.5    338.4   0.013272103   0.14784   0.18712   0.32856  -0.06981
  22   29870.9    334.8   0.017383410   0.19159   0.40260  -0.16608   0.04374
  23   29916.0    334.3   0.016085589   0.17701  -0.38671   0.12780  -0.10555
  24   30143.2    331.7   0.009945034   0.10862  -0.30294  -0.08910   0.09436
  25   30190.8    331.2   0.028276367   0.30834   0.54283  -0.00478  -0.11685
  26   30293.1    330.1   0.002419193   0.02629  -0.10167   0.12140   0.03485
  27   30368.1    329.3   0.026456483   0.28681  -0.50194  -0.17018   0.07685
  28   30556.4    327.3   0.002293160   0.02471  -0.09477   0.12538   0.00223
  29   30673.2    326.0   0.000076915   0.00083  -0.01503   0.02411   0.00428
  30   30825.0    324.4   0.034968881   0.37347  -0.55366   0.25869   0.00176
  31   31081.9    321.7   0.023222943   0.24597  -0.21266  -0.44627   0.03996
  32   31334.1    319.1   0.053608464   0.56324  -0.51315   0.54683   0.02983
  33   31428.8    318.2   0.002216433   0.02322  -0.07580  -0.13204   0.00607
  34   31691.7    315.5   0.005028005   0.05223   0.19763  -0.11251   0.02267
  35   31831.5    314.2   0.020916864   0.21633  -0.34586   0.31069   0.01361
  36   31900.2    313.5   0.005815369   0.06001  -0.20516  -0.13365  -0.00785
  37   32136.5    311.2   0.035048684   0.35905   0.56308  -0.20023  -0.04346
  38   32357.0    309.1   0.046831114   0.47648  -0.38029   0.57607   0.00241
  39   32449.0    308.2   0.000265444   0.00269  -0.04052   0.03243   0.00011
  40   32482.9    307.9   0.006277511   0.06362  -0.19054   0.16503  -0.00907
  41   32612.2    306.6   0.008970239   0.09055   0.18420   0.23744  -0.01565
  42   32867.2    304.3   0.040839718   0.40907  -0.14206  -0.62301   0.02742
  43   33128.4    301.9   0.000252453   0.00251  -0.02105  -0.04531   0.00358
  44   33225.2    301.0   0.036567847   0.36233   0.57572  -0.17572  -0.00259
  45   33407.9    299.3   0.005339278   0.05261   0.06969  -0.21819  -0.01222
  46   33484.2    298.6   0.060229723   0.59217  -0.51504  -0.56798  -0.06556
  47   33660.6    297.1   0.001852179   0.01811   0.11758  -0.06422  -0.01288
  48   33809.1    295.8   0.002086198   0.02031  -0.10137  -0.09704  -0.02492
  49   33961.7    294.4   0.000709294   0.00688  -0.07864   0.01336  -0.02266
  50   33995.5    294.2   0.000535417   0.00518   0.03690   0.03315   0.05219

FINAL SINGLE POINT ENERGY     -3520.629099830567

DIPOLE MOMENT
-------------
                                X             Y             Z
Electronic contribution:    -25.03616      -8.50668     -25.69832
Nuclear contribution   :     25.59472       8.98178      26.28551
                        -----------------------------------------
Total Dipole Moment    :      0.55856       0.47510       0.58719
                        -----------------------------------------
Magnitude (a.u.)       :      0.93941
Magnitude (Debye)      :      2.38780

Rotational constants in cm-1:     0.002627     0.000269     0.000247
Rotational constants in MHz :    78.769009     8.062842     7.415491

                             ****ORCA TERMINATED NORMALLY****
TOTAL RUN TIME: 0 days 4 hours 58 minutes 18 seconds 814 msec
