                         Program Version 4.2.0 -  RELEASE  -
|  1> # ORCA input file
|  2> # ../O-IDTBR.out
|  3> ! B3LYP def2-TZVP def2/J RIJCOSX Grid4 TightSCF
|  4> %maxcore 1000
|  5> %tddft
|  6>   maxdim 5
|  7>   nroots 50
|  8>   end
|  9> * xyz 0 1
| 10>    S        0.59402        -2.16021        -0.28280
| 11>    C        2.17822        -1.54834        -0.75208
| 12>    S        3.39585        -2.50266        -1.27372
| 13>    N        2.23583        -0.19839        -0.63438
| 14>    C        3.43254         0.56200        -0.93727
| 15>    C        4.39340         0.57033         0.24490
| 16>    C        1.09751         0.43038        -0.17297
| 17>    O        1.00766         1.62922        -0.01988
| 18>    C        0.03402        -0.55273         0.09014
| 19>    C       -1.15571        -0.11252         0.56801
| 20>    C       -2.35308        -0.79387         0.92646
| 21>    C       -2.57173        -2.19059         0.79800
| 22>    N       -1.72259        -3.09068         0.31674
| 23>    S       -2.40126        -4.54740         0.35639
| 24>    N       -3.81336        -4.11133         0.98754
| 25>    C       -3.81752        -2.79611         1.19689
| 26>    C       -4.87205        -2.00954         1.73835
| 27>    C       -4.61831        -0.64390         1.83988
| 28>    C       -3.42103        -0.06505         1.45138
| 29>    C       -6.11004        -2.58343         2.15512
| 30>    C       -6.50295        -3.91057         2.10750
| 31>    C       -7.78716        -4.09968         2.60509
| 32>    C       -8.37889        -2.92579         3.04397
| 33>    S       -7.36518        -1.56068         2.83978
| 34>    C       -9.69751        -3.17111         3.53076
| 35>    C       -9.93515        -4.56071         3.39735
| 36>    C       -8.71039        -5.26732         2.84269
| 37>    C       -9.02161        -6.03257         1.54801
| 38>    C       -9.54266        -5.12017         0.44344
| 39>    C       -8.03087        -6.17483         3.89496
| 40>    C       -8.85873        -7.34997         4.39717
| 41>    C      -11.15900        -5.08382         3.74552
| 42>    C      -12.11689        -4.20598         4.24966
| 43>    C      -11.87885        -2.81565         4.37574
| 44>    C      -10.65631        -2.29134         4.02731
| 45>    C      -13.09881        -2.10500         4.93195
| 46>    C      -12.77738        -1.30202         6.20037
| 47>    C      -12.22087        -2.17748         7.31733
| 48>    C      -13.79607        -1.23192         3.86163
| 49>    C      -12.97331        -0.07774         3.30549
| 50>    C      -14.00680        -3.27553         5.20769
| 51>    C      -13.42625        -4.45576         4.76333
| 52>    S      -14.42828        -5.82392         5.01817
| 53>    C      -15.65290        -4.80006         5.73668
| 54>    C      -15.26771        -3.46555         5.75273
| 55>    C      -16.86417        -5.36660         6.23073
| 56>    C      -17.10809        -6.76315         6.13588
| 57>    N      -16.30148        -7.67341         5.59789
| 58>    S      -16.99315        -9.12092         5.71797
| 59>    N      -18.34620        -8.66306         6.45786
| 60>    C      -18.31688        -7.34570         6.64463
| 61>    C      -19.32020        -6.54484         7.26487
| 62>    C      -19.04478        -5.17994         7.32973
| 63>    C      -17.87380        -4.62052         6.83648
| 64>    C      -20.47501        -7.22313         7.75055
| 65>    C      -21.60748        -6.80824         8.38171
| 66>    S      -22.79645        -8.03431         8.82476
| 67>    C      -23.87240        -6.84435         9.52745
| 68>    S      -25.31467        -7.18965        10.21023
| 69>    N      -23.33170        -5.60660         9.40698
| 70>    C      -23.99906        -4.42693         9.92386
| 71>    C      -23.71704        -4.23976        11.40906
| 72>    C      -22.09147        -5.49331         8.79780
| 73>    O      -21.55192        -4.41419         8.65787
| 74>    H        3.10435         1.57747        -1.17027
| 75>    H        3.90754         0.10953        -1.81081
| 76>    H        3.91605         1.01418         1.11513
| 77>    H        5.27465         1.15233        -0.00668
| 78>    H        4.70201        -0.44379         0.48620
| 79>    H       -1.18542         0.96474         0.70635
| 80>    H       -5.39367        -0.00819         2.24218
| 81>    H       -3.30420         1.00269         1.56425
| 82>    H       -5.85903        -4.67579         1.71605
| 83>    H       -9.76979        -6.79743         1.75855
| 84>    H       -8.11061        -6.53029         1.20939
| 85>    H      -10.44462        -4.60428         0.76631
| 86>    H       -9.77850        -5.70372        -0.44331
| 87>    H       -8.79787        -4.37449         0.17446
| 88>    H       -7.75577        -5.55014         4.74897
| 89>    H       -7.10657        -6.55142         3.45074
| 90>    H       -9.73687        -7.00599         4.93626
| 91>    H       -8.25637        -7.94491         5.08040
| 92>    H       -9.17302        -7.99334         3.57987
| 93>    H      -11.39522        -6.13071         3.63758
| 94>    H      -10.42127        -1.24391         4.13486
| 95>    H      -13.68969        -0.80937         6.54331
| 96>    H      -12.04688        -0.52974         5.95746
| 97>    H      -12.94371        -2.93497         7.61159
| 98>    H      -11.98703        -1.56954         8.18814
| 99>    H      -11.31182        -2.67927         6.99281
|100>    H      -14.71194        -0.83678         4.30724
|101>    H      -14.08652        -1.88511         3.03460
|102>    H      -12.64987         0.59654         4.09385
|103>    H      -13.58193         0.49093         2.60569
|104>    H      -12.10100        -0.44414         2.77166
|105>    H      -15.88294        -2.68120         6.15387
|106>    H      -19.77133        -4.52808         7.78524
|107>    H      -17.74585        -3.55424         6.93463
|108>    H      -20.42247        -8.29312         7.57616
|109>    H      -25.07125        -4.54364         9.75074
|110>    H      -23.61566        -3.57806         9.35284
|111>    H      -24.08527        -5.09311        11.97352
|112>    H      -24.21924        -3.34456        11.76357
|113>    H      -22.64818        -4.13344        11.57968
|114> *
|115>
|116>                          ****END OF INPUT****

CARTESIAN COORDINATES (ANGSTROEM)
---------------------------------
  S      0.594020   -2.160210   -0.282800
  C      2.178220   -1.548340   -0.752080
  S      3.395850   -2.502660   -1.273720
  N      2.235830   -0.198390   -0.634380
  C      3.432540    0.562000   -0.937270
  C      4.393400    0.570330    0.244900
  C      1.097510    0.430380   -0.172970
  O      1.007660    1.629220   -0.019880
  C      0.034020   -0.552730    0.090140
  C     -1.155710   -0.112520    0.568010
  C     -2.353080   -0.793870    0.926460
  C     -2.571730   -2.190590    0.798000
  N     -1.722590   -3.090680    0.316740
  S     -2.401260   -4.547400    0.356390
  N     -3.813360   -4.111330    0.987540
  C     -3.817520   -2.796110    1.196890
  C     -4.872050   -2.009540    1.738350
  C     -4.618310   -0.643900    1.839880
  C     -3.421030   -0.065050    1.451380
  C     -6.110040   -2.583430    2.155120
  C     -6.502950   -3.910570    2.107500
  C     -7.787160   -4.099680    2.605090
  C     -8.378890   -2.925790    3.043970
  S     -7.365180   -1.560680    2.839780
  C     -9.697510   -3.171110    3.530760
  C     -9.935150   -4.560710    3.397350
  C     -8.710390   -5.267320    2.842690
  C     -9.021610   -6.032570    1.548010
  C     -9.542660   -5.120170    0.443440
  C     -8.030870   -6.174830    3.894960
  C     -8.858730   -7.349970    4.397170
  C    -11.159000   -5.083820    3.745520
  C    -12.116890   -4.205980    4.249660
  C    -11.878850   -2.815650    4.375740
  C    -10.656310   -2.291340    4.027310
  C    -13.098810   -2.105000    4.931950
  C    -12.777380   -1.302020    6.200370
  C    -12.220870   -2.177480    7.317330
  C    -13.796070   -1.231920    3.861630
  C    -12.973310   -0.077740    3.305490
  C    -14.006800   -3.275530    5.207690
  C    -13.426250   -4.455760    4.763330
  S    -14.428280   -5.823920    5.018170
  C    -15.652900   -4.800060    5.736680
  C    -15.267710   -3.465550    5.752730
  C    -16.864170   -5.366600    6.230730
  C    -17.108090   -6.763150    6.135880
  N    -16.301480   -7.673410    5.597890
  S    -16.993150   -9.120920    5.717970
  N    -18.346200   -8.663060    6.457860
  C    -18.316880   -7.345700    6.644630
  C    -19.320200   -6.544840    7.264870
  C    -19.044780   -5.179940    7.329730
  C    -17.873800   -4.620520    6.836480
  C    -20.475010   -7.223130    7.750550
  C    -21.607480   -6.808240    8.381710
  S    -22.796450   -8.034310    8.824760
  C    -23.872400   -6.844350    9.527450
  S    -25.314670   -7.189650   10.210230
  N    -23.331700   -5.606600    9.406980
  C    -23.999060   -4.426930    9.923860
  C    -23.717040   -4.239760   11.409060
  C    -22.091470   -5.493310    8.797800
  O    -21.551920   -4.414190    8.657870
  H      3.104350    1.577470   -1.170270
  H      3.907540    0.109530   -1.810810
  H      3.916050    1.014180    1.115130
  H      5.274650    1.152330   -0.006680
  H      4.702010   -0.443790    0.486200
  H     -1.185420    0.964740    0.706350
  H     -5.393670   -0.008190    2.242180
  H     -3.304200    1.002690    1.564250
  H     -5.859030   -4.675790    1.716050
  H     -9.769790   -6.797430    1.758550
  H     -8.110610   -6.530290    1.209390
  H    -10.444620   -4.604280    0.766310
  H     -9.778500   -5.703720   -0.443310
  H     -8.797870   -4.374490    0.174460
  H     -7.755770   -5.550140    4.748970
  H     -7.106570   -6.551420    3.450740
  H     -9.736870   -7.005990    4.936260
  H     -8.256370   -7.944910    5.080400
  H     -9.173020   -7.993340    3.579870
  H    -11.395220   -6.130710    3.637580
  H    -10.421270   -1.243910    4.134860
  H    -13.689690   -0.809370    6.543310
  H    -12.046880   -0.529740    5.957460
  H    -12.943710   -2.934970    7.611590
  H    -11.987030   -1.569540    8.188140
  H    -11.311820   -2.679270    6.992810
  H    -14.711940   -0.836780    4.307240
  H    -14.086520   -1.885110    3.034600
  H    -12.649870    0.596540    4.093850
  H    -13.581930    0.490930    2.605690
  H    -12.101000   -0.444140    2.771660
  H    -15.882940   -2.681200    6.153870
  H    -19.771330   -4.528080    7.785240
  H    -17.745850   -3.554240    6.934630
  H    -20.422470   -8.293120    7.576160
  H    -25.071250   -4.543640    9.750740
  H    -23.615660   -3.578060    9.352840
  H    -24.085270   -5.093110   11.973520
  H    -24.219240   -3.344560   11.763570
  H    -22.648180   -4.133440   11.579680

 Total Charge           Charge          ....    0
 Multiplicity           Mult            ....    1
 Number of Electrons    NEL             ....  514
 Basis Dimension        Dim             .... 2272

ORBITAL ENERGIES
----------------

  NO   OCC          E(Eh)            E(eV)
   0   2.0000     -88.961574     -2420.7675
   1   2.0000     -88.957991     -2420.6700
   2   2.0000     -88.899101     -2419.0675
   3   2.0000     -88.894558     -2418.9439
   4   2.0000     -88.894142     -2418.9326
   5   2.0000     -88.887045     -2418.7395
   6   2.0000     -88.821254     -2416.9492
   7   2.0000     -88.816993     -2416.8332
   8   2.0000     -19.122783      -520.3574
   9   2.0000     -19.112871      -520.0877
  10   2.0000     -14.387842      -391.5131
  11   2.0000     -14.380558      -391.3149
  12   2.0000     -14.361295      -390.7907
  13   2.0000     -14.361179      -390.7875
  14   2.0000     -14.358563      -390.7164
  15   2.0000     -14.356740      -390.6668
  16   2.0000     -10.301930      -280.3298
  17   2.0000     -10.290586      -280.0211
  18   2.0000     -10.289063      -279.9796
  19   2.0000     -10.276807      -279.6461
  20   2.0000     -10.244486      -278.7666
  21   2.0000     -10.243899      -278.7507
  22   2.0000     -10.238444      -278.6022
  23   2.0000     -10.238001      -278.5902
  24   2.0000     -10.230495      -278.3859
  25   2.0000     -10.223902      -278.2065
  26   2.0000     -10.223103      -278.1848
  27   2.0000     -10.222894      -278.1791
  28   2.0000     -10.221826      -278.1500
  29   2.0000     -10.220314      -278.1089
  30   2.0000     -10.214398      -277.9479
  31   2.0000     -10.214057      -277.9386
  32   2.0000     -10.213977      -277.9365
  33   2.0000     -10.212841      -277.9055
  34   2.0000     -10.209207      -277.8067
  35   2.0000     -10.208348      -277.7833
  36   2.0000     -10.208119      -277.7770
  37   2.0000     -10.205072      -277.6941
  38   2.0000     -10.204886      -277.6891
  39   2.0000     -10.204799      -277.6867
  40   2.0000     -10.204745      -277.6852
  41   2.0000     -10.201430      -277.5950
  42   2.0000     -10.201289      -277.5912
  43   2.0000     -10.200664      -277.5742
  44   2.0000     -10.197159      -277.4788
  45   2.0000     -10.195192      -277.4253
  46   2.0000     -10.194832      -277.4155
  47   2.0000     -10.194193      -277.3981
  48   2.0000     -10.192731      -277.3583
  49   2.0000     -10.190958      -277.3101
  50   2.0000     -10.190505      -277.2977
  51   2.0000     -10.188974      -277.2561
  52   2.0000     -10.187699      -277.2214
  53   2.0000     -10.187207      -277.2080
  54   2.0000     -10.182747      -277.0866
  55   2.0000     -10.181769      -277.0600
  56   2.0000     -10.181644      -277.0566
  57   2.0000     -10.180604      -277.0283
  58   2.0000     -10.167020      -276.6587
  59   2.0000     -10.165947      -276.6295
  60   2.0000     -10.165525      -276.6180
  61   2.0000     -10.162615      -276.5388
  62   2.0000     -10.161657      -276.5128
  63   2.0000     -10.160929      -276.4929
  64   2.0000      -8.032558      -218.5770
  65   2.0000      -8.028827      -218.4755
  66   2.0000      -7.975697      -217.0297
  67   2.0000      -7.971158      -216.9062
  68   2.0000      -7.970281      -216.8824
  69   2.0000      -7.963006      -216.6844
  70   2.0000      -7.900000      -214.9699
  71   2.0000      -7.895718      -214.8534
  72   2.0000      -5.997104      -163.1895
  73   2.0000      -5.993277      -163.0854
  74   2.0000      -5.989761      -162.9897
  75   2.0000      -5.989665      -162.9871
  76   2.0000      -5.986092      -162.8899
  77   2.0000      -5.985993      -162.8871
  78   2.0000      -5.938048      -161.5825
  79   2.0000      -5.934456      -161.4848
  80   2.0000      -5.934120      -161.4756
  81   2.0000      -5.932787      -161.4393
  82   2.0000      -5.932442      -161.4300
  83   2.0000      -5.930190      -161.3687
  84   2.0000      -5.928817      -161.3313
  85   2.0000      -5.927058      -161.2834
  86   2.0000      -5.926642      -161.2721
  87   2.0000      -5.926156      -161.2589
  88   2.0000      -5.921895      -161.1430
  89   2.0000      -5.918385      -161.0474
  90   2.0000      -5.862444      -159.5252
  91   2.0000      -5.859848      -159.4546
  92   2.0000      -5.858037      -159.4053
  93   2.0000      -5.855712      -159.3420
  94   2.0000      -5.854900      -159.3199
  95   2.0000      -5.850623      -159.2035
  96   2.0000      -1.079221       -29.3671
  97   2.0000      -1.069265       -29.0962
  98   2.0000      -1.045759       -28.4565
  99   2.0000      -1.041321       -28.3358
 100   2.0000      -1.000351       -27.2209
 101   2.0000      -0.992988       -27.0206
 102   2.0000      -0.930879       -25.3305
 103   2.0000      -0.922468       -25.1016
 104   2.0000      -0.912875       -24.8406
 105   2.0000      -0.908705       -24.7271
 106   2.0000      -0.895674       -24.3725
 107   2.0000      -0.889954       -24.2169
 108   2.0000      -0.874275       -23.7902
 109   2.0000      -0.862310       -23.4646
 110   2.0000      -0.856314       -23.3015
 111   2.0000      -0.851982       -23.1836
 112   2.0000      -0.831708       -22.6319
 113   2.0000      -0.817872       -22.2554
 114   2.0000      -0.813753       -22.1433
 115   2.0000      -0.803180       -21.8556
 116   2.0000      -0.789814       -21.4919
 117   2.0000      -0.788423       -21.4541
 118   2.0000      -0.783289       -21.3144
 119   2.0000      -0.782334       -21.2884
 120   2.0000      -0.771526       -20.9943
 121   2.0000      -0.768308       -20.9067
 122   2.0000      -0.767237       -20.8776
 123   2.0000      -0.765878       -20.8406
 124   2.0000      -0.765360       -20.8265
 125   2.0000      -0.757845       -20.6220
 126   2.0000      -0.754543       -20.5322
 127   2.0000      -0.751883       -20.4598
 128   2.0000      -0.734051       -19.9745
 129   2.0000      -0.724674       -19.7194
 130   2.0000      -0.697854       -18.9896
 131   2.0000      -0.696867       -18.9627
 132   2.0000      -0.686149       -18.6711
 133   2.0000      -0.681178       -18.5358
 134   2.0000      -0.672226       -18.2922
 135   2.0000      -0.666470       -18.1356
 136   2.0000      -0.662756       -18.0345
 137   2.0000      -0.652314       -17.7504
 138   2.0000      -0.646189       -17.5837
 139   2.0000      -0.642632       -17.4869
 140   2.0000      -0.638660       -17.3788
 141   2.0000      -0.638183       -17.3658
 142   2.0000      -0.630753       -17.1637
 143   2.0000      -0.629191       -17.1212
 144   2.0000      -0.626622       -17.0513
 145   2.0000      -0.623547       -16.9676
 146   2.0000      -0.613758       -16.7012
 147   2.0000      -0.598489       -16.2857
 148   2.0000      -0.589770       -16.0485
 149   2.0000      -0.585340       -15.9279
 150   2.0000      -0.573535       -15.6067
 151   2.0000      -0.565447       -15.3866
 152   2.0000      -0.560953       -15.2643
 153   2.0000      -0.556360       -15.1393
 154   2.0000      -0.548936       -14.9373
 155   2.0000      -0.540116       -14.6973
 156   2.0000      -0.535978       -14.5847
 157   2.0000      -0.531101       -14.4520
 158   2.0000      -0.522997       -14.2315
 159   2.0000      -0.521238       -14.1836
 160   2.0000      -0.515720       -14.0334
 161   2.0000      -0.509071       -13.8525
 162   2.0000      -0.502245       -13.6668
 163   2.0000      -0.501597       -13.6491
 164   2.0000      -0.496252       -13.5037
 165   2.0000      -0.491527       -13.3751
 166   2.0000      -0.485272       -13.2049
 167   2.0000      -0.484934       -13.1957
 168   2.0000      -0.483439       -13.1551
 169   2.0000      -0.480788       -13.0829
 170   2.0000      -0.478839       -13.0299
 171   2.0000      -0.476411       -12.9638
 172   2.0000      -0.475912       -12.9502
 173   2.0000      -0.474213       -12.9040
 174   2.0000      -0.470621       -12.8063
 175   2.0000      -0.468625       -12.7519
 176   2.0000      -0.465751       -12.6737
 177   2.0000      -0.464206       -12.6317
 178   2.0000      -0.459516       -12.5041
 179   2.0000      -0.458590       -12.4789
 180   2.0000      -0.454366       -12.3639
 181   2.0000      -0.453684       -12.3454
 182   2.0000      -0.446746       -12.1566
 183   2.0000      -0.443415       -12.0659
 184   2.0000      -0.438124       -11.9220
 185   2.0000      -0.436513       -11.8781
 186   2.0000      -0.431953       -11.7540
 187   2.0000      -0.428939       -11.6720
 188   2.0000      -0.426864       -11.6156
 189   2.0000      -0.418819       -11.3966
 190   2.0000      -0.417289       -11.3550
 191   2.0000      -0.413405       -11.2493
 192   2.0000      -0.412048       -11.2124
 193   2.0000      -0.411384       -11.1943
 194   2.0000      -0.409869       -11.1531
 195   2.0000      -0.408285       -11.1100
 196   2.0000      -0.405999       -11.0478
 197   2.0000      -0.405167       -11.0251
 198   2.0000      -0.402439       -10.9509
 199   2.0000      -0.401046       -10.9130
 200   2.0000      -0.397467       -10.8156
 201   2.0000      -0.395432       -10.7602
 202   2.0000      -0.394178       -10.7261
 203   2.0000      -0.393646       -10.7116
 204   2.0000      -0.391531       -10.6541
 205   2.0000      -0.389350       -10.5948
 206   2.0000      -0.387048       -10.5321
 207   2.0000      -0.386628       -10.5207
 208   2.0000      -0.384348       -10.4586
 209   2.0000      -0.381274       -10.3750
 210   2.0000      -0.380617       -10.3571
 211   2.0000      -0.379080       -10.3153
 212   2.0000      -0.376996       -10.2586
 213   2.0000      -0.376250       -10.2383
 214   2.0000      -0.375036       -10.2053
 215   2.0000      -0.373687       -10.1685
 216   2.0000      -0.372569       -10.1381
 217   2.0000      -0.371577       -10.1111
 218   2.0000      -0.368773       -10.0348
 219   2.0000      -0.367719       -10.0061
 220   2.0000      -0.365026        -9.9329
 221   2.0000      -0.364378        -9.9152
 222   2.0000      -0.358757        -9.7623
 223   2.0000      -0.357899        -9.7389
 224   2.0000      -0.356907        -9.7119
 225   2.0000      -0.354325        -9.6417
 226   2.0000      -0.352491        -9.5918
 227   2.0000      -0.344716        -9.3802
 228   2.0000      -0.341335        -9.2882
 229   2.0000      -0.337906        -9.1949
 230   2.0000      -0.335446        -9.1279
 231   2.0000      -0.333317        -9.0700
 232   2.0000      -0.331663        -9.0250
 233   2.0000      -0.329923        -8.9777
 234   2.0000      -0.329481        -8.9656
 235   2.0000      -0.325589        -8.8597
 236   2.0000      -0.323830        -8.8119
 237   2.0000      -0.314636        -8.5617
 238   2.0000      -0.301702        -8.2097
 239   2.0000      -0.300746        -8.1837
 240   2.0000      -0.292718        -7.9653
 241   2.0000      -0.288757        -7.8575
 242   2.0000      -0.288445        -7.8490
 243   2.0000      -0.285473        -7.7681
 244   2.0000      -0.283199        -7.7062
 245   2.0000      -0.279441        -7.6040
 246   2.0000      -0.271301        -7.3825
 247   2.0000      -0.268946        -7.3184
 248   2.0000      -0.265190        -7.2162
 249   2.0000      -0.264010        -7.1841
 250   2.0000      -0.258302        -7.0288
 251   2.0000      -0.246766        -6.7148
 252   2.0000      -0.230512        -6.2725
 253   2.0000      -0.228879        -6.2281
 254   2.0000      -0.222992        -6.0679
 255   2.0000      -0.211113        -5.7447
 256   2.0000      -0.190895        -5.1945
 257   0.0000      -0.126346        -3.4381
 258   0.0000      -0.117647        -3.2013
 259   0.0000      -0.083257        -2.2656
 260   0.0000      -0.078728        -2.1423
 261   0.0000      -0.068724        -1.8701

MULLIKEN ATOMIC CHARGES
-----------------------
   0 S :    0.094351
   1 C :    0.073816
   2 S :   -0.303249
   3 N :   -0.024465
   4 C :   -0.078781
   5 C :   -0.351786
   6 C :    0.223658
   7 O :   -0.341006
   8 C :   -0.035552
   9 C :   -0.220267
  10 C :    0.193770
  11 C :    0.066928
  12 N :   -0.274588
  13 S :    0.348677
  14 N :   -0.275635
  15 C :    0.093471
  16 C :    0.004716
  17 C :   -0.185763
  18 C :   -0.170708
  19 C :    0.160998
  20 C :   -0.330743
  21 C :    0.019340
  22 C :   -0.107234
  23 S :   -0.033912
  24 C :    0.362265
  25 C :   -0.174591
  26 C :    0.460136
  27 C :   -0.222333
  28 C :   -0.356978
  29 C :   -0.165866
  30 C :   -0.371654
  31 C :   -0.408856
  32 C :    0.336757
  33 C :   -0.152878
  34 C :   -0.422624
  35 C :    0.433903
  36 C :   -0.222533
  37 C :   -0.355923
  38 C :   -0.161441
  39 C :   -0.370876
  40 C :    0.029121
  41 C :   -0.125619
  42 S :    0.044037
  43 C :    0.148049
  44 C :   -0.354992
  45 C :    0.060298
  46 C :    0.030477
  47 N :   -0.275554
  48 S :    0.353233
  49 N :   -0.261207
  50 C :    0.117234
  51 C :    0.069851
  52 C :   -0.196245
  53 C :   -0.206771
  54 C :   -0.243961
  55 C :    0.089757
  56 S :    0.054554
  57 C :    0.088203
  58 S :   -0.295419
  59 N :   -0.017049
  60 C :   -0.077957
  61 C :   -0.351295
  62 C :    0.249358
  63 O :   -0.385806
  64 H :    0.129218
  65 H :    0.119158
  66 H :    0.118347
  67 H :    0.108890
  68 H :    0.127755
  69 H :    0.138677
  70 H :    0.114250
  71 H :    0.117358
  72 H :    0.149856
  73 H :    0.094345
  74 H :    0.093142
  75 H :    0.120425
  76 H :    0.110928
  77 H :    0.123378
  78 H :    0.100501
  79 H :    0.094518
  80 H :    0.122385
  81 H :    0.116101
  82 H :    0.109396
  83 H :    0.134223
  84 H :    0.130390
  85 H :    0.089725
  86 H :    0.093587
  87 H :    0.123370
  88 H :    0.110738
  89 H :    0.121256
  90 H :    0.089550
  91 H :    0.102029
  92 H :    0.108361
  93 H :    0.116175
  94 H :    0.122959
  95 H :    0.117518
  96 H :    0.180632
  97 H :    0.111004
  98 H :    0.138603
  99 H :    0.122037
 100 H :    0.128019
 101 H :    0.129105
 102 H :    0.110102
 103 H :    0.117147
Sum of atomic charges:   -0.0000000

LOEWDIN ATOMIC CHARGES
----------------------
   0 S :    0.730220
   1 C :   -0.777438
   2 S :    0.237083
   3 N :    0.233204
   4 C :   -0.265292
   5 C :   -0.297865
   6 C :   -0.400953
   7 O :    0.104061
   8 C :   -0.335466
   9 C :   -0.083577
  10 C :   -0.122205
  11 C :   -0.213035
  12 N :   -0.131149
  13 S :    0.691979
  14 N :   -0.127241
  15 C :   -0.208411
  16 C :   -0.117932
  17 C :   -0.104664
  18 C :   -0.080763
  19 C :   -0.296879
  20 C :   -0.106477
  21 C :   -0.097954
  22 C :   -0.295862
  23 S :    0.763555
  24 C :   -0.090403
  25 C :   -0.030662
  26 C :   -0.180057
  27 C :   -0.220431
  28 C :   -0.289966
  29 C :   -0.216993
  30 C :   -0.298266
  31 C :   -0.071600
  32 C :   -0.088461
  33 C :   -0.031987
  34 C :   -0.074021
  35 C :   -0.181287
  36 C :   -0.221367
  37 C :   -0.290069
  38 C :   -0.217153
  39 C :   -0.298433
  40 C :   -0.101020
  41 C :   -0.294876
  42 S :    0.799603
  43 C :   -0.296902
  44 C :   -0.110495
  45 C :   -0.113547
  46 C :   -0.229276
  47 N :   -0.138801
  48 S :    0.684263
  49 N :   -0.130542
  50 C :   -0.219778
  51 C :   -0.123977
  52 C :   -0.064661
  53 C :   -0.086538
  54 C :   -0.086619
  55 C :   -0.324541
  56 S :    0.718770
  57 C :   -0.787014
  58 S :    0.240842
  59 N :    0.234183
  60 C :   -0.265636
  61 C :   -0.297487
  62 C :   -0.396512
  63 O :    0.099620
  64 H :    0.143225
  65 H :    0.135401
  66 H :    0.121072
  67 H :    0.121913
  68 H :    0.119791
  69 H :    0.173623
  70 H :    0.146753
  71 H :    0.154196
  72 H :    0.152131
  73 H :    0.136832
  74 H :    0.139648
  75 H :    0.123086
  76 H :    0.117287
  77 H :    0.123012
  78 H :    0.145574
  79 H :    0.140458
  80 H :    0.119928
  81 H :    0.120756
  82 H :    0.116150
  83 H :    0.149461
  84 H :    0.148873
  85 H :    0.138310
  86 H :    0.136561
  87 H :    0.122912
  88 H :    0.117171
  89 H :    0.123286
  90 H :    0.138905
  91 H :    0.146006
  92 H :    0.115813
  93 H :    0.120689
  94 H :    0.120322
  95 H :    0.144786
  96 H :    0.162047
  97 H :    0.149728
  98 H :    0.166642
  99 H :    0.135909
 100 H :    0.143156
 101 H :    0.120360
 102 H :    0.122549
 103 H :    0.120837

  Mayer bond orders larger than 0.100000
B(  0-S ,  1-C ) :   1.2162 B(  0-S ,  2-S ) :   0.1063 B(  0-S ,  8-C ) :   1.1763
B(  1-C ,  2-S ) :   1.8027 B(  1-C ,  3-N ) :   1.1888 B(  3-N ,  4-C ) :   0.8703
B(  3-N ,  6-C ) :   1.1500 B(  4-C ,  5-C ) :   0.9524 B(  4-C , 64-H ) :   0.9493
B(  4-C , 65-H ) :   0.9474 B(  5-C , 66-H ) :   0.9754 B(  5-C , 67-H ) :   0.9734
B(  5-C , 68-H ) :   0.9711 B(  6-C ,  7-O ) :   1.9807 B(  6-C ,  8-C ) :   1.0178
B(  8-C ,  9-C ) :   1.5962 B(  9-C , 10-C ) :   1.0455 B(  9-C , 69-H ) :   0.9265
B( 10-C , 11-C ) :   1.1230 B( 10-C , 18-C ) :   1.3660 B( 11-C , 12-N ) :   1.4201
B( 11-C , 13-S ) :   0.1347 B( 11-C , 15-C ) :   1.2129 B( 12-N , 13-S ) :   1.3018
B( 12-N , 14-N ) :   0.1237 B( 13-S , 14-N ) :   1.3303 B( 13-S , 15-C ) :   0.1168
B( 14-N , 15-C ) :   1.4329 B( 15-C , 16-C ) :   1.1261 B( 16-C , 17-C ) :   1.3840
B( 16-C , 19-C ) :   1.1262 B( 17-C , 18-C ) :   1.3936 B( 17-C , 70-H ) :   0.9570
B( 18-C , 71-H ) :   0.9703 B( 19-C , 20-C ) :   1.4983 B( 19-C , 23-S ) :   1.2168
B( 20-C , 21-C ) :   1.2642 B( 20-C , 23-S ) :   0.1474 B( 20-C , 72-H ) :   0.9225
B( 21-C , 22-C ) :   1.3122 B( 21-C , 26-C ) :   1.0282 B( 22-C , 23-S ) :   1.4106
B( 22-C , 24-C ) :   1.0112 B( 24-C , 25-C ) :   1.1949 B( 24-C , 34-C ) :   1.2808
B( 25-C , 26-C ) :   1.1310 B( 25-C , 29-C ) :   0.1041 B( 25-C , 31-C ) :   1.4037
B( 26-C , 27-C ) :   0.7652 B( 26-C , 29-C ) :   0.8057 B( 27-C , 28-C ) :   0.9796
B( 27-C , 73-H ) :   0.9646 B( 27-C , 74-H ) :   0.9600 B( 28-C , 75-H ) :   0.9736
B( 28-C , 76-H ) :   0.9792 B( 28-C , 77-H ) :   0.9738 B( 29-C , 30-C ) :   0.9497
B( 29-C , 78-H ) :   0.9679 B( 29-C , 79-H ) :   0.9645 B( 30-C , 80-H ) :   0.9779
B( 30-C , 81-H ) :   0.9774 B( 30-C , 82-H ) :   0.9759 B( 31-C , 32-C ) :   1.2929
B( 31-C , 83-H ) :   0.9899 B( 32-C , 33-C ) :   1.2020 B( 32-C , 41-C ) :   1.0209
B( 33-C , 34-C ) :   1.3981 B( 33-C , 35-C ) :   1.1250 B( 34-C , 84-H ) :   0.9955
B( 35-C , 36-C ) :   0.7705 B( 35-C , 38-C ) :   0.8169 B( 35-C , 40-C ) :   1.0440
B( 36-C , 37-C ) :   0.9795 B( 36-C , 85-H ) :   0.9606 B( 36-C , 86-H ) :   0.9636
B( 37-C , 87-H ) :   0.9741 B( 37-C , 88-H ) :   0.9791 B( 37-C , 89-H ) :   0.9736
B( 38-C , 39-C ) :   0.9514 B( 38-C , 90-H ) :   0.9633 B( 38-C , 91-H ) :   0.9681
B( 39-C , 92-H ) :   0.9758 B( 39-C , 93-H ) :   0.9773 B( 39-C , 94-H ) :   0.9774
B( 40-C , 41-C ) :   1.2754 B( 40-C , 44-C ) :   1.3325 B( 41-C , 42-S ) :   1.4547
B( 42-S , 43-C ) :   1.2483 B( 42-S , 44-C ) :   0.1478 B( 43-C , 44-C ) :   1.4153
B( 43-C , 45-C ) :   1.1415 B( 44-C , 95-H ) :   0.9332 B( 45-C , 46-C ) :   1.0693
B( 45-C , 53-C ) :   1.3812 B( 46-C , 47-N ) :   1.4729 B( 46-C , 48-S ) :   0.1348
B( 46-C , 50-C ) :   1.1908 B( 47-N , 48-S ) :   1.3192 B( 47-N , 49-N ) :   0.1159
B( 48-S , 49-N ) :   1.3250 B( 48-S , 50-C ) :   0.1051 B( 49-N , 50-C ) :   1.5035
B( 50-C , 51-C ) :   1.1088 B( 51-C , 52-C ) :   1.4101 B( 51-C , 54-C ) :   1.1960
B( 52-C , 53-C ) :   1.3965 B( 52-C , 96-H ) :   0.9269 B( 53-C , 97-H ) :   0.9675
B( 54-C , 55-C ) :   1.5068 B( 54-C , 98-H ) :   0.9467 B( 55-C , 56-S ) :   1.1310
B( 55-C , 62-C ) :   1.0413 B( 56-S , 57-C ) :   1.2186 B( 56-S , 58-S ) :   0.1159
B( 57-C , 58-S ) :   1.8039 B( 57-C , 59-N ) :   1.1904 B( 59-N , 60-C ) :   0.8686
B( 59-N , 62-C ) :   1.1574 B( 60-C , 61-C ) :   0.9519 B( 60-C , 99-H ) :   0.9464
B( 60-C ,100-H ) :   0.9486 B( 61-C ,101-H ) :   0.9711 B( 61-C ,102-H ) :   0.9738
B( 61-C ,103-H ) :   0.9751 B( 62-C , 63-O ) :   1.8357

-----------------------------------------------------------------------------
         ABSORPTION SPECTRUM VIA TRANSITION ELECTRIC DIPOLE MOMENTS
-----------------------------------------------------------------------------
State   Energy    Wavelength  fosc         T2        TX        TY        TZ
        (cm-1)      (nm)                 (au**2)    (au)      (au)      (au)
-----------------------------------------------------------------------------
   1   13330.5    750.2   3.170693708  78.30376   8.03624   2.02419  -3.10247
   2   14982.4    667.5   0.001954113   0.04294  -0.08138  -0.15823   0.10619
   3   17585.2    568.7   0.000028739   0.00054  -0.01761   0.01258   0.00834
   4   18340.3    545.2   0.021967913   0.39433   0.41056   0.28440  -0.38064
   5   18930.7    528.2   0.000071720   0.00125  -0.03520  -0.00285   0.00051
   6   19059.4    524.7   0.172148730   2.97351  -1.55272  -0.42683   0.61676
   7   20673.0    483.7   0.112550953   1.79235  -1.20721  -0.30484   0.49199
   8   21258.8    470.4   0.000228892   0.00354   0.05369   0.01531  -0.02067
   9   21885.6    456.9   1.099751988  16.54291  -3.71952  -0.51738   1.56216
  10   22371.1    447.0   0.204246014   3.00567  -1.63731  -0.35520   0.44577
  11   22742.6    439.7   0.000309593   0.00448  -0.06107  -0.02674   0.00609
  12   23377.9    427.8   0.010792588   0.15198   0.28853   0.23069   0.12456
  13   24381.0    410.2   0.000299322   0.00404   0.04165   0.04671  -0.01119
  14   25380.6    394.0   0.172871075   2.24232   1.34392   0.31562  -0.58016
  15   25597.1    390.7   0.000200052   0.00257   0.05007   0.00573   0.00574
  16   26276.1    380.6   0.000968713   0.01214  -0.01408  -0.05159   0.09632
  17   26321.1    379.9   0.014275092   0.17855  -0.28997   0.05397   0.30257
  18   26330.1    379.8   0.007612877   0.09519  -0.24924   0.10570   0.14796
  19   26726.8    374.2   0.017504814   0.21562   0.35486  -0.24979  -0.16522
  20   27125.3    368.7   0.006747690   0.08189   0.02010  -0.28014  -0.05488
  21   27469.3    364.0   0.108612036   1.30169  -1.03082   0.16808   0.45919
  22   27649.1    361.7   0.007746746   0.09224  -0.06376   0.28550   0.08164
  23   28317.7    353.1   0.010534310   0.12247   0.25933  -0.19744  -0.12741
  24   28505.0    350.8   0.010294119   0.11889   0.32417   0.04621  -0.10802
  25   29018.9    344.6   0.005448493   0.06181  -0.23609  -0.01732   0.07597
  26   29084.8    343.8   0.001744386   0.01974  -0.11772  -0.07670  -0.00186
  27   29416.8    339.9   0.000340098   0.00381  -0.03373   0.04851   0.01775
  28   29681.3    336.9   0.008826867   0.09790  -0.26167  -0.12423   0.11831
  29   29733.3    336.3   0.000421110   0.00466   0.06158   0.00698  -0.02867
  30   29835.8    335.2   0.027182449   0.29993   0.48719   0.09012  -0.23336
  31   29855.7    334.9   0.022141843   0.24415  -0.39781  -0.26017   0.13495
  32   29984.8    333.5   0.000633661   0.00696   0.07862   0.01197  -0.02514
  33   30511.1    327.7   0.028683245   0.30949  -0.23438   0.46027   0.20665
  34   30617.2    326.6   0.000970462   0.01043  -0.08583   0.03681   0.04139
  35   30637.0    326.4   0.001410483   0.01516  -0.08125   0.06563   0.06518
  36   30763.0    325.1   0.003277225   0.03507  -0.03155  -0.18343  -0.02070
  37   31163.4    320.9   0.002719902   0.02873   0.00159  -0.16560  -0.03615
  38   31276.8    319.7   0.004777020   0.05028  -0.20803   0.02925   0.07841
  39   31550.4    317.0   0.037907079   0.39554  -0.33644   0.46889   0.24998
  40   31751.6    314.9   0.000262606   0.00272  -0.02340  -0.04188  -0.02053
  41   31822.4    314.2   0.001864312   0.01929   0.01718  -0.12501  -0.05800
  42   31956.7    312.9   0.000380374   0.00392   0.03059  -0.04618  -0.02916
  43   32133.5    311.2   0.000085557   0.00088  -0.00697  -0.01491  -0.02461
  44   32392.2    308.7   0.014490007   0.14727  -0.01193   0.37928   0.05717
  45   32737.1    305.5   0.022323791   0.22449  -0.26806   0.34097   0.19073
  46   32790.9    305.0   0.006239750   0.06265  -0.04792  -0.24482  -0.02035
  47   32894.2    304.0   0.000400518   0.00401  -0.00314   0.06107  -0.01639
  48   33507.1    298.4   0.025009247   0.24572  -0.39877   0.24022   0.17028
  49   33827.1    295.6   0.004552551   0.04431   0.16023  -0.10733  -0.08435
  50   33886.8    295.1   0.012732890   0.12370  -0.25513  -0.23311   0.06535

FINAL SINGLE POINT ENERGY     -5516.807831139387

DIPOLE MOMENT
-------------
                                X             Y             Z
Electronic contribution:      0.39580     -35.44415     -10.65169
Nuclear contribution   :     -0.73347      36.06713      10.78484
                        -----------------------------------------
Total Dipole Moment    :     -0.33767       0.62298       0.13315
                        -----------------------------------------
Magnitude (a.u.)       :      0.72101
Magnitude (Debye)      :      1.83266

Rotational constants in cm-1:     0.004213     0.000194     0.000188
Rotational constants in MHz :   126.288321     5.811883     5.622025

                             ****ORCA TERMINATED NORMALLY****
TOTAL RUN TIME: 3 days 12 hours 59 minutes 24 seconds 844 msec
