                         Program Version 4.2.0 -  RELEASE  -
|  1> # ORCA input file
|  2> # O-IDTBR.out: Geometry 41
|  3> ! B3LYP def2-TZVP def2/J RIJCOSX Grid4 TightSCF
|  4>
|  5> %maxcore 6000
|  6> %tddft
|  7>   maxdim 5
|  8>   nroots 50
|  9>   end
| 10> %pal
| 11>   nprocs 6
| 12>   end
| 13>
| 14>
| 15> * xyz 0 1
| 16>    S        0.64327        -1.96333        -1.07928
| 17>    C        2.03444        -1.09341        -1.75345
| 18>    S        3.32589        -1.87560        -2.40179
| 19>    N        1.85514         0.26525        -1.65399
| 20>    C        2.82060         1.24596        -2.15400
| 21>    C        3.73869         1.76928        -1.05598
| 22>    C        0.69912         0.70123        -1.00068
| 23>    O        0.43306         1.87295        -0.82837
| 24>    C       -0.12027        -0.46491        -0.55577
| 25>    C       -1.22823        -0.18959         0.18297
| 26>    C       -2.27557        -0.97467         0.77871
| 27>    C       -2.48848        -2.38748         0.61052
| 28>    N       -1.71922        -3.20992        -0.09827
| 29>    S       -2.37200        -4.71228        -0.00675
| 30>    N       -3.66858        -4.36584         0.93670
| 31>    C       -3.63581        -3.06161         1.21586
| 32>    C       -4.59961        -2.32484         2.00560
| 33>    C       -4.31991        -0.96713         2.16698
| 34>    C       -3.21739        -0.32425         1.57665
| 35>    C       -5.79245        -2.92808         2.55621
| 36>    C       -6.22337        -4.25574         2.51379
| 37>    C       -7.48299        -4.43160         3.12108
| 38>    C       -8.01534        -3.25400         3.62782
| 39>    S       -6.98446        -1.90028         3.37527
| 40>    C       -9.32919        -3.47042         4.18720
| 41>    C       -9.61501        -4.85755         4.02941
| 42>    C       -8.43016        -5.59322         3.38441
| 43>    C       -8.84776        -6.31758         2.08316
| 44>    C       -9.45385        -5.40349         1.02150
| 45>    C       -7.72801        -6.56795         4.37420
| 46>    C       -8.55926        -7.72766         4.91851
| 47>    C      -10.86122        -5.35129         4.39047
| 48>    C      -11.80410        -4.45110         4.91580
| 49>    C      -11.51540        -3.06543         5.08070
| 50>    C      -10.26395        -2.57409         4.73259
| 51>    C      -12.72091        -2.31875         5.67558
| 52>    C      -12.35712        -1.65399         7.02536
| 53>    C      -11.83021        -2.62149         8.08182
| 54>    C      -13.33802        -1.28745         4.68746
| 55>    C      -12.45253        -0.13088         4.22747
| 56>    C      -13.71094        -3.46535         5.83933
| 57>    C      -13.15587        -4.65493         5.38219
| 58>    S      -14.23691        -5.98848         5.47771
| 59>    C      -15.50184        -4.93909         6.13801
| 60>    C      -15.04018        -3.62221         6.26710
| 61>    C      -16.82333        -5.43723         6.45029
| 62>    C      -17.17324        -6.82740         6.30178
| 63>    N      -16.34838        -7.78923         5.89119
| 64>    S      -17.19331        -9.19376         5.88405
| 65>    N      -18.64177        -8.62143         6.40314
| 66>    C      -18.51190        -7.30935         6.59881
| 67>    C      -19.55361        -6.41194         7.05026
| 68>    C      -19.16495        -5.07618         7.18755
| 69>    C      -17.86050        -4.61737         6.90210
| 70>    C      -20.85152        -6.99786         7.28958
| 71>    C      -22.06814        -6.52094         7.69218
| 72>    S      -23.44971        -7.62875         7.84074
| 73>    C      -24.56043        -6.33621         8.28546
| 74>    S      -26.16365        -6.57692         8.56273
| 75>    N      -23.87851        -5.14279         8.34660
| 76>    C      -24.53189        -3.88824         8.72746
| 77>    C      -24.68081        -3.75341        10.23708
| 78>    C      -22.50804        -5.15055         8.03445
| 79>    O      -21.84179        -4.13088         8.04974
| 80>    H        2.23613         2.06629        -2.59360
| 81>    H        3.39386         0.74155        -2.94225
| 82>    H        3.15916         2.28653        -0.27690
| 83>    H        4.45854         2.48475        -1.48383
| 84>    H        4.30500         0.94502        -0.59658
| 85>    H       -1.33394         0.88812         0.35476
| 86>    H       -4.99746        -0.35601         2.76722
| 87>    H       -3.09461         0.74788         1.74781
| 88>    H       -5.62595        -5.03016         2.03699
| 89>    H       -9.56745        -7.11104         2.34082
| 90>    H       -7.95917        -6.83246         1.67705
| 91>    H      -10.31273        -4.84357         1.42353
| 92>    H       -9.80925        -5.98669         0.15813
| 93>    H       -8.72185        -4.66808         0.65589
| 94>    H       -7.34551        -5.97055         5.21785
| 95>    H       -6.83842        -6.96349         3.85419
| 96>    H       -9.37737        -7.37360         5.56211
| 97>    H       -7.92508        -8.38987         5.52941
| 98>    H       -8.99798        -8.34546         4.11962
| 99>    H      -11.12179        -6.40243         4.25485
|100>    H      -10.00356        -1.52276         4.86474
|101>    H      -13.25271        -1.13079         7.40455
|102>    H      -11.60519        -0.87093         6.83619
|103>    H      -12.59226        -3.36282         8.36425
|104>    H      -11.52676        -2.08065         8.99156
|105>    H      -10.95234        -3.17432         7.71201
|106>    H      -14.24123        -0.88258         5.17659
|107>    H      -13.69522        -1.84096         3.80378
|108>    H      -12.02708         0.43791         5.06858
|109>    H      -13.04465         0.57593         3.62453
|110>    H      -11.62202        -0.47882         3.59720
|111>    H      -15.66299        -2.81824         6.65855
|112>    H      -19.90881        -4.35779         7.52768
|113>    H      -17.66857        -3.55261         7.04172
|114>    H      -20.84077        -8.07377         7.08319
|115>    H      -25.51378        -3.87274         8.23495
|116>    H      -23.90549        -3.08632         8.31660
|117>    H      -25.31014        -4.56037        10.63768
|118>    H      -25.16105        -2.79317        10.48130
|119>    H      -23.69902        -3.78513        10.73269
|120> *
|121>
|122>                          ****END OF INPUT****

CARTESIAN COORDINATES (ANGSTROEM)
---------------------------------
  S      0.643270   -1.963330   -1.079280
  C      2.034440   -1.093410   -1.753450
  S      3.325890   -1.875600   -2.401790
  N      1.855140    0.265250   -1.653990
  C      2.820600    1.245960   -2.154000
  C      3.738690    1.769280   -1.055980
  C      0.699120    0.701230   -1.000680
  O      0.433060    1.872950   -0.828370
  C     -0.120270   -0.464910   -0.555770
  C     -1.228230   -0.189590    0.182970
  C     -2.275570   -0.974670    0.778710
  C     -2.488480   -2.387480    0.610520
  N     -1.719220   -3.209920   -0.098270
  S     -2.372000   -4.712280   -0.006750
  N     -3.668580   -4.365840    0.936700
  C     -3.635810   -3.061610    1.215860
  C     -4.599610   -2.324840    2.005600
  C     -4.319910   -0.967130    2.166980
  C     -3.217390   -0.324250    1.576650
  C     -5.792450   -2.928080    2.556210
  C     -6.223370   -4.255740    2.513790
  C     -7.482990   -4.431600    3.121080
  C     -8.015340   -3.254000    3.627820
  S     -6.984460   -1.900280    3.375270
  C     -9.329190   -3.470420    4.187200
  C     -9.615010   -4.857550    4.029410
  C     -8.430160   -5.593220    3.384410
  C     -8.847760   -6.317580    2.083160
  C     -9.453850   -5.403490    1.021500
  C     -7.728010   -6.567950    4.374200
  C     -8.559260   -7.727660    4.918510
  C    -10.861220   -5.351290    4.390470
  C    -11.804100   -4.451100    4.915800
  C    -11.515400   -3.065430    5.080700
  C    -10.263950   -2.574090    4.732590
  C    -12.720910   -2.318750    5.675580
  C    -12.357120   -1.653990    7.025360
  C    -11.830210   -2.621490    8.081820
  C    -13.338020   -1.287450    4.687460
  C    -12.452530   -0.130880    4.227470
  C    -13.710940   -3.465350    5.839330
  C    -13.155870   -4.654930    5.382190
  S    -14.236910   -5.988480    5.477710
  C    -15.501840   -4.939090    6.138010
  C    -15.040180   -3.622210    6.267100
  C    -16.823330   -5.437230    6.450290
  C    -17.173240   -6.827400    6.301780
  N    -16.348380   -7.789230    5.891190
  S    -17.193310   -9.193760    5.884050
  N    -18.641770   -8.621430    6.403140
  C    -18.511900   -7.309350    6.598810
  C    -19.553610   -6.411940    7.050260
  C    -19.164950   -5.076180    7.187550
  C    -17.860500   -4.617370    6.902100
  C    -20.851520   -6.997860    7.289580
  C    -22.068140   -6.520940    7.692180
  S    -23.449710   -7.628750    7.840740
  C    -24.560430   -6.336210    8.285460
  S    -26.163650   -6.576920    8.562730
  N    -23.878510   -5.142790    8.346600
  C    -24.531890   -3.888240    8.727460
  C    -24.680810   -3.753410   10.237080
  C    -22.508040   -5.150550    8.034450
  O    -21.841790   -4.130880    8.049740
  H      2.236130    2.066290   -2.593600
  H      3.393860    0.741550   -2.942250
  H      3.159160    2.286530   -0.276900
  H      4.458540    2.484750   -1.483830
  H      4.305000    0.945020   -0.596580
  H     -1.333940    0.888120    0.354760
  H     -4.997460   -0.356010    2.767220
  H     -3.094610    0.747880    1.747810
  H     -5.625950   -5.030160    2.036990
  H     -9.567450   -7.111040    2.340820
  H     -7.959170   -6.832460    1.677050
  H    -10.312730   -4.843570    1.423530
  H     -9.809250   -5.986690    0.158130
  H     -8.721850   -4.668080    0.655890
  H     -7.345510   -5.970550    5.217850
  H     -6.838420   -6.963490    3.854190
  H     -9.377370   -7.373600    5.562110
  H     -7.925080   -8.389870    5.529410
  H     -8.997980   -8.345460    4.119620
  H    -11.121790   -6.402430    4.254850
  H    -10.003560   -1.522760    4.864740
  H    -13.252710   -1.130790    7.404550
  H    -11.605190   -0.870930    6.836190
  H    -12.592260   -3.362820    8.364250
  H    -11.526760   -2.080650    8.991560
  H    -10.952340   -3.174320    7.712010
  H    -14.241230   -0.882580    5.176590
  H    -13.695220   -1.840960    3.803780
  H    -12.027080    0.437910    5.068580
  H    -13.044650    0.575930    3.624530
  H    -11.622020   -0.478820    3.597200
  H    -15.662990   -2.818240    6.658550
  H    -19.908810   -4.357790    7.527680
  H    -17.668570   -3.552610    7.041720
  H    -20.840770   -8.073770    7.083190
  H    -25.513780   -3.872740    8.234950
  H    -23.905490   -3.086320    8.316600
  H    -25.310140   -4.560370   10.637680
  H    -25.161050   -2.793170   10.481300
  H    -23.699020   -3.785130   10.732690

 Total Charge           Charge          ....    0
 Multiplicity           Mult            ....    1
 Number of Electrons    NEL             ....  514
 Basis Dimension        Dim             .... 2272

ORBITAL ENERGIES
----------------

  NO   OCC          E(Eh)            E(eV)
   0   2.0000     -88.958299     -2420.6784
   1   2.0000     -88.955755     -2420.6092
   2   2.0000     -88.899648     -2419.0824
   3   2.0000     -88.897091     -2419.0128
   4   2.0000     -88.896918     -2419.0081
   5   2.0000     -88.892644     -2418.8918
   6   2.0000     -88.825779     -2417.0723
   7   2.0000     -88.822592     -2416.9856
   8   2.0000     -19.127169      -520.4767
   9   2.0000     -19.118070      -520.2291
  10   2.0000     -14.390560      -391.5870
  11   2.0000     -14.385008      -391.4360
  12   2.0000     -14.366465      -390.9314
  13   2.0000     -14.365976      -390.9181
  14   2.0000     -14.364000      -390.8643
  15   2.0000     -14.362163      -390.8143
  16   2.0000     -10.306898      -280.4650
  17   2.0000     -10.296212      -280.1742
  18   2.0000     -10.294796      -280.1356
  19   2.0000     -10.287768      -279.9444
  20   2.0000     -10.249478      -278.9025
  21   2.0000     -10.248263      -278.8694
  22   2.0000     -10.244097      -278.7560
  23   2.0000     -10.243701      -278.7453
  24   2.0000     -10.235762      -278.5292
  25   2.0000     -10.229478      -278.3582
  26   2.0000     -10.229180      -278.3502
  27   2.0000     -10.228497      -278.3316
  28   2.0000     -10.228119      -278.3213
  29   2.0000     -10.226655      -278.2814
  30   2.0000     -10.218774      -278.0670
  31   2.0000     -10.218579      -278.0617
  32   2.0000     -10.218472      -278.0588
  33   2.0000     -10.217318      -278.0274
  34   2.0000     -10.215272      -277.9717
  35   2.0000     -10.214871      -277.9608
  36   2.0000     -10.213274      -277.9173
  37   2.0000     -10.211857      -277.8788
  38   2.0000     -10.210533      -277.8427
  39   2.0000     -10.209541      -277.8157
  40   2.0000     -10.209404      -277.8120
  41   2.0000     -10.206516      -277.7334
  42   2.0000     -10.205768      -277.7131
  43   2.0000     -10.205513      -277.7061
  44   2.0000     -10.202750      -277.6309
  45   2.0000     -10.200254      -277.5630
  46   2.0000     -10.199471      -277.5417
  47   2.0000     -10.199322      -277.5377
  48   2.0000     -10.199278      -277.5365
  49   2.0000     -10.196276      -277.4548
  50   2.0000     -10.195800      -277.4418
  51   2.0000     -10.195091      -277.4225
  52   2.0000     -10.192675      -277.3568
  53   2.0000     -10.192455      -277.3508
  54   2.0000     -10.187111      -277.2054
  55   2.0000     -10.185682      -277.1665
  56   2.0000     -10.185559      -277.1632
  57   2.0000     -10.184171      -277.1254
  58   2.0000     -10.173298      -276.8295
  59   2.0000     -10.171515      -276.7810
  60   2.0000     -10.171227      -276.7732
  61   2.0000     -10.168395      -276.6961
  62   2.0000     -10.167372      -276.6683
  63   2.0000     -10.166353      -276.6405
  64   2.0000      -8.028665      -218.4711
  65   2.0000      -8.026081      -218.4008
  66   2.0000      -7.975781      -217.0320
  67   2.0000      -7.973361      -216.9662
  68   2.0000      -7.972314      -216.9377
  69   2.0000      -7.968074      -216.8223
  70   2.0000      -7.903871      -215.0753
  71   2.0000      -7.900710      -214.9893
  72   2.0000      -5.993207      -163.0834
  73   2.0000      -5.990566      -163.0116
  74   2.0000      -5.986071      -162.8893
  75   2.0000      -5.985605      -162.8766
  76   2.0000      -5.983556      -162.8208
  77   2.0000      -5.983023      -162.8063
  78   2.0000      -5.938204      -161.5867
  79   2.0000      -5.936394      -161.5375
  80   2.0000      -5.934846      -161.4954
  81   2.0000      -5.934598      -161.4886
  82   2.0000      -5.932482      -161.4311
  83   2.0000      -5.932462      -161.4305
  84   2.0000      -5.931237      -161.3972
  85   2.0000      -5.930969      -161.3899
  86   2.0000      -5.929076      -161.3384
  87   2.0000      -5.928824      -161.3315
  88   2.0000      -5.927115      -161.2850
  89   2.0000      -5.923501      -161.1866
  90   2.0000      -5.866433      -159.6338
  91   2.0000      -5.863727      -159.5601
  92   2.0000      -5.863160      -159.5447
  93   2.0000      -5.860647      -159.4763
  94   2.0000      -5.858788      -159.4257
  95   2.0000      -5.855657      -159.3405
  96   2.0000      -1.076122       -29.2828
  97   2.0000      -1.068686       -29.0804
  98   2.0000      -1.032407       -28.0932
  99   2.0000      -1.030323       -28.0365
 100   2.0000      -0.992954       -27.0197
 101   2.0000      -0.987712       -26.8770
 102   2.0000      -0.924017       -25.1438
 103   2.0000      -0.916263       -24.9328
 104   2.0000      -0.909367       -24.7451
 105   2.0000      -0.906585       -24.6694
 106   2.0000      -0.888193       -24.1690
 107   2.0000      -0.882370       -24.0105
 108   2.0000      -0.868501       -23.6331
 109   2.0000      -0.857043       -23.3213
 110   2.0000      -0.851270       -23.1642
 111   2.0000      -0.847136       -23.0518
 112   2.0000      -0.826179       -22.4815
 113   2.0000      -0.813862       -22.1463
 114   2.0000      -0.810687       -22.0599
 115   2.0000      -0.799672       -21.7602
 116   2.0000      -0.787122       -21.4187
 117   2.0000      -0.780576       -21.2405
 118   2.0000      -0.779833       -21.2203
 119   2.0000      -0.775242       -21.0954
 120   2.0000      -0.767979       -20.8978
 121   2.0000      -0.764481       -20.8026
 122   2.0000      -0.763216       -20.7682
 123   2.0000      -0.762366       -20.7450
 124   2.0000      -0.761284       -20.7156
 125   2.0000      -0.754878       -20.5413
 126   2.0000      -0.750602       -20.4249
 127   2.0000      -0.748896       -20.3785
 128   2.0000      -0.731911       -19.9163
 129   2.0000      -0.722646       -19.6642
 130   2.0000      -0.696683       -18.9577
 131   2.0000      -0.694341       -18.8940
 132   2.0000      -0.683754       -18.6059
 133   2.0000      -0.677964       -18.4483
 134   2.0000      -0.669130       -18.2080
 135   2.0000      -0.662322       -18.0227
 136   2.0000      -0.659433       -17.9441
 137   2.0000      -0.649310       -17.6686
 138   2.0000      -0.644370       -17.5342
 139   2.0000      -0.638314       -17.3694
 140   2.0000      -0.634611       -17.2686
 141   2.0000      -0.633227       -17.2310
 142   2.0000      -0.627561       -17.0768
 143   2.0000      -0.626441       -17.0463
 144   2.0000      -0.624077       -16.9820
 145   2.0000      -0.621873       -16.9220
 146   2.0000      -0.611444       -16.6382
 147   2.0000      -0.595076       -16.1928
 148   2.0000      -0.587291       -15.9810
 149   2.0000      -0.582476       -15.8500
 150   2.0000      -0.569849       -15.5064
 151   2.0000      -0.560995       -15.2654
 152   2.0000      -0.558700       -15.2030
 153   2.0000      -0.553125       -15.0513
 154   2.0000      -0.546784       -14.8787
 155   2.0000      -0.537577       -14.6282
 156   2.0000      -0.533300       -14.5118
 157   2.0000      -0.525500       -14.2996
 158   2.0000      -0.519629       -14.1398
 159   2.0000      -0.517059       -14.0699
 160   2.0000      -0.512540       -13.9469
 161   2.0000      -0.506584       -13.7849
 162   2.0000      -0.499388       -13.5890
 163   2.0000      -0.498371       -13.5614
 164   2.0000      -0.495266       -13.4769
 165   2.0000      -0.489434       -13.3182
 166   2.0000      -0.483125       -13.1465
 167   2.0000      -0.482537       -13.1305
 168   2.0000      -0.480689       -13.0802
 169   2.0000      -0.474665       -12.9163
 170   2.0000      -0.473707       -12.8902
 171   2.0000      -0.471622       -12.8335
 172   2.0000      -0.470597       -12.8056
 173   2.0000      -0.469498       -12.7757
 174   2.0000      -0.467977       -12.7343
 175   2.0000      -0.465755       -12.6738
 176   2.0000      -0.462843       -12.5946
 177   2.0000      -0.459562       -12.5053
 178   2.0000      -0.455862       -12.4046
 179   2.0000      -0.455281       -12.3888
 180   2.0000      -0.454265       -12.3612
 181   2.0000      -0.450238       -12.2516
 182   2.0000      -0.444306       -12.0902
 183   2.0000      -0.440318       -11.9817
 184   2.0000      -0.436367       -11.8742
 185   2.0000      -0.433560       -11.7978
 186   2.0000      -0.430073       -11.7029
 187   2.0000      -0.426405       -11.6031
 188   2.0000      -0.425213       -11.5706
 189   2.0000      -0.417376       -11.3574
 190   2.0000      -0.414441       -11.2775
 191   2.0000      -0.412006       -11.2113
 192   2.0000      -0.411250       -11.1907
 193   2.0000      -0.409293       -11.1374
 194   2.0000      -0.405685       -11.0392
 195   2.0000      -0.405316       -11.0292
 196   2.0000      -0.403652       -10.9839
 197   2.0000      -0.403251       -10.9730
 198   2.0000      -0.400346       -10.8940
 199   2.0000      -0.398539       -10.8448
 200   2.0000      -0.397103       -10.8057
 201   2.0000      -0.394047       -10.7226
 202   2.0000      -0.392481       -10.6799
 203   2.0000      -0.390848       -10.6355
 204   2.0000      -0.390341       -10.6217
 205   2.0000      -0.388261       -10.5651
 206   2.0000      -0.387208       -10.5365
 207   2.0000      -0.385863       -10.4999
 208   2.0000      -0.382096       -10.3974
 209   2.0000      -0.380390       -10.3509
 210   2.0000      -0.379549       -10.3281
 211   2.0000      -0.378307       -10.2943
 212   2.0000      -0.376447       -10.2436
 213   2.0000      -0.374416       -10.1884
 214   2.0000      -0.373725       -10.1696
 215   2.0000      -0.372031       -10.1235
 216   2.0000      -0.371575       -10.1111
 217   2.0000      -0.370290       -10.0761
 218   2.0000      -0.366796        -9.9810
 219   2.0000      -0.365974        -9.9587
 220   2.0000      -0.363276        -9.8853
 221   2.0000      -0.362978        -9.8771
 222   2.0000      -0.357306        -9.7228
 223   2.0000      -0.355722        -9.6797
 224   2.0000      -0.355092        -9.6625
 225   2.0000      -0.353456        -9.6180
 226   2.0000      -0.352214        -9.5842
 227   2.0000      -0.342183        -9.3113
 228   2.0000      -0.341856        -9.3024
 229   2.0000      -0.338575        -9.2131
 230   2.0000      -0.336386        -9.1535
 231   2.0000      -0.335554        -9.1309
 232   2.0000      -0.332010        -9.0344
 233   2.0000      -0.329247        -8.9593
 234   2.0000      -0.328367        -8.9353
 235   2.0000      -0.324456        -8.8289
 236   2.0000      -0.323392        -8.8000
 237   2.0000      -0.313511        -8.5311
 238   2.0000      -0.312515        -8.5040
 239   2.0000      -0.308867        -8.4047
 240   2.0000      -0.291734        -7.9385
 241   2.0000      -0.290855        -7.9146
 242   2.0000      -0.288262        -7.8440
 243   2.0000      -0.284724        -7.7477
 244   2.0000      -0.280621        -7.6361
 245   2.0000      -0.278764        -7.5855
 246   2.0000      -0.269870        -7.3435
 247   2.0000      -0.269202        -7.3254
 248   2.0000      -0.265034        -7.2119
 249   2.0000      -0.263973        -7.1831
 250   2.0000      -0.260394        -7.0857
 251   2.0000      -0.247468        -6.7340
 252   2.0000      -0.232478        -6.3261
 253   2.0000      -0.231231        -6.2921
 254   2.0000      -0.227307        -6.1853
 255   2.0000      -0.213702        -5.8151
 256   2.0000      -0.193758        -5.2724
 257   0.0000      -0.126444        -3.4407
 258   0.0000      -0.118641        -3.2284
 259   0.0000      -0.085852        -2.3361
 260   0.0000      -0.080917        -2.2019
 261   0.0000      -0.071326        -1.9409

MULLIKEN ATOMIC CHARGES
-----------------------
   0 S :    0.086880
   1 C :    0.084361
   2 S :   -0.289437
   3 N :   -0.036213
   4 C :   -0.074366
   5 C :   -0.361033
   6 C :    0.239912
   7 O :   -0.339970
   8 C :   -0.070281
   9 C :   -0.190704
  10 C :    0.177742
  11 C :    0.087750
  12 N :   -0.281356
  13 S :    0.342915
  14 N :   -0.273619
  15 C :    0.064329
  16 C :    0.007766
  17 C :   -0.191520
  18 C :   -0.153152
  19 C :    0.159830
  20 C :   -0.352131
  21 C :    0.041718
  22 C :   -0.109247
  23 S :   -0.024819
  24 C :    0.317028
  25 C :   -0.140585
  26 C :    0.428164
  27 C :   -0.225763
  28 C :   -0.360372
  29 C :   -0.171671
  30 C :   -0.375550
  31 C :   -0.400890
  32 C :    0.304603
  33 C :   -0.156508
  34 C :   -0.382913
  35 C :    0.449786
  36 C :   -0.214775
  37 C :   -0.361937
  38 C :   -0.168817
  39 C :   -0.377216
  40 C :   -0.038035
  41 C :   -0.075881
  42 S :    0.046587
  43 C :    0.109603
  44 C :   -0.313464
  45 C :    0.066082
  46 C :    0.025615
  47 N :   -0.271169
  48 S :    0.341885
  49 N :   -0.262973
  50 C :    0.131706
  51 C :    0.024238
  52 C :   -0.187206
  53 C :   -0.189681
  54 C :   -0.218125
  55 C :    0.064396
  56 S :    0.058794
  57 C :    0.085276
  58 S :   -0.282603
  59 N :   -0.023646
  60 C :   -0.089658
  61 C :   -0.348392
  62 C :    0.257390
  63 O :   -0.383839
  64 H :    0.117532
  65 H :    0.129209
  66 H :    0.133366
  67 H :    0.110642
  68 H :    0.121591
  69 H :    0.143429
  70 H :    0.117855
  71 H :    0.119633
  72 H :    0.150654
  73 H :    0.094764
  74 H :    0.094991
  75 H :    0.122703
  76 H :    0.112300
  77 H :    0.122774
  78 H :    0.103048
  79 H :    0.096364
  80 H :    0.124168
  81 H :    0.118358
  82 H :    0.109116
  83 H :    0.130606
  84 H :    0.132028
  85 H :    0.090652
  86 H :    0.093463
  87 H :    0.122238
  88 H :    0.112311
  89 H :    0.123314
  90 H :    0.090160
  91 H :    0.105243
  92 H :    0.109352
  93 H :    0.118686
  94 H :    0.123624
  95 H :    0.117944
  96 H :    0.186191
  97 H :    0.110685
  98 H :    0.142525
  99 H :    0.121900
 100 H :    0.133267
 101 H :    0.131329
 102 H :    0.111113
 103 H :    0.116036
Sum of atomic charges:    0.0000000

LOEWDIN ATOMIC CHARGES
----------------------
   0 S :    0.712059
   1 C :   -0.759872
   2 S :    0.227249
   3 N :    0.224639
   4 C :   -0.263439
   5 C :   -0.301382
   6 C :   -0.386955
   7 O :    0.103988
   8 C :   -0.335921
   9 C :   -0.086523
  10 C :   -0.120372
  11 C :   -0.215513
  12 N :   -0.121732
  13 S :    0.673196
  14 N :   -0.123786
  15 C :   -0.207695
  16 C :   -0.112565
  17 C :   -0.107565
  18 C :   -0.081822
  19 C :   -0.288405
  20 C :   -0.107867
  21 C :   -0.095241
  22 C :   -0.296192
  23 S :    0.748968
  24 C :   -0.086492
  25 C :   -0.028802
  26 C :   -0.171988
  27 C :   -0.225954
  28 C :   -0.297365
  29 C :   -0.221696
  30 C :   -0.305267
  31 C :   -0.075008
  32 C :   -0.086251
  33 C :   -0.028874
  34 C :   -0.076563
  35 C :   -0.171688
  36 C :   -0.226391
  37 C :   -0.297602
  38 C :   -0.222664
  39 C :   -0.305745
  40 C :   -0.097249
  41 C :   -0.298496
  42 S :    0.781392
  43 C :   -0.288107
  44 C :   -0.113413
  45 C :   -0.109064
  46 C :   -0.227558
  47 N :   -0.131199
  48 S :    0.668213
  49 N :   -0.127061
  50 C :   -0.217876
  51 C :   -0.120147
  52 C :   -0.067498
  53 C :   -0.088779
  54 C :   -0.085050
  55 C :   -0.324515
  56 S :    0.705761
  57 C :   -0.768836
  58 S :    0.231896
  59 N :    0.224966
  60 C :   -0.264630
  61 C :   -0.303445
  62 C :   -0.380157
  63 O :    0.095982
  64 H :    0.142522
  65 H :    0.135807
  66 H :    0.125396
  67 H :    0.125451
  68 H :    0.123527
  69 H :    0.177406
  70 H :    0.148060
  71 H :    0.155791
  72 H :    0.153521
  73 H :    0.137464
  74 H :    0.140727
  75 H :    0.125108
  76 H :    0.119738
  77 H :    0.123368
  78 H :    0.146074
  79 H :    0.141398
  80 H :    0.121488
  81 H :    0.122997
  82 H :    0.117151
  83 H :    0.150663
  84 H :    0.149720
  85 H :    0.139211
  86 H :    0.137438
  87 H :    0.123577
  88 H :    0.119603
  89 H :    0.125382
  90 H :    0.140176
  91 H :    0.146372
  92 H :    0.116862
  93 H :    0.123123
  94 H :    0.120926
  95 H :    0.145717
  96 H :    0.163126
  97 H :    0.150536
  98 H :    0.168604
  99 H :    0.137454
 100 H :    0.143927
 101 H :    0.122474
 102 H :    0.125559
 103 H :    0.122528

  Mayer bond orders larger than 0.100000
B(  0-S ,  1-C ) :   1.1976 B(  0-S ,  2-S ) :   0.1126 B(  0-S ,  8-C ) :   1.1748
B(  1-C ,  2-S ) :   1.8032 B(  1-C ,  3-N ) :   1.1841 B(  3-N ,  4-C ) :   0.8707
B(  3-N ,  6-C ) :   1.1302 B(  4-C ,  5-C ) :   0.9559 B(  4-C , 64-H ) :   0.9512
B(  4-C , 65-H ) :   0.9442 B(  5-C , 66-H ) :   0.9754 B(  5-C , 67-H ) :   0.9702
B(  5-C , 68-H ) :   0.9704 B(  6-C ,  7-O ) :   1.9712 B(  6-C ,  8-C ) :   1.0132
B(  8-C ,  9-C ) :   1.6037 B(  9-C , 10-C ) :   1.0391 B(  9-C , 69-H ) :   0.9189
B( 10-C , 11-C ) :   1.1092 B( 10-C , 18-C ) :   1.3964 B( 11-C , 12-N ) :   1.4584
B( 11-C , 13-S ) :   0.1200 B( 11-C , 15-C ) :   1.1819 B( 12-N , 13-S ) :   1.2866
B( 12-N , 14-N ) :   0.1308 B( 13-S , 14-N ) :   1.2988 B( 13-S , 15-C ) :   0.1181
B( 14-N , 15-C ) :   1.4818 B( 15-C , 16-C ) :   1.1030 B( 16-C , 17-C ) :   1.4039
B( 16-C , 19-C ) :   1.1146 B( 17-C , 18-C ) :   1.3628 B( 17-C , 70-H ) :   0.9529
B( 18-C , 71-H ) :   0.9649 B( 19-C , 20-C ) :   1.4980 B( 19-C , 23-S ) :   1.2039
B( 20-C , 21-C ) :   1.2233 B( 20-C , 23-S ) :   0.1470 B( 20-C , 72-H ) :   0.9354
B( 21-C , 22-C ) :   1.3350 B( 21-C , 26-C ) :   1.0280 B( 22-C , 23-S ) :   1.3881
B( 22-C , 24-C ) :   1.0059 B( 24-C , 25-C ) :   1.2069 B( 24-C , 34-C ) :   1.2937
B( 25-C , 26-C ) :   1.0987 B( 25-C , 31-C ) :   1.3922 B( 26-C , 27-C ) :   0.7794
B( 26-C , 29-C ) :   0.8345 B( 27-C , 28-C ) :   0.9822 B( 27-C , 73-H ) :   0.9632
B( 27-C , 74-H ) :   0.9588 B( 28-C , 75-H ) :   0.9729 B( 28-C , 76-H ) :   0.9770
B( 28-C , 77-H ) :   0.9724 B( 29-C , 30-C ) :   0.9540 B( 29-C , 78-H ) :   0.9667
B( 29-C , 79-H ) :   0.9633 B( 30-C , 80-H ) :   0.9750 B( 30-C , 81-H ) :   0.9747
B( 30-C , 82-H ) :   0.9751 B( 31-C , 32-C ) :   1.2897 B( 31-C , 83-H ) :   0.9933
B( 32-C , 33-C ) :   1.2080 B( 32-C , 41-C ) :   1.0115 B( 33-C , 34-C ) :   1.4038
B( 33-C , 35-C ) :   1.0893 B( 34-C , 84-H ) :   0.9858 B( 35-C , 36-C ) :   0.7883
B( 35-C , 38-C ) :   0.8265 B( 35-C , 40-C ) :   1.0195 B( 36-C , 37-C ) :   0.9847
B( 36-C , 85-H ) :   0.9585 B( 36-C , 86-H ) :   0.9623 B( 37-C , 87-H ) :   0.9723
B( 37-C , 88-H ) :   0.9771 B( 37-C , 89-H ) :   0.9726 B( 38-C , 39-C ) :   0.9528
B( 38-C , 90-H ) :   0.9620 B( 38-C , 91-H ) :   0.9674 B( 39-C , 92-H ) :   0.9751
B( 39-C , 93-H ) :   0.9743 B( 39-C , 94-H ) :   0.9762 B( 40-C , 41-C ) :   1.2995
B( 40-C , 44-C ) :   1.3071 B( 41-C , 42-S ) :   1.4176 B( 42-S , 43-C ) :   1.2457
B( 42-S , 44-C ) :   0.1392 B( 43-C , 44-C ) :   1.4362 B( 43-C , 45-C ) :   1.1231
B( 44-C , 95-H ) :   0.9328 B( 45-C , 46-C ) :   1.0608 B( 45-C , 53-C ) :   1.4075
B( 46-C , 47-N ) :   1.5011 B( 46-C , 48-S ) :   0.1327 B( 46-C , 50-C ) :   1.1661
B( 47-N , 48-S ) :   1.2916 B( 47-N , 49-N ) :   0.1243 B( 48-S , 49-N ) :   1.2930
B( 48-S , 50-C ) :   0.1021 B( 49-N , 50-C ) :   1.5186 B( 50-C , 51-C ) :   1.0919
B( 51-C , 52-C ) :   1.4497 B( 51-C , 54-C ) :   1.1848 B( 52-C , 53-C ) :   1.3469
B( 52-C , 96-H ) :   0.9233 B( 53-C , 97-H ) :   0.9631 B( 54-C , 55-C ) :   1.5190
B( 54-C , 98-H ) :   0.9427 B( 55-C , 56-S ) :   1.1364 B( 55-C , 62-C ) :   1.0270
B( 56-S , 57-C ) :   1.2118 B( 56-S , 58-S ) :   0.1180 B( 57-C , 58-S ) :   1.8060
B( 57-C , 59-N ) :   1.1808 B( 59-N , 60-C ) :   0.8670 B( 59-N , 62-C ) :   1.1486
B( 60-C , 61-C ) :   0.9573 B( 60-C , 99-H ) :   0.9485 B( 60-C ,100-H ) :   0.9484
B( 61-C ,101-H ) :   0.9696 B( 61-C ,102-H ) :   0.9710 B( 61-C ,103-H ) :   0.9726
B( 62-C , 63-O ) :   1.8408

-----------------------------------------------------------------------------
         ABSORPTION SPECTRUM VIA TRANSITION ELECTRIC DIPOLE MOMENTS
-----------------------------------------------------------------------------
State   Energy    Wavelength  fosc         T2        TX        TY        TZ
        (cm-1)      (nm)                 (au**2)    (au)      (au)      (au)
-----------------------------------------------------------------------------
   1   13640.9    733.1   2.959059797  71.41468   7.71915   1.85961  -2.89330
   2   15368.0    650.7   0.004318486   0.09251  -0.21250  -0.02038  -0.21665
   3   18527.7    539.7   0.008099119   0.14391  -0.31925   0.04158  -0.20065
   4   18668.6    535.7   0.018569875   0.32747  -0.50335   0.03024  -0.27054
   5   19338.3    517.1   0.088512499   1.50682  -1.11527  -0.28700   0.42499
   6   19374.6    516.1   0.108470868   1.84313   1.24240   0.33070  -0.43614
   7   20902.1    478.4   0.143888710   2.26628   1.41442   0.24842  -0.45165
   8   21998.8    454.6   0.833739516  12.47693   3.34955   0.31067  -1.07748
   9   22068.3    453.1   0.008416787   0.12556  -0.31845  -0.06645   0.14049
  10   22468.8    445.1   0.418890164   6.13756  -2.08593  -0.65592   1.16457
  11   23140.8    432.1   0.003564143   0.05071  -0.10174  -0.14212   0.14197
  12   23487.1    425.8   0.025682889   0.35999   0.18641   0.42908  -0.37567
  13   24496.8    408.2   0.000592069   0.00796  -0.04653   0.06034  -0.04638
  14   25332.5    394.7   0.214540631   2.78809  -1.57344  -0.23477   0.50720
  15   25798.0    387.6   0.000332587   0.00424   0.06194  -0.00746  -0.01875
  16   26191.2    381.8   0.001508099   0.01896  -0.06915   0.00150   0.11905
  17   26289.0    380.4   0.005129241   0.06423   0.17992  -0.17382   0.04062
  18   26414.5    378.6   0.022294786   0.27787  -0.40009   0.29570  -0.17424
  19   27038.1    369.8   0.004551588   0.05542  -0.14455  -0.17307   0.06762
  20   27149.1    368.3   0.021952931   0.26620  -0.37572   0.29983   0.18745
  21   27446.0    364.4   0.043116037   0.51717   0.60772  -0.22611  -0.31100
  22   27559.3    362.9   0.072546612   0.86661   0.81174   0.17676  -0.42006
  23   28207.1    354.5   0.012261286   0.14310   0.33171   0.05951  -0.17185
  24   28440.0    351.6   0.008312457   0.09622  -0.20783   0.19652   0.12003
  25   28984.9    345.0   0.008120490   0.09223  -0.22053  -0.15554   0.13930
  26   29088.0    343.8   0.000087442   0.00099   0.00407  -0.02306   0.02101
  27   29399.6    340.1   0.003401081   0.03808   0.17248  -0.08015  -0.04371
  28   29607.4    337.8   0.006894927   0.07667  -0.20240  -0.18596   0.03344
  29   29666.8    337.1   0.043107742   0.47837  -0.65843  -0.19617   0.07974
  30   30036.9    332.9   0.000673883   0.00739  -0.08447   0.01164  -0.01076
  31   30141.4    331.8   0.001573305   0.01718   0.00859  -0.12327  -0.04375
  32   30268.4    330.4   0.000526018   0.00572   0.02742  -0.06815  -0.01801
  33   30419.2    328.7   0.022747535   0.24619   0.17032  -0.44627  -0.13423
  34   30439.4    328.5   0.037112726   0.40139  -0.48525   0.32305   0.24812
  35   30666.4    326.1   0.002272210   0.02439   0.09855   0.11856  -0.02495
  36   31058.0    322.0   0.014475716   0.15344  -0.05114   0.37158   0.11292
  37   31215.4    320.4   0.011643499   0.12280   0.18430   0.29095  -0.06465
  38   31295.4    319.5   0.000044135   0.00046  -0.01957   0.00825  -0.00365
  39   31397.1    318.5   0.031838359   0.33384  -0.29576   0.43626   0.23674
  40   31537.9    317.1   0.000486353   0.00508   0.04007   0.05304   0.02565
  41   32076.9    311.8   0.004497711   0.04616   0.01339  -0.20946  -0.04591
  42   32164.9    310.9   0.009222056   0.09439  -0.08181  -0.29331   0.04084
  43   32355.7    309.1   0.021279056   0.21651   0.14453  -0.40546  -0.17670
  44   32476.6    307.9   0.010101884   0.10240  -0.26454   0.14630   0.10495
  45   32784.2    305.0   0.000248073   0.00249   0.02042  -0.04525  -0.00513
  46   33200.3    301.2   0.017832875   0.17683  -0.35841   0.06036   0.21149
  47   33455.0    298.9   0.008471572   0.08336   0.17997   0.22077  -0.04729
  48   33524.3    298.3   0.013906158   0.13656  -0.21853   0.26092   0.14396
  49   33619.2    297.4   0.000464733   0.00455  -0.06703  -0.00485   0.00583
  50   33681.4    296.9   0.020998500   0.20525   0.40986  -0.06947  -0.18010

FINAL SINGLE POINT ENERGY     -5516.817334133963

DIPOLE MOMENT
-------------
                                X             Y             Z
Electronic contribution:     -1.03193     -35.50676     -17.51509
Nuclear contribution   :      0.94943      36.10451      18.30522
                        -----------------------------------------
Total Dipole Moment    :     -0.08250       0.59776       0.79013
                        -----------------------------------------
Magnitude (a.u.)       :      0.99420
Magnitude (Debye)      :      2.52705

Rotational constants in cm-1:     0.003809     0.000189     0.000183
Rotational constants in MHz :   114.199738     5.670333     5.488924

                             ****ORCA TERMINATED NORMALLY****
TOTAL RUN TIME: 0 days 7 hours 7 minutes 17 seconds 445 msec
