                         Program Version 4.2.0 -  RELEASE  -
|  1> # ORCA input file
|  2> # PC70BM.out
|  3> ! B3LYP def2-TZVP def2/J RIJCOSX Grid4 TightSCF
|  4> %maxcore 10000
|  5> %tddft
|  6>   maxdim 5
|  7>   nroots 50
|  8>   end
|  9> * xyz 0 1
| 10>    C        0.12257         0.01575        -0.00003
| 11>    C        1.46035        -0.31633         0.18452
| 12>    C        2.47114         0.70444         0.07079
| 13>    C        3.47294         0.45295         1.07639
| 14>    C       -0.25314         1.37121        -0.29564
| 15>    C        2.10177         2.01169        -0.22299
| 16>    C       -0.88383        -0.51273         0.87977
| 17>    C        1.83523        -1.19678         1.26064
| 18>    C        3.07828        -0.72133         1.81353
| 19>    C        0.85638        -1.70738         2.10614
| 20>    C        4.06380         1.51886         1.74279
| 21>    C        0.71589         2.35006        -0.40533
| 22>    C        2.71084         3.11127         0.47530
| 23>    C        3.28933        -0.77734         3.18604
| 24>    C        3.67435         2.86974         1.43718
| 25>    C        4.27628         1.45649         3.16439
| 26>    C       -1.48803         1.66559         0.38296
| 27>    C       -0.52420        -1.35716         1.91202
| 28>    C       -1.87889         0.50396         1.10628
| 29>    C        0.48098         3.65125         0.16307
| 30>    C        1.71094         4.12051         0.70409
| 31>    C        3.66215         3.62984         2.65727
| 32>    C        4.03293         2.75924         3.72146
| 33>    C        3.89416         0.33210         3.87248
| 34>    C       -1.77720         2.96267         0.85839
| 35>    C       -0.75654         3.98851         0.75069
| 36>    C        1.74385         4.94237         1.85074
| 37>    C        2.74798         4.68472         2.85662
| 38>    C        3.50143         2.91646         5.01801
| 39>    C        3.26218         0.47764         5.15718
| 40>    C       -2.69715         3.03403         1.92456
| 41>    C       -2.57475         0.59671         2.32958
| 42>    C       -0.71966         5.01128         1.72378
| 43>    C        0.50758         5.48174         2.26734
| 44>    C        2.43949         4.99152         4.19993
| 45>    C        2.80928         4.12282         5.26183
| 46>    C        3.10627         1.74320         5.76206
| 47>    C       -2.70441         4.14739         2.83809
| 48>    C       -3.09102         1.87212         2.64681
| 49>    C       -1.72365         5.11957         2.74522
| 50>    C        0.27278         5.89303         3.62616
| 51>    C        1.24125         5.67707         4.57854
| 52>    C        1.84400         4.25963         6.30945
| 53>    C        2.04749         1.86739         6.68788
| 54>    C        1.07809        -1.75499         3.52546
| 55>    C        2.26994        -1.29963         4.05578
| 56>    C       -1.14885        -1.21053         3.20168
| 57>    C        2.26011        -0.52663         5.26980
| 58>    C       -2.19687        -0.29089         3.41428
| 59>    C       -3.11179         3.67897         4.12519
| 60>    C       -3.34135         2.26427         4.00816
| 61>    C       -1.13001         5.67600         3.92984
| 62>    C        0.93194         5.36600         5.98124
| 63>    C        1.44677         3.13813         6.99736
| 64>    C        1.04833         0.86076         6.79778
| 65>    C       -0.15967        -1.45355         4.19561
| 66>    C        1.06917        -0.29810         5.99089
| 67>    C       -2.36061         0.15629         4.74353
| 68>    C       -2.51247         4.20140         5.26840
| 69>    C       -2.98184         1.41945         5.04023
| 70>    C       -1.53346         5.24379         5.17907
| 71>    C       -0.60865         5.12469         6.32185
| 72>    C        0.04760         2.91338         7.30790
| 73>    C       -0.18252         1.50185         7.16820
| 74>    C       -0.18155        -0.78368         5.43776
| 75>    C       -1.36889        -0.08443         5.73635
| 76>    C       -2.13858         3.32327         6.34011
| 77>    C       -2.37855         1.95619         6.22996
| 78>    C       -0.92451         3.81381         6.91945
| 79>    C       -1.37591         1.02888         6.65004
| 80>    C        0.18408         6.21768         6.97016
| 81>    C        0.54900         6.02188         8.40729
| 82>    C       -0.41064         5.65666         9.34169
| 83>    C       -0.05974         5.48791        10.66918
| 84>    C        1.25053         5.68069        11.07214
| 85>    C        2.21060         6.04720        10.14408
| 86>    C        1.86149         6.21810         8.81697
| 87>    C       -0.14050         7.65039         6.58661
| 88>    C       -1.48554         8.08460         7.16594
| 89>    C       -1.85408         9.49657         6.72364
| 90>    C       -3.13218         9.96852         7.37969
| 91>    O       -3.62282         9.50282         8.37247
| 92>    O       -3.65624        11.00139         6.70685
| 93>    C       -4.84703        11.56465         7.24170
| 94>    H       -1.43252         5.50138         9.02834
| 95>    H       -0.81181         5.20312        11.38975
| 96>    H        1.52380         5.54480        12.10791
| 97>    H        3.23412         6.19809        10.45405
| 98>    H        2.61020         6.49914         8.08975
| 99>    H       -0.16812         7.74155         5.49955
|100>    H        0.65281         8.30155         6.96230
|101>    H       -2.26325         7.39239         6.83591
|102>    H       -1.45228         8.05173         8.25599
|103>    H       -1.06608        10.19853         7.00997
|104>    H       -1.97425         9.55906         5.64115
|105>    H       -4.63526        12.06923         8.18644
|106>    H       -5.20548        12.27649         6.50320
|107>    H       -5.58941        10.78407         7.41867
|108> *
|109>
|110>                          ****END OF INPUT****

CARTESIAN COORDINATES (ANGSTROEM)
---------------------------------
  C      0.122570    0.015750   -0.000030
  C      1.460350   -0.316330    0.184520
  C      2.471140    0.704440    0.070790
  C      3.472940    0.452950    1.076390
  C     -0.253140    1.371210   -0.295640
  C      2.101770    2.011690   -0.222990
  C     -0.883830   -0.512730    0.879770
  C      1.835230   -1.196780    1.260640
  C      3.078280   -0.721330    1.813530
  C      0.856380   -1.707380    2.106140
  C      4.063800    1.518860    1.742790
  C      0.715890    2.350060   -0.405330
  C      2.710840    3.111270    0.475300
  C      3.289330   -0.777340    3.186040
  C      3.674350    2.869740    1.437180
  C      4.276280    1.456490    3.164390
  C     -1.488030    1.665590    0.382960
  C     -0.524200   -1.357160    1.912020
  C     -1.878890    0.503960    1.106280
  C      0.480980    3.651250    0.163070
  C      1.710940    4.120510    0.704090
  C      3.662150    3.629840    2.657270
  C      4.032930    2.759240    3.721460
  C      3.894160    0.332100    3.872480
  C     -1.777200    2.962670    0.858390
  C     -0.756540    3.988510    0.750690
  C      1.743850    4.942370    1.850740
  C      2.747980    4.684720    2.856620
  C      3.501430    2.916460    5.018010
  C      3.262180    0.477640    5.157180
  C     -2.697150    3.034030    1.924560
  C     -2.574750    0.596710    2.329580
  C     -0.719660    5.011280    1.723780
  C      0.507580    5.481740    2.267340
  C      2.439490    4.991520    4.199930
  C      2.809280    4.122820    5.261830
  C      3.106270    1.743200    5.762060
  C     -2.704410    4.147390    2.838090
  C     -3.091020    1.872120    2.646810
  C     -1.723650    5.119570    2.745220
  C      0.272780    5.893030    3.626160
  C      1.241250    5.677070    4.578540
  C      1.844000    4.259630    6.309450
  C      2.047490    1.867390    6.687880
  C      1.078090   -1.754990    3.525460
  C      2.269940   -1.299630    4.055780
  C     -1.148850   -1.210530    3.201680
  C      2.260110   -0.526630    5.269800
  C     -2.196870   -0.290890    3.414280
  C     -3.111790    3.678970    4.125190
  C     -3.341350    2.264270    4.008160
  C     -1.130010    5.676000    3.929840
  C      0.931940    5.366000    5.981240
  C      1.446770    3.138130    6.997360
  C      1.048330    0.860760    6.797780
  C     -0.159670   -1.453550    4.195610
  C      1.069170   -0.298100    5.990890
  C     -2.360610    0.156290    4.743530
  C     -2.512470    4.201400    5.268400
  C     -2.981840    1.419450    5.040230
  C     -1.533460    5.243790    5.179070
  C     -0.608650    5.124690    6.321850
  C      0.047600    2.913380    7.307900
  C     -0.182520    1.501850    7.168200
  C     -0.181550   -0.783680    5.437760
  C     -1.368890   -0.084430    5.736350
  C     -2.138580    3.323270    6.340110
  C     -2.378550    1.956190    6.229960
  C     -0.924510    3.813810    6.919450
  C     -1.375910    1.028880    6.650040
  C      0.184080    6.217680    6.970160
  C      0.549000    6.021880    8.407290
  C     -0.410640    5.656660    9.341690
  C     -0.059740    5.487910   10.669180
  C      1.250530    5.680690   11.072140
  C      2.210600    6.047200   10.144080
  C      1.861490    6.218100    8.816970
  C     -0.140500    7.650390    6.586610
  C     -1.485540    8.084600    7.165940
  C     -1.854080    9.496570    6.723640
  C     -3.132180    9.968520    7.379690
  O     -3.622820    9.502820    8.372470
  O     -3.656240   11.001390    6.706850
  C     -4.847030   11.564650    7.241700
  H     -1.432520    5.501380    9.028340
  H     -0.811810    5.203120   11.389750
  H      1.523800    5.544800   12.107910
  H      3.234120    6.198090   10.454050
  H      2.610200    6.499140    8.089750
  H     -0.168120    7.741550    5.499550
  H      0.652810    8.301550    6.962300
  H     -2.263250    7.392390    6.835910
  H     -1.452280    8.051730    8.255990
  H     -1.066080   10.198530    7.009970
  H     -1.974250    9.559060    5.641150
  H     -4.635260   12.069230    8.186440
  H     -5.205480   12.276490    6.503200
  H     -5.589410   10.784070    7.418670

 Total Charge           Charge          ....    0
 Multiplicity           Mult            ....    1
 Number of Electrons    NEL             ....  522
 Basis Dimension        Dim             .... 2688

ORBITAL ENERGIES
----------------

  NO   OCC          E(Eh)            E(eV)
   0   2.0000     -19.176350      -521.8150
   1   2.0000     -19.116231      -520.1791
   2   2.0000     -10.301404      -280.3155
   3   2.0000     -10.234145      -278.4852
   4   2.0000     -10.232009      -278.4271
   5   2.0000     -10.228387      -278.3285
   6   2.0000     -10.227096      -278.2934
   7   2.0000     -10.220982      -278.1271
   8   2.0000     -10.220197      -278.1057
   9   2.0000     -10.220160      -278.1047
  10   2.0000     -10.219754      -278.0937
  11   2.0000     -10.219716      -278.0926
  12   2.0000     -10.219621      -278.0900
  13   2.0000     -10.219199      -278.0785
  14   2.0000     -10.219030      -278.0739
  15   2.0000     -10.219022      -278.0737
  16   2.0000     -10.218823      -278.0683
  17   2.0000     -10.218692      -278.0647
  18   2.0000     -10.218409      -278.0571
  19   2.0000     -10.218331      -278.0549
  20   2.0000     -10.217218      -278.0246
  21   2.0000     -10.216987      -278.0183
  22   2.0000     -10.216757      -278.0121
  23   2.0000     -10.216690      -278.0103
  24   2.0000     -10.215914      -277.9891
  25   2.0000     -10.215894      -277.9886
  26   2.0000     -10.215599      -277.9806
  27   2.0000     -10.215277      -277.9718
  28   2.0000     -10.215219      -277.9702
  29   2.0000     -10.215016      -277.9647
  30   2.0000     -10.213386      -277.9204
  31   2.0000     -10.213147      -277.9139
  32   2.0000     -10.212954      -277.9086
  33   2.0000     -10.212403      -277.8936
  34   2.0000     -10.212042      -277.8838
  35   2.0000     -10.211962      -277.8816
  36   2.0000     -10.211793      -277.8770
  37   2.0000     -10.211742      -277.8756
  38   2.0000     -10.211593      -277.8716
  39   2.0000     -10.211592      -277.8715
  40   2.0000     -10.211342      -277.8648
  41   2.0000     -10.211331      -277.8644
  42   2.0000     -10.211242      -277.8620
  43   2.0000     -10.211106      -277.8583
  44   2.0000     -10.210985      -277.8550
  45   2.0000     -10.210925      -277.8534
  46   2.0000     -10.210785      -277.8496
  47   2.0000     -10.210645      -277.8458
  48   2.0000     -10.210542      -277.8430
  49   2.0000     -10.210483      -277.8414
  50   2.0000     -10.210473      -277.8411
  51   2.0000     -10.210376      -277.8385
  52   2.0000     -10.210298      -277.8363
  53   2.0000     -10.210290      -277.8361
  54   2.0000     -10.210146      -277.8322
  55   2.0000     -10.210032      -277.8291
  56   2.0000     -10.209962      -277.8272
  57   2.0000     -10.209898      -277.8254
  58   2.0000     -10.209688      -277.8197
  59   2.0000     -10.209614      -277.8177
  60   2.0000     -10.209564      -277.8163
  61   2.0000     -10.209438      -277.8129
  62   2.0000     -10.209330      -277.8100
  63   2.0000     -10.209293      -277.8090
  64   2.0000     -10.209224      -277.8071
  65   2.0000     -10.208986      -277.8006
  66   2.0000     -10.208861      -277.7972
  67   2.0000     -10.208778      -277.7950
  68   2.0000     -10.208566      -277.7892
  69   2.0000     -10.208165      -277.7783
  70   2.0000     -10.207786      -277.7680
  71   2.0000     -10.206655      -277.7372
  72   2.0000     -10.205593      -277.7083
  73   2.0000     -10.205407      -277.7032
  74   2.0000     -10.204758      -277.6856
  75   2.0000     -10.194034      -277.3938
  76   2.0000     -10.189840      -277.2796
  77   2.0000     -10.189482      -277.2699
  78   2.0000     -10.183101      -277.0963
  79   2.0000     -10.181991      -277.0661
  80   2.0000     -10.181292      -277.0470
  81   2.0000     -10.180530      -277.0263
  82   2.0000     -10.179963      -277.0109
  83   2.0000     -10.178188      -276.9626
  84   2.0000      -1.116822       -30.3903
  85   2.0000      -1.027384       -27.9566
  86   2.0000      -0.978680       -26.6312
  87   2.0000      -0.967701       -26.3325
  88   2.0000      -0.957340       -26.0505
  89   2.0000      -0.955802       -26.0087
  90   2.0000      -0.939375       -25.5617
  91   2.0000      -0.931126       -25.3372
  92   2.0000      -0.929621       -25.2963
  93   2.0000      -0.920799       -25.0562
  94   2.0000      -0.919536       -25.0218
  95   2.0000      -0.904057       -24.6006
  96   2.0000      -0.893643       -24.3173
  97   2.0000      -0.886981       -24.1360
  98   2.0000      -0.884297       -24.0629
  99   2.0000      -0.871440       -23.7131
 100   2.0000      -0.869716       -23.6662
 101   2.0000      -0.862572       -23.4718
 102   2.0000      -0.861332       -23.4380
 103   2.0000      -0.847442       -23.0601
 104   2.0000      -0.838952       -22.8290
 105   2.0000      -0.818174       -22.2636
 106   2.0000      -0.814717       -22.1696
 107   2.0000      -0.814426       -22.1617
 108   2.0000      -0.813667       -22.1410
 109   2.0000      -0.812249       -22.1024
 110   2.0000      -0.811350       -22.0780
 111   2.0000      -0.796084       -21.6625
 112   2.0000      -0.795066       -21.6348
 113   2.0000      -0.789433       -21.4816
 114   2.0000      -0.764008       -20.7897
 115   2.0000      -0.761703       -20.7270
 116   2.0000      -0.759591       -20.6695
 117   2.0000      -0.756227       -20.5780
 118   2.0000      -0.753763       -20.5109
 119   2.0000      -0.749843       -20.4043
 120   2.0000      -0.748218       -20.3600
 121   2.0000      -0.745005       -20.2726
 122   2.0000      -0.737783       -20.0761
 123   2.0000      -0.737256       -20.0617
 124   2.0000      -0.736365       -20.0375
 125   2.0000      -0.732503       -19.9324
 126   2.0000      -0.715156       -19.4604
 127   2.0000      -0.699406       -19.0318
 128   2.0000      -0.690460       -18.7884
 129   2.0000      -0.679789       -18.4980
 130   2.0000      -0.677690       -18.4409
 131   2.0000      -0.670420       -18.2430
 132   2.0000      -0.669258       -18.2114
 133   2.0000      -0.664167       -18.0729
 134   2.0000      -0.661974       -18.0132
 135   2.0000      -0.655521       -17.8376
 136   2.0000      -0.644452       -17.5364
 137   2.0000      -0.638475       -17.3738
 138   2.0000      -0.635118       -17.2824
 139   2.0000      -0.632373       -17.2077
 140   2.0000      -0.627452       -17.0738
 141   2.0000      -0.621875       -16.9221
 142   2.0000      -0.619925       -16.8690
 143   2.0000      -0.614808       -16.7298
 144   2.0000      -0.606564       -16.5055
 145   2.0000      -0.589752       -16.0480
 146   2.0000      -0.588530       -16.0147
 147   2.0000      -0.581060       -15.8114
 148   2.0000      -0.578752       -15.7486
 149   2.0000      -0.575643       -15.6640
 150   2.0000      -0.570948       -15.5363
 151   2.0000      -0.568090       -15.4585
 152   2.0000      -0.566109       -15.4046
 153   2.0000      -0.564062       -15.3489
 154   2.0000      -0.561645       -15.2831
 155   2.0000      -0.544336       -14.8121
 156   2.0000      -0.539576       -14.6826
 157   2.0000      -0.535974       -14.5846
 158   2.0000      -0.532294       -14.4845
 159   2.0000      -0.530562       -14.4373
 160   2.0000      -0.529878       -14.4187
 161   2.0000      -0.520996       -14.1770
 162   2.0000      -0.514848       -14.0097
 163   2.0000      -0.509135       -13.8543
 164   2.0000      -0.506690       -13.7877
 165   2.0000      -0.502107       -13.6630
 166   2.0000      -0.495332       -13.4787
 167   2.0000      -0.493526       -13.4295
 168   2.0000      -0.491693       -13.3796
 169   2.0000      -0.488111       -13.2822
 170   2.0000      -0.487949       -13.2778
 171   2.0000      -0.486962       -13.2509
 172   2.0000      -0.484543       -13.1851
 173   2.0000      -0.482965       -13.1422
 174   2.0000      -0.480413       -13.0727
 175   2.0000      -0.479099       -13.0370
 176   2.0000      -0.477005       -12.9800
 177   2.0000      -0.472253       -12.8507
 178   2.0000      -0.469704       -12.7813
 179   2.0000      -0.468512       -12.7489
 180   2.0000      -0.467258       -12.7147
 181   2.0000      -0.464647       -12.6437
 182   2.0000      -0.464271       -12.6335
 183   2.0000      -0.461408       -12.5555
 184   2.0000      -0.457209       -12.4413
 185   2.0000      -0.453995       -12.3538
 186   2.0000      -0.452726       -12.3193
 187   2.0000      -0.443917       -12.0796
 188   2.0000      -0.442611       -12.0441
 189   2.0000      -0.440595       -11.9892
 190   2.0000      -0.438980       -11.9453
 191   2.0000      -0.435399       -11.8478
 192   2.0000      -0.434477       -11.8227
 193   2.0000      -0.433968       -11.8089
 194   2.0000      -0.433035       -11.7835
 195   2.0000      -0.432478       -11.7683
 196   2.0000      -0.430193       -11.7062
 197   2.0000      -0.427774       -11.6403
 198   2.0000      -0.426781       -11.6133
 199   2.0000      -0.426008       -11.5923
 200   2.0000      -0.425166       -11.5693
 201   2.0000      -0.422267       -11.4905
 202   2.0000      -0.420873       -11.4525
 203   2.0000      -0.419271       -11.4089
 204   2.0000      -0.416219       -11.3259
 205   2.0000      -0.414114       -11.2686
 206   2.0000      -0.411511       -11.1978
 207   2.0000      -0.403188       -10.9713
 208   2.0000      -0.400391       -10.8952
 209   2.0000      -0.399481       -10.8704
 210   2.0000      -0.397689       -10.8217
 211   2.0000      -0.395786       -10.7699
 212   2.0000      -0.392914       -10.6917
 213   2.0000      -0.388331       -10.5670
 214   2.0000      -0.385727       -10.4962
 215   2.0000      -0.384548       -10.4641
 216   2.0000      -0.377861       -10.2821
 217   2.0000      -0.377196       -10.2640
 218   2.0000      -0.374588       -10.1931
 219   2.0000      -0.373703       -10.1690
 220   2.0000      -0.370608       -10.0848
 221   2.0000      -0.367079        -9.9887
 222   2.0000      -0.364691        -9.9238
 223   2.0000      -0.364286        -9.9127
 224   2.0000      -0.359452        -9.7812
 225   2.0000      -0.358203        -9.7472
 226   2.0000      -0.357670        -9.7327
 227   2.0000      -0.356594        -9.7034
 228   2.0000      -0.355834        -9.6827
 229   2.0000      -0.354735        -9.6528
 230   2.0000      -0.352803        -9.6003
 231   2.0000      -0.352084        -9.5807
 232   2.0000      -0.351393        -9.5619
 233   2.0000      -0.350451        -9.5363
 234   2.0000      -0.349325        -9.5056
 235   2.0000      -0.344016        -9.3612
 236   2.0000      -0.339458        -9.2371
 237   2.0000      -0.336173        -9.1477
 238   2.0000      -0.315065        -8.5734
 239   2.0000      -0.314262        -8.5515
 240   2.0000      -0.312083        -8.4922
 241   2.0000      -0.308867        -8.4047
 242   2.0000      -0.305104        -8.3023
 243   2.0000      -0.301130        -8.1942
 244   2.0000      -0.299301        -8.1444
 245   2.0000      -0.295423        -8.0389
 246   2.0000      -0.285697        -7.7742
 247   2.0000      -0.282538        -7.6882
 248   2.0000      -0.282297        -7.6817
 249   2.0000      -0.269173        -7.3246
 250   2.0000      -0.266667        -7.2564
 251   2.0000      -0.256695        -6.9850
 252   2.0000      -0.251205        -6.8356
 253   2.0000      -0.241547        -6.5728
 254   2.0000      -0.240834        -6.5534
 255   2.0000      -0.239640        -6.5209
 256   2.0000      -0.238032        -6.4772
 257   2.0000      -0.232027        -6.3138
 258   2.0000      -0.222786        -6.0623
 259   2.0000      -0.221961        -6.0399
 260   2.0000      -0.215789        -5.8719
 261   0.0000      -0.123251        -3.3538
 262   0.0000      -0.119317        -3.2468
 263   0.0000      -0.117472        -3.1966
 264   0.0000      -0.103413        -2.8140
 265   0.0000      -0.089817        -2.4441

MULLIKEN ATOMIC CHARGES
-----------------------
   0 C :   -0.014393
   1 C :   -0.003251
   2 C :   -0.017537
   3 C :    0.000361
   4 C :    0.014249
   5 C :   -0.006786
   6 C :    0.017163
   7 C :   -0.002034
   8 C :    0.016281
   9 C :   -0.016355
  10 C :   -0.020805
  11 C :    0.021173
  12 C :    0.003504
  13 C :   -0.018279
  14 C :    0.023134
  15 C :    0.027458
  16 C :    0.041731
  17 C :    0.006835
  18 C :    0.036282
  19 C :    0.039271
  20 C :    0.037369
  21 C :    0.024896
  22 C :    0.039071
  23 C :   -0.001071
  24 C :   -0.099252
  25 C :   -0.106478
  26 C :   -0.101402
  27 C :   -0.120187
  28 C :   -0.140607
  29 C :    0.035266
  30 C :    0.030188
  31 C :   -0.094755
  32 C :    0.087839
  33 C :   -0.069125
  34 C :    0.055052
  35 C :    0.096740
  36 C :   -0.073874
  37 C :    0.011510
  38 C :    0.036088
  39 C :   -0.080147
  40 C :    0.108591
  41 C :   -0.246766
  42 C :   -0.361644
  43 C :   -0.085446
  44 C :    0.018097
  45 C :    0.010317
  46 C :    0.056670
  47 C :    0.036728
  48 C :   -0.125996
  49 C :   -0.022740
  50 C :    0.015640
  51 C :    0.088213
  52 C :    0.562759
  53 C :    0.209745
  54 C :    0.108439
  55 C :    0.037066
  56 C :   -0.109127
  57 C :    0.063605
  58 C :    0.073656
  59 C :   -0.009913
  60 C :   -0.384227
  61 C :    0.649577
  62 C :    0.190078
  63 C :   -0.112340
  64 C :   -0.088002
  65 C :    0.014132
  66 C :   -0.018048
  67 C :   -0.024522
  68 C :   -0.405452
  69 C :    0.037881
  70 C :    0.184516
  71 C :   -0.130175
  72 C :   -0.150912
  73 C :   -0.104905
  74 C :   -0.102601
  75 C :   -0.118888
  76 C :   -0.175890
  77 C :   -0.163029
  78 C :   -0.229135
  79 C :   -0.190227
  80 C :    0.304000
  81 O :   -0.324011
  82 O :   -0.257723
  83 C :   -0.168375
  84 H :    0.129281
  85 H :    0.109829
  86 H :    0.109938
  87 H :    0.108697
  88 H :    0.114444
  89 H :    0.112655
  90 H :    0.098571
  91 H :    0.106038
  92 H :    0.132517
  93 H :    0.109897
  94 H :    0.120606
  95 H :    0.120310
  96 H :    0.124470
  97 H :    0.128007
Sum of atomic charges:   -0.0000000

LOEWDIN ATOMIC CHARGES
----------------------
   0 C :   -0.002125
   1 C :    0.001824
   2 C :    0.004306
   3 C :    0.003290
   4 C :   -0.004707
   5 C :   -0.001769
   6 C :   -0.004951
   7 C :    0.001840
   8 C :    0.004354
   9 C :   -0.001866
  10 C :   -0.001085
  11 C :   -0.005205
  12 C :   -0.004017
  13 C :   -0.001525
  14 C :   -0.005467
  15 C :   -0.005401
  16 C :    0.002683
  17 C :   -0.004868
  18 C :    0.000544
  19 C :    0.000600
  20 C :    0.002637
  21 C :    0.002485
  22 C :    0.002950
  23 C :   -0.003764
  24 C :   -0.003249
  25 C :   -0.002125
  26 C :   -0.006131
  27 C :   -0.005177
  28 C :   -0.005151
  29 C :    0.002676
  30 C :    0.002759
  31 C :   -0.003058
  32 C :    0.002621
  33 C :    0.001031
  34 C :    0.002969
  35 C :    0.002744
  36 C :   -0.005698
  37 C :   -0.010989
  38 C :    0.000306
  39 C :   -0.006630
  40 C :   -0.022102
  41 C :    0.006388
  42 C :    0.010280
  43 C :    0.003532
  44 C :   -0.004560
  45 C :   -0.005161
  46 C :    0.000233
  47 C :    0.000584
  48 C :   -0.002922
  49 C :   -0.007481
  50 C :   -0.004465
  51 C :   -0.015410
  52 C :   -0.006947
  53 C :   -0.005402
  54 C :    0.003882
  55 C :    0.002748
  56 C :   -0.001942
  57 C :    0.000090
  58 C :   -0.000493
  59 C :   -0.004279
  60 C :    0.011501
  61 C :   -0.011841
  62 C :   -0.002190
  63 C :   -0.004181
  64 C :   -0.003170
  65 C :    0.003253
  66 C :   -0.000665
  67 C :   -0.007347
  68 C :    0.014609
  69 C :   -0.010995
  70 C :   -0.105826
  71 C :   -0.091619
  72 C :   -0.091913
  73 C :   -0.130959
  74 C :   -0.133658
  75 C :   -0.134098
  76 C :   -0.093632
  77 C :   -0.177368
  78 C :   -0.235098
  79 C :   -0.217450
  80 C :   -0.487263
  81 O :    0.115035
  82 O :    0.245552
  83 C :   -0.309941
  84 H :    0.154359
  85 H :    0.144709
  86 H :    0.143342
  87 H :    0.143685
  88 H :    0.151377
  89 H :    0.152368
  90 H :    0.146625
  91 H :    0.143666
  92 H :    0.147773
  93 H :    0.153293
  94 H :    0.148985
  95 H :    0.110602
  96 H :    0.111181
  97 H :    0.113063

  Mayer bond orders larger than 0.100000
B(  0-C ,  1-C ) :   1.3414 B(  0-C ,  4-C ) :   1.1521 B(  0-C ,  6-C ) :   1.1535
B(  1-C ,  2-C ) :   1.1375 B(  1-C ,  7-C ) :   1.1579 B(  2-C ,  3-C ) :   1.1498
B(  2-C ,  5-C ) :   1.3475 B(  3-C ,  8-C ) :   1.1351 B(  3-C , 10-C ) :   1.3375
B(  4-C , 11-C ) :   1.3656 B(  4-C , 16-C ) :   1.1184 B(  5-C , 11-C ) :   1.1518
B(  5-C , 12-C ) :   1.1436 B(  6-C , 17-C ) :   1.3699 B(  6-C , 18-C ) :   1.1158
B(  7-C ,  8-C ) :   1.1346 B(  7-C ,  9-C ) :   1.3291 B(  8-C , 13-C ) :   1.3494
B(  9-C , 17-C ) :   1.1523 B(  9-C , 44-C ) :   1.1607 B( 10-C , 14-C ) :   1.1490
B( 10-C , 15-C ) :   1.1493 B( 11-C , 19-C ) :   1.1201 B( 12-C , 14-C ) :   1.3657
B( 12-C , 20-C ) :   1.1215 B( 13-C , 23-C ) :   1.1541 B( 13-C , 45-C ) :   1.1514
B( 14-C , 21-C ) :   1.1257 B( 15-C , 22-C ) :   1.1335 B( 15-C , 23-C ) :   1.3549
B( 16-C , 18-C ) :   1.2579 B( 16-C , 24-C ) :   1.2264 B( 17-C , 46-C ) :   1.1150
B( 18-C , 31-C ) :   1.2387 B( 19-C , 20-C ) :   1.2576 B( 19-C , 25-C ) :   1.2305
B( 20-C , 26-C ) :   1.2343 B( 21-C , 22-C ) :   1.2531 B( 21-C , 27-C ) :   1.2357
B( 22-C , 28-C ) :   1.2209 B( 23-C , 29-C ) :   1.1230 B( 24-C , 25-C ) :   1.1443
B( 24-C , 30-C ) :   1.2345 B( 25-C , 32-C ) :   1.2280 B( 26-C , 27-C ) :   1.1733
B( 26-C , 33-C ) :   1.2153 B( 27-C , 34-C ) :   1.2016 B( 28-C , 35-C ) :   1.2103
B( 28-C , 36-C ) :   1.1795 B( 29-C , 36-C ) :   1.2270 B( 29-C , 47-C ) :   1.2575
B( 30-C , 37-C ) :   1.1044 B( 30-C , 38-C ) :   1.2560 B( 31-C , 38-C ) :   1.2218
B( 31-C , 48-C ) :   1.1518 B( 32-C , 33-C ) :   1.2622 B( 32-C , 39-C ) :   1.1363
B( 33-C , 40-C ) :   1.1685 B( 34-C , 35-C ) :   1.2289 B( 34-C , 41-C ) :   1.1844
B( 35-C , 42-C ) :   1.1863 B( 35-C , 52-C ) :  -0.1042 B( 36-C , 43-C ) :   1.2212
B( 37-C , 39-C ) :   1.3534 B( 37-C , 49-C ) :   1.1866 B( 38-C , 50-C ) :   1.1334
B( 39-C , 51-C ) :   1.1624 B( 40-C , 41-C ) :   1.3741 B( 40-C , 51-C ) :   1.0585
B( 41-C , 52-C ) :   0.8379 B( 42-C , 52-C ) :   0.8191 B( 42-C , 53-C ) :   1.4498
B( 43-C , 53-C ) :   1.1062 B( 43-C , 54-C ) :   1.2596 B( 44-C , 45-C ) :   1.3564
B( 44-C , 55-C ) :   1.1240 B( 45-C , 47-C ) :   1.1287 B( 46-C , 48-C ) :   1.2284
B( 46-C , 55-C ) :   1.2559 B( 47-C , 56-C ) :   1.2393 B( 48-C , 57-C ) :   1.2210
B( 49-C , 50-C ) :   1.1364 B( 49-C , 58-C ) :   1.3040 B( 50-C , 59-C ) :   1.3521
B( 51-C , 60-C ) :   1.4135 B( 52-C , 61-C ) :   0.7653 B( 52-C , 70-C ) :   0.9984
B( 53-C , 62-C ) :   1.0716 B( 54-C , 56-C ) :   1.2130 B( 54-C , 63-C ) :   1.1435
B( 55-C , 64-C ) :   1.2157 B( 56-C , 64-C ) :   1.1475 B( 57-C , 59-C ) :   1.1317
B( 57-C , 65-C ) :   1.2526 B( 58-C , 60-C ) :   1.1714 B( 58-C , 66-C ) :   1.1290
B( 59-C , 67-C ) :   1.1430 B( 60-C , 61-C ) :   0.7778 B( 61-C , 66-C ) :  -0.1042
B( 61-C , 68-C ) :   0.7859 B( 61-C , 70-C ) :   1.0252 B( 62-C , 63-C ) :   1.1550
B( 62-C , 68-C ) :   1.3864 B( 63-C , 69-C ) :   1.3239 B( 64-C , 65-C ) :   1.2400
B( 65-C , 69-C ) :   1.1179 B( 66-C , 67-C ) :   1.3136 B( 66-C , 68-C ) :   1.2403
B( 67-C , 69-C ) :   1.1780 B( 70-C , 71-C ) :   0.6995 B( 70-C , 77-C ) :   0.8400
B( 71-C , 72-C ) :   1.3628 B( 71-C , 76-C ) :   1.3736 B( 72-C , 73-C ) :   1.4207
B( 72-C , 84-H ) :   0.9731 B( 73-C , 74-C ) :   1.3940 B( 73-C , 85-H ) :   0.9763
B( 74-C , 75-C ) :   1.3897 B( 74-C , 86-H ) :   0.9727 B( 75-C , 76-C ) :   1.4405
B( 75-C , 87-H ) :   0.9762 B( 76-C , 88-H ) :   0.9736 B( 77-C , 78-C ) :   0.9860
B( 77-C , 89-H ) :   0.9622 B( 77-C , 90-H ) :   0.9435 B( 78-C , 79-C ) :   0.9689
B( 78-C , 91-H ) :   0.9717 B( 78-C , 92-H ) :   0.9643 B( 79-C , 80-C ) :   1.0027
B( 79-C , 93-H ) :   0.9383 B( 79-C , 94-H ) :   0.9556 B( 80-C , 81-O ) :   2.0082
B( 80-C , 82-O ) :   1.2066 B( 82-O , 83-C ) :   0.8952 B( 83-C , 95-H ) :   0.9762
B( 83-C , 96-H ) :   0.9674 B( 83-C , 97-H ) :   0.9739

-----------------------------------------------------------------------------
         ABSORPTION SPECTRUM VIA TRANSITION ELECTRIC DIPOLE MOMENTS
-----------------------------------------------------------------------------
State   Energy    Wavelength  fosc         T2        TX        TY        TZ
        (cm-1)      (nm)                 (au**2)    (au)      (au)      (au)
-----------------------------------------------------------------------------
   1   16271.0    614.6   0.005264607   0.10652   0.08750  -0.19502   0.24664
   2   16785.6    595.7   0.005609265   0.11001  -0.09482   0.19542  -0.25067
   3   17205.2    581.2   0.002402059   0.04596  -0.11921  -0.16716  -0.06171
   4   17576.6    568.9   0.000202152   0.00379   0.02366  -0.04039   0.03994
   5   17759.8    563.1   0.001397637   0.02591   0.14079   0.07276   0.02814
   6   18734.9    533.8   0.000431854   0.00759  -0.01779   0.04354  -0.07332
   7   18881.8    529.6   0.002381919   0.04153  -0.13902  -0.10778  -0.10290
   8   19415.9    515.0   0.002885833   0.04893  -0.17730  -0.08572  -0.10073
   9   19513.5    512.5   0.034029266   0.57411  -0.30383   0.41004  -0.56005
  10   19575.2    510.9   0.026621928   0.44772   0.48768   0.44676  -0.10145
  11   19815.7    504.7   0.016389849   0.27230   0.32678   0.35762   0.19394
  12   20488.0    488.1   0.000098330   0.00158   0.00933  -0.03742   0.00964
  13   20869.4    479.2   0.002998164   0.04730   0.13824  -0.07181   0.15175
  14   21065.8    474.7   0.000294797   0.00461  -0.01854   0.05657  -0.03261
  15   21290.7    469.7   0.013345604   0.20636   0.30376   0.26590   0.20830
  16   21435.9    466.5   0.003439666   0.05283  -0.00568  -0.04536  -0.22525
  17   21447.3    466.3   0.007133334   0.10950  -0.23755   0.09600  -0.20941
  18   21490.7    465.3   0.008530739   0.13068   0.29723   0.20557   0.00872
  19   21655.7    461.8   0.005145545   0.07822  -0.09125  -0.24966   0.08698
  20   21823.4    458.2   0.002073598   0.03128   0.05101  -0.05700   0.15947
  21   22014.5    454.2   0.001437700   0.02150  -0.00553  -0.11234   0.09407
  22   22173.5    451.0   0.005020062   0.07453  -0.23686  -0.13381  -0.02292
  23   22496.8    444.5   0.008060206   0.11795  -0.30353  -0.06995   0.14467
  24   22804.9    438.5   0.015783801   0.22785  -0.22483   0.34012   0.24824
  25   22883.3    437.0   0.037353559   0.53739   0.21882  -0.40953   0.56727
  26   22987.6    435.0   0.026769311   0.38337  -0.23093   0.44947   0.35780
  27   23209.9    430.9   0.002784779   0.03950  -0.06493   0.12153  -0.14323
  28   23303.6    429.1   0.051076649   0.72157  -0.75648  -0.37732  -0.08321
  29   23514.6    425.3   0.032168339   0.45037  -0.12126   0.46491  -0.46853
  30   24238.4    412.6   0.000406250   0.00552  -0.00178   0.04903  -0.05577
  31   24373.9    410.3   0.005327002   0.07195   0.01928   0.16119   0.21353
  32   24596.3    406.6   0.008984245   0.12025  -0.04724   0.13501   0.31590
  33   24699.4    404.9   0.007398579   0.09861  -0.06325   0.26095  -0.16284
  34   25063.2    399.0   0.006785339   0.08913   0.02337  -0.12693   0.26920
  35   25399.6    393.7   0.006245155   0.08095   0.09737  -0.16734  -0.20847
  36   25641.5    390.0   0.040262104   0.51693   0.49331  -0.30474  -0.42509
  37   25684.5    389.3   0.009913900   0.12707   0.03459   0.26262   0.23855
  38   25866.7    386.6   0.004842927   0.06164   0.16047  -0.09989  -0.16096
  39   25911.9    385.9   0.010471779   0.13304  -0.00392   0.36385   0.02532
  40   26029.7    384.2   0.034001923   0.43004   0.48678   0.36761   0.24072
  41   26339.9    379.7   0.011270281   0.14086  -0.13150   0.13266  -0.32553
  42   26672.3    374.9   0.001083759   0.01338  -0.08513   0.04305   0.06539
  43   26794.6    373.2   0.005149979   0.06328  -0.09211   0.21788  -0.08554
  44   26975.0    370.7   0.024394386   0.29772  -0.10028   0.32584   0.42601
  45   27496.6    363.7   0.006493214   0.07774   0.04902  -0.25835  -0.09271
  46   27959.5    357.7   0.004513717   0.05315   0.13691  -0.17566   0.05954
  47   27980.1    357.4   0.004191503   0.04932   0.13826   0.01242  -0.17334
  48   28162.3    355.1   0.103588343   1.21093   0.43262  -0.63743  -0.78578
  49   28304.7    353.3   0.000107924   0.00126  -0.03314  -0.00961   0.00804
  50   28392.9    352.2   0.012232789   0.14184   0.10254  -0.19199  -0.30735

FINAL SINGLE POINT ENERGY     -3282.500681268565

DIPOLE MOMENT
-------------
                                X             Y             Z
Electronic contribution:     18.30816     -65.80914     -49.18119
Nuclear contribution   :    -18.10116      67.27606      49.80146
                        -----------------------------------------
Total Dipole Moment    :      0.20701       1.46692       0.62027
                        -----------------------------------------
Magnitude (a.u.)       :      1.60606
Magnitude (Debye)      :      4.08229

Rotational constants in cm-1:     0.001838     0.000912     0.000854
Rotational constants in MHz :    55.102435    27.344846    25.606897

                             ****ORCA TERMINATED NORMALLY****
TOTAL RUN TIME: 2 days 9 hours 44 minutes 34 seconds 798 msec
