                         Program Version 4.2.0 -  RELEASE  -
|  1> # ORCA input file
|  2> # PC70BM.out: Geometry 69
|  3> ! B3LYP def2-TZVP def2/J RIJCOSX Grid4 TightSCF
|  4>
|  5> %maxcore 6000
|  6> %tddft
|  7>   maxdim 5
|  8>   nroots 50
|  9>   end
| 10> %pal
| 11>   nprocs 6
| 12>   end
| 13>
| 14>
| 15> * xyz 0 1
| 16>    C       -0.00609         0.05574        -0.02337
| 17>    C        1.34055        -0.29587         0.12915
| 18>    C        2.36969         0.72461         0.00334
| 19>    C        3.40104         0.44512         0.99146
| 20>    C       -0.37360         1.43249        -0.29626
| 21>    C        2.00937         2.04837        -0.27246
| 22>    C       -1.00687        -0.47936         0.88027
| 23>    C        1.73260        -1.20512         1.19320
| 24>    C        3.00434        -0.74569         1.72888
| 25>    C        0.76049        -1.72305         2.05923
| 26>    C        4.02784         1.50115         1.65983
| 27>    C        0.61055         2.40767        -0.41891
| 28>    C        2.65614         3.14166         0.43164
| 29>    C        3.25039        -0.82629         3.10370
| 30>    C        3.64446         2.87349         1.37549
| 31>    C        4.27296         1.41491         3.08874
| 32>    C       -1.60137         1.73258         0.41931
| 33>    C       -0.63240        -1.34943         1.89891
| 34>    C       -1.99463         0.55442         1.14187
| 35>    C        0.40585         3.71886         0.17242
| 36>    C        1.66573         4.17210         0.69382
| 37>    C        3.67308         3.62506         2.61592
| 38>    C        4.05753         2.72546         3.67057
| 39>    C        3.89000         0.27812         3.79476
| 40>    C       -1.86397         3.03482         0.92909
| 41>    C       -0.81870         4.06318         0.80899
| 42>    C        1.72995         4.98269         1.86265
| 43>    C        2.76614         4.69352         2.85574
| 44>    C        3.54609         2.87497         4.98778
| 45>    C        3.28593         0.41193         5.10794
| 46>    C       -2.76817         3.11000         2.02288
| 47>    C       -2.66121         0.64753         2.39390
| 48>    C       -0.75292         5.08636         1.79780
| 49>    C        0.50417         5.54588         2.31860
| 50>    C        2.49148         4.99698         4.21964
| 51>    C        2.87659         4.09893         5.27221
| 52>    C        3.15014         1.68172         5.73495
| 53>    C       -2.73807         4.22226         2.95822
| 54>    C       -3.16436         1.93213         2.74510
| 55>    C       -1.74038         5.18959         2.85340
| 56>    C        0.30721         5.94566         3.70202
| 57>    C        1.30121         5.69928         4.63216
| 58>    C        1.93266         4.22808         6.35317
| 59>    C        2.11374         1.80899         6.70122
| 60>    C        1.01783        -1.79333         3.48594
| 61>    C        2.23428        -1.35386         3.99739
| 62>    C       -1.23191        -1.21571         3.21695
| 63>    C        2.26525        -0.59090         5.23314
| 64>    C       -2.26449        -0.27194         3.47247
| 65>    C       -3.12460         3.73666         4.25824
| 66>    C       -3.37536         2.31200         4.12946
| 67>    C       -1.10713         5.73443         4.04022
| 68>    C        1.02327         5.36543         6.05355
| 69>    C        1.53404         3.09667         7.04061
| 70>    C        1.09381         0.80524         6.82381
| 71>    C       -0.21361        -1.48681         4.19459
| 72>    C        1.08460        -0.34852         5.98842
| 73>    C       -2.40279         0.16166         4.82191
| 74>    C       -2.48371         4.23909         5.40027
| 75>    C       -3.00193         1.44272         5.14895
| 76>    C       -1.48763         5.28088         5.29858
| 77>    C       -0.53158         5.13243         6.43482
| 78>    C        0.12325         2.87940         7.38645
| 79>    C       -0.13277         1.46003         7.23352
| 80>    C       -0.20185        -0.81996         5.45237
| 81>    C       -1.38265        -0.10688         5.79829
| 82>    C       -2.09342         3.33243         6.46158
| 83>    C       -2.36093         1.95967         6.34484
| 84>    C       -0.85137         3.80118         7.02621
| 85>    C       -1.35329         1.00584         6.73500
| 86>    C        0.29591         6.21776         7.06738
| 87>    C        0.70247         6.03753         8.50569
| 88>    C       -0.24185         5.73799         9.49435
| 89>    C        0.14433         5.64136        10.83430
| 90>    C        1.47941         5.83681        11.19585
| 91>    C        2.42860         6.13092        10.21299
| 92>    C        2.04022         6.23178         8.87632
| 93>    C       -0.04268         7.66368         6.69622
| 94>    C       -1.44160         8.06315         7.16601
| 95>    C       -1.84097         9.47671         6.75617
| 96>    C       -3.31499         9.74764         6.97801
| 97>    O       -4.12468         8.94289         7.37116
| 98>    O       -3.62873        11.01630         6.65612
| 99>    C       -5.00367        11.37773         6.78413
|100>    H       -1.28326         5.57112         9.21179
|101>    H       -0.60103         5.40574        11.59695
|102>    H        1.78432         5.75436        12.24193
|103>    H        3.47438         6.28316        10.49028
|104>    H        2.78212         6.45721         8.10685
|105>    H        0.03625         7.80149         5.60745
|106>    H        0.72148         8.31598         7.14853
|107>    H       -2.17821         7.36089         6.74870
|108>    H       -1.51861         7.96128         8.26025
|109>    H       -1.26270        10.24603         7.29373
|110>    H       -1.63485         9.65564         5.68588
|111>    H       -5.32382        11.33362         7.83623
|112>    H       -5.08895        12.40282         6.40322
|113>    H       -5.64272        10.69967         6.20026
|114> *
|115>
|116>                          ****END OF INPUT****

CARTESIAN COORDINATES (ANGSTROEM)
---------------------------------
  C     -0.006090    0.055740   -0.023370
  C      1.340550   -0.295870    0.129150
  C      2.369690    0.724610    0.003340
  C      3.401040    0.445120    0.991460
  C     -0.373600    1.432490   -0.296260
  C      2.009370    2.048370   -0.272460
  C     -1.006870   -0.479360    0.880270
  C      1.732600   -1.205120    1.193200
  C      3.004340   -0.745690    1.728880
  C      0.760490   -1.723050    2.059230
  C      4.027840    1.501150    1.659830
  C      0.610550    2.407670   -0.418910
  C      2.656140    3.141660    0.431640
  C      3.250390   -0.826290    3.103700
  C      3.644460    2.873490    1.375490
  C      4.272960    1.414910    3.088740
  C     -1.601370    1.732580    0.419310
  C     -0.632400   -1.349430    1.898910
  C     -1.994630    0.554420    1.141870
  C      0.405850    3.718860    0.172420
  C      1.665730    4.172100    0.693820
  C      3.673080    3.625060    2.615920
  C      4.057530    2.725460    3.670570
  C      3.890000    0.278120    3.794760
  C     -1.863970    3.034820    0.929090
  C     -0.818700    4.063180    0.808990
  C      1.729950    4.982690    1.862650
  C      2.766140    4.693520    2.855740
  C      3.546090    2.874970    4.987780
  C      3.285930    0.411930    5.107940
  C     -2.768170    3.110000    2.022880
  C     -2.661210    0.647530    2.393900
  C     -0.752920    5.086360    1.797800
  C      0.504170    5.545880    2.318600
  C      2.491480    4.996980    4.219640
  C      2.876590    4.098930    5.272210
  C      3.150140    1.681720    5.734950
  C     -2.738070    4.222260    2.958220
  C     -3.164360    1.932130    2.745100
  C     -1.740380    5.189590    2.853400
  C      0.307210    5.945660    3.702020
  C      1.301210    5.699280    4.632160
  C      1.932660    4.228080    6.353170
  C      2.113740    1.808990    6.701220
  C      1.017830   -1.793330    3.485940
  C      2.234280   -1.353860    3.997390
  C     -1.231910   -1.215710    3.216950
  C      2.265250   -0.590900    5.233140
  C     -2.264490   -0.271940    3.472470
  C     -3.124600    3.736660    4.258240
  C     -3.375360    2.312000    4.129460
  C     -1.107130    5.734430    4.040220
  C      1.023270    5.365430    6.053550
  C      1.534040    3.096670    7.040610
  C      1.093810    0.805240    6.823810
  C     -0.213610   -1.486810    4.194590
  C      1.084600   -0.348520    5.988420
  C     -2.402790    0.161660    4.821910
  C     -2.483710    4.239090    5.400270
  C     -3.001930    1.442720    5.148950
  C     -1.487630    5.280880    5.298580
  C     -0.531580    5.132430    6.434820
  C      0.123250    2.879400    7.386450
  C     -0.132770    1.460030    7.233520
  C     -0.201850   -0.819960    5.452370
  C     -1.382650   -0.106880    5.798290
  C     -2.093420    3.332430    6.461580
  C     -2.360930    1.959670    6.344840
  C     -0.851370    3.801180    7.026210
  C     -1.353290    1.005840    6.735000
  C      0.295910    6.217760    7.067380
  C      0.702470    6.037530    8.505690
  C     -0.241850    5.737990    9.494350
  C      0.144330    5.641360   10.834300
  C      1.479410    5.836810   11.195850
  C      2.428600    6.130920   10.212990
  C      2.040220    6.231780    8.876320
  C     -0.042680    7.663680    6.696220
  C     -1.441600    8.063150    7.166010
  C     -1.840970    9.476710    6.756170
  C     -3.314990    9.747640    6.978010
  O     -4.124680    8.942890    7.371160
  O     -3.628730   11.016300    6.656120
  C     -5.003670   11.377730    6.784130
  H     -1.283260    5.571120    9.211790
  H     -0.601030    5.405740   11.596950
  H      1.784320    5.754360   12.241930
  H      3.474380    6.283160   10.490280
  H      2.782120    6.457210    8.106850
  H      0.036250    7.801490    5.607450
  H      0.721480    8.315980    7.148530
  H     -2.178210    7.360890    6.748700
  H     -1.518610    7.961280    8.260250
  H     -1.262700   10.246030    7.293730
  H     -1.634850    9.655640    5.685880
  H     -5.323820   11.333620    7.836230
  H     -5.088950   12.402820    6.403220
  H     -5.642720   10.699670    6.200260

 Total Charge           Charge          ....    0
 Multiplicity           Mult            ....    1
 Number of Electrons    NEL             ....  522
 Basis Dimension        Dim             .... 2688

ORBITAL ENERGIES
----------------

  NO   OCC          E(Eh)            E(eV)
   0   2.0000     -19.177093      -521.8352
   1   2.0000     -19.117464      -520.2126
   2   2.0000     -10.304027      -280.3868
   3   2.0000     -10.238926      -278.6154
   4   2.0000     -10.237285      -278.5707
   5   2.0000     -10.232784      -278.4482
   6   2.0000     -10.230357      -278.3822
   7   2.0000     -10.226024      -278.2643
   8   2.0000     -10.225859      -278.2598
   9   2.0000     -10.225691      -278.2552
  10   2.0000     -10.225672      -278.2547
  11   2.0000     -10.225504      -278.2501
  12   2.0000     -10.225174      -278.2411
  13   2.0000     -10.224740      -278.2293
  14   2.0000     -10.224616      -278.2259
  15   2.0000     -10.224541      -278.2239
  16   2.0000     -10.224375      -278.2194
  17   2.0000     -10.224057      -278.2107
  18   2.0000     -10.223801      -278.2038
  19   2.0000     -10.223341      -278.1913
  20   2.0000     -10.222366      -278.1647
  21   2.0000     -10.222176      -278.1595
  22   2.0000     -10.221906      -278.1522
  23   2.0000     -10.221885      -278.1516
  24   2.0000     -10.221314      -278.1361
  25   2.0000     -10.220848      -278.1234
  26   2.0000     -10.220598      -278.1166
  27   2.0000     -10.220483      -278.1135
  28   2.0000     -10.220454      -278.1127
  29   2.0000     -10.219927      -278.0984
  30   2.0000     -10.219120      -278.0764
  31   2.0000     -10.218934      -278.0713
  32   2.0000     -10.218539      -278.0606
  33   2.0000     -10.217791      -278.0402
  34   2.0000     -10.217655      -278.0365
  35   2.0000     -10.217585      -278.0346
  36   2.0000     -10.217489      -278.0320
  37   2.0000     -10.217476      -278.0317
  38   2.0000     -10.217368      -278.0287
  39   2.0000     -10.217158      -278.0230
  40   2.0000     -10.217147      -278.0227
  41   2.0000     -10.216892      -278.0158
  42   2.0000     -10.216776      -278.0126
  43   2.0000     -10.216755      -278.0120
  44   2.0000     -10.216598      -278.0078
  45   2.0000     -10.216551      -278.0065
  46   2.0000     -10.216411      -278.0027
  47   2.0000     -10.216288      -277.9993
  48   2.0000     -10.216163      -277.9959
  49   2.0000     -10.216135      -277.9952
  50   2.0000     -10.216040      -277.9926
  51   2.0000     -10.215990      -277.9912
  52   2.0000     -10.215985      -277.9911
  53   2.0000     -10.215881      -277.9883
  54   2.0000     -10.215853      -277.9875
  55   2.0000     -10.215632      -277.9815
  56   2.0000     -10.215576      -277.9799
  57   2.0000     -10.215557      -277.9794
  58   2.0000     -10.215196      -277.9696
  59   2.0000     -10.215193      -277.9695
  60   2.0000     -10.215096      -277.9669
  61   2.0000     -10.215039      -277.9653
  62   2.0000     -10.214991      -277.9640
  63   2.0000     -10.214718      -277.9566
  64   2.0000     -10.214697      -277.9560
  65   2.0000     -10.214664      -277.9551
  66   2.0000     -10.214513      -277.9510
  67   2.0000     -10.214258      -277.9441
  68   2.0000     -10.214146      -277.9410
  69   2.0000     -10.213521      -277.9240
  70   2.0000     -10.213496      -277.9233
  71   2.0000     -10.211692      -277.8743
  72   2.0000     -10.211499      -277.8690
  73   2.0000     -10.210475      -277.8412
  74   2.0000     -10.210219      -277.8342
  75   2.0000     -10.199969      -277.5553
  76   2.0000     -10.194441      -277.4048
  77   2.0000     -10.193028      -277.3664
  78   2.0000     -10.188806      -277.2515
  79   2.0000     -10.188310      -277.2380
  80   2.0000     -10.187603      -277.2188
  81   2.0000     -10.187200      -277.2078
  82   2.0000     -10.186549      -277.1901
  83   2.0000     -10.181004      -277.0392
  84   2.0000      -1.113451       -30.2985
  85   2.0000      -1.024850       -27.8876
  86   2.0000      -0.970689       -26.4138
  87   2.0000      -0.960110       -26.1259
  88   2.0000      -0.949937       -25.8491
  89   2.0000      -0.948386       -25.8069
  90   2.0000      -0.932325       -25.3699
  91   2.0000      -0.924314       -25.1519
  92   2.0000      -0.922609       -25.1055
  93   2.0000      -0.913961       -24.8701
  94   2.0000      -0.912798       -24.8385
  95   2.0000      -0.897699       -24.4276
  96   2.0000      -0.887219       -24.1425
  97   2.0000      -0.880820       -23.9683
  98   2.0000      -0.878135       -23.8953
  99   2.0000      -0.865775       -23.5589
 100   2.0000      -0.864332       -23.5197
 101   2.0000      -0.856681       -23.3115
 102   2.0000      -0.855220       -23.2717
 103   2.0000      -0.842448       -22.9242
 104   2.0000      -0.832973       -22.6664
 105   2.0000      -0.814768       -22.1710
 106   2.0000      -0.810218       -22.0472
 107   2.0000      -0.809880       -22.0380
 108   2.0000      -0.809333       -22.0231
 109   2.0000      -0.807844       -21.9826
 110   2.0000      -0.806939       -21.9579
 111   2.0000      -0.791347       -21.5337
 112   2.0000      -0.790412       -21.5082
 113   2.0000      -0.785873       -21.3847
 114   2.0000      -0.760896       -20.7050
 115   2.0000      -0.758377       -20.6365
 116   2.0000      -0.756668       -20.5900
 117   2.0000      -0.753608       -20.5067
 118   2.0000      -0.750108       -20.4115
 119   2.0000      -0.746051       -20.3011
 120   2.0000      -0.745192       -20.2777
 121   2.0000      -0.742073       -20.1928
 122   2.0000      -0.735184       -20.0054
 123   2.0000      -0.734350       -19.9827
 124   2.0000      -0.733592       -19.9621
 125   2.0000      -0.730421       -19.8758
 126   2.0000      -0.712654       -19.3923
 127   2.0000      -0.694245       -18.8914
 128   2.0000      -0.686953       -18.6929
 129   2.0000      -0.676869       -18.4185
 130   2.0000      -0.675126       -18.3711
 131   2.0000      -0.667692       -18.1688
 132   2.0000      -0.666362       -18.1326
 133   2.0000      -0.660618       -17.9763
 134   2.0000      -0.658253       -17.9120
 135   2.0000      -0.654809       -17.8182
 136   2.0000      -0.642194       -17.4750
 137   2.0000      -0.635723       -17.2989
 138   2.0000      -0.631981       -17.1971
 139   2.0000      -0.629315       -17.1245
 140   2.0000      -0.624835       -17.0026
 141   2.0000      -0.619152       -16.8480
 142   2.0000      -0.617388       -16.8000
 143   2.0000      -0.613076       -16.6826
 144   2.0000      -0.604558       -16.4509
 145   2.0000      -0.588116       -16.0035
 146   2.0000      -0.584603       -15.9078
 147   2.0000      -0.580612       -15.7993
 148   2.0000      -0.577392       -15.7116
 149   2.0000      -0.574799       -15.6411
 150   2.0000      -0.568571       -15.4716
 151   2.0000      -0.565536       -15.3890
 152   2.0000      -0.563043       -15.3212
 153   2.0000      -0.560824       -15.2608
 154   2.0000      -0.557499       -15.1703
 155   2.0000      -0.541024       -14.7220
 156   2.0000      -0.536393       -14.5960
 157   2.0000      -0.533624       -14.5206
 158   2.0000      -0.530607       -14.4386
 159   2.0000      -0.527621       -14.3573
 160   2.0000      -0.526950       -14.3390
 161   2.0000      -0.518640       -14.1129
 162   2.0000      -0.512339       -13.9415
 163   2.0000      -0.506986       -13.7958
 164   2.0000      -0.504722       -13.7342
 165   2.0000      -0.500986       -13.6325
 166   2.0000      -0.493759       -13.4359
 167   2.0000      -0.492300       -13.3962
 168   2.0000      -0.488834       -13.3018
 169   2.0000      -0.486851       -13.2479
 170   2.0000      -0.486441       -13.2367
 171   2.0000      -0.484702       -13.1894
 172   2.0000      -0.481877       -13.1125
 173   2.0000      -0.480288       -13.0693
 174   2.0000      -0.478144       -13.0110
 175   2.0000      -0.476835       -12.9753
 176   2.0000      -0.474006       -12.8984
 177   2.0000      -0.469799       -12.7839
 178   2.0000      -0.467138       -12.7115
 179   2.0000      -0.464152       -12.6302
 180   2.0000      -0.463447       -12.6110
 181   2.0000      -0.461367       -12.5544
 182   2.0000      -0.460768       -12.5381
 183   2.0000      -0.458583       -12.4787
 184   2.0000      -0.455682       -12.3997
 185   2.0000      -0.452346       -12.3090
 186   2.0000      -0.451023       -12.2730
 187   2.0000      -0.441821       -12.0226
 188   2.0000      -0.440387       -11.9835
 189   2.0000      -0.438658       -11.9365
 190   2.0000      -0.436530       -11.8786
 191   2.0000      -0.433785       -11.8039
 192   2.0000      -0.432612       -11.7720
 193   2.0000      -0.431832       -11.7507
 194   2.0000      -0.429805       -11.6956
 195   2.0000      -0.429529       -11.6881
 196   2.0000      -0.428250       -11.6533
 197   2.0000      -0.426380       -11.6024
 198   2.0000      -0.425463       -11.5774
 199   2.0000      -0.424994       -11.5647
 200   2.0000      -0.423456       -11.5228
 201   2.0000      -0.418864       -11.3979
 202   2.0000      -0.418463       -11.3870
 203   2.0000      -0.415925       -11.3179
 204   2.0000      -0.414138       -11.2693
 205   2.0000      -0.413283       -11.2460
 206   2.0000      -0.411363       -11.1938
 207   2.0000      -0.403395       -10.9769
 208   2.0000      -0.400198       -10.8899
 209   2.0000      -0.399974       -10.8838
 210   2.0000      -0.396915       -10.8006
 211   2.0000      -0.395755       -10.7690
 212   2.0000      -0.392256       -10.6738
 213   2.0000      -0.385709       -10.4957
 214   2.0000      -0.384580       -10.4650
 215   2.0000      -0.380221       -10.3463
 216   2.0000      -0.375119       -10.2075
 217   2.0000      -0.375003       -10.2043
 218   2.0000      -0.374094       -10.1796
 219   2.0000      -0.371445       -10.1075
 220   2.0000      -0.368549       -10.0287
 221   2.0000      -0.366348        -9.9688
 222   2.0000      -0.364994        -9.9320
 223   2.0000      -0.363727        -9.8975
 224   2.0000      -0.359313        -9.7774
 225   2.0000      -0.357047        -9.7158
 226   2.0000      -0.356498        -9.7008
 227   2.0000      -0.355047        -9.6613
 228   2.0000      -0.354113        -9.6359
 229   2.0000      -0.353699        -9.6246
 230   2.0000      -0.352451        -9.5907
 231   2.0000      -0.351185        -9.5562
 232   2.0000      -0.351021        -9.5518
 233   2.0000      -0.350258        -9.5310
 234   2.0000      -0.347055        -9.4438
 235   2.0000      -0.344322        -9.3695
 236   2.0000      -0.338875        -9.2213
 237   2.0000      -0.336577        -9.1587
 238   2.0000      -0.314009        -8.5446
 239   2.0000      -0.313119        -8.5204
 240   2.0000      -0.310017        -8.4360
 241   2.0000      -0.307367        -8.3639
 242   2.0000      -0.303694        -8.2639
 243   2.0000      -0.300109        -8.1664
 244   2.0000      -0.298380        -8.1193
 245   2.0000      -0.294593        -8.0163
 246   2.0000      -0.286279        -7.7901
 247   2.0000      -0.281478        -7.6594
 248   2.0000      -0.281400        -7.6573
 249   2.0000      -0.268566        -7.3081
 250   2.0000      -0.266361        -7.2480
 251   2.0000      -0.256368        -6.9761
 252   2.0000      -0.251121        -6.8334
 253   2.0000      -0.241664        -6.5760
 254   2.0000      -0.241078        -6.5601
 255   2.0000      -0.239784        -6.5249
 256   2.0000      -0.238428        -6.4880
 257   2.0000      -0.232728        -6.3328
 258   2.0000      -0.223264        -6.0753
 259   2.0000      -0.222784        -6.0623
 260   2.0000      -0.216358        -5.8874
 261   0.0000      -0.124755        -3.3947
 262   0.0000      -0.121674        -3.3109
 263   0.0000      -0.119055        -3.2396
 264   0.0000      -0.104368        -2.8400
 265   0.0000      -0.091746        -2.4965

MULLIKEN ATOMIC CHARGES
-----------------------
   0 C :   -0.011074
   1 C :   -0.006322
   2 C :   -0.020428
   3 C :    0.011099
   4 C :    0.013609
   5 C :   -0.000868
   6 C :    0.006627
   7 C :    0.004751
   8 C :   -0.000716
   9 C :   -0.014444
  10 C :   -0.023443
  11 C :    0.011833
  12 C :   -0.002320
  13 C :    0.001578
  14 C :    0.017160
  15 C :    0.029195
  16 C :    0.033069
  17 C :    0.008533
  18 C :    0.055557
  19 C :    0.046587
  20 C :    0.040059
  21 C :    0.030996
  22 C :    0.033089
  23 C :   -0.007194
  24 C :   -0.083686
  25 C :   -0.113110
  26 C :   -0.105382
  27 C :   -0.110183
  28 C :   -0.125741
  29 C :    0.031435
  30 C :    0.017231
  31 C :   -0.108043
  32 C :    0.086167
  33 C :   -0.048021
  34 C :    0.032376
  35 C :    0.100608
  36 C :   -0.070771
  37 C :    0.022761
  38 C :    0.044336
  39 C :   -0.086377
  40 C :    0.074748
  41 C :   -0.205286
  42 C :   -0.351369
  43 C :   -0.068335
  44 C :    0.018124
  45 C :   -0.001123
  46 C :    0.050626
  47 C :    0.042113
  48 C :   -0.122641
  49 C :   -0.023544
  50 C :    0.014012
  51 C :    0.135952
  52 C :    0.515237
  53 C :    0.177632
  54 C :    0.100296
  55 C :    0.030146
  56 C :   -0.103511
  57 C :    0.067501
  58 C :    0.086075
  59 C :   -0.013381
  60 C :   -0.436693
  61 C :    0.620415
  62 C :    0.170834
  63 C :   -0.090076
  64 C :   -0.085183
  65 C :    0.013809
  66 C :   -0.018480
  67 C :   -0.013977
  68 C :   -0.369413
  69 C :    0.028303
  70 C :    0.215677
  71 C :   -0.126536
  72 C :   -0.164318
  73 C :   -0.112812
  74 C :   -0.107647
  75 C :   -0.116507
  76 C :   -0.175047
  77 C :   -0.199357
  78 C :   -0.203786
  79 C :   -0.227383
  80 C :    0.319725
  81 O :   -0.328483
  82 O :   -0.260568
  83 C :   -0.171134
  84 H :    0.140533
  85 H :    0.112346
  86 H :    0.111640
  87 H :    0.110521
  88 H :    0.117960
  89 H :    0.117147
  90 H :    0.104513
  91 H :    0.133291
  92 H :    0.110544
  93 H :    0.120713
  94 H :    0.120445
  95 H :    0.122702
  96 H :    0.125332
  97 H :    0.127144
Sum of atomic charges:   -0.0000000

LOEWDIN ATOMIC CHARGES
----------------------
   0 C :   -0.002535
   1 C :    0.001685
   2 C :    0.004382
   3 C :    0.003376
   4 C :   -0.004875
   5 C :   -0.002158
   6 C :   -0.005025
   7 C :    0.001929
   8 C :    0.004213
   9 C :   -0.001820
  10 C :   -0.001515
  11 C :   -0.005429
  12 C :   -0.003813
  13 C :   -0.001911
  14 C :   -0.005702
  15 C :   -0.005781
  16 C :    0.002484
  17 C :   -0.005079
  18 C :   -0.000053
  19 C :    0.000076
  20 C :    0.002437
  21 C :    0.002385
  22 C :    0.002546
  23 C :   -0.003954
  24 C :   -0.002576
  25 C :   -0.000942
  26 C :   -0.005058
  27 C :   -0.004267
  28 C :   -0.004355
  29 C :    0.002137
  30 C :    0.002902
  31 C :   -0.002129
  32 C :    0.002093
  33 C :    0.000737
  34 C :    0.002166
  35 C :    0.001723
  36 C :   -0.005114
  37 C :   -0.011130
  38 C :   -0.000022
  39 C :   -0.006397
  40 C :   -0.021898
  41 C :    0.003127
  42 C :    0.007193
  43 C :    0.002658
  44 C :   -0.004809
  45 C :   -0.005184
  46 C :   -0.000053
  47 C :    0.000283
  48 C :   -0.001777
  49 C :   -0.006299
  50 C :   -0.004090
  51 C :   -0.013670
  52 C :   -0.002598
  53 C :   -0.004741
  54 C :    0.003585
  55 C :    0.002723
  56 C :   -0.001015
  57 C :   -0.000255
  58 C :    0.001786
  59 C :   -0.004325
  60 C :    0.010051
  61 C :   -0.005969
  62 C :   -0.002622
  63 C :   -0.004703
  64 C :   -0.002406
  65 C :    0.003399
  66 C :    0.000261
  67 C :   -0.007124
  68 C :    0.013518
  69 C :   -0.010990
  70 C :   -0.106989
  71 C :   -0.088990
  72 C :   -0.096606
  73 C :   -0.133176
  74 C :   -0.135503
  75 C :   -0.135116
  76 C :   -0.095178
  77 C :   -0.178957
  78 C :   -0.239624
  79 C :   -0.221316
  80 C :   -0.474890
  81 O :    0.108499
  82 O :    0.236627
  83 C :   -0.312010
  84 H :    0.154378
  85 H :    0.145483
  86 H :    0.144408
  87 H :    0.144890
  88 H :    0.152482
  89 H :    0.151759
  90 H :    0.147955
  91 H :    0.151000
  92 H :    0.144943
  93 H :    0.152141
  94 H :    0.155025
  95 H :    0.112481
  96 H :    0.113022
  97 H :    0.113576

  Mayer bond orders larger than 0.100000
B(  0-C ,  1-C ) :   1.3488 B(  0-C ,  4-C ) :   1.1479 B(  0-C ,  6-C ) :   1.1503
B(  1-C ,  2-C ) :   1.1354 B(  1-C ,  7-C ) :   1.1524 B(  2-C ,  3-C ) :   1.1467
B(  2-C ,  5-C ) :   1.3519 B(  3-C ,  8-C ) :   1.1333 B(  3-C , 10-C ) :   1.3542
B(  4-C , 11-C ) :   1.3667 B(  4-C , 16-C ) :   1.1225 B(  5-C , 11-C ) :   1.1492
B(  5-C , 12-C ) :   1.1400 B(  6-C , 17-C ) :   1.3721 B(  6-C , 18-C ) :   1.1164
B(  7-C ,  8-C ) :   1.1334 B(  7-C ,  9-C ) :   1.3340 B(  8-C , 13-C ) :   1.3536
B(  9-C , 17-C ) :   1.1465 B(  9-C , 44-C ) :   1.1546 B( 10-C , 14-C ) :   1.1442
B( 10-C , 15-C ) :   1.1409 B( 11-C , 19-C ) :   1.1194 B( 12-C , 14-C ) :   1.3679
B( 12-C , 20-C ) :   1.1255 B( 13-C , 23-C ) :   1.1519 B( 13-C , 45-C ) :   1.1464
B( 14-C , 21-C ) :   1.1296 B( 15-C , 22-C ) :   1.1397 B( 15-C , 23-C ) :   1.3553
B( 16-C , 18-C ) :   1.2510 B( 16-C , 24-C ) :   1.2304 B( 17-C , 46-C ) :   1.1152
B( 18-C , 31-C ) :   1.2333 B( 19-C , 20-C ) :   1.2527 B( 19-C , 25-C ) :   1.2340
B( 20-C , 26-C ) :   1.2339 B( 21-C , 22-C ) :   1.2435 B( 21-C , 27-C ) :   1.2360
B( 22-C , 28-C ) :   1.2246 B( 23-C , 29-C ) :   1.1220 B( 24-C , 25-C ) :   1.1290
B( 24-C , 30-C ) :   1.2386 B( 25-C , 32-C ) :   1.2266 B( 26-C , 27-C ) :   1.1555
B( 26-C , 33-C ) :   1.2120 B( 27-C , 34-C ) :   1.2098 B( 28-C , 35-C ) :   1.2109
B( 28-C , 36-C ) :   1.1636 B( 29-C , 36-C ) :   1.2334 B( 29-C , 47-C ) :   1.2526
B( 30-C , 37-C ) :   1.1102 B( 30-C , 38-C ) :   1.2491 B( 31-C , 38-C ) :   1.2204
B( 31-C , 48-C ) :   1.1356 B( 32-C , 33-C ) :   1.2601 B( 32-C , 39-C ) :   1.1398
B( 33-C , 40-C ) :   1.1751 B( 34-C , 35-C ) :   1.2234 B( 34-C , 41-C ) :   1.1861
B( 35-C , 42-C ) :   1.1740 B( 35-C , 52-C ) :  -0.1040 B( 36-C , 43-C ) :   1.2232
B( 37-C , 39-C ) :   1.3530 B( 37-C , 49-C ) :   1.1831 B( 38-C , 50-C ) :   1.1389
B( 39-C , 51-C ) :   1.1537 B( 40-C , 41-C ) :   1.3735 B( 40-C , 51-C ) :   1.0635
B( 41-C , 52-C ) :   0.8366 B( 42-C , 52-C ) :   0.8416 B( 42-C , 53-C ) :   1.4569
B( 43-C , 53-C ) :   1.1148 B( 43-C , 54-C ) :   1.2542 B( 44-C , 45-C ) :   1.3648
B( 44-C , 55-C ) :   1.1221 B( 45-C , 47-C ) :   1.1275 B( 46-C , 48-C ) :   1.2343
B( 46-C , 55-C ) :   1.2538 B( 47-C , 56-C ) :   1.2336 B( 48-C , 57-C ) :   1.2225
B( 49-C , 50-C ) :   1.1307 B( 49-C , 58-C ) :   1.3143 B( 50-C , 59-C ) :   1.3533
B( 51-C , 60-C ) :   1.3983 B( 52-C , 61-C ) :   0.7792 B( 52-C , 70-C ) :   0.9953
B( 53-C , 62-C ) :   1.0697 B( 54-C , 56-C ) :   1.2168 B( 54-C , 63-C ) :   1.1416
B( 55-C , 64-C ) :   1.2218 B( 56-C , 64-C ) :   1.1383 B( 57-C , 59-C ) :   1.1294
B( 57-C , 65-C ) :   1.2500 B( 58-C , 60-C ) :   1.1787 B( 58-C , 66-C ) :   1.1307
B( 59-C , 67-C ) :   1.1403 B( 60-C , 61-C ) :   0.7638 B( 61-C , 68-C ) :   0.8092
B( 61-C , 70-C ) :   1.0269 B( 62-C , 63-C ) :   1.1497 B( 62-C , 68-C ) :   1.3904
B( 63-C , 69-C ) :   1.3302 B( 64-C , 65-C ) :   1.2358 B( 65-C , 69-C ) :   1.1193
B( 66-C , 67-C ) :   1.3194 B( 66-C , 68-C ) :   1.2148 B( 67-C , 69-C ) :   1.1760
B( 70-C , 71-C ) :   0.6953 B( 70-C , 77-C ) :   0.8350 B( 71-C , 72-C ) :   1.3570
B( 71-C , 76-C ) :   1.3762 B( 72-C , 73-C ) :   1.4238 B( 72-C , 84-H ) :   0.9624
B( 73-C , 74-C ) :   1.4005 B( 73-C , 85-H ) :   0.9723 B( 74-C , 75-C ) :   1.3870
B( 74-C , 86-H ) :   0.9696 B( 75-C , 76-C ) :   1.4422 B( 75-C , 87-H ) :   0.9739
B( 76-C , 88-H ) :   0.9697 B( 77-C , 78-C ) :   0.9741 B( 77-C , 89-H ) :   0.9568
B( 77-C , 90-H ) :   0.9537 B( 78-C , 79-C ) :   0.9691 B( 78-C , 91-H ) :   0.9711
B( 78-C , 92-H ) :   0.9574 B( 79-C , 80-C ) :   1.0082 B( 79-C , 93-H ) :   0.9445
B( 79-C , 94-H ) :   0.9474 B( 80-C , 81-O ) :   2.0022 B( 80-C , 82-O ) :   1.2058
B( 82-O , 83-C ) :   0.8941 B( 83-C , 95-H ) :   0.9740 B( 83-C , 96-H ) :   0.9671
B( 83-C , 97-H ) :   0.9733

-----------------------------------------------------------------------------
         ABSORPTION SPECTRUM VIA TRANSITION ELECTRIC DIPOLE MOMENTS
-----------------------------------------------------------------------------
State   Energy    Wavelength  fosc         T2        TX        TY        TZ
        (cm-1)      (nm)                 (au**2)    (au)      (au)      (au)
-----------------------------------------------------------------------------
   1   16114.6    620.6   0.003239843   0.06619  -0.06651   0.16751  -0.18359
   2   16419.5    609.0   0.007468060   0.14973  -0.10227   0.25079  -0.27637
   3   16999.1    588.3   0.002023405   0.03919  -0.11744  -0.13841  -0.07897
   4   17360.9    576.0   0.000054336   0.00103  -0.00238  -0.02368   0.02153
   5   17619.9    567.5   0.001048513   0.01959   0.13061   0.04593   0.02056
   6   18614.8    537.2   0.000807432   0.01428   0.05370  -0.03409   0.10116
   7   18698.3    534.8   0.002975034   0.05238   0.16241   0.11869   0.10915
   8   19238.6    519.8   0.039945755   0.68356   0.15506  -0.57226   0.57622
   9   19265.9    519.1   0.006140404   0.10493   0.25290   0.19845   0.03987
  10   19342.1    517.0   0.026846710   0.45694   0.58563   0.31709   0.11588
  11   19595.2    510.3   0.011765244   0.19766  -0.31422  -0.26562  -0.16845
  12   20345.0    491.5   0.000059636   0.00097  -0.00757  -0.02997  -0.00312
  13   20659.9    484.0   0.003477080   0.05541  -0.14491   0.07434  -0.16995
  14   20796.1    480.9   0.000351109   0.00556  -0.03669  -0.00033  -0.06490
  15   20983.4    476.6   0.002125955   0.03335   0.12596   0.13220  -0.00316
  16   21123.6    473.4   0.016553284   0.25798  -0.38229  -0.16989  -0.28805
  17   21199.3    471.7   0.006805326   0.10568   0.04269   0.30189  -0.11280
  18   21254.3    470.5   0.006011578   0.09311   0.25388   0.16829  -0.01835
  19   21302.1    469.4   0.002733663   0.04225   0.01093  -0.12909  -0.15957
  20   21597.3    463.0   0.000588499   0.00897   0.00542  -0.05299   0.07832
  21   21655.5    461.8   0.003782962   0.05751   0.02035  -0.15424   0.18250
  22   21763.5    459.5   0.004323498   0.06540   0.22762   0.11546   0.01601
  23   22254.4    449.3   0.008223475   0.12165  -0.30918  -0.06546   0.14755
  24   22514.4    444.2   0.014456548   0.21139  -0.27212   0.34970   0.12266
  25   22607.4    442.3   0.036190701   0.52701   0.13603  -0.29441   0.64949
  26   22690.8    440.7   0.026291151   0.38145   0.28405  -0.47929  -0.26655
  27   23003.4    434.7   0.052461218   0.75080   0.75636   0.40917   0.10630
  28   23112.0    432.7   0.017779213   0.25325   0.08519  -0.35390   0.34749
  29   23299.1    429.2   0.015711058   0.22199   0.10184  -0.32314   0.32742
  30   23848.6    419.3   0.005372168   0.07416   0.01282   0.19463   0.19003
  31   23922.5    418.0   0.000508999   0.00700  -0.00271  -0.00630   0.08341
  32   24346.1    410.7   0.011275611   0.15247  -0.08634   0.22772   0.30522
  33   24363.5    410.5   0.007252113   0.09799   0.08048  -0.22557   0.20159
  34   24671.3    405.3   0.007592970   0.10132   0.06138  -0.17976   0.25542
  35   25084.2    398.7   0.007456376   0.09786   0.01736   0.21140   0.22993
  36   25272.6    395.7   0.035381570   0.46090  -0.41674   0.27460   0.46024
  37   25400.1    393.7   0.006584256   0.08534  -0.20840   0.19602   0.05906
  38   25512.3    392.0   0.007855112   0.10136  -0.07935  -0.28270  -0.12306
  39   25717.6    388.8   0.004351589   0.05570   0.06625  -0.16687  -0.15320
  40   25789.4    387.8   0.031877722   0.40693   0.48582   0.37594   0.17197
  41   26147.1    382.5   0.011004182   0.13855  -0.13184   0.15186  -0.31322
  42   26431.3    378.3   0.000682989   0.00851  -0.07340  -0.05524  -0.00821
  43   26498.7    377.4   0.005967541   0.07414  -0.10992   0.23080  -0.09375
  44   26597.9    376.0   0.024981123   0.30920   0.11269  -0.32314  -0.43827
  45   27192.7    367.7   0.004853502   0.05876  -0.04574   0.22982   0.06205
  46   27637.6    361.8   0.005216588   0.06214  -0.20257   0.08397   0.11854
  47   27737.2    360.5   0.003476582   0.04126   0.00387  -0.07398   0.18914
  48   27832.8    359.3   0.086871837   1.02754  -0.38690   0.61511   0.70674
  49   27967.7    357.6   0.000182773   0.00215   0.01154   0.03576   0.02719
  50   28045.8    356.6   0.023151423   0.27176  -0.16125   0.24364   0.43174

FINAL SINGLE POINT ENERGY     -3282.500301945542

DIPOLE MOMENT
-------------
                                X             Y             Z
Electronic contribution:     17.51688     -65.57141     -48.34591
Nuclear contribution   :    -17.17585      67.21797      49.24520
                        -----------------------------------------
Total Dipole Moment    :      0.34103       1.64655       0.89929
                        -----------------------------------------
Magnitude (a.u.)       :      1.90687
Magnitude (Debye)      :      4.84688

Rotational constants in cm-1:     0.001769     0.000923     0.000855
Rotational constants in MHz :    53.031038    27.665694    25.628694

                             ****ORCA TERMINATED NORMALLY****
TOTAL RUN TIME: 0 days 14 hours 17 minutes 43 seconds 982 msec
