                         Program Version 4.2.0 -  RELEASE  -
|  1> # ORCA input file
|  2> # PCBM.out: Geometry 9
|  3> ! B3LYP def2-TZVP def2/J RIJCOSX Grid4 TightSCF
|  4>
|  5> %maxcore 6000
|  6> %tddft
|  7>   maxdim 5
|  8>   nroots 50
|  9>   end
| 10> %pal
| 11>   nprocs 6
| 12>   end
| 13>
| 14>
| 15> * xyz 0 1
| 16>    C        0.36771        -2.43092         1.23868
| 17>    C        0.77804        -2.29688        -0.14141
| 18>    C        1.53282        -1.01517        -0.28437
| 19>    C        1.30375        -0.28798         0.99795
| 20>    C        0.69255        -1.19859         1.93664
| 21>    C       -0.14043        -0.72974         2.95907
| 22>    C       -0.43291         0.68521         3.04127
| 23>    C        0.12358         1.56128         2.09921
| 24>    C        1.00770         1.06518         1.06048
| 25>    C        0.73328         1.83598        -0.16923
| 26>    C        0.76733         1.22475        -1.41408
| 27>    C        1.23331        -0.17886        -1.62404
| 28>    C        0.23405        -0.78204        -2.55338
| 29>    C       -0.30239        -2.04967        -2.37377
| 30>    C       -0.02488        -2.82182        -1.14467
| 31>    C       -1.23553        -3.54624        -0.79898
| 32>    C       -2.25226        -3.23978        -1.79374
| 33>    C       -1.67720        -2.31663        -2.75950
| 34>    C       -2.47181        -1.30244        -3.31001
| 35>    C       -1.92048         0.02616        -3.47135
| 36>    C       -0.60218         0.27600        -3.07301
| 37>    C       -0.27430         1.50760        -2.37425
| 38>    C       -1.27676         2.44595        -2.10031
| 39>    C       -1.29825         3.10464        -0.81225
| 40>    C       -0.31610         2.79231         0.13813
| 41>    C       -0.69073         2.62720         1.53504
| 42>    C       -2.02377         2.77482         1.92787
| 43>    C       -2.60348         1.85585         2.89818
| 44>    C       -1.82370         0.83234         3.44356
| 45>    C       -2.38835        -0.50097         3.61276
| 46>    C       -3.70775        -0.75645         3.22645
| 47>    C       -4.51798         0.31151         2.65995
| 48>    C       -3.97676         1.59105         2.50046
| 49>    C       -4.24886         2.35183         1.28723
| 50>    C       -3.04448         3.08617         0.93604
| 51>    C       -2.68887         3.24959        -0.40603
| 52>    C       -3.52629         2.67715        -1.45268
| 53>    C       -2.65150         2.17925        -2.50313
| 54>    C       -2.96654         0.99613        -3.17510
| 55>    C       -4.17094         0.25738        -2.82658
| 56>    C       -3.86402        -1.16537        -2.90938
| 57>    C       -4.41302        -2.05330        -1.97990
| 58>    C       -3.59207        -3.11601        -1.41446
| 59>    C       -3.97251        -3.28550        -0.01809
| 60>    C       -5.01846        -2.32034         0.28164
| 61>    C       -5.29031        -1.55900        -0.93135
| 62>    C       -5.58230        -0.19393        -0.84929
| 63>    C       -5.01096         0.73287        -1.81530
| 64>    C       -4.68323         1.96782        -1.11530
| 65>    C       -5.05169         1.80244         0.28292
| 66>    C       -5.60918         0.46754         0.44722
| 67>    C       -5.34878        -0.26219         1.61050
| 68>    C       -5.04959        -1.68471         1.52693
| 69>    C       -4.03575        -1.99107         2.52534
| 70>    C       -3.03207        -2.92221         2.23914
| 71>    C       -2.99855        -3.58208         0.94000
| 72>    C       -1.60524        -3.72155         0.54157
| 73>    C       -0.78362        -3.14711         1.58535
| 74>    C       -1.65894        -2.65272         2.63943
| 75>    C       -1.34451        -1.46962         3.31181
| 76>    C        2.60837        -0.71219        -1.29726
| 77>    C        3.13968        -1.88572        -2.11697
| 78>    C        3.65192         0.30575        -0.91521
| 79>    C        4.34371         0.21802         0.29967
| 80>    C        5.33534         1.14913         0.62002
| 81>    C        5.64864         2.17637        -0.27410
| 82>    C        4.96508         2.26887        -1.49086
| 83>    C        3.97331         1.33823        -1.80744
| 84>    H        5.86254         1.07281         1.57340
| 85>    H        6.42113         2.90630        -0.02042
| 86>    H        4.09706        -0.57775         1.00494
| 87>    H        3.42902         1.41840        -2.75156
| 88>    H        5.20201         3.07014        -2.19483
| 89>    C        3.94343        -2.87170        -1.27207
| 90>    H        3.75971        -1.47648        -2.93214
| 91>    H        2.30584        -2.41540        -2.59955
| 92>    H        3.31155        -3.26133        -0.45853
| 93>    C        4.47418        -4.04597        -2.08483
| 94>    H        4.78310        -2.35818        -0.77756
| 95>    H        5.18379        -3.72405        -2.86523
| 96>    H        3.65713        -4.55708        -2.62604
| 97>    C        5.15888        -5.08414        -1.22338
| 98>    O        5.15402        -5.10418        -0.01655
| 99>    O        5.77912        -6.01188        -1.97492
|100>    C        6.45141        -7.04878        -1.26138
|101>    H        6.95116        -7.66889        -2.01610
|102>    H        5.73566        -7.65397        -0.68331
|103>    H        7.18900        -6.62654        -0.56256
|104> *
|105>
|106>                          ****END OF INPUT****

CARTESIAN COORDINATES (ANGSTROEM)
---------------------------------
  C      0.367710   -2.430920    1.238680
  C      0.778040   -2.296880   -0.141410
  C      1.532820   -1.015170   -0.284370
  C      1.303750   -0.287980    0.997950
  C      0.692550   -1.198590    1.936640
  C     -0.140430   -0.729740    2.959070
  C     -0.432910    0.685210    3.041270
  C      0.123580    1.561280    2.099210
  C      1.007700    1.065180    1.060480
  C      0.733280    1.835980   -0.169230
  C      0.767330    1.224750   -1.414080
  C      1.233310   -0.178860   -1.624040
  C      0.234050   -0.782040   -2.553380
  C     -0.302390   -2.049670   -2.373770
  C     -0.024880   -2.821820   -1.144670
  C     -1.235530   -3.546240   -0.798980
  C     -2.252260   -3.239780   -1.793740
  C     -1.677200   -2.316630   -2.759500
  C     -2.471810   -1.302440   -3.310010
  C     -1.920480    0.026160   -3.471350
  C     -0.602180    0.276000   -3.073010
  C     -0.274300    1.507600   -2.374250
  C     -1.276760    2.445950   -2.100310
  C     -1.298250    3.104640   -0.812250
  C     -0.316100    2.792310    0.138130
  C     -0.690730    2.627200    1.535040
  C     -2.023770    2.774820    1.927870
  C     -2.603480    1.855850    2.898180
  C     -1.823700    0.832340    3.443560
  C     -2.388350   -0.500970    3.612760
  C     -3.707750   -0.756450    3.226450
  C     -4.517980    0.311510    2.659950
  C     -3.976760    1.591050    2.500460
  C     -4.248860    2.351830    1.287230
  C     -3.044480    3.086170    0.936040
  C     -2.688870    3.249590   -0.406030
  C     -3.526290    2.677150   -1.452680
  C     -2.651500    2.179250   -2.503130
  C     -2.966540    0.996130   -3.175100
  C     -4.170940    0.257380   -2.826580
  C     -3.864020   -1.165370   -2.909380
  C     -4.413020   -2.053300   -1.979900
  C     -3.592070   -3.116010   -1.414460
  C     -3.972510   -3.285500   -0.018090
  C     -5.018460   -2.320340    0.281640
  C     -5.290310   -1.559000   -0.931350
  C     -5.582300   -0.193930   -0.849290
  C     -5.010960    0.732870   -1.815300
  C     -4.683230    1.967820   -1.115300
  C     -5.051690    1.802440    0.282920
  C     -5.609180    0.467540    0.447220
  C     -5.348780   -0.262190    1.610500
  C     -5.049590   -1.684710    1.526930
  C     -4.035750   -1.991070    2.525340
  C     -3.032070   -2.922210    2.239140
  C     -2.998550   -3.582080    0.940000
  C     -1.605240   -3.721550    0.541570
  C     -0.783620   -3.147110    1.585350
  C     -1.658940   -2.652720    2.639430
  C     -1.344510   -1.469620    3.311810
  C      2.608370   -0.712190   -1.297260
  C      3.139680   -1.885720   -2.116970
  C      3.651920    0.305750   -0.915210
  C      4.343710    0.218020    0.299670
  C      5.335340    1.149130    0.620020
  C      5.648640    2.176370   -0.274100
  C      4.965080    2.268870   -1.490860
  C      3.973310    1.338230   -1.807440
  H      5.862540    1.072810    1.573400
  H      6.421130    2.906300   -0.020420
  H      4.097060   -0.577750    1.004940
  H      3.429020    1.418400   -2.751560
  H      5.202010    3.070140   -2.194830
  C      3.943430   -2.871700   -1.272070
  H      3.759710   -1.476480   -2.932140
  H      2.305840   -2.415400   -2.599550
  H      3.311550   -3.261330   -0.458530
  C      4.474180   -4.045970   -2.084830
  H      4.783100   -2.358180   -0.777560
  H      5.183790   -3.724050   -2.865230
  H      3.657130   -4.557080   -2.626040
  C      5.158880   -5.084140   -1.223380
  O      5.154020   -5.104180   -0.016550
  O      5.779120   -6.011880   -1.974920
  C      6.451410   -7.048780   -1.261380
  H      6.951160   -7.668890   -2.016100
  H      5.735660   -7.653970   -0.683310
  H      7.189000   -6.626540   -0.562560

 Total Charge           Charge          ....    0
 Multiplicity           Mult            ....    1
 Number of Electrons    NEL             ....  462
 Basis Dimension        Dim             .... 2378

ORBITAL ENERGIES
----------------

  NO   OCC          E(Eh)            E(eV)
   0   2.0000     -19.176795      -521.8271
   1   2.0000     -19.116595      -520.1890
   2   2.0000     -10.303069      -280.3608
   3   2.0000     -10.237092      -278.5654
   4   2.0000     -10.236341      -278.5450
   5   2.0000     -10.231013      -278.4000
   6   2.0000     -10.230101      -278.3752
   7   2.0000     -10.223434      -278.1938
   8   2.0000     -10.223089      -278.1844
   9   2.0000     -10.221716      -278.1470
  10   2.0000     -10.221213      -278.1333
  11   2.0000     -10.220358      -278.1101
  12   2.0000     -10.220084      -278.1026
  13   2.0000     -10.219986      -278.1000
  14   2.0000     -10.219730      -278.0930
  15   2.0000     -10.219704      -278.0923
  16   2.0000     -10.219691      -278.0919
  17   2.0000     -10.219531      -278.0876
  18   2.0000     -10.219513      -278.0871
  19   2.0000     -10.219364      -278.0830
  20   2.0000     -10.219284      -278.0809
  21   2.0000     -10.219240      -278.0797
  22   2.0000     -10.219225      -278.0792
  23   2.0000     -10.219168      -278.0777
  24   2.0000     -10.219154      -278.0773
  25   2.0000     -10.219123      -278.0765
  26   2.0000     -10.218991      -278.0729
  27   2.0000     -10.218973      -278.0724
  28   2.0000     -10.218947      -278.0717
  29   2.0000     -10.218940      -278.0715
  30   2.0000     -10.218896      -278.0703
  31   2.0000     -10.218854      -278.0692
  32   2.0000     -10.218728      -278.0657
  33   2.0000     -10.218688      -278.0646
  34   2.0000     -10.218665      -278.0640
  35   2.0000     -10.218604      -278.0624
  36   2.0000     -10.218539      -278.0606
  37   2.0000     -10.218513      -278.0599
  38   2.0000     -10.218501      -278.0595
  39   2.0000     -10.218485      -278.0591
  40   2.0000     -10.218438      -278.0578
  41   2.0000     -10.218382      -278.0563
  42   2.0000     -10.218364      -278.0558
  43   2.0000     -10.218301      -278.0541
  44   2.0000     -10.218278      -278.0535
  45   2.0000     -10.218183      -278.0509
  46   2.0000     -10.218173      -278.0506
  47   2.0000     -10.218151      -278.0500
  48   2.0000     -10.218137      -278.0497
  49   2.0000     -10.218096      -278.0485
  50   2.0000     -10.218076      -278.0480
  51   2.0000     -10.217990      -278.0456
  52   2.0000     -10.217846      -278.0417
  53   2.0000     -10.217720      -278.0383
  54   2.0000     -10.217522      -278.0329
  55   2.0000     -10.217256      -278.0257
  56   2.0000     -10.216919      -278.0165
  57   2.0000     -10.216791      -278.0130
  58   2.0000     -10.216584      -278.0074
  59   2.0000     -10.216364      -278.0014
  60   2.0000     -10.216192      -277.9967
  61   2.0000     -10.216168      -277.9961
  62   2.0000     -10.215811      -277.9863
  63   2.0000     -10.215647      -277.9819
  64   2.0000     -10.215222      -277.9703
  65   2.0000     -10.199256      -277.5359
  66   2.0000     -10.193591      -277.3817
  67   2.0000     -10.191575      -277.3269
  68   2.0000     -10.188170      -277.2342
  69   2.0000     -10.187469      -277.2151
  70   2.0000     -10.186958      -277.2012
  71   2.0000     -10.186382      -277.1855
  72   2.0000     -10.185887      -277.1721
  73   2.0000     -10.180378      -277.0222
  74   2.0000      -1.113425       -30.2978
  75   2.0000      -1.024375       -27.8747
  76   2.0000      -0.971455       -26.4346
  77   2.0000      -0.955951       -26.0128
  78   2.0000      -0.950022       -25.8514
  79   2.0000      -0.949159       -25.8279
  80   2.0000      -0.924908       -25.1680
  81   2.0000      -0.912980       -24.8435
  82   2.0000      -0.911788       -24.8110
  83   2.0000      -0.911499       -24.8032
  84   2.0000      -0.911173       -24.7943
  85   2.0000      -0.885175       -24.0868
  86   2.0000      -0.872917       -23.7533
  87   2.0000      -0.871500       -23.7147
  88   2.0000      -0.868543       -23.6343
  89   2.0000      -0.856728       -23.3128
  90   2.0000      -0.841819       -22.9071
  91   2.0000      -0.840178       -22.8624
  92   2.0000      -0.840026       -22.8583
  93   2.0000      -0.823805       -22.4169
  94   2.0000      -0.808658       -22.0047
  95   2.0000      -0.791172       -21.5289
  96   2.0000      -0.791032       -21.5251
  97   2.0000      -0.790175       -21.5018
  98   2.0000      -0.789524       -21.4840
  99   2.0000      -0.783212       -21.3123
 100   2.0000      -0.774077       -21.0637
 101   2.0000      -0.773918       -21.0594
 102   2.0000      -0.773144       -21.0383
 103   2.0000      -0.768133       -20.9020
 104   2.0000      -0.756371       -20.5819
 105   2.0000      -0.752630       -20.4801
 106   2.0000      -0.737169       -20.0594
 107   2.0000      -0.719311       -19.5735
 108   2.0000      -0.719003       -19.5651
 109   2.0000      -0.716701       -19.5024
 110   2.0000      -0.716487       -19.4966
 111   2.0000      -0.709460       -19.3054
 112   2.0000      -0.705529       -19.1984
 113   2.0000      -0.704090       -19.1593
 114   2.0000      -0.702526       -19.1167
 115   2.0000      -0.674684       -18.3591
 116   2.0000      -0.662648       -18.0316
 117   2.0000      -0.660473       -17.9724
 118   2.0000      -0.650341       -17.6967
 119   2.0000      -0.632022       -17.1982
 120   2.0000      -0.626822       -17.0567
 121   2.0000      -0.625656       -17.0250
 122   2.0000      -0.625448       -17.0193
 123   2.0000      -0.624192       -16.9851
 124   2.0000      -0.623520       -16.9668
 125   2.0000      -0.621799       -16.9200
 126   2.0000      -0.621556       -16.9134
 127   2.0000      -0.616700       -16.7812
 128   2.0000      -0.612282       -16.6610
 129   2.0000      -0.598969       -16.2988
 130   2.0000      -0.568511       -15.4700
 131   2.0000      -0.566482       -15.4148
 132   2.0000      -0.559834       -15.2339
 133   2.0000      -0.556152       -15.1337
 134   2.0000      -0.555586       -15.1183
 135   2.0000      -0.554577       -15.0908
 136   2.0000      -0.539483       -14.6801
 137   2.0000      -0.538601       -14.6561
 138   2.0000      -0.533071       -14.5056
 139   2.0000      -0.532135       -14.4801
 140   2.0000      -0.531214       -14.4551
 141   2.0000      -0.522448       -14.2165
 142   2.0000      -0.518074       -14.0975
 143   2.0000      -0.517749       -14.0887
 144   2.0000      -0.514730       -14.0065
 145   2.0000      -0.504857       -13.7379
 146   2.0000      -0.504470       -13.7273
 147   2.0000      -0.494266       -13.4497
 148   2.0000      -0.491802       -13.3826
 149   2.0000      -0.490029       -13.3344
 150   2.0000      -0.485199       -13.2029
 151   2.0000      -0.483705       -13.1623
 152   2.0000      -0.478354       -13.0167
 153   2.0000      -0.475185       -12.9304
 154   2.0000      -0.470017       -12.7898
 155   2.0000      -0.468302       -12.7431
 156   2.0000      -0.466678       -12.6989
 157   2.0000      -0.463903       -12.6234
 158   2.0000      -0.462533       -12.5862
 159   2.0000      -0.460027       -12.5180
 160   2.0000      -0.459519       -12.5042
 161   2.0000      -0.455804       -12.4030
 162   2.0000      -0.454515       -12.3680
 163   2.0000      -0.449318       -12.2266
 164   2.0000      -0.448410       -12.2019
 165   2.0000      -0.447320       -12.1722
 166   2.0000      -0.445988       -12.1360
 167   2.0000      -0.438984       -11.9454
 168   2.0000      -0.438406       -11.9296
 169   2.0000      -0.436993       -11.8912
 170   2.0000      -0.434655       -11.8276
 171   2.0000      -0.432167       -11.7599
 172   2.0000      -0.431213       -11.7339
 173   2.0000      -0.427353       -11.6289
 174   2.0000      -0.425384       -11.5753
 175   2.0000      -0.423979       -11.5370
 176   2.0000      -0.423476       -11.5234
 177   2.0000      -0.417926       -11.3724
 178   2.0000      -0.415686       -11.3114
 179   2.0000      -0.415597       -11.3090
 180   2.0000      -0.415122       -11.2960
 181   2.0000      -0.413326       -11.2472
 182   2.0000      -0.409344       -11.1388
 183   2.0000      -0.406731       -11.0677
 184   2.0000      -0.404897       -11.0178
 185   2.0000      -0.403951       -10.9921
 186   2.0000      -0.403388       -10.9767
 187   2.0000      -0.392528       -10.6812
 188   2.0000      -0.382027       -10.3955
 189   2.0000      -0.378393       -10.2966
 190   2.0000      -0.375952       -10.2302
 191   2.0000      -0.369785       -10.0624
 192   2.0000      -0.367255        -9.9935
 193   2.0000      -0.367033        -9.9875
 194   2.0000      -0.363728        -9.8975
 195   2.0000      -0.362721        -9.8701
 196   2.0000      -0.362016        -9.8510
 197   2.0000      -0.361292        -9.8313
 198   2.0000      -0.361047        -9.8246
 199   2.0000      -0.358999        -9.7689
 200   2.0000      -0.357104        -9.7173
 201   2.0000      -0.355033        -9.6609
 202   2.0000      -0.353832        -9.6282
 203   2.0000      -0.353600        -9.6219
 204   2.0000      -0.350983        -9.5507
 205   2.0000      -0.350044        -9.5252
 206   2.0000      -0.346999        -9.4423
 207   2.0000      -0.342994        -9.3334
 208   2.0000      -0.341880        -9.3030
 209   2.0000      -0.341512        -9.2930
 210   2.0000      -0.339421        -9.2361
 211   2.0000      -0.335777        -9.1369
 212   2.0000      -0.324807        -8.8385
 213   2.0000      -0.313579        -8.5329
 214   2.0000      -0.288138        -7.8406
 215   2.0000      -0.285420        -7.7667
 216   2.0000      -0.278127        -7.5682
 217   2.0000      -0.275372        -7.4932
 218   2.0000      -0.274573        -7.4715
 219   2.0000      -0.274290        -7.4638
 220   2.0000      -0.274238        -7.4624
 221   2.0000      -0.273796        -7.4504
 222   2.0000      -0.273359        -7.4385
 223   2.0000      -0.265902        -7.2355
 224   2.0000      -0.259536        -7.0623
 225   2.0000      -0.257780        -7.0145
 226   2.0000      -0.232895        -6.3374
 227   2.0000      -0.225969        -6.1489
 228   2.0000      -0.224204        -6.1009
 229   2.0000      -0.223978        -6.0947
 230   2.0000      -0.218423        -5.9436
 231   0.0000      -0.126655        -3.4465
 232   0.0000      -0.124690        -3.3930
 233   0.0000      -0.116086        -3.1589
 234   0.0000      -0.082108        -2.2343
 235   0.0000      -0.079925        -2.1749

MULLIKEN ATOMIC CHARGES
-----------------------
   0 C :    0.081155
   1 C :   -0.382341
   2 C :    0.609127
   3 C :   -0.362235
   4 C :   -0.019378
   5 C :   -0.006004
   6 C :    0.031019
   7 C :   -0.128102
   8 C :    0.179569
   9 C :    0.172662
  10 C :   -0.360479
  11 C :    0.525083
  12 C :   -0.203485
  13 C :    0.064085
  14 C :    0.116555
  15 C :   -0.097560
  16 C :    0.023915
  17 C :   -0.097779
  18 C :    0.004060
  19 C :    0.008374
  20 C :   -0.025711
  21 C :    0.013872
  22 C :    0.015392
  23 C :    0.021502
  24 C :   -0.105509
  25 C :    0.056123
  26 C :   -0.000512
  27 C :    0.002792
  28 C :   -0.019031
  29 C :    0.008605
  30 C :    0.002011
  31 C :    0.007895
  32 C :   -0.008996
  33 C :    0.010741
  34 C :    0.000114
  35 C :   -0.022360
  36 C :   -0.004703
  37 C :   -0.018768
  38 C :   -0.022173
  39 C :    0.006649
  40 C :   -0.013864
  41 C :   -0.006989
  42 C :    0.006356
  43 C :    0.006278
  44 C :   -0.005050
  45 C :   -0.007151
  46 C :    0.006146
  47 C :   -0.007266
  48 C :    0.007946
  49 C :   -0.003107
  50 C :   -0.004763
  51 C :    0.000267
  52 C :    0.000614
  53 C :   -0.018364
  54 C :    0.025005
  55 C :   -0.027978
  56 C :    0.025851
  57 C :   -0.024589
  58 C :   -0.011455
  59 C :   -0.018275
  60 C :    0.189988
  61 C :   -0.193090
  62 C :   -0.112555
  63 C :   -0.169105
  64 C :   -0.112909
  65 C :   -0.105531
  66 C :   -0.114827
  67 C :   -0.175949
  68 H :    0.112229
  69 H :    0.111249
  70 H :    0.139362
  71 H :    0.116496
  72 H :    0.110217
  73 C :   -0.208405
  74 H :    0.101277
  75 H :    0.117016
  76 H :    0.124563
  77 C :   -0.218138
  78 H :    0.113637
  79 H :    0.118492
  80 H :    0.119999
  81 C :    0.317318
  82 O :   -0.329503
  83 O :   -0.260562
  84 C :   -0.171073
  85 H :    0.124965
  86 H :    0.123775
  87 H :    0.125277
Sum of atomic charges:   -0.0000000

LOEWDIN ATOMIC CHARGES
----------------------
   0 C :   -0.000593
   1 C :    0.006951
   2 C :   -0.008223
   3 C :    0.008374
   4 C :   -0.002339
   5 C :   -0.003580
   6 C :   -0.006179
   7 C :   -0.000844
   8 C :   -0.003026
   9 C :   -0.001557
  10 C :    0.010980
  11 C :   -0.006687
  12 C :    0.006691
  13 C :   -0.018690
  14 C :   -0.015118
  15 C :   -0.002666
  16 C :   -0.000404
  17 C :   -0.003251
  18 C :   -0.006384
  19 C :   -0.003915
  20 C :   -0.003187
  21 C :   -0.003336
  22 C :   -0.004213
  23 C :   -0.006361
  24 C :   -0.000341
  25 C :    0.001142
  26 C :    0.000328
  27 C :   -0.002926
  28 C :   -0.000693
  29 C :   -0.000084
  30 C :   -0.000641
  31 C :   -0.001113
  32 C :   -0.000470
  33 C :   -0.000884
  34 C :   -0.002649
  35 C :   -0.000724
  36 C :   -0.000671
  37 C :   -0.001420
  38 C :   -0.001955
  39 C :   -0.000740
  40 C :   -0.000766
  41 C :   -0.002739
  42 C :    0.000693
  43 C :   -0.002658
  44 C :   -0.000710
  45 C :   -0.001123
  46 C :   -0.000950
  47 C :   -0.000519
  48 C :   -0.000461
  49 C :   -0.001110
  50 C :   -0.001216
  51 C :   -0.001058
  52 C :   -0.001142
  53 C :   -0.000115
  54 C :   -0.000311
  55 C :   -0.000525
  56 C :   -0.005734
  57 C :   -0.002773
  58 C :   -0.001076
  59 C :   -0.001055
  60 C :   -0.106708
  61 C :   -0.180947
  62 C :   -0.088318
  63 C :   -0.096582
  64 C :   -0.133911
  65 C :   -0.135304
  66 C :   -0.135138
  67 C :   -0.095412
  68 H :    0.145430
  69 H :    0.144201
  70 H :    0.154517
  71 H :    0.152204
  72 H :    0.144727
  73 C :   -0.240081
  74 H :    0.147772
  75 H :    0.153176
  76 H :    0.149386
  77 C :   -0.221563
  78 H :    0.145845
  79 H :    0.151985
  80 H :    0.155565
  81 C :   -0.476725
  82 O :    0.108961
  83 O :    0.237193
  84 C :   -0.312697
  85 H :    0.112934
  86 H :    0.112832
  87 H :    0.113402

  Mayer bond orders larger than 0.100000
B(  0-C ,  1-C ) :   1.1693 B(  0-C ,  4-C ) :   1.1162 B(  0-C , 57-C ) :   1.3375
B(  1-C ,  2-C ) :   0.7806 B(  1-C , 14-C ) :   1.4189 B(  2-C ,  3-C ) :   0.7955
B(  2-C , 11-C ) :   0.7822 B(  2-C , 60-C ) :   1.0443 B(  3-C ,  4-C ) :   1.1970
B(  3-C ,  8-C ) :   1.4028 B(  4-C ,  5-C ) :   1.3452 B(  5-C ,  6-C ) :   1.1619
B(  5-C , 59-C ) :   1.1185 B(  6-C ,  7-C ) :   1.3221 B(  6-C , 28-C ) :   1.1272
B(  7-C ,  8-C ) :   1.1409 B(  7-C , 25-C ) :   1.1445 B(  8-C ,  9-C ) :   1.0485
B(  9-C , 10-C ) :   1.4357 B(  9-C , 24-C ) :   1.1327 B( 10-C , 11-C ) :   0.8263
B( 10-C , 21-C ) :   1.1848 B( 11-C , 12-C ) :   0.8393 B( 11-C , 60-C ) :   1.0051
B( 12-C , 13-C ) :   1.3579 B( 12-C , 20-C ) :   1.1886 B( 13-C , 14-C ) :   1.0435
B( 13-C , 17-C ) :   1.1815 B( 14-C , 15-C ) :   1.1507 B( 15-C , 16-C ) :   1.1430
B( 15-C , 56-C ) :   1.3377 B( 16-C , 17-C ) :   1.1492 B( 16-C , 42-C ) :   1.3597
B( 17-C , 18-C ) :   1.3193 B( 18-C , 19-C ) :   1.1665 B( 18-C , 40-C ) :   1.1275
B( 19-C , 20-C ) :   1.3387 B( 19-C , 38-C ) :   1.1239 B( 20-C , 21-C ) :   1.1086
B( 21-C , 22-C ) :   1.3445 B( 22-C , 23-C ) :   1.1491 B( 22-C , 37-C ) :   1.1194
B( 23-C , 24-C ) :   1.3224 B( 23-C , 35-C ) :   1.1406 B( 24-C , 25-C ) :   1.1345
B( 25-C , 26-C ) :   1.3580 B( 26-C , 27-C ) :   1.1376 B( 26-C , 34-C ) :   1.1263
B( 27-C , 28-C ) :   1.3485 B( 27-C , 32-C ) :   1.1392 B( 28-C , 29-C ) :   1.1346
B( 29-C , 30-C ) :   1.3464 B( 29-C , 59-C ) :   1.1421 B( 30-C , 31-C ) :   1.1377
B( 30-C , 53-C ) :   1.1308 B( 31-C , 32-C ) :   1.3506 B( 31-C , 51-C ) :   1.1367
B( 32-C , 33-C ) :   1.1264 B( 33-C , 34-C ) :   1.1415 B( 33-C , 49-C ) :   1.3584
B( 34-C , 35-C ) :   1.3612 B( 35-C , 36-C ) :   1.1264 B( 36-C , 37-C ) :   1.1449
B( 36-C , 48-C ) :   1.3609 B( 37-C , 38-C ) :   1.3483 B( 38-C , 39-C ) :   1.1404
B( 39-C , 40-C ) :   1.1358 B( 39-C , 47-C ) :   1.3638 B( 40-C , 41-C ) :   1.3542
B( 41-C , 42-C ) :   1.1351 B( 41-C , 45-C ) :   1.1406 B( 42-C , 43-C ) :   1.1230
B( 43-C , 44-C ) :   1.1460 B( 43-C , 55-C ) :   1.3488 B( 44-C , 45-C ) :   1.1244
B( 44-C , 52-C ) :   1.3540 B( 45-C , 46-C ) :   1.3548 B( 46-C , 47-C ) :   1.1287
B( 46-C , 50-C ) :   1.1401 B( 47-C , 48-C ) :   1.1236 B( 48-C , 49-C ) :   1.1373
B( 49-C , 50-C ) :   1.1230 B( 50-C , 51-C ) :   1.3560 B( 51-C , 52-C ) :   1.1311
B( 52-C , 53-C ) :   1.1416 B( 53-C , 54-C ) :   1.3586 B( 54-C , 55-C ) :   1.1274
B( 54-C , 58-C ) :   1.1383 B( 55-C , 56-C ) :   1.1374 B( 56-C , 57-C ) :   1.1505
B( 57-C , 58-C ) :   1.1228 B( 58-C , 59-C ) :   1.3495 B( 60-C , 61-C ) :   0.8278
B( 60-C , 62-C ) :   0.7038 B( 61-C , 73-C ) :   0.9720 B( 61-C , 74-H ) :   0.9513
B( 61-C , 75-H ) :   0.9605 B( 62-C , 63-C ) :   1.3496 B( 62-C , 67-C ) :   1.3770
B( 63-C , 64-C ) :   1.4218 B( 63-C , 70-H ) :   0.9651 B( 64-C , 65-C ) :   1.3986
B( 64-C , 68-H ) :   0.9737 B( 65-C , 66-C ) :   1.3862 B( 65-C , 69-H ) :   0.9694
B( 66-C , 67-C ) :   1.4398 B( 66-C , 72-H ) :   0.9738 B( 67-C , 71-H ) :   0.9683
B( 73-C , 76-H ) :   0.9690 B( 73-C , 77-C ) :   0.9746 B( 73-C , 78-H ) :   0.9604
B( 77-C , 79-H ) :   0.9473 B( 77-C , 80-H ) :   0.9426 B( 77-C , 81-C ) :   1.0087
B( 81-C , 82-O ) :   2.0018 B( 81-C , 83-O ) :   1.2064 B( 83-O , 84-C ) :   0.8950
B( 84-C , 85-H ) :   0.9669 B( 84-C , 86-H ) :   0.9745 B( 84-C , 87-H ) :   0.9736

-----------------------------------------------------------------------------
         ABSORPTION SPECTRUM VIA TRANSITION ELECTRIC DIPOLE MOMENTS
-----------------------------------------------------------------------------
State   Energy    Wavelength  fosc         T2        TX        TY        TZ
        (cm-1)      (nm)                 (au**2)    (au)      (au)      (au)
-----------------------------------------------------------------------------
   1   15224.3    656.8   0.002080740   0.04499  -0.03459   0.11437  -0.17526
   2   15806.2    632.7   0.000004895   0.00010   0.00771  -0.00567   0.00323
   3   16293.9    613.7   0.000003667   0.00007   0.00758  -0.00296   0.00281
   4   16550.0    604.2   0.000003924   0.00008  -0.00547  -0.00564  -0.00404
   5   16946.5    590.1   0.000001151   0.00002  -0.00167   0.00274  -0.00348
   6   17113.3    584.3   0.000385307   0.00741  -0.08455  -0.00110   0.01619
   7   17689.5    565.3   0.000004548   0.00008   0.00616   0.00298  -0.00615
   8   18090.9    552.8   0.000198355   0.00361   0.00001   0.02808  -0.05312
   9   18630.7    536.7   0.000208852   0.00369  -0.05202   0.02038   0.02385
  10   18767.6    532.8   0.002813781   0.04936   0.21709   0.04702  -0.00432
  11   19094.1    523.7   0.000016942   0.00029  -0.00088   0.01340   0.01057
  12   19205.4    520.7   0.002839315   0.04867   0.03048   0.18822   0.11097
  13   19664.0    508.5   0.000443159   0.00742   0.08338  -0.00655  -0.02061
  14   20070.3    498.2   0.001012136   0.01660  -0.02795  -0.10893  -0.06289
  15   21028.3    475.5   0.006941152   0.10867   0.06127  -0.17189   0.27453
  16   24276.6    411.9   0.006486961   0.08797   0.01964  -0.16740   0.24405
  17   24308.9    411.4   0.000409449   0.00555   0.01162  -0.04205   0.06034
  18   25392.0    393.8   0.002566914   0.03328  -0.07001  -0.14846  -0.07961
  19   25442.3    393.0   0.003737543   0.04836   0.17256  -0.10042  -0.09219
  20   25490.9    392.3   0.001724374   0.02227  -0.04439  -0.12083  -0.07550
  21   25789.6    387.8   0.003863935   0.04932   0.07005   0.18915   0.09294
  22   25926.5    385.7   0.005381777   0.06834  -0.20113  -0.15486  -0.06247
  23   26069.8    383.6   0.000886791   0.01120   0.01857  -0.05690   0.08727
  24   26283.6    380.5   0.001535713   0.01924  -0.13426  -0.00582   0.03427
  25   26493.1    377.5   0.000590195   0.00733  -0.05371   0.03276  -0.05810
  26   26525.5    377.0   0.000762489   0.00946  -0.07632  -0.04283   0.04247
  27   26825.3    372.8   0.003222615   0.03955   0.03540  -0.09674   0.17011
  28   26990.3    370.5   0.006599809   0.08050  -0.27622  -0.04541   0.04630
  29   27113.9    368.8   0.000352045   0.00427   0.05430   0.01192   0.03441
  30   27338.2    365.8   0.001065381   0.01283   0.00970   0.06049  -0.09527
  31   27447.4    364.3   0.001086888   0.01304   0.10374  -0.04619  -0.01187
  32   27522.5    363.3   0.001465160   0.01753  -0.05770   0.07085  -0.09580
  33   27676.5    361.3   0.000091855   0.00109  -0.01021  -0.00095  -0.03143
  34   27827.1    359.4   0.000148561   0.00176  -0.04123  -0.00051   0.00757
  35   27883.2    358.6   0.002832795   0.03345  -0.17664   0.02627   0.03944
  36   27958.6    357.7   0.006024125   0.07093  -0.26492  -0.02700  -0.00465
  37   28087.1    356.0   0.005865733   0.06875  -0.01822   0.07920  -0.24929
  38   28093.4    356.0   0.002567775   0.03009  -0.04315   0.14187   0.09000
  39   28105.3    355.8   0.002153697   0.02523   0.00642  -0.15156   0.04706
  40   28283.5    353.6   0.000526731   0.00613   0.02380  -0.06103   0.04290
  41   28414.8    351.9   0.000437579   0.00507   0.01210  -0.06983   0.00685
  42   28507.4    350.8   0.011924378   0.13771   0.05976  -0.21997   0.29283
  43   28528.4    350.5   0.002653740   0.03062  -0.03734  -0.06143   0.15955
  44   28591.8    349.8   0.002995198   0.03449   0.00312  -0.14452   0.11659
  45   28651.4    349.0   0.006446406   0.07407  -0.18087  -0.16408  -0.12014
  46   28761.7    347.7   0.003236743   0.03705   0.18155  -0.02303   0.05966
  47   28830.9    346.9   0.000711734   0.00813   0.03848   0.03766  -0.07231
  48   29187.5    342.6   0.000154904   0.00175  -0.01347  -0.03942   0.00343
  49   29245.4    341.9   0.000916175   0.01031  -0.02882   0.03159  -0.09211
  50   29402.1    340.1   0.001438453   0.01611   0.11919  -0.03503  -0.02596

FINAL SINGLE POINT ENERGY     -2901.482596937981

DIPOLE MOMENT
-------------
                                X             Y             Z
Electronic contribution:    -71.82998      21.85714      13.73857
Nuclear contribution   :     73.30838     -22.06830     -14.55025
                        -----------------------------------------
Total Dipole Moment    :      1.47840      -0.21116      -0.81169
                        -----------------------------------------
Magnitude (a.u.)       :      1.69974
Magnitude (Debye)      :      4.32038

Rotational constants in cm-1:     0.002147     0.001169     0.001064
Rotational constants in MHz :    64.362280    35.060487    31.902290

                             ****ORCA TERMINATED NORMALLY****
TOTAL RUN TIME: 0 days 5 hours 35 minutes 58 seconds 918 msec
