                         Program Version 4.2.0 -  RELEASE  -
|  1> # ORCA input file
|  2> # SNBDT1-F.out
|  3> ! B3LYP def2-TZVP def2/J RIJCOSX Grid4 TightSCF
|  4> %maxcore 10000
|  5> %tddft
|  6>   maxdim 5
|  7>   nroots 50
|  8>   end
|  9> * xyz 0 1
| 10>    C       -2.75775        -0.28298         0.46022
| 11>    C       -1.64820         0.35948        -0.10791
| 12>    C       -0.43908        -0.31159        -0.07805
| 13>    C       -0.24055        -1.55111         0.58587
| 14>    C       -1.30408        -2.06736         1.36280
| 15>    C       -2.54433        -1.44639         1.25749
| 16>    S        0.98268         0.34692        -0.85103
| 17>    C        1.86730        -1.04648        -0.34291
| 18>    C        1.10640        -1.98383         0.39234
| 19>    C        3.15556        -1.54909        -0.45640
| 20>    C        3.14882        -2.80500         0.19241
| 21>    N        1.90424        -3.05416         0.70766
| 22>    S        4.70313        -1.15719        -1.09025
| 23>    C        5.34789        -2.68405        -0.47470
| 24>    C        4.37896        -3.45397         0.14902
| 25>    S       -4.02964        -1.98707         2.05892
| 26>    C       -4.92437        -0.73651         1.27614
| 27>    C       -4.13769         0.06000         0.42492
| 28>    C       -6.23614        -0.28797         1.16929
| 29>    C       -6.21732         0.75858         0.21314
| 30>    N       -4.93804         0.95657        -0.23915
| 31>    S       -7.81217        -0.56112         1.78988
| 32>    C       -8.44039         0.76614         0.80703
| 33>    C       -7.46006         1.34489         0.01220
| 34>    O       -1.01045        -3.13685         2.14337
| 35>    O       -1.70373         1.61441        -0.66139
| 36>    C       -1.89782         2.65795         0.29709
| 37>    C       -0.64917         2.94782         1.13761
| 38>    C        0.41143         3.64290         0.28893
| 39>    C       -1.02766         3.80387         2.34280
| 40>    C       -1.79773        -3.46375         3.27795
| 41>    C       -0.95014        -4.31517         4.22854
| 42>    C        0.18601        -3.48488         4.81962
| 43>    C       -1.83848        -4.88396         5.33044
| 44>    C       -4.63070         1.66037        -1.45970
| 45>    C       -4.55651         0.71089        -2.66852
| 46>    C        1.55701        -4.33509         1.26581
| 47>    C        1.32099        -5.39801         0.17948
| 48>    C       -5.91965         0.10647        -2.99067
| 49>    C       -4.00069         1.47303        -3.86741
| 50>    C        1.06211        -6.74513         0.84731
| 51>    C        0.14500        -5.00209        -0.70807
| 52>    C        6.68878        -3.06501        -0.69462
| 53>    C        7.76071        -2.27122        -0.97860
| 54>    C        8.95602        -2.83869        -1.64921
| 55>    C        9.71074        -1.66203        -2.14219
| 56>    C        9.09341        -0.48225        -1.68635
| 57>    C        7.96672        -0.84723        -0.83059
| 58>    C       10.83863        -1.63095        -2.93703
| 59>    C       11.33097        -0.37922        -3.27617
| 60>    C       10.73322         0.79836        -2.85188
| 61>    C        9.60586         0.75467        -2.04561
| 62>    C       -9.81415         1.05209         0.89010
| 63>    C      -10.51439         2.14630         0.46220
| 64>    C      -11.98155         2.01556         0.27035
| 65>    C      -12.37967         3.21166        -0.50681
| 66>    C      -11.26594         4.05554        -0.66696
| 67>    C      -10.13055         3.47601         0.05373
| 68>    C      -13.61317         3.52205        -1.04133
| 69>    C      -13.70407         4.70633        -1.75824
| 70>    C      -12.61895         5.54972        -1.94385
| 71>    C      -11.38662         5.23036        -1.39343
| 72>    O      -12.68561         1.10374         0.63804
| 73>    F      -14.88473         5.05027        -2.29871
| 74>    C       -9.02922         4.18300         0.46734
| 75>    C       -8.74622         5.50590         0.07277
| 76>    C       -8.08188         3.70487         1.39358
| 77>    N       -8.44274         6.57002        -0.23402
| 78>    N       -7.28917         3.38437         2.15984
| 79>    O        9.22417        -4.00849        -1.80056
| 80>    F       12.42771        -0.30033        -4.04904
| 81>    C        7.42095        -0.05247         0.14338
| 82>    C        7.72835         1.31231         0.30785
| 83>    C        6.56865        -0.54802         1.15252
| 84>    N        5.92601        -0.93246         2.02276
| 85>    N        7.93789         2.42844         0.47570
| 86>    H        4.59939        -4.41379         0.57947
| 87>    H       -7.67016         2.12149        -0.70026
| 88>    H       -2.74069         2.40713         0.95393
| 89>    H       -2.15655         3.54180        -0.29166
| 90>    H       -0.25125         1.99126         1.49585
| 91>    H        0.08078         4.64462         0.02263
| 92>    H        0.59167         3.08338        -0.62532
| 93>    H        1.34707         3.72124         0.83611
| 94>    H       -1.47231         4.74153         2.01690
| 95>    H       -0.14262         4.02969         2.93162
| 96>    H       -1.74258         3.28745         2.97970
| 97>    H       -2.68489        -4.02870         2.96756
| 98>    H       -2.11700        -2.55312         3.79432
| 99>    H       -0.52595        -5.14397         3.65238
|100>    H       -0.21490        -2.69980         5.45707
|101>    H        0.77623        -3.02190         4.03296
|102>    H        0.84091        -4.11217         5.41855
|103>    H       -2.30488        -4.07982         5.89448
|104>    H       -1.24591        -5.48522         6.01457
|105>    H       -2.62302        -5.50993         4.91253
|106>    H       -3.67005         2.16082        -1.36137
|107>    H       -5.40787         2.41133        -1.61559
|108>    H       -3.86094        -0.09703        -2.41471
|109>    H        0.65195        -4.22181         1.85563
|110>    H        2.37759        -4.64846         1.91802
|111>    H        2.22174        -5.47372        -0.44014
|112>    H       -5.83988        -0.56820        -3.83944
|113>    H       -6.63317         0.88855        -3.24339
|114>    H       -6.30976        -0.45851        -2.14671
|115>    H       -4.64772         2.31027        -4.12031
|116>    H       -3.93331         0.81854        -4.73252
|117>    H       -3.00689         1.85490        -3.64714
|118>    H        0.16109        -6.69760         1.45502
|119>    H        1.89512        -7.02878         1.48653
|120>    H        0.92744        -7.52016         0.09724
|121>    H       -0.75272        -4.87255        -0.10756
|122>    H       -0.04420        -5.77260        -1.45145
|123>    H        0.34689        -4.06953        -1.23047
|124>    H        6.88111        -4.13350        -0.71816
|125>    H       11.31654        -2.53547        -3.27761
|126>    H       11.15734         1.74219        -3.15636
|127>    H        9.14023         1.67159        -1.72237
|128>    H      -10.43456         0.25943         1.29843
|129>    H      -14.46636         2.87661        -0.90755
|130>    H      -12.74787         6.45348        -2.51825
|131>    H      -10.54746         5.88925        -1.54617
|132> *
|133>
|134>                          ****END OF INPUT****

CARTESIAN COORDINATES (ANGSTROEM)
---------------------------------
  C     -2.757750   -0.282980    0.460220
  C     -1.648200    0.359480   -0.107910
  C     -0.439080   -0.311590   -0.078050
  C     -0.240550   -1.551110    0.585870
  C     -1.304080   -2.067360    1.362800
  C     -2.544330   -1.446390    1.257490
  S      0.982680    0.346920   -0.851030
  C      1.867300   -1.046480   -0.342910
  C      1.106400   -1.983830    0.392340
  C      3.155560   -1.549090   -0.456400
  C      3.148820   -2.805000    0.192410
  N      1.904240   -3.054160    0.707660
  S      4.703130   -1.157190   -1.090250
  C      5.347890   -2.684050   -0.474700
  C      4.378960   -3.453970    0.149020
  S     -4.029640   -1.987070    2.058920
  C     -4.924370   -0.736510    1.276140
  C     -4.137690    0.060000    0.424920
  C     -6.236140   -0.287970    1.169290
  C     -6.217320    0.758580    0.213140
  N     -4.938040    0.956570   -0.239150
  S     -7.812170   -0.561120    1.789880
  C     -8.440390    0.766140    0.807030
  C     -7.460060    1.344890    0.012200
  O     -1.010450   -3.136850    2.143370
  O     -1.703730    1.614410   -0.661390
  C     -1.897820    2.657950    0.297090
  C     -0.649170    2.947820    1.137610
  C      0.411430    3.642900    0.288930
  C     -1.027660    3.803870    2.342800
  C     -1.797730   -3.463750    3.277950
  C     -0.950140   -4.315170    4.228540
  C      0.186010   -3.484880    4.819620
  C     -1.838480   -4.883960    5.330440
  C     -4.630700    1.660370   -1.459700
  C     -4.556510    0.710890   -2.668520
  C      1.557010   -4.335090    1.265810
  C      1.320990   -5.398010    0.179480
  C     -5.919650    0.106470   -2.990670
  C     -4.000690    1.473030   -3.867410
  C      1.062110   -6.745130    0.847310
  C      0.145000   -5.002090   -0.708070
  C      6.688780   -3.065010   -0.694620
  C      7.760710   -2.271220   -0.978600
  C      8.956020   -2.838690   -1.649210
  C      9.710740   -1.662030   -2.142190
  C      9.093410   -0.482250   -1.686350
  C      7.966720   -0.847230   -0.830590
  C     10.838630   -1.630950   -2.937030
  C     11.330970   -0.379220   -3.276170
  C     10.733220    0.798360   -2.851880
  C      9.605860    0.754670   -2.045610
  C     -9.814150    1.052090    0.890100
  C    -10.514390    2.146300    0.462200
  C    -11.981550    2.015560    0.270350
  C    -12.379670    3.211660   -0.506810
  C    -11.265940    4.055540   -0.666960
  C    -10.130550    3.476010    0.053730
  C    -13.613170    3.522050   -1.041330
  C    -13.704070    4.706330   -1.758240
  C    -12.618950    5.549720   -1.943850
  C    -11.386620    5.230360   -1.393430
  O    -12.685610    1.103740    0.638040
  F    -14.884730    5.050270   -2.298710
  C     -9.029220    4.183000    0.467340
  C     -8.746220    5.505900    0.072770
  C     -8.081880    3.704870    1.393580
  N     -8.442740    6.570020   -0.234020
  N     -7.289170    3.384370    2.159840
  O      9.224170   -4.008490   -1.800560
  F     12.427710   -0.300330   -4.049040
  C      7.420950   -0.052470    0.143380
  C      7.728350    1.312310    0.307850
  C      6.568650   -0.548020    1.152520
  N      5.926010   -0.932460    2.022760
  N      7.937890    2.428440    0.475700
  H      4.599390   -4.413790    0.579470
  H     -7.670160    2.121490   -0.700260
  H     -2.740690    2.407130    0.953930
  H     -2.156550    3.541800   -0.291660
  H     -0.251250    1.991260    1.495850
  H      0.080780    4.644620    0.022630
  H      0.591670    3.083380   -0.625320
  H      1.347070    3.721240    0.836110
  H     -1.472310    4.741530    2.016900
  H     -0.142620    4.029690    2.931620
  H     -1.742580    3.287450    2.979700
  H     -2.684890   -4.028700    2.967560
  H     -2.117000   -2.553120    3.794320
  H     -0.525950   -5.143970    3.652380
  H     -0.214900   -2.699800    5.457070
  H      0.776230   -3.021900    4.032960
  H      0.840910   -4.112170    5.418550
  H     -2.304880   -4.079820    5.894480
  H     -1.245910   -5.485220    6.014570
  H     -2.623020   -5.509930    4.912530
  H     -3.670050    2.160820   -1.361370
  H     -5.407870    2.411330   -1.615590
  H     -3.860940   -0.097030   -2.414710
  H      0.651950   -4.221810    1.855630
  H      2.377590   -4.648460    1.918020
  H      2.221740   -5.473720   -0.440140
  H     -5.839880   -0.568200   -3.839440
  H     -6.633170    0.888550   -3.243390
  H     -6.309760   -0.458510   -2.146710
  H     -4.647720    2.310270   -4.120310
  H     -3.933310    0.818540   -4.732520
  H     -3.006890    1.854900   -3.647140
  H      0.161090   -6.697600    1.455020
  H      1.895120   -7.028780    1.486530
  H      0.927440   -7.520160    0.097240
  H     -0.752720   -4.872550   -0.107560
  H     -0.044200   -5.772600   -1.451450
  H      0.346890   -4.069530   -1.230470
  H      6.881110   -4.133500   -0.718160
  H     11.316540   -2.535470   -3.277610
  H     11.157340    1.742190   -3.156360
  H      9.140230    1.671590   -1.722370
  H    -10.434560    0.259430    1.298430
  H    -14.466360    2.876610   -0.907550
  H    -12.747870    6.453480   -2.518250
  H    -10.547460    5.889250   -1.546170

 Total Charge           Charge          ....    0
 Multiplicity           Mult            ....    1
 Number of Electrons    NEL             ....  562
 Basis Dimension        Dim             .... 2656

ORBITAL ENERGIES
----------------

  NO   OCC          E(Eh)            E(eV)
   0   2.0000     -88.905627     -2419.2451
   1   2.0000     -88.901944     -2419.1449
   2   2.0000     -88.899762     -2419.0855
   3   2.0000     -88.896615     -2418.9999
   4   2.0000     -24.714050      -672.5035
   5   2.0000     -24.710761      -672.4140
   6   2.0000     -19.187942      -522.1304
   7   2.0000     -19.171943      -521.6951
   8   2.0000     -19.127928      -520.4974
   9   2.0000     -19.125105      -520.4206
  10   2.0000     -14.394372      -391.6908
  11   2.0000     -14.392211      -391.6320
  12   2.0000     -14.325879      -389.8270
  13   2.0000     -14.325690      -389.8219
  14   2.0000     -14.320869      -389.6907
  15   2.0000     -14.317910      -389.6101
  16   2.0000     -10.289037      -279.9789
  17   2.0000     -10.285632      -279.8863
  18   2.0000     -10.273596      -279.5588
  19   2.0000     -10.272799      -279.5371
  20   2.0000     -10.270482      -279.4740
  21   2.0000     -10.257060      -279.1088
  22   2.0000     -10.251920      -278.9689
  23   2.0000     -10.251225      -278.9500
  24   2.0000     -10.248233      -278.8686
  25   2.0000     -10.247194      -278.8403
  26   2.0000     -10.245330      -278.7896
  27   2.0000     -10.244141      -278.7572
  28   2.0000     -10.243751      -278.7466
  29   2.0000     -10.237226      -278.5691
  30   2.0000     -10.236576      -278.5514
  31   2.0000     -10.235803      -278.5304
  32   2.0000     -10.233316      -278.4627
  33   2.0000     -10.231228      -278.4059
  34   2.0000     -10.230019      -278.3730
  35   2.0000     -10.229676      -278.3636
  36   2.0000     -10.229239      -278.3517
  37   2.0000     -10.226227      -278.2698
  38   2.0000     -10.225649      -278.2540
  39   2.0000     -10.225102      -278.2392
  40   2.0000     -10.224632      -278.2264
  41   2.0000     -10.223357      -278.1917
  42   2.0000     -10.223120      -278.1852
  43   2.0000     -10.222970      -278.1812
  44   2.0000     -10.222191      -278.1600
  45   2.0000     -10.222007      -278.1550
  46   2.0000     -10.221479      -278.1406
  47   2.0000     -10.220265      -278.1075
  48   2.0000     -10.220120      -278.1036
  49   2.0000     -10.219221      -278.0791
  50   2.0000     -10.216608      -278.0080
  51   2.0000     -10.216440      -278.0035
  52   2.0000     -10.214319      -277.9457
  53   2.0000     -10.212713      -277.9020
  54   2.0000     -10.212655      -277.9005
  55   2.0000     -10.212517      -277.8967
  56   2.0000     -10.210392      -277.8389
  57   2.0000     -10.210384      -277.8387
  58   2.0000     -10.209604      -277.8174
  59   2.0000     -10.209149      -277.8051
  60   2.0000     -10.207306      -277.7549
  61   2.0000     -10.207226      -277.7527
  62   2.0000     -10.207158      -277.7509
  63   2.0000     -10.203297      -277.6458
  64   2.0000     -10.198909      -277.5264
  65   2.0000     -10.194024      -277.3935
  66   2.0000     -10.193112      -277.3687
  67   2.0000     -10.183047      -277.0948
  68   2.0000     -10.177876      -276.9541
  69   2.0000     -10.175725      -276.8956
  70   2.0000     -10.172466      -276.8069
  71   2.0000     -10.171358      -276.7767
  72   2.0000     -10.170663      -276.7578
  73   2.0000     -10.170206      -276.7454
  74   2.0000     -10.164629      -276.5936
  75   2.0000     -10.158916      -276.4382
  76   2.0000      -7.981582      -217.1899
  77   2.0000      -7.978411      -217.1036
  78   2.0000      -7.976210      -217.0437
  79   2.0000      -7.973089      -216.9588
  80   2.0000      -5.944327      -161.7534
  81   2.0000      -5.941477      -161.6758
  82   2.0000      -5.940598      -161.6519
  83   2.0000      -5.939015      -161.6088
  84   2.0000      -5.937725      -161.5737
  85   2.0000      -5.937719      -161.5736
  86   2.0000      -5.936056      -161.5283
  87   2.0000      -5.935220      -161.5056
  88   2.0000      -5.933772      -161.4661
  89   2.0000      -5.932302      -161.4261
  90   2.0000      -5.932190      -161.4231
  91   2.0000      -5.928664      -161.3271
  92   2.0000      -1.250357       -34.0240
  93   2.0000      -1.246923       -33.9305
  94   2.0000      -1.104375       -30.0516
  95   2.0000      -1.086079       -29.5537
  96   2.0000      -1.058690       -28.8084
  97   2.0000      -1.055361       -28.7178
  98   2.0000      -1.031145       -28.0589
  99   2.0000      -1.027918       -27.9711
 100   2.0000      -0.942012       -25.6335
 101   2.0000      -0.936687       -25.4885
 102   2.0000      -0.922378       -25.0992
 103   2.0000      -0.921784       -25.0830
 104   2.0000      -0.920507       -25.0483
 105   2.0000      -0.916903       -24.9502
 106   2.0000      -0.915548       -24.9133
 107   2.0000      -0.907511       -24.6946
 108   2.0000      -0.903397       -24.5827
 109   2.0000      -0.897267       -24.4159
 110   2.0000      -0.873343       -23.7649
 111   2.0000      -0.869831       -23.6693
 112   2.0000      -0.855345       -23.2751
 113   2.0000      -0.840105       -22.8604
 114   2.0000      -0.839569       -22.8458
 115   2.0000      -0.825881       -22.4734
 116   2.0000      -0.825060       -22.4510
 117   2.0000      -0.822020       -22.3683
 118   2.0000      -0.818122       -22.2622
 119   2.0000      -0.811544       -22.0832
 120   2.0000      -0.805075       -21.9072
 121   2.0000      -0.796289       -21.6681
 122   2.0000      -0.791726       -21.5440
 123   2.0000      -0.788192       -21.4478
 124   2.0000      -0.786503       -21.4018
 125   2.0000      -0.781072       -21.2541
 126   2.0000      -0.767621       -20.8880
 127   2.0000      -0.761966       -20.7342
 128   2.0000      -0.754315       -20.5260
 129   2.0000      -0.742283       -20.1986
 130   2.0000      -0.733758       -19.9666
 131   2.0000      -0.723148       -19.6779
 132   2.0000      -0.719541       -19.5797
 133   2.0000      -0.707308       -19.2468
 134   2.0000      -0.705154       -19.1882
 135   2.0000      -0.704134       -19.1605
 136   2.0000      -0.699668       -19.0389
 137   2.0000      -0.697801       -18.9881
 138   2.0000      -0.695006       -18.9121
 139   2.0000      -0.693249       -18.8643
 140   2.0000      -0.692470       -18.8431
 141   2.0000      -0.688402       -18.7324
 142   2.0000      -0.678167       -18.4539
 143   2.0000      -0.660825       -17.9820
 144   2.0000      -0.644747       -17.5444
 145   2.0000      -0.635415       -17.2905
 146   2.0000      -0.629885       -17.1400
 147   2.0000      -0.626663       -17.0524
 148   2.0000      -0.619247       -16.8506
 149   2.0000      -0.611882       -16.6502
 150   2.0000      -0.608759       -16.5652
 151   2.0000      -0.603942       -16.4341
 152   2.0000      -0.603071       -16.4104
 153   2.0000      -0.599613       -16.3163
 154   2.0000      -0.594747       -16.1839
 155   2.0000      -0.594148       -16.1676
 156   2.0000      -0.591003       -16.0820
 157   2.0000      -0.587182       -15.9780
 158   2.0000      -0.578788       -15.7496
 159   2.0000      -0.572988       -15.5918
 160   2.0000      -0.568396       -15.4668
 161   2.0000      -0.567396       -15.4396
 162   2.0000      -0.563230       -15.3263
 163   2.0000      -0.548090       -14.9143
 164   2.0000      -0.542759       -14.7692
 165   2.0000      -0.540224       -14.7002
 166   2.0000      -0.536864       -14.6088
 167   2.0000      -0.535100       -14.5608
 168   2.0000      -0.532471       -14.4893
 169   2.0000      -0.529095       -14.3974
 170   2.0000      -0.521423       -14.1886
 171   2.0000      -0.518539       -14.1102
 172   2.0000      -0.516135       -14.0447
 173   2.0000      -0.512776       -13.9533
 174   2.0000      -0.511250       -13.9118
 175   2.0000      -0.503636       -13.7046
 176   2.0000      -0.498458       -13.5637
 177   2.0000      -0.497565       -13.5394
 178   2.0000      -0.496923       -13.5220
 179   2.0000      -0.495505       -13.4834
 180   2.0000      -0.494183       -13.4474
 181   2.0000      -0.492013       -13.3884
 182   2.0000      -0.489257       -13.3134
 183   2.0000      -0.484388       -13.1809
 184   2.0000      -0.479729       -13.0541
 185   2.0000      -0.478481       -13.0201
 186   2.0000      -0.475739       -12.9455
 187   2.0000      -0.471717       -12.8361
 188   2.0000      -0.469423       -12.7736
 189   2.0000      -0.465691       -12.6721
 190   2.0000      -0.462929       -12.5969
 191   2.0000      -0.462471       -12.5845
 192   2.0000      -0.460208       -12.5229
 193   2.0000      -0.458643       -12.4803
 194   2.0000      -0.456985       -12.4352
 195   2.0000      -0.453200       -12.3322
 196   2.0000      -0.451945       -12.2981
 197   2.0000      -0.450785       -12.2665
 198   2.0000      -0.447752       -12.1840
 199   2.0000      -0.444465       -12.0945
 200   2.0000      -0.443701       -12.0737
 201   2.0000      -0.442351       -12.0370
 202   2.0000      -0.439919       -11.9708
 203   2.0000      -0.435051       -11.8383
 204   2.0000      -0.431324       -11.7369
 205   2.0000      -0.430334       -11.7100
 206   2.0000      -0.427941       -11.6449
 207   2.0000      -0.426118       -11.5953
 208   2.0000      -0.424039       -11.5387
 209   2.0000      -0.422909       -11.5079
 210   2.0000      -0.420042       -11.4299
 211   2.0000      -0.418322       -11.3831
 212   2.0000      -0.416563       -11.3353
 213   2.0000      -0.414822       -11.2879
 214   2.0000      -0.412138       -11.2148
 215   2.0000      -0.410216       -11.1625
 216   2.0000      -0.408094       -11.1048
 217   2.0000      -0.406926       -11.0730
 218   2.0000      -0.405372       -11.0307
 219   2.0000      -0.404358       -11.0031
 220   2.0000      -0.403038       -10.9672
 221   2.0000      -0.402588       -10.9550
 222   2.0000      -0.401838       -10.9346
 223   2.0000      -0.396806       -10.7976
 224   2.0000      -0.396011       -10.7760
 225   2.0000      -0.394099       -10.7240
 226   2.0000      -0.391967       -10.6660
 227   2.0000      -0.388152       -10.5621
 228   2.0000      -0.387109       -10.5338
 229   2.0000      -0.385395       -10.4871
 230   2.0000      -0.384597       -10.4654
 231   2.0000      -0.384160       -10.4535
 232   2.0000      -0.383477       -10.4349
 233   2.0000      -0.382347       -10.4042
 234   2.0000      -0.382064       -10.3965
 235   2.0000      -0.379061       -10.3148
 236   2.0000      -0.378600       -10.3022
 237   2.0000      -0.377341       -10.2680
 238   2.0000      -0.373894       -10.1742
 239   2.0000      -0.372245       -10.1293
 240   2.0000      -0.369867       -10.0646
 241   2.0000      -0.369346       -10.0504
 242   2.0000      -0.365363        -9.9420
 243   2.0000      -0.362691        -9.8693
 244   2.0000      -0.362013        -9.8509
 245   2.0000      -0.361633        -9.8405
 246   2.0000      -0.359006        -9.7690
 247   2.0000      -0.358756        -9.7623
 248   2.0000      -0.356477        -9.7002
 249   2.0000      -0.355890        -9.6843
 250   2.0000      -0.355449        -9.6723
 251   2.0000      -0.354706        -9.6521
 252   2.0000      -0.352026        -9.5791
 253   2.0000      -0.350368        -9.5340
 254   2.0000      -0.349066        -9.4986
 255   2.0000      -0.348776        -9.4907
 256   2.0000      -0.345079        -9.3901
 257   2.0000      -0.344272        -9.3681
 258   2.0000      -0.339722        -9.2443
 259   2.0000      -0.338463        -9.2100
 260   2.0000      -0.337603        -9.1866
 261   2.0000      -0.333660        -9.0794
 262   2.0000      -0.330421        -8.9912
 263   2.0000      -0.325101        -8.8465
 264   2.0000      -0.311964        -8.4890
 265   2.0000      -0.304668        -8.2904
 266   2.0000      -0.295413        -8.0386
 267   2.0000      -0.294605        -8.0166
 268   2.0000      -0.292108        -7.9487
 269   2.0000      -0.289821        -7.8864
 270   2.0000      -0.281772        -7.6674
 271   2.0000      -0.275637        -7.5005
 272   2.0000      -0.273659        -7.4467
 273   2.0000      -0.270776        -7.3682
 274   2.0000      -0.260922        -7.1001
 275   2.0000      -0.255334        -6.9480
 276   2.0000      -0.252839        -6.8801
 277   2.0000      -0.235420        -6.4061
 278   2.0000      -0.227539        -6.1917
 279   2.0000      -0.219081        -5.9615
 280   2.0000      -0.196832        -5.3561
 281   0.0000      -0.128465        -3.4957
 282   0.0000      -0.118274        -3.2184
 283   0.0000      -0.103487        -2.8160
 284   0.0000      -0.098998        -2.6939
 285   0.0000      -0.065397        -1.7796

MULLIKEN ATOMIC CHARGES
-----------------------
   0 C :   -0.054654
   1 C :    0.029103
   2 C :    0.090288
   3 C :   -0.083716
   4 C :    0.164138
   5 C :   -0.014412
   6 S :    0.001175
   7 C :   -0.031552
   8 C :    0.146649
   9 C :   -0.069383
  10 C :    0.246255
  11 N :   -0.009284
  12 S :    0.011581
  13 C :    0.227540
  14 C :   -0.330292
  15 S :   -0.026147
  16 C :   -0.094096
  17 C :    0.266019
  18 C :   -0.070691
  19 C :    0.293174
  20 N :   -0.026123
  21 S :    0.036088
  22 C :    0.251316
  23 C :   -0.479958
  24 O :   -0.351955
  25 O :   -0.389726
  26 C :   -0.055228
  27 C :   -0.010245
  28 C :   -0.344656
  29 C :   -0.343917
  30 C :   -0.092251
  31 C :    0.006621
  32 C :   -0.354121
  33 C :   -0.335451
  34 C :   -0.151326
  35 C :    0.004410
  36 C :   -0.155410
  37 C :    0.006498
  38 C :   -0.352285
  39 C :   -0.353742
  40 C :   -0.343755
  41 C :   -0.359817
  42 C :   -0.260634
  43 C :   -0.005633
  44 C :    0.194598
  45 C :    0.017063
  46 C :    0.088919
  47 C :    0.004112
  48 C :   -0.310975
  49 C :    0.388847
  50 C :   -0.201884
  51 C :   -0.156450
  52 C :   -0.211834
  53 C :   -0.002281
  54 C :    0.218879
  55 C :    0.017336
  56 C :    0.103724
  57 C :   -0.019954
  58 C :   -0.323060
  59 C :    0.395349
  60 C :   -0.202001
  61 C :   -0.157879
  62 O :   -0.288034
  63 F :   -0.194335
  64 C :    0.091390
  65 C :   -0.239854
  66 C :   -0.221264
  67 N :    0.038331
  68 N :    0.040953
  69 O :   -0.289127
  70 F :   -0.195787
  71 C :    0.140811
  72 C :   -0.251388
  73 C :   -0.225495
  74 N :    0.035584
  75 N :    0.038522
  76 H :    0.129063
  77 H :    0.158864
  78 H :    0.126346
  79 H :    0.104979
  80 H :    0.085928
  81 H :    0.099694
  82 H :    0.120166
  83 H :    0.117612
  84 H :    0.106677
  85 H :    0.117410
  86 H :    0.113799
  87 H :    0.109286
  88 H :    0.121186
  89 H :    0.073516
  90 H :    0.104223
  91 H :    0.132078
  92 H :    0.114905
  93 H :    0.109959
  94 H :    0.119316
  95 H :    0.111495
  96 H :    0.138073
  97 H :    0.119970
  98 H :    0.082151
  99 H :    0.112136
 100 H :    0.119110
 101 H :    0.082202
 102 H :    0.116249
 103 H :    0.094131
 104 H :    0.133618
 105 H :    0.100785
 106 H :    0.113553
 107 H :    0.125453
 108 H :    0.102770
 109 H :    0.107810
 110 H :    0.118105
 111 H :    0.100511
 112 H :    0.115240
 113 H :    0.128204
 114 H :    0.142741
 115 H :    0.143619
 116 H :    0.134850
 117 H :    0.158645
 118 H :    0.145844
 119 H :    0.142724
 120 H :    0.134512
 121 H :    0.157283
Sum of atomic charges:    0.0000000

LOEWDIN ATOMIC CHARGES
----------------------
   0 C :   -0.099565
   1 C :   -0.242372
   2 C :   -0.277178
   3 C :   -0.087907
   4 C :   -0.224659
   5 C :   -0.259429
   6 S :    0.760809
   7 C :   -0.348555
   8 C :   -0.126555
   9 C :   -0.336375
  10 C :   -0.177787
  11 N :    0.308221
  12 S :    0.795298
  13 C :   -0.328745
  14 C :   -0.098081
  15 S :    0.720866
  16 C :   -0.350536
  17 C :   -0.133261
  18 C :   -0.338650
  19 C :   -0.180056
  20 N :    0.306573
  21 S :    0.762904
  22 C :   -0.336142
  23 C :   -0.095413
  24 O :    0.270519
  25 O :    0.235592
  26 C :   -0.278538
  27 C :   -0.314633
  28 C :   -0.286986
  29 C :   -0.274669
  30 C :   -0.298564
  31 C :   -0.312317
  32 C :   -0.276967
  33 C :   -0.272883
  34 C :   -0.210965
  35 C :   -0.301364
  36 C :   -0.220743
  37 C :   -0.302820
  38 C :   -0.275411
  39 C :   -0.274448
  40 C :   -0.276043
  41 C :   -0.274280
  42 C :   -0.059428
  43 C :   -0.091373
  44 C :   -0.254302
  45 C :   -0.052215
  46 C :   -0.046566
  47 C :   -0.005074
  48 C :   -0.051511
  49 C :   -0.237954
  50 C :   -0.090887
  51 C :   -0.068220
  52 C :   -0.067116
  53 C :   -0.085104
  54 C :   -0.255088
  55 C :   -0.052899
  56 C :   -0.046901
  57 C :    0.002176
  58 C :   -0.050335
  59 C :   -0.237976
  60 C :   -0.091024
  61 C :   -0.069895
  62 O :    0.136685
  63 F :    0.196954
  64 C :   -0.148934
  65 C :   -0.167702
  66 C :   -0.161177
  67 N :    0.076574
  68 N :    0.096763
  69 O :    0.134132
  70 F :    0.195160
  71 C :   -0.153036
  72 C :   -0.163950
  73 C :   -0.178476
  74 N :    0.084403
  75 N :    0.078490
  76 H :    0.150984
  77 H :    0.154556
  78 H :    0.133482
  79 H :    0.132506
  80 H :    0.153347
  81 H :    0.118296
  82 H :    0.113039
  83 H :    0.122256
  84 H :    0.121663
  85 H :    0.123638
  86 H :    0.120071
  87 H :    0.124641
  88 H :    0.132757
  89 H :    0.146244
  90 H :    0.121492
  91 H :    0.121782
  92 H :    0.122318
  93 H :    0.122405
  94 H :    0.124070
  95 H :    0.119827
  96 H :    0.148377
  97 H :    0.142317
  98 H :    0.153486
  99 H :    0.146779
 100 H :    0.140705
 101 H :    0.148427
 102 H :    0.122022
 103 H :    0.119054
 104 H :    0.124562
 105 H :    0.119917
 106 H :    0.122190
 107 H :    0.122944
 108 H :    0.118201
 109 H :    0.119332
 110 H :    0.122680
 111 H :    0.121693
 112 H :    0.121180
 113 H :    0.124939
 114 H :    0.171453
 115 H :    0.161720
 116 H :    0.156038
 117 H :    0.161202
 118 H :    0.169827
 119 H :    0.162059
 120 H :    0.156176
 121 H :    0.161264

  Mayer bond orders larger than 0.100000
B(  0-C ,  1-C ) :   1.2426 B(  0-C ,  5-C ) :   1.2366 B(  0-C , 15-S ) :   0.1098
B(  0-C , 17-C ) :   1.1134 B(  1-C ,  2-C ) :   1.3688 B(  1-C , 25-O ) :   0.9980
B(  2-C ,  3-C ) :   1.2979 B(  2-C ,  6-S ) :   1.2459 B(  2-C ,  8-C ) :  -0.1039
B(  3-C ,  4-C ) :   1.2626 B(  3-C ,  6-S ) :   0.1057 B(  3-C ,  8-C ) :   1.1635
B(  4-C ,  5-C ) :   1.3788 B(  4-C , 24-O ) :   1.0616 B(  5-C , 15-S ) :   1.1680
B(  6-S ,  7-C ) :   1.2658 B(  7-C ,  8-C ) :   1.2969 B(  7-C ,  9-C ) :   1.1561
B(  8-C , 11-N ) :   1.1834 B(  9-C , 10-C ) :   1.2507 B(  9-C , 12-S ) :   1.2994
B( 10-C , 11-N ) :   1.1485 B( 10-C , 14-C ) :   1.3037 B( 11-N , 36-C ) :   0.8855
B( 12-S , 13-C ) :   1.1519 B( 12-S , 14-C ) :   0.1266 B( 13-C , 14-C ) :   1.4257
B( 13-C , 42-C ) :   1.1030 B( 14-C , 76-H ) :   0.9624 B( 15-S , 16-C ) :   1.2989
B( 16-C , 17-C ) :   1.2992 B( 16-C , 18-C ) :   1.1490 B( 17-C , 20-N ) :   1.1479
B( 18-C , 19-C ) :   1.2205 B( 18-C , 21-S ) :   1.3298 B( 19-C , 20-N ) :   1.1579
B( 19-C , 23-C ) :   1.2746 B( 20-N , 34-C ) :   0.8890 B( 21-S , 22-C ) :   1.1676
B( 21-S , 23-C ) :   0.1535 B( 22-C , 23-C ) :   1.4219 B( 22-C , 52-C ) :   1.1278
B( 23-C , 77-H ) :   0.9537 B( 24-O , 30-C ) :   0.8944 B( 25-O , 26-C ) :   0.8626
B( 26-C , 27-C ) :   0.9788 B( 26-C , 78-H ) :   0.9679 B( 26-C , 79-H ) :   0.9539
B( 27-C , 28-C ) :   0.9610 B( 27-C , 29-C ) :   0.9485 B( 27-C , 80-H ) :   0.9564
B( 28-C , 81-H ) :   0.9650 B( 28-C , 82-H ) :   0.9745 B( 28-C , 83-H ) :   0.9796
B( 29-C , 84-H ) :   0.9717 B( 29-C , 85-H ) :   0.9785 B( 29-C , 86-H ) :   0.9779
B( 30-C , 31-C ) :   0.9827 B( 30-C , 87-H ) :   0.9509 B( 30-C , 88-H ) :   0.9579
B( 31-C , 32-C ) :   0.9602 B( 31-C , 33-C ) :   0.9466 B( 31-C , 89-H ) :   0.9574
B( 32-C , 90-H ) :   0.9658 B( 32-C , 91-H ) :   0.9767 B( 32-C , 92-H ) :   0.9772
B( 33-C , 93-H ) :   0.9720 B( 33-C , 94-H ) :   0.9801 B( 33-C , 95-H ) :   0.9777
B( 34-C , 35-C ) :   0.9404 B( 34-C , 96-H ) :   0.9647 B( 34-C , 97-H ) :   0.9613
B( 35-C , 38-C ) :   0.9597 B( 35-C , 39-C ) :   0.9519 B( 35-C , 98-H ) :   0.9542
B( 36-C , 37-C ) :   0.9343 B( 36-C , 99-H ) :   0.9738 B( 36-C ,100-H ) :   0.9638
B( 37-C , 40-C ) :   0.9418 B( 37-C , 41-C ) :   0.9686 B( 37-C ,101-H ) :   0.9659
B( 38-C ,102-H ) :   0.9789 B( 38-C ,103-H ) :   0.9678 B( 38-C ,104-H ) :   0.9759
B( 39-C ,105-H ) :   0.9680 B( 39-C ,106-H ) :   0.9799 B( 39-C ,107-H ) :   0.9781
B( 40-C ,108-H ) :   0.9722 B( 40-C ,109-H ) :   0.9765 B( 40-C ,110-H ) :   0.9806
B( 41-C ,111-H ) :   0.9682 B( 41-C ,112-H ) :   0.9767 B( 41-C ,113-H ) :   0.9759
B( 42-C , 43-C ) :   1.5017 B( 42-C , 69-O ) :   0.1118 B( 42-C ,114-H ) :   0.9525
B( 43-C , 44-C ) :   1.0096 B( 43-C , 47-C ) :   1.1503 B( 43-C , 69-O ) :  -0.1463
B( 44-C , 45-C ) :   0.9515 B( 44-C , 69-O ) :   2.1902 B( 45-C , 46-C ) :   1.3225
B( 45-C , 48-C ) :   1.2983 B( 45-C , 69-O ) :  -0.1462 B( 46-C , 47-C ) :   1.0510
B( 46-C , 51-C ) :   1.3687 B( 47-C , 71-C ) :   1.4251 B( 48-C , 49-C ) :   1.3623
B( 48-C ,115-H ) :   0.9994 B( 49-C , 50-C ) :   1.3779 B( 49-C , 70-F ) :   1.0272
B( 50-C , 51-C ) :   1.3657 B( 50-C ,116-H ) :   0.9794 B( 51-C ,117-H ) :   0.9329
B( 52-C , 53-C ) :   1.4952 B( 52-C , 62-O ) :   0.1058 B( 52-C ,118-H ) :   0.9425
B( 53-C , 54-C ) :   1.0146 B( 53-C , 57-C ) :   1.1574 B( 53-C , 62-O ) :  -0.1359
B( 54-C , 55-C ) :   0.9508 B( 54-C , 62-O ) :   2.1722 B( 55-C , 56-C ) :   1.3196
B( 55-C , 58-C ) :   1.3032 B( 55-C , 62-O ) :  -0.1438 B( 56-C , 57-C ) :   1.0380
B( 56-C , 61-C ) :   1.3676 B( 57-C , 64-C ) :   1.4178 B( 58-C , 59-C ) :   1.3610
B( 58-C ,119-H ) :   1.0013 B( 59-C , 60-C ) :   1.3791 B( 59-C , 63-F ) :   1.0292
B( 60-C , 61-C ) :   1.3672 B( 60-C ,120-H ) :   0.9791 B( 61-C ,121-H ) :   0.9324
B( 64-C , 65-C ) :   1.0457 B( 64-C , 66-C ) :   1.0563 B( 65-C , 67-N ) :   3.0035
B( 66-C , 68-N ) :   2.9753 B( 71-C , 72-C ) :   1.0461 B( 71-C , 73-C ) :   1.0357
B( 72-C , 75-N ) :   3.0034 B( 73-C , 74-N ) :   2.9990

-----------------------------------------------------------------------------
         ABSORPTION SPECTRUM VIA TRANSITION ELECTRIC DIPOLE MOMENTS
-----------------------------------------------------------------------------
State   Energy    Wavelength  fosc         T2        TX        TY        TZ
        (cm-1)      (nm)                 (au**2)    (au)      (au)      (au)
-----------------------------------------------------------------------------
   1   13626.6    733.9   1.381809614  33.38379  -5.63622   1.17820   0.47821
   2   15565.2    642.5   0.168486729   3.56359  -1.78690  -0.51434   0.32561
   3   17260.7    579.4   0.612271885  11.67781  -3.25644   1.02539  -0.14828
   4   18130.1    551.6   0.276326837   5.01763  -2.22845   0.12096   0.19236
   5   18767.0    532.9   0.188553385   3.30762  -1.58901   0.83877   0.28129
   6   19036.0    525.3   0.006488088   0.11221   0.32167   0.02403  -0.09031
   7   20614.8    485.1   0.049902417   0.79693   0.40467   0.78391  -0.13659
   8   21108.5    473.7   0.218778945   3.41212  -1.01627   1.52853  -0.20713
   9   21862.5    457.4   0.080351820   1.20996  -0.84831  -0.67104   0.20009
  10   22479.8    444.8   0.049397671   0.72342   0.83772   0.06350  -0.13270
  11   23080.9    433.3   0.162376054   2.31604  -1.34800   0.69873  -0.10353
  12   23642.9    423.0   0.036973065   0.51483   0.37539   0.58624  -0.17389
  13   24425.6    409.4   0.015312877   0.20639   0.25687  -0.37319   0.03365
  14   24703.1    404.8   0.078241677   1.04271   0.99140  -0.08502  -0.22936
  15   25124.3    398.0   0.036422593   0.47726   0.64631   0.04861  -0.23912
  16   25705.6    389.0   0.013424824   0.17193  -0.27303   0.18373  -0.25225
  17   25810.8    387.4   0.044373752   0.56598  -0.73770   0.11068   0.09760
  18   26413.7    378.6   0.018111728   0.22574  -0.25651  -0.34482   0.20258
  19   26634.1    375.5   0.110457677   1.36532  -1.15101  -0.03397   0.19835
  20   26727.3    374.1   0.022253303   0.27410   0.44824   0.21813  -0.16002
  21   27059.5    369.6   0.129942611   1.58091  -1.11415  -0.18088   0.55396
  22   27316.0    366.1   0.014396548   0.17351  -0.15613   0.30437  -0.23767
  23   27352.5    365.6   0.011630150   0.13998   0.32581  -0.17567   0.05446
  24   27768.5    360.1   0.070053370   0.83052  -0.87206   0.26408   0.01737
  25   27849.1    359.1   0.065041812   0.76888  -0.78281   0.18442  -0.34939
  26   28489.2    351.0   0.072691787   0.84000  -0.63162   0.06094   0.66132
  27   29602.7    337.8   0.062017733   0.68970   0.77296  -0.18365   0.24187
  28   29884.1    334.6   0.021787939   0.24002   0.10404   0.38335  -0.28678
  29   30028.1    333.0   0.006633195   0.07272   0.21668  -0.04030   0.15539
  30   30222.4    330.9   0.016014909   0.17445  -0.16499  -0.31731   0.21573
  31   30485.3    328.0   0.077581962   0.83781  -0.87112   0.27025  -0.07701
  32   30780.7    324.9   0.015948423   0.17057   0.37883  -0.14819  -0.07142
  33   31157.5    320.9   0.005403230   0.05709  -0.04339  -0.05145   0.22926
  34   31253.6    320.0   0.000314181   0.00331   0.03592   0.01121  -0.04351
  35   31428.1    318.2   0.040480006   0.42403   0.28973  -0.54254  -0.21387
  36   31836.5    314.1   0.106825935   1.10465  -1.04120   0.00829  -0.14315
  37   31964.3    312.8   0.073527282   0.75728   0.10940  -0.28113  -0.81626
  38   32103.7    311.5   0.013037703   0.13370  -0.00958   0.14443  -0.33577
  39   32181.1    310.7   0.178199040   1.82297   1.33314  -0.21136  -0.03232
  40   32367.7    309.0   0.018379934   0.18694  -0.24714   0.32820  -0.13472
  41   32467.8    308.0   0.008376157   0.08493   0.25979   0.12353   0.04669
  42   32965.6    303.3   0.014353025   0.14334   0.26107  -0.22591   0.15538
  43   33111.2    302.0   0.210067741   2.08862  -1.30113   0.62622  -0.05950
  44   33273.5    300.5   0.104941383   1.03830   0.90766  -0.36877  -0.28012
  45   33663.5    297.1   0.274043953   2.68001  -1.27281   0.55617   0.86640
  46   33723.7    296.5   0.030470258   0.29745   0.51398   0.17729   0.04299
  47   33759.7    296.2   0.191019231   1.86275   1.10029   0.26831   0.76165
  48   33958.2    294.5   0.024187170   0.23449   0.37581   0.25228  -0.17208
  49   34148.3    292.8   0.058557744   0.56453  -0.57478  -0.22489   0.42846
  50   34405.5    290.7   0.029875212   0.28586   0.53309  -0.03935  -0.01143

FINAL SINGLE POINT ENERGY     -4734.929108402684

DIPOLE MOMENT
-------------
                                X             Y             Z
Electronic contribution:      3.12661      36.10652     -21.92143
Nuclear contribution   :     -4.19910     -38.51088      20.87040
                        -----------------------------------------
Total Dipole Moment    :     -1.07250      -2.40436      -1.05103
                        -----------------------------------------
Magnitude (a.u.)       :      2.83476
Magnitude (Debye)      :      7.20539

Rotational constants in cm-1:     0.001745     0.000281     0.000259
Rotational constants in MHz :    52.327766     8.430094     7.758706

                             ****ORCA TERMINATED NORMALLY****
TOTAL RUN TIME: 1 days 23 hours 4 minutes 4 seconds 504 msec
