                         Program Version 4.2.0 -  RELEASE  -
|  1> # ORCA input file
|  2> # ../Y11.out
|  3> ! B3LYP def2-TZVP def2/J RIJCOSX Grid4 TightSCF
|  4> %maxcore 10000
|  5> %tddft
|  6>   maxdim 5
|  7>   nroots 50
|  8>   end
|  9> * xyz 0 1
| 10>    C        2.91351         2.30544        -2.28313
| 11>    O        1.90047         1.66990        -2.46205
| 12>    C        3.49562         3.35185        -3.15901
| 13>    C        3.05832         3.78489        -4.39473
| 14>    C        3.80379         4.76272        -5.03499
| 15>    F        3.41933         5.20659        -6.23793
| 16>    C        4.95245         5.28758        -4.44215
| 17>    F        5.65840         6.22089        -5.09081
| 18>    C        5.38633         4.86262        -3.19498
| 19>    C        4.64804         3.88310        -2.55257
| 20>    C        4.81589         3.25726        -1.24164
| 21>    C        5.52285         3.78725        -0.19214
| 22>    C        5.37040         3.33412         1.13501
| 23>    N        5.21781         3.02287         2.22955
| 24>    C        6.41227         4.87219        -0.30527
| 25>    N        7.17907         5.72558        -0.34813
| 26>    C        3.87961         2.16220        -1.16917
| 27>    C        3.83223         1.05395        -0.36922
| 28>    C        4.84995         0.47212         0.40514
| 29>    S        6.55303         0.84744         0.12937
| 30>    C        7.02167        -0.28675         1.33638
| 31>    C        5.90824        -0.93290         1.89548
| 32>    C        4.68369        -0.52207         1.36995
| 33>    C        3.36390        -1.00809         1.86370
| 34>    C        2.75986        -0.00150         2.84674
| 35>    S        6.33618        -2.11375         3.11424
| 36>    C        8.00768        -1.73141         2.86953
| 37>    C        8.21520        -0.72985         1.89984
| 38>    N        9.54757        -0.47264         1.78204
| 39>    C       10.07703         0.50039         0.86104
| 40>    C       10.00136         1.91450         1.43247
| 41>    C       10.21274        -1.29423         2.66384
| 42>    C        9.26391        -2.11132         3.34183
| 43>    C        9.70348        -3.06589         4.30044
| 44>    N        9.02041        -3.88731         5.09414
| 45>    N        9.94001        -4.58805         5.70836
| 46>    C        9.60371        -5.62781         6.63777
| 47>    C        9.17042        -6.88925         5.89794
| 48>    N       11.18191        -4.31188         5.38577
| 49>    C       11.08129        -3.33036         4.49721
| 50>    C       12.09895        -2.63181         3.73326
| 51>    C       11.58563        -1.46432         2.92253
| 52>    N       12.67587        -0.70504         3.11604
| 53>    C       13.23034         0.51682         2.61061
| 54>    C       13.28551         1.56816         3.71711
| 55>    C       13.30533        -1.57294         4.03485
| 56>    C       13.24286        -3.37249         3.11441
| 57>    S       14.21312        -4.63084         2.30090
| 58>    C       15.35819        -3.25173         2.81842
| 59>    C       14.25781        -2.50218         3.34559
| 60>    S       19.16331        -3.84764         1.95760
| 61>    C       17.57768        -4.14633         2.32383
| 62>    C       16.69667        -3.12107         2.81100
| 63>    C       17.27242        -1.80970         3.27632
| 64>    C       17.42824        -0.83452         2.10875
| 65>    C       17.15708        -5.51631         2.13604
| 66>    C       16.42642        -6.23932         3.01954
| 67>    C       15.89994        -7.58675         2.83579
| 68>    C       16.26906        -8.48947         1.88066
| 69>    C       15.71445        -9.78377         1.76340
| 70>    N       15.30298       -10.84526         1.62447
| 71>    C       17.26780        -8.27806         0.90306
| 72>    N       18.06088        -8.18636         0.07943
| 73>    C       14.88876        -7.79620         3.86976
| 74>    C       13.98108        -8.82837         4.05917
| 75>    C       13.10300        -8.73184         5.12711
| 76>    F       12.20736        -9.70752         5.32273
| 77>    C       13.12011        -7.63995         5.99652
| 78>    F       12.25156        -7.59682         7.01551
| 79>    C       14.02015        -6.60424         5.81588
| 80>    C       14.89300        -6.70024         4.75001
| 81>    C       15.93207        -5.73453         4.33689
| 82>    O       16.34111        -4.78852         4.96694
| 83>    H        2.16951         3.38077        -4.85236
| 84>    H        6.27977         5.29416        -2.77347
| 85>    H        2.90263         0.49518        -0.42184
| 86>    H        3.51084        -1.96566         2.36690
| 87>    H        2.67841        -1.15605         1.02685
| 88>    H        3.42357         0.14100         3.69567
| 89>    H        1.80210        -0.36468         3.20926
| 90>    H        2.61197         0.96150         2.36407
| 91>    H        9.48213         0.44891        -0.05639
| 92>    H       11.10374         0.22007         0.61441
| 93>    H       10.53219         1.97980         2.37861
| 94>    H        8.96424         2.19304         1.60267
| 95>    H       10.43628         2.62304         0.73352
| 96>    H        8.78984        -5.26364         7.26813
| 97>    H       10.48890        -5.82012         7.24424
| 98>    H        8.29023        -6.68508         5.29374
| 99>    H        8.93682        -7.67166         6.61334
|100>    H        9.96746        -7.24153         5.24807
|101>    H       12.64214         0.87955         1.76870
|102>    H       14.24939         0.30430         2.26530
|103>    H       12.28795         1.78422         4.09236
|104>    H       13.72334         2.48511         3.33385
|105>    H       13.89084         1.20476         4.54321
|106>    H       18.24669        -1.99435         3.72848
|107>    H       16.61044        -1.38303         4.03080
|108>    H       18.13224        -1.22421         1.37827
|109>    H       17.80043         0.12005         2.47148
|110>    H       16.47277        -0.67252         1.61290
|111>    H       17.53922        -5.99452         1.24347
|112>    H       13.92466        -9.68957         3.41384
|113>    H       14.02553        -5.75009         6.47348
|114> *
|115>
|116>                          ****END OF INPUT****

CARTESIAN COORDINATES (ANGSTROEM)
---------------------------------
  C      2.913510    2.305440   -2.283130
  O      1.900470    1.669900   -2.462050
  C      3.495620    3.351850   -3.159010
  C      3.058320    3.784890   -4.394730
  C      3.803790    4.762720   -5.034990
  F      3.419330    5.206590   -6.237930
  C      4.952450    5.287580   -4.442150
  F      5.658400    6.220890   -5.090810
  C      5.386330    4.862620   -3.194980
  C      4.648040    3.883100   -2.552570
  C      4.815890    3.257260   -1.241640
  C      5.522850    3.787250   -0.192140
  C      5.370400    3.334120    1.135010
  N      5.217810    3.022870    2.229550
  C      6.412270    4.872190   -0.305270
  N      7.179070    5.725580   -0.348130
  C      3.879610    2.162200   -1.169170
  C      3.832230    1.053950   -0.369220
  C      4.849950    0.472120    0.405140
  S      6.553030    0.847440    0.129370
  C      7.021670   -0.286750    1.336380
  C      5.908240   -0.932900    1.895480
  C      4.683690   -0.522070    1.369950
  C      3.363900   -1.008090    1.863700
  C      2.759860   -0.001500    2.846740
  S      6.336180   -2.113750    3.114240
  C      8.007680   -1.731410    2.869530
  C      8.215200   -0.729850    1.899840
  N      9.547570   -0.472640    1.782040
  C     10.077030    0.500390    0.861040
  C     10.001360    1.914500    1.432470
  C     10.212740   -1.294230    2.663840
  C      9.263910   -2.111320    3.341830
  C      9.703480   -3.065890    4.300440
  N      9.020410   -3.887310    5.094140
  N      9.940010   -4.588050    5.708360
  C      9.603710   -5.627810    6.637770
  C      9.170420   -6.889250    5.897940
  N     11.181910   -4.311880    5.385770
  C     11.081290   -3.330360    4.497210
  C     12.098950   -2.631810    3.733260
  C     11.585630   -1.464320    2.922530
  N     12.675870   -0.705040    3.116040
  C     13.230340    0.516820    2.610610
  C     13.285510    1.568160    3.717110
  C     13.305330   -1.572940    4.034850
  C     13.242860   -3.372490    3.114410
  S     14.213120   -4.630840    2.300900
  C     15.358190   -3.251730    2.818420
  C     14.257810   -2.502180    3.345590
  S     19.163310   -3.847640    1.957600
  C     17.577680   -4.146330    2.323830
  C     16.696670   -3.121070    2.811000
  C     17.272420   -1.809700    3.276320
  C     17.428240   -0.834520    2.108750
  C     17.157080   -5.516310    2.136040
  C     16.426420   -6.239320    3.019540
  C     15.899940   -7.586750    2.835790
  C     16.269060   -8.489470    1.880660
  C     15.714450   -9.783770    1.763400
  N     15.302980  -10.845260    1.624470
  C     17.267800   -8.278060    0.903060
  N     18.060880   -8.186360    0.079430
  C     14.888760   -7.796200    3.869760
  C     13.981080   -8.828370    4.059170
  C     13.103000   -8.731840    5.127110
  F     12.207360   -9.707520    5.322730
  C     13.120110   -7.639950    5.996520
  F     12.251560   -7.596820    7.015510
  C     14.020150   -6.604240    5.815880
  C     14.893000   -6.700240    4.750010
  C     15.932070   -5.734530    4.336890
  O     16.341110   -4.788520    4.966940
  H      2.169510    3.380770   -4.852360
  H      6.279770    5.294160   -2.773470
  H      2.902630    0.495180   -0.421840
  H      3.510840   -1.965660    2.366900
  H      2.678410   -1.156050    1.026850
  H      3.423570    0.141000    3.695670
  H      1.802100   -0.364680    3.209260
  H      2.611970    0.961500    2.364070
  H      9.482130    0.448910   -0.056390
  H     11.103740    0.220070    0.614410
  H     10.532190    1.979800    2.378610
  H      8.964240    2.193040    1.602670
  H     10.436280    2.623040    0.733520
  H      8.789840   -5.263640    7.268130
  H     10.488900   -5.820120    7.244240
  H      8.290230   -6.685080    5.293740
  H      8.936820   -7.671660    6.613340
  H      9.967460   -7.241530    5.248070
  H     12.642140    0.879550    1.768700
  H     14.249390    0.304300    2.265300
  H     12.287950    1.784220    4.092360
  H     13.723340    2.485110    3.333850
  H     13.890840    1.204760    4.543210
  H     18.246690   -1.994350    3.728480
  H     16.610440   -1.383030    4.030800
  H     18.132240   -1.224210    1.378270
  H     17.800430    0.120050    2.471480
  H     16.472770   -0.672520    1.612900
  H     17.539220   -5.994520    1.243470
  H     13.924660   -9.689570    3.413840
  H     14.025530   -5.750090    6.473480

 Total Charge           Charge          ....    0
 Multiplicity           Mult            ....    1
 Number of Electrons    NEL             ....  534
 Basis Dimension        Dim             .... 2473

ORBITAL ENERGIES
----------------

  NO   OCC          E(Eh)            E(eV)
   0   2.0000     -88.913079     -2419.4479
   1   2.0000     -88.912214     -2419.4243
   2   2.0000     -88.901640     -2419.1366
   3   2.0000     -88.848201     -2417.6825
   4   2.0000     -24.735530      -673.0880
   5   2.0000     -24.730911      -672.9623
   6   2.0000     -24.726061      -672.8303
   7   2.0000     -24.726038      -672.8297
   8   2.0000     -19.139793      -520.8203
   9   2.0000     -19.132763      -520.6290
  10   2.0000     -14.448185      -393.1551
  11   2.0000     -14.415948      -392.2779
  12   2.0000     -14.411937      -392.1688
  13   2.0000     -14.369418      -391.0117
  14   2.0000     -14.366565      -390.9341
  15   2.0000     -14.337456      -390.1420
  16   2.0000     -14.336108      -390.1053
  17   2.0000     -14.332442      -390.0056
  18   2.0000     -14.329016      -389.9124
  19   2.0000     -10.306773      -280.4615
  20   2.0000     -10.305973      -280.4398
  21   2.0000     -10.301923      -280.3296
  22   2.0000     -10.300804      -280.2991
  23   2.0000     -10.287525      -279.9378
  24   2.0000     -10.278746      -279.6989
  25   2.0000     -10.269210      -279.4394
  26   2.0000     -10.265109      -279.3278
  27   2.0000     -10.264951      -279.3235
  28   2.0000     -10.259276      -279.1691
  29   2.0000     -10.258633      -279.1516
  30   2.0000     -10.257926      -279.1323
  31   2.0000     -10.257259      -279.1142
  32   2.0000     -10.256519      -279.0941
  33   2.0000     -10.253681      -279.0169
  34   2.0000     -10.253185      -279.0034
  35   2.0000     -10.249564      -278.9048
  36   2.0000     -10.246526      -278.8222
  37   2.0000     -10.245369      -278.7907
  38   2.0000     -10.245129      -278.7841
  39   2.0000     -10.237436      -278.5748
  40   2.0000     -10.236480      -278.5488
  41   2.0000     -10.234790      -278.5028
  42   2.0000     -10.234653      -278.4991
  43   2.0000     -10.234488      -278.4946
  44   2.0000     -10.234193      -278.4866
  45   2.0000     -10.234133      -278.4849
  46   2.0000     -10.232975      -278.4534
  47   2.0000     -10.232255      -278.4338
  48   2.0000     -10.231727      -278.4194
  49   2.0000     -10.230928      -278.3977
  50   2.0000     -10.230774      -278.3935
  51   2.0000     -10.230708      -278.3917
  52   2.0000     -10.229332      -278.3543
  53   2.0000     -10.229258      -278.3523
  54   2.0000     -10.227808      -278.3128
  55   2.0000     -10.226913      -278.2884
  56   2.0000     -10.225969      -278.2628
  57   2.0000     -10.224040      -278.2103
  58   2.0000     -10.222742      -278.1750
  59   2.0000     -10.221932      -278.1529
  60   2.0000     -10.221764      -278.1483
  61   2.0000     -10.221704      -278.1467
  62   2.0000     -10.218382      -278.0563
  63   2.0000     -10.217413      -278.0299
  64   2.0000     -10.211954      -277.8814
  65   2.0000     -10.205374      -277.7023
  66   2.0000     -10.203041      -277.6389
  67   2.0000     -10.199058      -277.5305
  68   2.0000     -10.196443      -277.4593
  69   2.0000     -10.187082      -277.2046
  70   2.0000     -10.182641      -277.0837
  71   2.0000     -10.176463      -276.9156
  72   2.0000     -10.171795      -276.7886
  73   2.0000      -7.989908      -217.4165
  74   2.0000      -7.987825      -217.3598
  75   2.0000      -7.976389      -217.0486
  76   2.0000      -7.926002      -215.6775
  77   2.0000      -5.952607      -161.9787
  78   2.0000      -5.950823      -161.9301
  79   2.0000      -5.948834      -161.8760
  80   2.0000      -5.947078      -161.8282
  81   2.0000      -5.945980      -161.7983
  82   2.0000      -5.943519      -161.7314
  83   2.0000      -5.939887      -161.6326
  84   2.0000      -5.936240      -161.5333
  85   2.0000      -5.930903      -161.3881
  86   2.0000      -5.887907      -160.2181
  87   2.0000      -5.887271      -160.2008
  88   2.0000      -5.880180      -160.0078
  89   2.0000      -1.276574       -34.7373
  90   2.0000      -1.269339       -34.5405
  91   2.0000      -1.262522       -34.3550
  92   2.0000      -1.255981       -34.1770
  93   2.0000      -1.142452       -31.0877
  94   2.0000      -1.073185       -29.2029
  95   2.0000      -1.063621       -28.9426
  96   2.0000      -1.057784       -28.7838
  97   2.0000      -1.043308       -28.3898
  98   2.0000      -0.953309       -25.9408
  99   2.0000      -0.949036       -25.8246
 100   2.0000      -0.940252       -25.5856
 101   2.0000      -0.934875       -25.4392
 102   2.0000      -0.932120       -25.3643
 103   2.0000      -0.931712       -25.3532
 104   2.0000      -0.928639       -25.2695
 105   2.0000      -0.926738       -25.2178
 106   2.0000      -0.922118       -25.0921
 107   2.0000      -0.906400       -24.6644
 108   2.0000      -0.893571       -24.3153
 109   2.0000      -0.889150       -24.1950
 110   2.0000      -0.879007       -23.9190
 111   2.0000      -0.877429       -23.8760
 112   2.0000      -0.861609       -23.4456
 113   2.0000      -0.848161       -23.0796
 114   2.0000      -0.836940       -22.7743
 115   2.0000      -0.831120       -22.6159
 116   2.0000      -0.828185       -22.5361
 117   2.0000      -0.816369       -22.2145
 118   2.0000      -0.810667       -22.0594
 119   2.0000      -0.807851       -21.9827
 120   2.0000      -0.806822       -21.9547
 121   2.0000      -0.802571       -21.8391
 122   2.0000      -0.795907       -21.6577
 123   2.0000      -0.777180       -21.1481
 124   2.0000      -0.774082       -21.0638
 125   2.0000      -0.769766       -20.9464
 126   2.0000      -0.756620       -20.5887
 127   2.0000      -0.742004       -20.1910
 128   2.0000      -0.738693       -20.1009
 129   2.0000      -0.732931       -19.9441
 130   2.0000      -0.723333       -19.6829
 131   2.0000      -0.713821       -19.4241
 132   2.0000      -0.708547       -19.2805
 133   2.0000      -0.704870       -19.1805
 134   2.0000      -0.701614       -19.0919
 135   2.0000      -0.697581       -18.9822
 136   2.0000      -0.681094       -18.5335
 137   2.0000      -0.669364       -18.2143
 138   2.0000      -0.664167       -18.0729
 139   2.0000      -0.660981       -17.9862
 140   2.0000      -0.654691       -17.8151
 141   2.0000      -0.648390       -17.6436
 142   2.0000      -0.643664       -17.5150
 143   2.0000      -0.641670       -17.4607
 144   2.0000      -0.637170       -17.3383
 145   2.0000      -0.633943       -17.2505
 146   2.0000      -0.624430       -16.9916
 147   2.0000      -0.620714       -16.8905
 148   2.0000      -0.614725       -16.7275
 149   2.0000      -0.605592       -16.4790
 150   2.0000      -0.600433       -16.3386
 151   2.0000      -0.594950       -16.1894
 152   2.0000      -0.589761       -16.0482
 153   2.0000      -0.584758       -15.9121
 154   2.0000      -0.582203       -15.8426
 155   2.0000      -0.575164       -15.6510
 156   2.0000      -0.574082       -15.6216
 157   2.0000      -0.568519       -15.4702
 158   2.0000      -0.565184       -15.3794
 159   2.0000      -0.556512       -15.1435
 160   2.0000      -0.553658       -15.0658
 161   2.0000      -0.546005       -14.8575
 162   2.0000      -0.543011       -14.7761
 163   2.0000      -0.541240       -14.7279
 164   2.0000      -0.534127       -14.5343
 165   2.0000      -0.532803       -14.4983
 166   2.0000      -0.530110       -14.4250
 167   2.0000      -0.528789       -14.3891
 168   2.0000      -0.525238       -14.2924
 169   2.0000      -0.521453       -14.1894
 170   2.0000      -0.520448       -14.1621
 171   2.0000      -0.511629       -13.9221
 172   2.0000      -0.510499       -13.8914
 173   2.0000      -0.503636       -13.7046
 174   2.0000      -0.497534       -13.5386
 175   2.0000      -0.494483       -13.4556
 176   2.0000      -0.494076       -13.4445
 177   2.0000      -0.491228       -13.3670
 178   2.0000      -0.489863       -13.3299
 179   2.0000      -0.486723       -13.2444
 180   2.0000      -0.486245       -13.2314
 181   2.0000      -0.485848       -13.2206
 182   2.0000      -0.479131       -13.0378
 183   2.0000      -0.477337       -12.9890
 184   2.0000      -0.474609       -12.9148
 185   2.0000      -0.473429       -12.8827
 186   2.0000      -0.470590       -12.8054
 187   2.0000      -0.469513       -12.7761
 188   2.0000      -0.467085       -12.7100
 189   2.0000      -0.464747       -12.6464
 190   2.0000      -0.464448       -12.6383
 191   2.0000      -0.461683       -12.5630
 192   2.0000      -0.458500       -12.4764
 193   2.0000      -0.456282       -12.4161
 194   2.0000      -0.454906       -12.3786
 195   2.0000      -0.449937       -12.2434
 196   2.0000      -0.444265       -12.0891
 197   2.0000      -0.442764       -12.0482
 198   2.0000      -0.439038       -11.9468
 199   2.0000      -0.437854       -11.9146
 200   2.0000      -0.436372       -11.8743
 201   2.0000      -0.433834       -11.8052
 202   2.0000      -0.432285       -11.7631
 203   2.0000      -0.431875       -11.7519
 204   2.0000      -0.428843       -11.6694
 205   2.0000      -0.428241       -11.6530
 206   2.0000      -0.422843       -11.5061
 207   2.0000      -0.421559       -11.4712
 208   2.0000      -0.420074       -11.4308
 209   2.0000      -0.416806       -11.3419
 210   2.0000      -0.414543       -11.2803
 211   2.0000      -0.411392       -11.1945
 212   2.0000      -0.408266       -11.1095
 213   2.0000      -0.407118       -11.0782
 214   2.0000      -0.403540       -10.9809
 215   2.0000      -0.402373       -10.9491
 216   2.0000      -0.401354       -10.9214
 217   2.0000      -0.398072       -10.8321
 218   2.0000      -0.397981       -10.8296
 219   2.0000      -0.395348       -10.7580
 220   2.0000      -0.393189       -10.6992
 221   2.0000      -0.392852       -10.6900
 222   2.0000      -0.391695       -10.6586
 223   2.0000      -0.390788       -10.6339
 224   2.0000      -0.389840       -10.6081
 225   2.0000      -0.388678       -10.5765
 226   2.0000      -0.386517       -10.5176
 227   2.0000      -0.383855       -10.4452
 228   2.0000      -0.382586       -10.4107
 229   2.0000      -0.381022       -10.3681
 230   2.0000      -0.375918       -10.2292
 231   2.0000      -0.371811       -10.1175
 232   2.0000      -0.370963       -10.0944
 233   2.0000      -0.370637       -10.0855
 234   2.0000      -0.370403       -10.0792
 235   2.0000      -0.369331       -10.0500
 236   2.0000      -0.367028        -9.9874
 237   2.0000      -0.366688        -9.9781
 238   2.0000      -0.364192        -9.9102
 239   2.0000      -0.360831        -9.8187
 240   2.0000      -0.357973        -9.7409
 241   2.0000      -0.355140        -9.6638
 242   2.0000      -0.350403        -9.5349
 243   2.0000      -0.347935        -9.4678
 244   2.0000      -0.346806        -9.4371
 245   2.0000      -0.338914        -9.2223
 246   2.0000      -0.335247        -9.1225
 247   2.0000      -0.334026        -9.0893
 248   2.0000      -0.328424        -8.9369
 249   2.0000      -0.320338        -8.7168
 250   2.0000      -0.314534        -8.5589
 251   2.0000      -0.302770        -8.2388
 252   2.0000      -0.300477        -8.1764
 253   2.0000      -0.297071        -8.0837
 254   2.0000      -0.292836        -7.9685
 255   2.0000      -0.290098        -7.8940
 256   2.0000      -0.281158        -7.6507
 257   2.0000      -0.279737        -7.6120
 258   2.0000      -0.272376        -7.4117
 259   2.0000      -0.268821        -7.3150
 260   2.0000      -0.265235        -7.2174
 261   2.0000      -0.258588        -7.0365
 262   2.0000      -0.248834        -6.7711
 263   2.0000      -0.239671        -6.5218
 264   2.0000      -0.238691        -6.4951
 265   2.0000      -0.229872        -6.2551
 266   2.0000      -0.203555        -5.5390
 267   0.0000      -0.143683        -3.9098
 268   0.0000      -0.135330        -3.6825
 269   0.0000      -0.117720        -3.2033
 270   0.0000      -0.109041        -2.9672
 271   0.0000      -0.101834        -2.7710

MULLIKEN ATOMIC CHARGES
-----------------------
   0 C :    0.206857
   1 O :   -0.288334
   2 C :   -0.017495
   3 C :   -0.289485
   4 C :    0.276596
   5 F :   -0.179765
   6 C :    0.257691
   7 F :   -0.177028
   8 C :   -0.261627
   9 C :    0.119321
  10 C :   -0.008016
  11 C :    0.117546
  12 C :   -0.221095
  13 N :    0.030968
  14 C :   -0.239791
  15 N :    0.036061
  16 C :   -0.005865
  17 C :   -0.299993
  18 C :    0.231565
  19 S :   -0.039988
  20 C :   -0.143568
  21 C :   -0.004495
  22 C :    0.071452
  23 C :   -0.234798
  24 C :   -0.316675
  25 S :    0.025507
  26 C :   -0.151224
  27 C :    0.356514
  28 N :   -0.018158
  29 C :   -0.219049
  30 C :   -0.329074
  31 C :    0.089232
  32 C :    0.067985
  33 C :    0.051118
  34 N :   -0.245604
  35 N :    0.280856
  36 C :   -0.096471
  37 C :   -0.344305
  38 N :   -0.235212
  39 C :   -0.064606
  40 C :    0.177665
  41 C :   -0.142991
  42 N :    0.076838
  43 C :   -0.137533
  44 C :   -0.317779
  45 C :   -0.296178
  46 C :   -0.077004
  47 S :   -0.061587
  48 C :   -0.015199
  49 C :    0.203979
  50 S :   -0.178072
  51 C :    0.061410
  52 C :    0.092494
  53 C :   -0.197594
  54 C :   -0.352901
  55 C :   -0.102434
  56 C :   -0.113498
  57 C :    0.062788
  58 C :    0.162416
  59 C :   -0.224381
  60 N :    0.051068
  61 C :   -0.224437
  62 N :    0.064365
  63 C :    0.113795
  64 C :   -0.274873
  65 C :    0.266505
  66 F :   -0.180698
  67 C :    0.265225
  68 F :   -0.195489
  69 C :   -0.251735
  70 C :    0.067898
  71 C :    0.188106
  72 O :   -0.279240
  73 H :    0.152200
  74 H :    0.160924
  75 H :    0.138138
  76 H :    0.104618
  77 H :    0.114473
  78 H :    0.120187
  79 H :    0.114838
  80 H :    0.131844
  81 H :    0.131018
  82 H :    0.142040
  83 H :    0.118260
  84 H :    0.150842
  85 H :    0.128170
  86 H :    0.120825
  87 H :    0.136424
  88 H :    0.127799
  89 H :    0.116594
  90 H :    0.113537
  91 H :    0.115987
  92 H :    0.122631
  93 H :    0.112230
  94 H :    0.122827
  95 H :    0.138721
  96 H :    0.113487
  97 H :    0.115580
  98 H :    0.129030
  99 H :    0.112841
 100 H :    0.093921
 101 H :    0.171613
 102 H :    0.162521
 103 H :    0.147403
Sum of atomic charges:   -0.0000000

LOEWDIN ATOMIC CHARGES
----------------------
   0 C :   -0.257089
   1 O :    0.135318
   2 C :   -0.057156
   3 C :   -0.045283
   4 C :   -0.225110
   5 F :    0.213291
   6 C :   -0.223514
   7 F :    0.215873
   8 C :   -0.052222
   9 C :   -0.044340
  10 C :   -0.006078
  11 C :   -0.158107
  12 C :   -0.185962
  13 N :    0.083639
  14 C :   -0.167453
  15 N :    0.078653
  16 C :   -0.093261
  17 C :   -0.058732
  18 C :   -0.303044
  19 S :    0.800400
  20 C :   -0.334555
  21 C :   -0.320219
  22 C :   -0.128613
  23 C :   -0.227852
  24 C :   -0.278332
  25 S :    0.751667
  26 C :   -0.286201
  27 C :   -0.180841
  28 N :    0.306369
  29 C :   -0.261947
  30 C :   -0.290866
  31 C :   -0.111631
  32 C :   -0.083873
  33 C :   -0.205373
  34 N :    0.095038
  35 N :    0.131402
  36 C :   -0.270737
  37 C :   -0.293842
  38 N :    0.103931
  39 C :   -0.191913
  40 C :   -0.098837
  41 C :   -0.096525
  42 N :    0.313109
  43 C :   -0.264177
  44 C :   -0.285786
  45 C :   -0.121576
  46 C :   -0.220197
  47 S :    0.669641
  48 C :   -0.188503
  49 C :   -0.135102
  50 S :    0.392041
  51 C :   -0.409960
  52 C :   -0.146168
  53 C :   -0.227070
  54 C :   -0.295609
  55 C :   -0.066255
  56 C :   -0.090409
  57 C :    0.011358
  58 C :   -0.123644
  59 C :   -0.155741
  60 N :    0.093775
  61 C :   -0.159525
  62 N :    0.101903
  63 C :   -0.049224
  64 C :   -0.047396
  65 C :   -0.225217
  66 F :    0.214470
  67 C :   -0.226043
  68 F :    0.216728
  69 C :   -0.038931
  70 C :   -0.064643
  71 C :   -0.277831
  72 O :    0.170859
  73 H :    0.164873
  74 H :    0.167363
  75 H :    0.172872
  76 H :    0.142543
  77 H :    0.145321
  78 H :    0.124947
  79 H :    0.119591
  80 H :    0.124427
  81 H :    0.140849
  82 H :    0.134995
  83 H :    0.119785
  84 H :    0.126166
  85 H :    0.127655
  86 H :    0.140810
  87 H :    0.140640
  88 H :    0.122564
  89 H :    0.125533
  90 H :    0.119886
  91 H :    0.135312
  92 H :    0.143667
  93 H :    0.119568
  94 H :    0.124833
  95 H :    0.126837
  96 H :    0.144796
  97 H :    0.146576
  98 H :    0.118417
  99 H :    0.118675
 100 H :    0.110220
 101 H :    0.173451
 102 H :    0.169175
 103 H :    0.166706

  Mayer bond orders larger than 0.100000
B(  0-C ,  1-O ) :   2.1799 B(  0-C ,  2-C ) :   0.9526 B(  0-C , 16-C ) :   1.0089
B(  1-O ,  2-C ) :  -0.1501 B(  1-O , 16-C ) :  -0.1307 B(  2-C ,  3-C ) :   1.3164
B(  2-C ,  9-C ) :   1.3215 B(  3-C ,  4-C ) :   1.3556 B(  3-C , 73-H ) :   0.9806
B(  4-C ,  5-F ) :   1.0621 B(  4-C ,  6-C ) :   1.3452 B(  6-C ,  7-F ) :   1.0750
B(  6-C ,  8-C ) :   1.3878 B(  8-C ,  9-C ) :   1.3109 B(  8-C , 74-H ) :   0.9440
B(  9-C , 10-C ) :   1.0452 B( 10-C , 11-C ) :   1.3976 B( 10-C , 16-C ) :   1.1530
B( 11-C , 12-C ) :   1.0470 B( 11-C , 14-C ) :   1.0562 B( 12-C , 13-N ) :   2.9647
B( 14-C , 15-N ) :   2.9920 B( 16-C , 17-C ) :   1.4962 B( 17-C , 18-C ) :   1.0710
B( 17-C , 75-H ) :   0.9565 B( 18-C , 19-S ) :   1.1546 B( 18-C , 22-C ) :   1.3861
B( 19-S , 20-C ) :   1.3338 B( 19-S , 27-C ) :  -0.1448 B( 20-C , 21-C ) :   1.3881
B( 20-C , 25-S ) :   0.1207 B( 20-C , 27-C ) :   1.0907 B( 21-C , 22-C ) :   1.3237
B( 21-C , 25-S ) :   1.1754 B( 21-C , 27-C ) :  -0.1102 B( 22-C , 23-C ) :   0.9287
B( 23-C , 24-C ) :   0.9684 B( 23-C , 76-H ) :   0.9752 B( 23-C , 77-H ) :   0.9715
B( 24-C , 78-H ) :   0.9688 B( 24-C , 79-H ) :   0.9707 B( 24-C , 80-H ) :   0.9707
B( 25-S , 26-C ) :   1.3406 B( 26-C , 27-C ) :   1.2393 B( 26-C , 32-C ) :   1.2179
B( 27-C , 28-N ) :   1.1407 B( 28-N , 29-C ) :   0.8769 B( 28-N , 31-C ) :   1.2402
B( 29-C , 30-C ) :   0.9387 B( 29-C , 81-H ) :   0.9596 B( 29-C , 82-H ) :   0.9696
B( 30-C , 83-H ) :   0.9702 B( 30-C , 84-H ) :   0.9683 B( 30-C , 85-H ) :   0.9693
B( 31-C , 32-C ) :   1.2608 B( 31-C , 41-C ) :   1.2053 B( 32-C , 33-C ) :   1.1290
B( 33-C , 34-N ) :   1.5296 B( 33-C , 39-C ) :   1.2791 B( 34-N , 35-N ) :   1.1569
B( 35-N , 36-C ) :   0.8964 B( 35-N , 38-N ) :   1.1733 B( 36-C , 37-C ) :   0.9518
B( 36-C , 86-H ) :   0.9572 B( 36-C , 87-H ) :   0.9601 B( 37-C , 88-H ) :   0.9693
B( 37-C , 89-H ) :   0.9692 B( 37-C , 90-H ) :   0.9764 B( 38-N , 39-C ) :   1.5596
B( 39-C , 40-C ) :   0.9965 B( 40-C , 41-C ) :   1.0472 B( 40-C , 45-C ) :   0.6582
B( 40-C , 46-C ) :   0.8266 B( 41-C , 42-N ) :   1.3477 B( 41-C , 45-C ) :   0.2405
B( 42-N , 43-C ) :   0.8923 B( 42-N , 45-C ) :   0.9568 B( 43-C , 44-C ) :   0.9748
B( 43-C , 91-H ) :   0.9556 B( 43-C , 92-H ) :   0.9483 B( 44-C , 93-H ) :   0.9659
B( 44-C , 94-H ) :   0.9699 B( 44-C , 95-H ) :   0.9709 B( 45-C , 46-C ) :   0.1401
B( 45-C , 49-C ) :   0.7680 B( 46-C , 47-S ) :   1.1118 B( 46-C , 49-C ) :   1.5071
B( 47-S , 48-C ) :   1.0837 B( 47-S , 56-C ) :   0.1709 B( 48-C , 49-C ) :   1.0069
B( 48-C , 52-C ) :   1.4363 B( 50-S , 51-C ) :   1.7367 B( 50-S , 55-C ) :   0.1025
B( 51-C , 52-C ) :   1.1346 B( 51-C , 55-C ) :   1.0737 B( 52-C , 53-C ) :   0.9137
B( 53-C , 54-C ) :   0.9357 B( 53-C , 96-H ) :   0.9565 B( 53-C , 97-H ) :   0.9781
B( 54-C , 98-H ) :   0.9708 B( 54-C , 99-H ) :   0.9741 B( 54-C ,100-H ) :   0.9746
B( 55-C , 56-C ) :   1.5568 B( 55-C ,101-H ) :   0.9279 B( 56-C , 57-C ) :   1.0914
B( 56-C , 71-C ) :   0.9272 B( 57-C , 58-C ) :   1.5007 B( 57-C , 63-C ) :   1.0265
B( 58-C , 59-C ) :   1.0268 B( 58-C , 61-C ) :   1.0324 B( 59-C , 60-N ) :   2.9766
B( 61-C , 62-N ) :   2.9763 B( 63-C , 64-C ) :   1.3108 B( 63-C , 70-C ) :   1.2767
B( 64-C , 65-C ) :   1.4203 B( 64-C ,102-H ) :   0.9347 B( 65-C , 66-F ) :   1.0782
B( 65-C , 67-C ) :   1.3522 B( 67-C , 68-F ) :   0.9902 B( 67-C , 69-C ) :   1.3625
B( 69-C , 70-C ) :   1.3126 B( 69-C ,103-H ) :   0.9703 B( 70-C , 71-C ) :   0.9565
B( 70-C , 72-O ) :  -0.1302 B( 71-C , 72-O ) :   2.1436

-----------------------------------------------------------------------------
         ABSORPTION SPECTRUM VIA TRANSITION ELECTRIC DIPOLE MOMENTS
-----------------------------------------------------------------------------
State   Energy    Wavelength  fosc         T2        TX        TY        TZ
        (cm-1)      (nm)                 (au**2)    (au)      (au)      (au)
-----------------------------------------------------------------------------
   1    9689.3   1032.1   0.008147171   0.27681   0.45545  -0.24069   0.10700
   2   13683.5    730.8   0.029239855   0.70348   0.20934  -0.77423   0.24541
   3   14244.5    702.0   0.864421224  19.97806   3.38941  -2.42236   1.61930
   4   15168.6    659.3   0.020500416   0.44493  -0.40491   0.41912  -0.32452
   5   16112.5    620.6   0.011818257   0.24147   0.48532  -0.06326  -0.04394
   6   18020.7    554.9   0.025069612   0.45799   0.66761  -0.04696   0.10038
   7   18142.6    551.2   0.296423841   5.37884   1.79503  -1.31756   0.64865
   8   18166.8    550.5   0.020733379   0.37572  -0.15263   0.51641  -0.29283
   9   18739.3    533.6   0.087137780   1.53084   1.07340  -0.33822   0.51406
  10   19579.4    510.7   0.475216420   7.99037  -1.88994   1.64865  -1.30401
  11   20006.1    499.8   0.006515126   0.10721   0.31520   0.04932   0.07365
  12   20499.0    487.8   0.023054496   0.37025  -0.12215   0.16791  -0.57196
  13   20799.6    480.8   0.060309911   0.95458  -0.69380   0.61885  -0.30041
  14   21025.1    475.6   0.024229685   0.37939  -0.39655   0.44646   0.15102
  15   21233.3    471.0   0.007341095   0.11382  -0.17279  -0.06864  -0.28152
  16   22020.3    454.1   0.023440468   0.35044   0.53490  -0.08613  -0.23854
  17   23054.0    433.8   0.008743494   0.12486  -0.10494  -0.33187   0.06091
  18   23378.1    427.8   0.049029567   0.69044   0.27241   0.73136  -0.28522
  19   23461.0    426.2   0.020270925   0.28445   0.49153  -0.20480   0.03009
  20   23748.8    421.1   0.107524492   1.49053  -1.20802  -0.17599  -0.01561
  21   23768.0    420.7   0.012360475   0.17121   0.39861   0.07169  -0.08471
  22   24161.8    413.9   0.026571197   0.36204   0.46073  -0.35955   0.14314
  23   24257.8    412.2   0.026888877   0.36492  -0.18760   0.11199   0.56319
  24   24842.1    402.5   0.023989681   0.31792  -0.25261   0.43385   0.25666
  25   25104.2    398.3   0.032863259   0.43096   0.47195  -0.37759   0.25621
  26   25255.4    396.0   0.067163160   0.87549   0.70431  -0.18206   0.58846
  27   25528.9    391.7   0.001827084   0.02356  -0.08732   0.07004  -0.10503
  28   25809.9    387.4   0.003536596   0.04511   0.17198   0.09212  -0.08395
  29   25848.6    386.9   0.012641291   0.16100   0.32622   0.22612  -0.05876
  30   26353.2    379.5   0.017135940   0.21407   0.33927  -0.04143  -0.31184
  31   26414.5    378.6   0.012200993   0.15206   0.31069   0.14941  -0.18224
  32   26696.0    374.6   0.008067357   0.09949  -0.22594   0.03212   0.21773
  33   26787.1    373.3   0.065731994   0.80784   0.51924   0.70471   0.20400
  34   27050.8    369.7   0.068500489   0.83366  -0.10295  -0.79671   0.43395
  35   27131.1    368.6   0.009733278   0.11810  -0.20526   0.09107  -0.26015
  36   27713.7    360.8   0.049711710   0.59053   0.41408  -0.32276   0.56115
  37   27942.4    357.9   0.129284821   1.52321  -0.58243   0.91863  -0.58319
  38   27968.3    357.5   0.029345041   0.34542  -0.13740   0.49253  -0.28975
  39   28068.7    356.3   0.003862702   0.04530  -0.12723   0.15149  -0.07855
  40   28368.6    352.5   0.219075167   2.54232   1.31550  -0.40124   0.80672
  41   28463.2    351.3   0.003137570   0.03629   0.14067  -0.04597   0.11995
  42   28671.4    348.8   0.060761542   0.69768  -0.70329   0.04525   0.44834
  43   29049.5    344.2   0.035590330   0.40334  -0.50133   0.15998  -0.35555
  44   29135.9    343.2   0.022360170   0.25265   0.29332   0.37535   0.16041
  45   29336.0    340.9   0.050004309   0.56115   0.04805  -0.49783   0.55768
  46   29496.9    339.0   0.018196860   0.20309   0.10288   0.40261  -0.17439
  47   29586.6    338.0   0.052376045   0.58279   0.54455   0.53116  -0.06418
  48   29835.0    335.2   0.008717019   0.09619   0.29902  -0.07680  -0.02960
  49   29950.1    333.9   0.021501771   0.23635   0.44125   0.19937  -0.04361
  50   30015.4    333.2   0.010026087   0.10997   0.07156  -0.30962   0.09478

FINAL SINGLE POINT ENERGY     -4710.560621509405

DIPOLE MOMENT
-------------
                                X             Y             Z
Electronic contribution:     -9.51959     -18.08180     -27.85246
Nuclear contribution   :      8.04970      19.04710      28.89578
                        -----------------------------------------
Total Dipole Moment    :     -1.46990       0.96530       1.04332
                        -----------------------------------------
Magnitude (a.u.)       :      2.04473
Magnitude (Debye)      :      5.19729

Rotational constants in cm-1:     0.001577     0.000361     0.000329
Rotational constants in MHz :    47.277269    10.809043     9.864132

                             ****ORCA TERMINATED NORMALLY****
TOTAL RUN TIME: 1 days 10 hours 8 minutes 0 seconds 27 msec
