                         Program Version 4.2.0 -  RELEASE  -
|  1> # ORCA input file
|  2> # Y11.out
|  3> ! B3LYP def2-TZVP def2/J RIJCOSX Grid4 TightSCF
|  4>
|  5> %maxcore 6000
|  6> %tddft
|  7>   maxdim 5
|  8>   nroots 50
|  9>   end
| 10> %pal
| 11>   nprocs 6
| 12>   end
| 13>
| 14>
| 15> * xyz 0 1
| 16>    C        3.73263         3.59256        -2.29416
| 17>    O        4.94847         3.52348        -2.34216
| 18>    C        2.87666         4.42101        -3.16987
| 19>    C        3.25810         5.26535        -4.19277
| 20>    C        2.25765         5.93588        -4.87816
| 21>    F        2.58094         6.76457        -5.87910
| 22>    C        0.91811         5.75493        -4.53557
| 23>    F       -0.02750         6.41471        -5.21425
| 24>    C        0.53612         4.90593        -3.50670
| 25>    C        1.53037         4.23100        -2.81686
| 26>    C        1.46585         3.27883        -1.70558
| 27>    C        0.30826         2.84810        -1.10800
| 28>    C        0.22067         1.93027        -0.04086
| 29>    N        0.05892         1.18859         0.82196
| 30>    C       -0.98293         3.27101        -1.48867
| 31>    N       -2.06104         3.56904        -1.74616
| 32>    C        2.82407         2.89234        -1.38881
| 33>    C        3.18507         2.00354        -0.39977
| 34>    C        4.43418         1.52604        -0.00605
| 35>    S        5.97452         1.98067        -0.74283
| 36>    C        6.81375         0.92694         0.33054
| 37>    C        5.93613         0.26453         1.21071
| 38>    C        4.60116         0.59108         1.03526
| 39>    C        3.51258         0.04314         1.89838
| 40>    C        3.17439         1.01741         3.03055
| 41>    S        6.74353        -0.83836         2.30898
| 42>    C        8.25155        -0.41033         1.57700
| 43>    C        8.13707         0.54373         0.55700
| 44>    N        9.37368         0.83397         0.03945
| 45>    C        9.44150         1.36930        -1.30493
| 46>    C        9.55024         0.24617        -2.33378
| 47>    C       10.30048         0.05173         0.71571
| 48>    C        9.60421        -0.75514         1.66572
| 49>    C       10.27695        -1.75052         2.40359
| 50>    N        9.86270        -2.64830         3.29928
| 51>    N       10.93781        -3.34351         3.57380
| 52>    C       10.90530        -4.45768         4.47624
| 53>    C       10.50739        -5.73303         3.73898
| 54>    N       12.03459        -2.99930         2.94631
| 55>    C       11.66074        -1.97358         2.17956
| 56>    C       12.37391        -1.10876         1.32488
| 57>    C       11.71436        -0.04015         0.64678
| 58>    N       12.67560         0.73447         0.01985
| 59>    C       12.60260         2.08951        -0.47822
| 60>    C       12.79388         2.15916        -1.99234
| 61>    C       13.89640         0.16190         0.25767
| 62>    C       13.73888        -0.98666         1.04442
| 63>    S       15.22575        -1.78138         1.41998
| 64>    C       16.09468        -0.54180         0.54024
| 65>    C       15.23973         0.42493        -0.01799
| 66>    S       16.12867         1.63229        -0.86209
| 67>    C       17.65321         0.87458        -0.39115
| 68>    C       17.45767        -0.30951         0.32353
| 69>    C       18.54952        -1.25665         0.68567
| 70>    C       18.19852        -2.71681         0.41313
| 71>    C       18.82108         1.50138        -0.85451
| 72>    C       20.06030         1.50697        -0.26061
| 73>    C       21.28374         1.98006        -0.86913
| 74>    C       21.49136         2.21593        -2.20361
| 75>    C       22.71287         2.66657        -2.74554
| 76>    N       23.67976         3.03832        -3.23962
| 77>    C       20.52640         2.01141        -3.21251
| 78>    N       19.79898         1.84283        -4.08509
| 79>    C       22.29662         2.06846         0.18172
| 80>    C       23.62230         2.47072         0.14433
| 81>    C       24.34712         2.43126         1.32634
| 82>    F       25.62883         2.81523         1.31340
| 83>    C       23.77322         2.00452         2.52385
| 84>    F       24.51156         1.97868         3.64049
| 85>    C       22.44640         1.60701         2.56959
| 86>    C       21.72654         1.64172         1.39237
| 87>    C       20.30522         1.28200         1.17625
| 88>    O       19.50504         0.97366         2.03472
| 89>    H        4.29524         5.40182        -4.45414
| 90>    H       -0.51275         4.80223        -3.28305
| 91>    H        2.36940         1.59007         0.17714
| 92>    H        3.86094        -0.89709         2.33044
| 93>    H        2.61287        -0.16083         1.31611
| 94>    H        4.05158         1.20085         3.64664
| 95>    H        2.39046         0.59743         3.65393
| 96>    H        2.82505         1.96670         2.63153
| 97>    H       10.27002         2.06254        -1.41346
| 98>    H        8.51638         1.92788        -1.46645
| 99>    H       10.45031        -0.34262        -2.16694
|100>    H        9.58071         0.66411        -3.33612
|101>    H        8.68998        -0.41525        -2.26134
|102>    H       10.17938        -4.22802         5.25862
|103>    H       11.90409        -4.55809         4.90469
|104>    H        9.52094        -5.61650         3.29696
|105>    H       10.48516        -6.56861         4.43240
|106>    H       11.22427        -5.94983         2.95077
|107>    H       13.40634         2.66068         0.00042
|108>    H       11.65732         2.52997        -0.15924
|109>    H       13.80243         1.85009        -2.25369
|110>    H       12.65179         3.18058        -2.33418
|111>    H       12.09566         1.51086        -2.51391
|112>    H       18.78183        -1.12435         1.74727
|113>    H       19.44694        -0.98818         0.12350
|114>    H       17.41473        -3.06717         1.07814
|115>    H       19.07875        -3.33483         0.57063
|116>    H       17.86713        -2.84480        -0.61505
|117>    H       18.69539         2.08803        -1.75765
|118>    H       24.10882         2.81371        -0.75397
|119>    H       21.99861         1.28001         3.49437
|120> *
|121>
|122>                          ****END OF INPUT****

CARTESIAN COORDINATES (ANGSTROEM)
---------------------------------
  C      3.732630    3.592560   -2.294160
  O      4.948470    3.523480   -2.342160
  C      2.876660    4.421010   -3.169870
  C      3.258100    5.265350   -4.192770
  C      2.257650    5.935880   -4.878160
  F      2.580940    6.764570   -5.879100
  C      0.918110    5.754930   -4.535570
  F     -0.027500    6.414710   -5.214250
  C      0.536120    4.905930   -3.506700
  C      1.530370    4.231000   -2.816860
  C      1.465850    3.278830   -1.705580
  C      0.308260    2.848100   -1.108000
  C      0.220670    1.930270   -0.040860
  N      0.058920    1.188590    0.821960
  C     -0.982930    3.271010   -1.488670
  N     -2.061040    3.569040   -1.746160
  C      2.824070    2.892340   -1.388810
  C      3.185070    2.003540   -0.399770
  C      4.434180    1.526040   -0.006050
  S      5.974520    1.980670   -0.742830
  C      6.813750    0.926940    0.330540
  C      5.936130    0.264530    1.210710
  C      4.601160    0.591080    1.035260
  C      3.512580    0.043140    1.898380
  C      3.174390    1.017410    3.030550
  S      6.743530   -0.838360    2.308980
  C      8.251550   -0.410330    1.577000
  C      8.137070    0.543730    0.557000
  N      9.373680    0.833970    0.039450
  C      9.441500    1.369300   -1.304930
  C      9.550240    0.246170   -2.333780
  C     10.300480    0.051730    0.715710
  C      9.604210   -0.755140    1.665720
  C     10.276950   -1.750520    2.403590
  N      9.862700   -2.648300    3.299280
  N     10.937810   -3.343510    3.573800
  C     10.905300   -4.457680    4.476240
  C     10.507390   -5.733030    3.738980
  N     12.034590   -2.999300    2.946310
  C     11.660740   -1.973580    2.179560
  C     12.373910   -1.108760    1.324880
  C     11.714360   -0.040150    0.646780
  N     12.675600    0.734470    0.019850
  C     12.602600    2.089510   -0.478220
  C     12.793880    2.159160   -1.992340
  C     13.896400    0.161900    0.257670
  C     13.738880   -0.986660    1.044420
  S     15.225750   -1.781380    1.419980
  C     16.094680   -0.541800    0.540240
  C     15.239730    0.424930   -0.017990
  S     16.128670    1.632290   -0.862090
  C     17.653210    0.874580   -0.391150
  C     17.457670   -0.309510    0.323530
  C     18.549520   -1.256650    0.685670
  C     18.198520   -2.716810    0.413130
  C     18.821080    1.501380   -0.854510
  C     20.060300    1.506970   -0.260610
  C     21.283740    1.980060   -0.869130
  C     21.491360    2.215930   -2.203610
  C     22.712870    2.666570   -2.745540
  N     23.679760    3.038320   -3.239620
  C     20.526400    2.011410   -3.212510
  N     19.798980    1.842830   -4.085090
  C     22.296620    2.068460    0.181720
  C     23.622300    2.470720    0.144330
  C     24.347120    2.431260    1.326340
  F     25.628830    2.815230    1.313400
  C     23.773220    2.004520    2.523850
  F     24.511560    1.978680    3.640490
  C     22.446400    1.607010    2.569590
  C     21.726540    1.641720    1.392370
  C     20.305220    1.282000    1.176250
  O     19.505040    0.973660    2.034720
  H      4.295240    5.401820   -4.454140
  H     -0.512750    4.802230   -3.283050
  H      2.369400    1.590070    0.177140
  H      3.860940   -0.897090    2.330440
  H      2.612870   -0.160830    1.316110
  H      4.051580    1.200850    3.646640
  H      2.390460    0.597430    3.653930
  H      2.825050    1.966700    2.631530
  H     10.270020    2.062540   -1.413460
  H      8.516380    1.927880   -1.466450
  H     10.450310   -0.342620   -2.166940
  H      9.580710    0.664110   -3.336120
  H      8.689980   -0.415250   -2.261340
  H     10.179380   -4.228020    5.258620
  H     11.904090   -4.558090    4.904690
  H      9.520940   -5.616500    3.296960
  H     10.485160   -6.568610    4.432400
  H     11.224270   -5.949830    2.950770
  H     13.406340    2.660680    0.000420
  H     11.657320    2.529970   -0.159240
  H     13.802430    1.850090   -2.253690
  H     12.651790    3.180580   -2.334180
  H     12.095660    1.510860   -2.513910
  H     18.781830   -1.124350    1.747270
  H     19.446940   -0.988180    0.123500
  H     17.414730   -3.067170    1.078140
  H     19.078750   -3.334830    0.570630
  H     17.867130   -2.844800   -0.615050
  H     18.695390    2.088030   -1.757650
  H     24.108820    2.813710   -0.753970
  H     21.998610    1.280010    3.494370

 Total Charge           Charge          ....    0
 Multiplicity           Mult            ....    1
 Number of Electrons    NEL             ....  534
 Basis Dimension        Dim             .... 2473

ORBITAL ENERGIES
----------------

  NO   OCC          E(Eh)            E(eV)
   0   2.0000     -88.911696     -2419.4102
   1   2.0000     -88.908221     -2419.3157
   2   2.0000     -88.906521     -2419.2694
   3   2.0000     -88.903109     -2419.1766
   4   2.0000     -24.725082      -672.8037
   5   2.0000     -24.724759      -672.7949
   6   2.0000     -24.723320      -672.7557
   7   2.0000     -24.722740      -672.7400
   8   2.0000     -19.138372      -520.7816
   9   2.0000     -19.132310      -520.6166
  10   2.0000     -14.449029      -393.1781
  11   2.0000     -14.403862      -391.9490
  12   2.0000     -14.400818      -391.8662
  13   2.0000     -14.362842      -390.8328
  14   2.0000     -14.362762      -390.8306
  15   2.0000     -14.331413      -389.9776
  16   2.0000     -14.328712      -389.9041
  17   2.0000     -14.327738      -389.8776
  18   2.0000     -14.325648      -389.8207
  19   2.0000     -10.299689      -280.2688
  20   2.0000     -10.299091      -280.2525
  21   2.0000     -10.299042      -280.2512
  22   2.0000     -10.298439      -280.2348
  23   2.0000     -10.280537      -279.7476
  24   2.0000     -10.278307      -279.6869
  25   2.0000     -10.257455      -279.1196
  26   2.0000     -10.256481      -279.0930
  27   2.0000     -10.256432      -279.0917
  28   2.0000     -10.254804      -279.0474
  29   2.0000     -10.253852      -279.0215
  30   2.0000     -10.253822      -279.0207
  31   2.0000     -10.251778      -278.9651
  32   2.0000     -10.246438      -278.8197
  33   2.0000     -10.244850      -278.7765
  34   2.0000     -10.243291      -278.7341
  35   2.0000     -10.240771      -278.6655
  36   2.0000     -10.236064      -278.5375
  37   2.0000     -10.236014      -278.5361
  38   2.0000     -10.234169      -278.4859
  39   2.0000     -10.234132      -278.4849
  40   2.0000     -10.232568      -278.4423
  41   2.0000     -10.230958      -278.3985
  42   2.0000     -10.230867      -278.3961
  43   2.0000     -10.229275      -278.3527
  44   2.0000     -10.228779      -278.3392
  45   2.0000     -10.227994      -278.3179
  46   2.0000     -10.227847      -278.3139
  47   2.0000     -10.227789      -278.3123
  48   2.0000     -10.227461      -278.3033
  49   2.0000     -10.227290      -278.2987
  50   2.0000     -10.226516      -278.2777
  51   2.0000     -10.226125      -278.2670
  52   2.0000     -10.224682      -278.2277
  53   2.0000     -10.223319      -278.1906
  54   2.0000     -10.222379      -278.1651
  55   2.0000     -10.221920      -278.1526
  56   2.0000     -10.220079      -278.1025
  57   2.0000     -10.219960      -278.0993
  58   2.0000     -10.219144      -278.0771
  59   2.0000     -10.218326      -278.0548
  60   2.0000     -10.216145      -277.9954
  61   2.0000     -10.215736      -277.9843
  62   2.0000     -10.215572      -277.9798
  63   2.0000     -10.215033      -277.9652
  64   2.0000     -10.213437      -277.9218
  65   2.0000     -10.210778      -277.8494
  66   2.0000     -10.197240      -277.4810
  67   2.0000     -10.196060      -277.4489
  68   2.0000     -10.193205      -277.3712
  69   2.0000     -10.190730      -277.3039
  70   2.0000     -10.184302      -277.1289
  71   2.0000     -10.174475      -276.8615
  72   2.0000     -10.173934      -276.8468
  73   2.0000      -7.988219      -217.3705
  74   2.0000      -7.983943      -217.2541
  75   2.0000      -7.982243      -217.2079
  76   2.0000      -7.978163      -217.0968
  77   2.0000      -5.950904      -161.9323
  78   2.0000      -5.947164      -161.8306
  79   2.0000      -5.946897      -161.8233
  80   2.0000      -5.945183      -161.7766
  81   2.0000      -5.944374      -161.7546
  82   2.0000      -5.943141      -161.7211
  83   2.0000      -5.941511      -161.6767
  84   2.0000      -5.941177      -161.6676
  85   2.0000      -5.939683      -161.6270
  86   2.0000      -5.937960      -161.5801
  87   2.0000      -5.936928      -161.5520
  88   2.0000      -5.934110      -161.4754
  89   2.0000      -1.267420       -34.4883
  90   2.0000      -1.266961       -34.4758
  91   2.0000      -1.254038       -34.1241
  92   2.0000      -1.253590       -34.1119
  93   2.0000      -1.139817       -31.0160
  94   2.0000      -1.069215       -29.0948
  95   2.0000      -1.063646       -28.9433
  96   2.0000      -1.041782       -28.3483
  97   2.0000      -1.029867       -28.0241
  98   2.0000      -0.945606       -25.7313
  99   2.0000      -0.945110       -25.7178
 100   2.0000      -0.936981       -25.4965
 101   2.0000      -0.932625       -25.3780
 102   2.0000      -0.927835       -25.2477
 103   2.0000      -0.926462       -25.2103
 104   2.0000      -0.923933       -25.1415
 105   2.0000      -0.923280       -25.1237
 106   2.0000      -0.919790       -25.0288
 107   2.0000      -0.907538       -24.6954
 108   2.0000      -0.886229       -24.1155
 109   2.0000      -0.884192       -24.0601
 110   2.0000      -0.876665       -23.8553
 111   2.0000      -0.874824       -23.8052
 112   2.0000      -0.859122       -23.3779
 113   2.0000      -0.839477       -22.8433
 114   2.0000      -0.828950       -22.5569
 115   2.0000      -0.826952       -22.5025
 116   2.0000      -0.823350       -22.4045
 117   2.0000      -0.820363       -22.3232
 118   2.0000      -0.810766       -22.0621
 119   2.0000      -0.805762       -21.9259
 120   2.0000      -0.803621       -21.8676
 121   2.0000      -0.800280       -21.7767
 122   2.0000      -0.799813       -21.7640
 123   2.0000      -0.780647       -21.2425
 124   2.0000      -0.779188       -21.2028
 125   2.0000      -0.760423       -20.6922
 126   2.0000      -0.758535       -20.6408
 127   2.0000      -0.752869       -20.4866
 128   2.0000      -0.742180       -20.1958
 129   2.0000      -0.732653       -19.9365
 130   2.0000      -0.725943       -19.7539
 131   2.0000      -0.718649       -19.5554
 132   2.0000      -0.704380       -19.1671
 133   2.0000      -0.702760       -19.1231
 134   2.0000      -0.701220       -19.0812
 135   2.0000      -0.696847       -18.9622
 136   2.0000      -0.690537       -18.7905
 137   2.0000      -0.672764       -18.3068
 138   2.0000      -0.665406       -18.1066
 139   2.0000      -0.659978       -17.9589
 140   2.0000      -0.650092       -17.6899
 141   2.0000      -0.647565       -17.6211
 142   2.0000      -0.641163       -17.4469
 143   2.0000      -0.639351       -17.3976
 144   2.0000      -0.636040       -17.3075
 145   2.0000      -0.632889       -17.2218
 146   2.0000      -0.629783       -17.1373
 147   2.0000      -0.620350       -16.8806
 148   2.0000      -0.606357       -16.4998
 149   2.0000      -0.602150       -16.3853
 150   2.0000      -0.593402       -16.1473
 151   2.0000      -0.592188       -16.1143
 152   2.0000      -0.588185       -16.0053
 153   2.0000      -0.580689       -15.8013
 154   2.0000      -0.578703       -15.7473
 155   2.0000      -0.575178       -15.6514
 156   2.0000      -0.573742       -15.6123
 157   2.0000      -0.569476       -15.4962
 158   2.0000      -0.561837       -15.2884
 159   2.0000      -0.552847       -15.0437
 160   2.0000      -0.551763       -15.0142
 161   2.0000      -0.543722       -14.7954
 162   2.0000      -0.540324       -14.7030
 163   2.0000      -0.538506       -14.6535
 164   2.0000      -0.530089       -14.4245
 165   2.0000      -0.525086       -14.2883
 166   2.0000      -0.523345       -14.2409
 167   2.0000      -0.521963       -14.2033
 168   2.0000      -0.519582       -14.1385
 169   2.0000      -0.519167       -14.1272
 170   2.0000      -0.518132       -14.0991
 171   2.0000      -0.516917       -14.0660
 172   2.0000      -0.510395       -13.8886
 173   2.0000      -0.501773       -13.6539
 174   2.0000      -0.498061       -13.5529
 175   2.0000      -0.492967       -13.4143
 176   2.0000      -0.488450       -13.2914
 177   2.0000      -0.486930       -13.2500
 178   2.0000      -0.484545       -13.1851
 179   2.0000      -0.484321       -13.1790
 180   2.0000      -0.483937       -13.1686
 181   2.0000      -0.482882       -13.1399
 182   2.0000      -0.480610       -13.0780
 183   2.0000      -0.477845       -13.0028
 184   2.0000      -0.474264       -12.9054
 185   2.0000      -0.471320       -12.8253
 186   2.0000      -0.469579       -12.7779
 187   2.0000      -0.467855       -12.7310
 188   2.0000      -0.465769       -12.6742
 189   2.0000      -0.464349       -12.6356
 190   2.0000      -0.462733       -12.5916
 191   2.0000      -0.460143       -12.5211
 192   2.0000      -0.459455       -12.5024
 193   2.0000      -0.455336       -12.3903
 194   2.0000      -0.450186       -12.2502
 195   2.0000      -0.448325       -12.1995
 196   2.0000      -0.446873       -12.1600
 197   2.0000      -0.442968       -12.0538
 198   2.0000      -0.437584       -11.9073
 199   2.0000      -0.435351       -11.8465
 200   2.0000      -0.433159       -11.7869
 201   2.0000      -0.430815       -11.7231
 202   2.0000      -0.430326       -11.7098
 203   2.0000      -0.429547       -11.6886
 204   2.0000      -0.428336       -11.6556
 205   2.0000      -0.427482       -11.6324
 206   2.0000      -0.425881       -11.5888
 207   2.0000      -0.423768       -11.5313
 208   2.0000      -0.421399       -11.4668
 209   2.0000      -0.421035       -11.4569
 210   2.0000      -0.417199       -11.3526
 211   2.0000      -0.414455       -11.2779
 212   2.0000      -0.411505       -11.1976
 213   2.0000      -0.410756       -11.1772
 214   2.0000      -0.408970       -11.1286
 215   2.0000      -0.402441       -10.9510
 216   2.0000      -0.402231       -10.9453
 217   2.0000      -0.399449       -10.8696
 218   2.0000      -0.394859       -10.7447
 219   2.0000      -0.393873       -10.7178
 220   2.0000      -0.393536       -10.7087
 221   2.0000      -0.392654       -10.6847
 222   2.0000      -0.392194       -10.6721
 223   2.0000      -0.388727       -10.5778
 224   2.0000      -0.387169       -10.5354
 225   2.0000      -0.386509       -10.5174
 226   2.0000      -0.384121       -10.4525
 227   2.0000      -0.382349       -10.4042
 228   2.0000      -0.380184       -10.3453
 229   2.0000      -0.379530       -10.3275
 230   2.0000      -0.377325       -10.2675
 231   2.0000      -0.376055       -10.2330
 232   2.0000      -0.369301       -10.0492
 233   2.0000      -0.367704       -10.0057
 234   2.0000      -0.365426        -9.9437
 235   2.0000      -0.363691        -9.8965
 236   2.0000      -0.363478        -9.8908
 237   2.0000      -0.362897        -9.8749
 238   2.0000      -0.361657        -9.8412
 239   2.0000      -0.361222        -9.8294
 240   2.0000      -0.356684        -9.7059
 241   2.0000      -0.355790        -9.6815
 242   2.0000      -0.349509        -9.5106
 243   2.0000      -0.349395        -9.5075
 244   2.0000      -0.346406        -9.4262
 245   2.0000      -0.344212        -9.3665
 246   2.0000      -0.342627        -9.3234
 247   2.0000      -0.339994        -9.2517
 248   2.0000      -0.335686        -9.1345
 249   2.0000      -0.334456        -9.1010
 250   2.0000      -0.316824        -8.6212
 251   2.0000      -0.311330        -8.4717
 252   2.0000      -0.307267        -8.3612
 253   2.0000      -0.299029        -8.1370
 254   2.0000      -0.295432        -8.0391
 255   2.0000      -0.290880        -7.9153
 256   2.0000      -0.283686        -7.7195
 257   2.0000      -0.280131        -7.6228
 258   2.0000      -0.278059        -7.5664
 259   2.0000      -0.270611        -7.3637
 260   2.0000      -0.266999        -7.2654
 261   2.0000      -0.263503        -7.1703
 262   2.0000      -0.258559        -7.0358
 263   2.0000      -0.242836        -6.6079
 264   2.0000      -0.235462        -6.4072
 265   2.0000      -0.228815        -6.2264
 266   2.0000      -0.204868        -5.5747
 267   0.0000      -0.133412        -3.6303
 268   0.0000      -0.123273        -3.3544
 269   0.0000      -0.109507        -2.9798
 270   0.0000      -0.106520        -2.8986
 271   0.0000      -0.071746        -1.9523

MULLIKEN ATOMIC CHARGES
-----------------------
   0 C :    0.198995
   1 O :   -0.344440
   2 C :    0.098277
   3 C :   -0.318790
   4 C :    0.283828
   5 F :   -0.181473
   6 C :    0.252817
   7 F :   -0.176597
   8 C :   -0.262596
   9 C :    0.080619
  10 C :    0.004000
  11 C :    0.146553
  12 C :   -0.206704
  13 N :    0.021319
  14 C :   -0.229141
  15 N :    0.042102
  16 C :   -0.062330
  17 C :   -0.131121
  18 C :    0.075420
  19 S :    0.023192
  20 C :   -0.208707
  21 C :    0.062865
  22 C :   -0.003717
  23 C :   -0.211345
  24 C :   -0.320541
  25 S :    0.015192
  26 C :   -0.147976
  27 C :    0.338690
  28 N :   -0.109827
  29 C :   -0.128262
  30 C :   -0.348465
  31 C :    0.063534
  32 C :    0.019221
  33 C :    0.018433
  34 N :   -0.245800
  35 N :    0.287847
  36 C :   -0.086994
  37 C :   -0.347654
  38 N :   -0.240472
  39 C :    0.031466
  40 C :    0.048164
  41 C :   -0.015402
  42 N :   -0.050151
  43 C :   -0.230169
  44 C :   -0.333797
  45 C :    0.381820
  46 C :   -0.174967
  47 S :    0.010346
  48 C :    0.050973
  49 C :   -0.198532
  50 S :   -0.027988
  51 C :    0.114875
  52 C :    0.054077
  53 C :   -0.234933
  54 C :   -0.337353
  55 C :   -0.233097
  56 C :   -0.075197
  57 C :    0.041862
  58 C :    0.139678
  59 C :   -0.225028
  60 N :    0.041867
  61 C :   -0.240414
  62 N :    0.052552
  63 C :    0.066037
  64 C :   -0.269925
  65 C :    0.255132
  66 F :   -0.176917
  67 C :    0.285410
  68 F :   -0.180626
  69 C :   -0.309145
  70 C :    0.101926
  71 C :    0.180503
  72 O :   -0.317677
  73 H :    0.144825
  74 H :    0.166197
  75 H :    0.137837
  76 H :    0.105500
  77 H :    0.130044
  78 H :    0.114469
  79 H :    0.122492
  80 H :    0.117435
  81 H :    0.111853
  82 H :    0.138121
  83 H :    0.128005
  84 H :    0.124989
  85 H :    0.133963
  86 H :    0.123525
  87 H :    0.125676
  88 H :    0.125619
  89 H :    0.113523
  90 H :    0.123002
  91 H :    0.138376
  92 H :    0.156593
  93 H :    0.133110
  94 H :    0.123790
  95 H :    0.130731
  96 H :    0.141416
  97 H :    0.111565
  98 H :    0.118025
  99 H :    0.117206
 100 H :    0.117928
 101 H :    0.163386
 102 H :    0.168335
 103 H :    0.147139
Sum of atomic charges:   -0.0000000

LOEWDIN ATOMIC CHARGES
----------------------
   0 C :   -0.257953
   1 O :    0.113425
   2 C :   -0.058584
   3 C :   -0.048602
   4 C :   -0.225370
   5 F :    0.211866
   6 C :   -0.224029
   7 F :    0.216062
   8 C :   -0.048583
   9 C :   -0.043293
  10 C :    0.009480
  11 C :   -0.137782
  12 C :   -0.168178
  13 N :    0.076561
  14 C :   -0.165723
  15 N :    0.081719
  16 C :   -0.093854
  17 C :   -0.054787
  18 C :   -0.298343
  19 S :    0.781123
  20 C :   -0.337138
  21 C :   -0.323338
  22 C :   -0.128923
  23 C :   -0.230472
  24 C :   -0.281957
  25 S :    0.743984
  26 C :   -0.289593
  27 C :   -0.187884
  28 N :    0.288901
  29 C :   -0.262764
  30 C :   -0.292361
  31 C :   -0.091953
  32 C :   -0.086679
  33 C :   -0.203908
  34 N :    0.088209
  35 N :    0.132662
  36 C :   -0.267704
  37 C :   -0.292601
  38 N :    0.087316
  39 C :   -0.204334
  40 C :   -0.088121
  41 C :   -0.092710
  42 N :    0.293191
  43 C :   -0.267184
  44 C :   -0.299288
  45 C :   -0.185495
  46 C :   -0.292210
  47 S :    0.761238
  48 C :   -0.311730
  49 C :   -0.339342
  50 S :    0.755847
  51 C :   -0.299513
  52 C :   -0.121284
  53 C :   -0.234251
  54 C :   -0.292724
  55 C :   -0.066374
  56 C :   -0.094258
  57 C :    0.006673
  58 C :   -0.135452
  59 C :   -0.163159
  60 N :    0.083744
  61 C :   -0.167654
  62 N :    0.082794
  63 C :   -0.045340
  64 C :   -0.048901
  65 C :   -0.224082
  66 F :    0.215901
  67 C :   -0.224752
  68 F :    0.212604
  69 C :   -0.047867
  70 C :   -0.058459
  71 C :   -0.262957
  72 O :    0.143305
  73 H :    0.162783
  74 H :    0.169603
  75 H :    0.178132
  76 H :    0.143011
  77 H :    0.147534
  78 H :    0.119798
  79 H :    0.124063
  80 H :    0.120814
  81 H :    0.133103
  82 H :    0.141156
  83 H :    0.122202
  84 H :    0.125067
  85 H :    0.126641
  86 H :    0.141771
  87 H :    0.142283
  88 H :    0.123242
  89 H :    0.122912
  90 H :    0.122818
  91 H :    0.142473
  92 H :    0.138382
  93 H :    0.116958
  94 H :    0.126462
  95 H :    0.121696
  96 H :    0.159330
  97 H :    0.153001
  98 H :    0.111101
  99 H :    0.121428
 100 H :    0.122946
 101 H :    0.169658
 102 H :    0.169206
 103 H :    0.163615

  Mayer bond orders larger than 0.100000
B(  0-C ,  1-O ) :   2.0190 B(  0-C ,  2-C ) :   1.0439 B(  0-C , 16-C ) :   1.0173
B(  1-O ,  2-C ) :  -0.1539 B(  2-C ,  3-C ) :   1.3030 B(  2-C ,  9-C ) :   1.3345
B(  3-C ,  4-C ) :   1.3550 B(  3-C , 73-H ) :   0.9871 B(  4-C ,  5-F ) :   1.0610
B(  4-C ,  6-C ) :   1.3487 B(  6-C ,  7-F ) :   1.0841 B(  6-C ,  8-C ) :   1.3840
B(  8-C ,  9-C ) :   1.3304 B(  8-C , 74-H ) :   0.9271 B(  9-C , 10-C ) :   1.0495
B( 10-C , 11-C ) :   1.4447 B( 10-C , 16-C ) :   1.1652 B( 11-C , 12-C ) :   1.0670
B( 11-C , 14-C ) :   1.0254 B( 12-C , 13-N ) :   2.9137 B( 14-C , 15-N ) :   2.9860
B( 16-C , 17-C ) :   1.4074 B( 17-C , 18-C ) :   1.3137 B( 17-C , 75-H ) :   0.8531
B( 18-C , 19-S ) :   1.2865 B( 18-C , 22-C ) :   1.2892 B( 19-S , 20-C ) :   1.4112
B( 19-S , 27-C ) :  -0.1399 B( 20-C , 21-C ) :   1.2676 B( 20-C , 25-S ) :   0.1042
B( 20-C , 27-C ) :   1.0936 B( 21-C , 22-C ) :   1.3707 B( 21-C , 25-S ) :   1.1897
B( 22-C , 23-C ) :   0.9551 B( 23-C , 24-C ) :   0.9636 B( 23-C , 76-H ) :   0.9708
B( 23-C , 77-H ) :   0.9515 B( 24-C , 78-H ) :   0.9709 B( 24-C , 79-H ) :   0.9729
B( 24-C , 80-H ) :   0.9737 B( 25-S , 26-C ) :   1.3489 B( 26-C , 27-C ) :   1.2598
B( 26-C , 32-C ) :   1.1884 B( 27-C , 28-N ) :   1.1468 B( 28-N , 29-C ) :   0.9042
B( 28-N , 31-C ) :   1.1740 B( 29-C , 30-C ) :   0.9552 B( 29-C , 81-H ) :   0.9581
B( 29-C , 82-H ) :   0.9597 B( 30-C , 83-H ) :   0.9719 B( 30-C , 84-H ) :   0.9702
B( 30-C , 85-H ) :   0.9681 B( 31-C , 32-C ) :   1.2763 B( 31-C , 41-C ) :   1.2920
B( 32-C , 33-C ) :   1.1833 B( 33-C , 34-N ) :   1.5049 B( 33-C , 39-C ) :   1.2255
B( 34-N , 35-N ) :   1.1670 B( 34-N , 38-N ) :   0.1123 B( 35-N , 36-C ) :   0.8952
B( 35-N , 38-N ) :   1.1673 B( 36-C , 37-C ) :   0.9581 B( 36-C , 86-H ) :   0.9609
B( 36-C , 87-H ) :   0.9605 B( 37-C , 88-H ) :   0.9718 B( 37-C , 89-H ) :   0.9688
B( 37-C , 90-H ) :   0.9716 B( 38-N , 39-C ) :   1.5060 B( 39-C , 40-C ) :   1.1881
B( 40-C , 41-C ) :   1.2271 B( 40-C , 46-C ) :   1.1684 B( 41-C , 42-N ) :   1.2206
B( 42-N , 43-C ) :   0.8656 B( 42-N , 45-C ) :   1.1319 B( 43-C , 44-C ) :   0.9335
B( 43-C , 91-H ) :   0.9594 B( 43-C , 92-H ) :   0.9742 B( 44-C , 93-H ) :   0.9613
B( 44-C , 94-H ) :   0.9704 B( 44-C , 95-H ) :   0.9774 B( 45-C , 46-C ) :   1.2520
B( 45-C , 49-C ) :   1.0525 B( 45-C , 50-S ) :  -0.1734 B( 46-C , 47-S ) :   1.3757
B( 47-S , 48-C ) :   1.1592 B( 47-S , 49-C ) :   0.1202 B( 48-C , 49-C ) :   1.3610
B( 48-C , 52-C ) :   1.2369 B( 49-C , 50-S ) :   1.3553 B( 50-S , 51-C ) :   1.1921
B( 51-C , 52-C ) :   1.3812 B( 51-C , 55-C ) :   1.2309 B( 52-C , 53-C ) :   0.9530
B( 53-C , 54-C ) :   0.9514 B( 53-C , 96-H ) :   0.9516 B( 53-C , 97-H ) :   0.9789
B( 54-C , 98-H ) :   0.9728 B( 54-C , 99-H ) :   0.9747 B( 54-C ,100-H ) :   0.9769
B( 55-C , 56-C ) :   1.4553 B( 55-C ,101-H ) :   0.9166 B( 56-C , 57-C ) :   1.1275
B( 56-C , 71-C ) :   1.0415 B( 57-C , 58-C ) :   1.4568 B( 57-C , 63-C ) :   1.0424
B( 58-C , 59-C ) :   1.0327 B( 58-C , 61-C ) :   1.0292 B( 59-C , 60-N ) :   2.9821
B( 61-C , 62-N ) :   3.0087 B( 63-C , 64-C ) :   1.3183 B( 63-C , 70-C ) :   1.3296
B( 64-C , 65-C ) :   1.3890 B( 64-C ,102-H ) :   0.9298 B( 65-C , 66-F ) :   1.0821
B( 65-C , 67-C ) :   1.3469 B( 67-C , 68-F ) :   1.0623 B( 67-C , 69-C ) :   1.3553
B( 69-C , 70-C ) :   1.3063 B( 69-C ,103-H ) :   0.9863 B( 70-C , 71-C ) :   0.9467
B( 70-C , 72-O ) :  -0.1543 B( 71-C , 72-O ) :   2.0949

-----------------------------------------------------------------------------
         ABSORPTION SPECTRUM VIA TRANSITION ELECTRIC DIPOLE MOMENTS
-----------------------------------------------------------------------------
State   Energy    Wavelength  fosc         T2        TX        TY        TZ
        (cm-1)      (nm)                 (au**2)    (au)      (au)      (au)
-----------------------------------------------------------------------------
   1   14837.7    674.0   2.660711338  59.03472  -7.66448   0.43553  -0.31735
   2   16807.6    595.0   0.136592884   2.67546  -1.02323   0.98920  -0.80619
   3   18310.6    546.1   0.047655965   0.85682   0.84775   0.30315  -0.21506
   4   18519.9    540.0   0.323739569   5.75482  -2.24890   0.52586  -0.64865
   5   19201.2    520.8   0.014225597   0.24390   0.23236   0.41984  -0.11680
   6   20046.6    498.8   0.086279715   1.41692  -1.18606   0.07496   0.06746
   7   21492.7    465.3   0.005552418   0.08505   0.27415  -0.05202  -0.08475
   8   22125.2    452.0   0.392411677   5.83889   0.54852   1.88460  -1.40937
   9   22777.6    439.0   0.174036043   2.51539   1.40428  -0.57533   0.46086
  10   23235.1    430.4   0.026626665   0.37727  -0.07083  -0.48081   0.37559
  11   23767.1    420.7   0.055248799   0.76528  -0.67321   0.45002  -0.33098
  12   24105.2    414.8   0.032186571   0.43958  -0.41944   0.42954  -0.28133
  13   24554.9    407.3   0.008836463   0.11847  -0.30950  -0.14045   0.05440
  14   25225.9    396.4   0.087494577   1.14185  -0.87035   0.54750  -0.29082
  15   25430.1    393.2   0.025988035   0.33644   0.20645  -0.29037   0.45771
  16   25898.5    386.1   0.006127113   0.07789  -0.12698   0.14391  -0.20262
  17   26445.7    378.1   0.001185038   0.01475  -0.11227  -0.03493   0.03045
  18   26582.3    376.2   0.078061613   0.96677  -0.97900   0.04886   0.07711
  19   26687.6    374.7   0.149317960   1.84195   1.26118   0.30538  -0.39765
  20   27060.4    369.5   0.031983811   0.38911  -0.58194  -0.05168  -0.21861
  21   27296.3    366.4   0.102176096   1.23231  -1.04681  -0.00257  -0.36945
  22   27422.6    364.7   0.005091138   0.06112   0.03739   0.20469  -0.13351
  23   27508.4    363.5   0.143179884   1.71353  -0.38313  -1.07242   0.64549
  24   27691.5    361.1   0.028017591   0.33309  -0.11763  -0.29083   0.48443
  25   27854.7    359.0   0.018608244   0.21993  -0.32771   0.06964  -0.32815
  26   28339.1    352.9   0.006054626   0.07034  -0.01285  -0.03724   0.26227
  27   29088.3    343.8   0.014500789   0.16412   0.25706   0.12163   0.28851
  28   29657.0    337.2   0.009592276   0.10648  -0.06385  -0.19099   0.25676
  29   29951.1    333.9   0.014391053   0.15818  -0.15948  -0.33248   0.14901
  30   30122.0    332.0   0.015359497   0.16787   0.17746  -0.30012   0.21517
  31   30299.3    330.0   0.001783171   0.01937   0.05938   0.08930  -0.08874
  32   30975.6    322.8   0.006060270   0.06441   0.06358   0.08657  -0.22994
  33   31092.8    321.6   0.002771794   0.02935  -0.06878   0.03460   0.15304
  34   31216.9    320.3   0.043390633   0.45760   0.31745  -0.43823   0.40592
  35   31367.2    318.8   0.018399691   0.19311   0.33460   0.25673  -0.12349
  36   31382.9    318.6   0.000337713   0.00354   0.05807   0.00433   0.01231
  37   31693.3    315.5   0.012589905   0.13078   0.05558  -0.29647   0.19948
  38   31761.0    314.9   0.020721339   0.21478   0.40618   0.06429   0.21370
  39   31876.7    313.7   0.074941880   0.77397   0.19047   0.68152  -0.52271
  40   32097.1    311.6   0.065893533   0.67585   0.16196  -0.77045   0.23672
  41   32586.5    306.9   0.061827568   0.62463  -0.56811   0.26036  -0.48383
  42   32615.2    306.6   0.098235339   0.99157  -0.12442   0.55024  -0.82056
  43   32919.6    303.8   0.211146932   2.11157   1.25563   0.70689  -0.18780
  44   33320.2    300.1   0.415279750   4.10307   0.84789   0.67672  -1.71061
  45   33484.8    298.6   0.327739717   3.22223   0.30429  -0.30854   1.74196
  46   33739.4    296.4   0.033629527   0.32814  -0.00656  -0.17233   0.54626
  47   33872.6    295.2   0.021609628   0.21003  -0.17417   0.22783  -0.35747
  48   34190.0    292.5   0.070038620   0.67439  -0.70320  -0.21544  -0.36535
  49   34426.0    290.5   0.010228391   0.09781   0.23515  -0.14111   0.15034
  50   34534.0    289.6   0.021904326   0.20881  -0.44452  -0.03801   0.09886

FINAL SINGLE POINT ENERGY     -4710.835584737441

DIPOLE MOMENT
-------------
                                X             Y             Z
Electronic contribution:     15.76960      47.58210     -18.91176
Nuclear contribution   :    -15.21772     -49.24969      20.68942
                        -----------------------------------------
Total Dipole Moment    :      0.55188      -1.66759       1.77766
                        -----------------------------------------
Magnitude (a.u.)       :      2.49910
Magnitude (Debye)      :      6.35221

Rotational constants in cm-1:     0.001547     0.000258     0.000228
Rotational constants in MHz :    46.387675     7.730200     6.834428

                             ****ORCA TERMINATED NORMALLY****
TOTAL RUN TIME: 0 days 7 hours 17 minutes 24 seconds 438 msec
