                         Program Version 4.2.0 -  RELEASE  -
|  1> # ORCA input file
|  2> # Y14.out
|  3> ! B3LYP def2-TZVP def2/J RIJCOSX Grid4 TightSCF
|  4> %maxcore 10000
|  5> %tddft
|  6>   maxdim 5
|  7>   nroots 50
|  8>   end
|  9> * xyz 0 1
| 10>    C       -1.57745        -2.83812        -0.68476
| 11>    O       -1.87636        -4.01850        -0.61336
| 12>    C       -0.21997        -2.30162        -0.90861
| 13>    C        0.96123        -2.99671        -1.06554
| 14>    C        2.10823        -2.24082        -1.25700
| 15>    C        2.08707        -0.85499        -1.29194
| 16>    C        0.89073        -0.17043        -1.13462
| 17>    C       -0.27472        -0.89742        -0.94172
| 18>    C       -1.66357        -0.47800        -0.74741
| 19>    C       -2.09972         0.82262        -0.74596
| 20>    C       -1.25780         1.94015        -0.92730
| 21>    N       -0.63328         2.89347        -1.06635
| 22>    C       -3.43299         1.24849        -0.57258
| 23>    N       -4.49029         1.67940        -0.44093
| 24>    C       -2.45869        -1.67696        -0.57354
| 25>    C       -3.81258        -1.70089        -0.32743
| 26>    C       -4.68796        -2.76920        -0.12707
| 27>    S       -4.22869        -4.47085        -0.18391
| 28>    C       -5.84725        -4.93791         0.17408
| 29>    C       -6.68815        -3.82180         0.33878
| 30>    C       -6.05598        -2.60045         0.15928
| 31>    C       -6.75623        -1.29276         0.33120
| 32>    C       -6.57000        -0.76036         1.75491
| 33>    S       -8.33435        -4.23962         0.77287
| 34>    C       -7.87465        -5.90849         0.75528
| 35>    C       -6.54224        -6.13316         0.38802
| 36>    N       -6.25903        -7.47141         0.44285
| 37>    C       -4.87213        -7.87814         0.40058
| 38>    C       -4.23258        -8.12582        -0.99050
| 39>    C       -7.39685        -8.13064         0.88890
| 40>    C       -8.41359        -7.14673         1.10723
| 41>    C       -9.64928        -7.46794         1.70667
| 42>    N      -10.72606        -6.74526         2.02489
| 43>    N      -11.51494        -7.59933         2.62469
| 44>    C      -12.81008        -7.22295         3.11039
| 45>    C      -12.85291        -7.28867         4.63231
| 46>    N      -11.07097        -8.82381         2.74196
| 47>    C       -9.87238        -8.78874         2.15992
| 48>    C       -8.93429        -9.79045         1.83821
| 49>    C       -7.71365        -9.49767         1.14772
| 50>    N       -7.13182       -10.70000         0.80425
| 51>    C       -5.99490       -10.98539        -0.03291
| 52>    C       -4.67549       -11.37498         0.68108
| 53>    C       -7.96104       -11.72011         1.21124
| 54>    C       -9.05329       -11.17409         1.89683
| 55>    S      -10.22750       -12.31144         2.43741
| 56>    C       -9.39015       -13.58602         1.41687
| 57>    C       -8.07511       -13.09304         0.93424
| 58>    S       -7.10759       -14.08360         0.02503
| 59>    C      -10.16032       -14.41440         0.37726
| 60>    C       -9.79894       -15.01304         1.49290
| 61>    C       -9.88143       -16.13159         2.42321
| 62>    C      -10.77054       -17.24464         1.87943
| 63>    C      -10.36494       -14.26961        -1.00104
| 64>    C      -10.56364       -13.06828        -1.60616
| 65>    C      -10.98518       -11.81500        -1.01023
| 66>    C      -11.92901       -11.70019        -0.02842
| 67>    C      -12.47614       -10.47055         0.38854
| 68>    N      -12.96362        -9.48888         0.72728
| 69>    C      -12.52966       -12.83541         0.56139
| 70>    N      -13.04596       -13.75391         1.01481
| 71>    C      -10.44768       -10.74463        -1.83726
| 72>    C      -10.36220        -9.37911        -1.61522
| 73>    C       -9.80206        -8.58263        -2.60119
| 74>    C       -9.35138        -9.15631        -3.78233
| 75>    C       -9.41230       -10.52077        -4.02590
| 76>    C       -9.96099       -11.30757        -3.03283
| 77>    C      -10.12501       -12.78435        -2.99816
| 78>    O       -9.89662       -13.57856        -3.87639
| 79>    F       -8.82989        -8.35387        -4.72463
| 80>    F        3.28414        -2.87186        -1.41299
| 81>    C       -4.86881       -12.08537         2.02610
| 82>    C       -5.12617       -11.13275         3.18957
| 83>    C       -3.87802       -12.25845        -0.27880
| 84>    C       -4.92454        -7.39617        -2.14773
| 85>    C       -6.19683        -8.08054        -2.63768
| 86>    C       -2.75927        -7.72205        -0.90927
| 87>    H        0.99158        -4.07422        -1.03949
| 88>    H        3.01080        -0.31902        -1.44255
| 89>    H        0.88904         0.90640        -1.16357
| 90>    H       -4.29567        -0.73564        -0.26447
| 91>    H       -7.82095        -1.44884         0.14667
| 92>    H       -6.38998        -0.55371        -0.38269
| 93>    H       -6.97152        -1.46640         2.47813
| 94>    H       -7.09066         0.18647         1.86415
| 95>    H       -5.51634        -0.60114         1.97220
| 96>    H       -4.75902        -8.75626         1.03474
| 97>    H       -4.31041        -7.06121         0.86648
| 98>    H       -4.25448        -9.19480        -1.22015
| 99>    H      -13.53835        -7.91490         2.67985
|100>    H      -12.99774        -6.21080         2.74948
|101>    H      -12.60450        -8.29370         4.96348
|102>    H      -13.84888        -7.03718         4.98466
|103>    H      -12.14132        -6.58907         5.06499
|104>    H       -5.83814       -10.13253        -0.68928
|105>    H       -6.28548       -11.84017        -0.65191
|106>    H       -4.07628       -10.48003         0.87299
|107>    H      -10.26340       -15.76149         3.38052
|108>    H       -8.86507       -16.49933         2.60318
|109>    H      -11.77011       -16.86312         1.68800
|110>    H      -10.83612       -18.05530         2.59989
|111>    H      -10.36500       -17.63584         0.95013
|112>    H      -10.15980       -15.13293        -1.62388
|113>    H      -10.71077        -8.93785        -0.69504
|114>    H       -9.71651        -7.51581        -2.46630
|115>    H       -9.04900       -10.94358        -4.94888
|116>    H       -3.95523       -12.64324         2.24216
|117>    H       -5.67540       -12.81227         1.95251
|118>    H       -4.30080       -10.43047         3.29704
|119>    H       -5.21169       -11.69542         4.11618
|120>    H       -6.04370       -10.56475         3.05947
|121>    H       -4.38496       -13.20845        -0.42573
|122>    H       -2.88656       -12.45386         0.12145
|123>    H       -3.76488       -11.77297        -1.24585
|124>    H       -4.22065        -7.35409        -2.98099
|125>    H       -5.14503        -6.36885        -1.86430
|126>    H       -5.98269        -9.09361        -2.97568
|127>    H       -6.61070        -7.52849        -3.47780
|128>    H       -6.95661        -8.13110        -1.86074
|129>    H       -2.65550        -6.64645        -0.79061
|130>    H       -2.24005        -8.01808        -1.81717
|131>    H       -2.27530        -8.21373        -0.06802
|132> *
|133>
|134>                          ****END OF INPUT****

CARTESIAN COORDINATES (ANGSTROEM)
---------------------------------
  C     -1.577450   -2.838120   -0.684760
  O     -1.876360   -4.018500   -0.613360
  C     -0.219970   -2.301620   -0.908610
  C      0.961230   -2.996710   -1.065540
  C      2.108230   -2.240820   -1.257000
  C      2.087070   -0.854990   -1.291940
  C      0.890730   -0.170430   -1.134620
  C     -0.274720   -0.897420   -0.941720
  C     -1.663570   -0.478000   -0.747410
  C     -2.099720    0.822620   -0.745960
  C     -1.257800    1.940150   -0.927300
  N     -0.633280    2.893470   -1.066350
  C     -3.432990    1.248490   -0.572580
  N     -4.490290    1.679400   -0.440930
  C     -2.458690   -1.676960   -0.573540
  C     -3.812580   -1.700890   -0.327430
  C     -4.687960   -2.769200   -0.127070
  S     -4.228690   -4.470850   -0.183910
  C     -5.847250   -4.937910    0.174080
  C     -6.688150   -3.821800    0.338780
  C     -6.055980   -2.600450    0.159280
  C     -6.756230   -1.292760    0.331200
  C     -6.570000   -0.760360    1.754910
  S     -8.334350   -4.239620    0.772870
  C     -7.874650   -5.908490    0.755280
  C     -6.542240   -6.133160    0.388020
  N     -6.259030   -7.471410    0.442850
  C     -4.872130   -7.878140    0.400580
  C     -4.232580   -8.125820   -0.990500
  C     -7.396850   -8.130640    0.888900
  C     -8.413590   -7.146730    1.107230
  C     -9.649280   -7.467940    1.706670
  N    -10.726060   -6.745260    2.024890
  N    -11.514940   -7.599330    2.624690
  C    -12.810080   -7.222950    3.110390
  C    -12.852910   -7.288670    4.632310
  N    -11.070970   -8.823810    2.741960
  C     -9.872380   -8.788740    2.159920
  C     -8.934290   -9.790450    1.838210
  C     -7.713650   -9.497670    1.147720
  N     -7.131820  -10.700000    0.804250
  C     -5.994900  -10.985390   -0.032910
  C     -4.675490  -11.374980    0.681080
  C     -7.961040  -11.720110    1.211240
  C     -9.053290  -11.174090    1.896830
  S    -10.227500  -12.311440    2.437410
  C     -9.390150  -13.586020    1.416870
  C     -8.075110  -13.093040    0.934240
  S     -7.107590  -14.083600    0.025030
  C    -10.160320  -14.414400    0.377260
  C     -9.798940  -15.013040    1.492900
  C     -9.881430  -16.131590    2.423210
  C    -10.770540  -17.244640    1.879430
  C    -10.364940  -14.269610   -1.001040
  C    -10.563640  -13.068280   -1.606160
  C    -10.985180  -11.815000   -1.010230
  C    -11.929010  -11.700190   -0.028420
  C    -12.476140  -10.470550    0.388540
  N    -12.963620   -9.488880    0.727280
  C    -12.529660  -12.835410    0.561390
  N    -13.045960  -13.753910    1.014810
  C    -10.447680  -10.744630   -1.837260
  C    -10.362200   -9.379110   -1.615220
  C     -9.802060   -8.582630   -2.601190
  C     -9.351380   -9.156310   -3.782330
  C     -9.412300  -10.520770   -4.025900
  C     -9.960990  -11.307570   -3.032830
  C    -10.125010  -12.784350   -2.998160
  O     -9.896620  -13.578560   -3.876390
  F     -8.829890   -8.353870   -4.724630
  F      3.284140   -2.871860   -1.412990
  C     -4.868810  -12.085370    2.026100
  C     -5.126170  -11.132750    3.189570
  C     -3.878020  -12.258450   -0.278800
  C     -4.924540   -7.396170   -2.147730
  C     -6.196830   -8.080540   -2.637680
  C     -2.759270   -7.722050   -0.909270
  H      0.991580   -4.074220   -1.039490
  H      3.010800   -0.319020   -1.442550
  H      0.889040    0.906400   -1.163570
  H     -4.295670   -0.735640   -0.264470
  H     -7.820950   -1.448840    0.146670
  H     -6.389980   -0.553710   -0.382690
  H     -6.971520   -1.466400    2.478130
  H     -7.090660    0.186470    1.864150
  H     -5.516340   -0.601140    1.972200
  H     -4.759020   -8.756260    1.034740
  H     -4.310410   -7.061210    0.866480
  H     -4.254480   -9.194800   -1.220150
  H    -13.538350   -7.914900    2.679850
  H    -12.997740   -6.210800    2.749480
  H    -12.604500   -8.293700    4.963480
  H    -13.848880   -7.037180    4.984660
  H    -12.141320   -6.589070    5.064990
  H     -5.838140  -10.132530   -0.689280
  H     -6.285480  -11.840170   -0.651910
  H     -4.076280  -10.480030    0.872990
  H    -10.263400  -15.761490    3.380520
  H     -8.865070  -16.499330    2.603180
  H    -11.770110  -16.863120    1.688000
  H    -10.836120  -18.055300    2.599890
  H    -10.365000  -17.635840    0.950130
  H    -10.159800  -15.132930   -1.623880
  H    -10.710770   -8.937850   -0.695040
  H     -9.716510   -7.515810   -2.466300
  H     -9.049000  -10.943580   -4.948880
  H     -3.955230  -12.643240    2.242160
  H     -5.675400  -12.812270    1.952510
  H     -4.300800  -10.430470    3.297040
  H     -5.211690  -11.695420    4.116180
  H     -6.043700  -10.564750    3.059470
  H     -4.384960  -13.208450   -0.425730
  H     -2.886560  -12.453860    0.121450
  H     -3.764880  -11.772970   -1.245850
  H     -4.220650   -7.354090   -2.980990
  H     -5.145030   -6.368850   -1.864300
  H     -5.982690   -9.093610   -2.975680
  H     -6.610700   -7.528490   -3.477800
  H     -6.956610   -8.131100   -1.860740
  H     -2.655500   -6.646450   -0.790610
  H     -2.240050   -8.018080   -1.817170
  H     -2.275300   -8.213730   -0.068020

 Total Charge           Charge          ....    0
 Multiplicity           Mult            ....    1
 Number of Electrons    NEL             ....  566
 Basis Dimension        Dim             .... 2681

ORBITAL ENERGIES
----------------

  NO   OCC          E(Eh)            E(eV)
   0   2.0000     -88.905172     -2419.2327
   1   2.0000     -88.902045     -2419.1476
   2   2.0000     -88.883530     -2418.6438
   3   2.0000     -88.818996     -2416.8878
   4   2.0000     -24.720276      -672.6729
   5   2.0000     -24.716586      -672.5725
   6   2.0000     -19.139221      -520.8047
   7   2.0000     -19.138159      -520.7758
   8   2.0000     -14.440859      -392.9558
   9   2.0000     -14.400920      -391.8689
  10   2.0000     -14.398946      -391.8152
  11   2.0000     -14.357240      -390.6804
  12   2.0000     -14.353608      -390.5815
  13   2.0000     -14.333765      -390.0416
  14   2.0000     -14.330288      -389.9470
  15   2.0000     -14.328723      -389.9044
  16   2.0000     -14.324661      -389.7938
  17   2.0000     -10.295043      -280.1424
  18   2.0000     -10.291493      -280.0458
  19   2.0000     -10.284667      -279.8600
  20   2.0000     -10.280633      -279.7503
  21   2.0000     -10.262551      -279.2582
  22   2.0000     -10.259859      -279.1850
  23   2.0000     -10.257116      -279.1103
  24   2.0000     -10.253394      -279.0090
  25   2.0000     -10.252709      -278.9904
  26   2.0000     -10.252682      -278.9896
  27   2.0000     -10.252256      -278.9781
  28   2.0000     -10.245623      -278.7976
  29   2.0000     -10.240194      -278.6498
  30   2.0000     -10.240167      -278.6491
  31   2.0000     -10.236421      -278.5472
  32   2.0000     -10.236154      -278.5399
  33   2.0000     -10.233559      -278.4693
  34   2.0000     -10.233537      -278.4687
  35   2.0000     -10.231522      -278.4139
  36   2.0000     -10.231302      -278.4079
  37   2.0000     -10.231251      -278.4065
  38   2.0000     -10.229850      -278.3684
  39   2.0000     -10.228409      -278.3292
  40   2.0000     -10.227520      -278.3050
  41   2.0000     -10.227495      -278.3043
  42   2.0000     -10.226672      -278.2819
  43   2.0000     -10.225195      -278.2417
  44   2.0000     -10.224861      -278.2326
  45   2.0000     -10.223854      -278.2052
  46   2.0000     -10.222356      -278.1644
  47   2.0000     -10.221548      -278.1425
  48   2.0000     -10.221251      -278.1344
  49   2.0000     -10.221108      -278.1305
  50   2.0000     -10.220573      -278.1159
  51   2.0000     -10.219895      -278.0975
  52   2.0000     -10.218770      -278.0669
  53   2.0000     -10.217047      -278.0200
  54   2.0000     -10.216909      -278.0162
  55   2.0000     -10.216033      -277.9924
  56   2.0000     -10.215362      -277.9741
  57   2.0000     -10.214896      -277.9614
  58   2.0000     -10.214835      -277.9598
  59   2.0000     -10.213791      -277.9314
  60   2.0000     -10.213181      -277.9148
  61   2.0000     -10.211761      -277.8761
  62   2.0000     -10.210968      -277.8546
  63   2.0000     -10.208764      -277.7946
  64   2.0000     -10.207764      -277.7674
  65   2.0000     -10.195067      -277.4219
  66   2.0000     -10.195036      -277.4210
  67   2.0000     -10.188449      -277.2418
  68   2.0000     -10.176610      -276.9196
  69   2.0000     -10.176149      -276.9071
  70   2.0000     -10.173348      -276.8309
  71   2.0000     -10.172452      -276.8065
  72   2.0000     -10.168598      -276.7016
  73   2.0000     -10.167558      -276.6733
  74   2.0000     -10.167471      -276.6709
  75   2.0000     -10.162125      -276.5255
  76   2.0000     -10.162112      -276.5251
  77   2.0000      -7.980899      -217.1713
  78   2.0000      -7.977406      -217.0762
  79   2.0000      -7.960649      -216.6203
  80   2.0000      -7.897991      -214.9153
  81   2.0000      -5.943868      -161.7409
  82   2.0000      -5.940332      -161.6447
  83   2.0000      -5.940181      -161.6405
  84   2.0000      -5.936564      -161.5421
  85   2.0000      -5.936069      -161.5287
  86   2.0000      -5.933417      -161.4565
  87   2.0000      -5.923636      -161.1903
  88   2.0000      -5.920151      -161.0955
  89   2.0000      -5.915667      -160.9735
  90   2.0000      -5.860100      -159.4614
  91   2.0000      -5.858280      -159.4119
  92   2.0000      -5.852830      -159.2636
  93   2.0000      -1.256700       -34.1965
  94   2.0000      -1.252695       -34.0876
  95   2.0000      -1.133144       -30.8344
  96   2.0000      -1.069557       -29.1041
  97   2.0000      -1.068800       -29.0835
  98   2.0000      -1.037143       -28.2221
  99   2.0000      -1.025647       -27.9093
 100   2.0000      -0.951312       -25.8865
 101   2.0000      -0.944023       -25.6882
 102   2.0000      -0.941158       -25.6102
 103   2.0000      -0.932256       -25.3680
 104   2.0000      -0.927986       -25.2518
 105   2.0000      -0.926505       -25.2115
 106   2.0000      -0.925110       -25.1735
 107   2.0000      -0.921238       -25.0682
 108   2.0000      -0.913207       -24.8496
 109   2.0000      -0.902237       -24.5511
 110   2.0000      -0.881783       -23.9945
 111   2.0000      -0.881353       -23.9828
 112   2.0000      -0.873717       -23.7751
 113   2.0000      -0.871661       -23.7191
 114   2.0000      -0.856218       -23.2989
 115   2.0000      -0.840454       -22.8699
 116   2.0000      -0.833226       -22.6732
 117   2.0000      -0.827606       -22.5203
 118   2.0000      -0.825403       -22.4604
 119   2.0000      -0.819093       -22.2886
 120   2.0000      -0.813849       -22.1460
 121   2.0000      -0.812506       -22.1094
 122   2.0000      -0.803696       -21.8697
 123   2.0000      -0.798390       -21.7253
 124   2.0000      -0.795113       -21.6361
 125   2.0000      -0.793646       -21.5962
 126   2.0000      -0.782097       -21.2819
 127   2.0000      -0.772624       -21.0242
 128   2.0000      -0.769706       -20.9448
 129   2.0000      -0.756879       -20.5957
 130   2.0000      -0.750956       -20.4345
 131   2.0000      -0.745218       -20.2784
 132   2.0000      -0.734324       -19.9820
 133   2.0000      -0.730283       -19.8720
 134   2.0000      -0.727982       -19.8094
 135   2.0000      -0.713130       -19.4053
 136   2.0000      -0.711567       -19.3627
 137   2.0000      -0.702365       -19.1123
 138   2.0000      -0.700594       -19.0641
 139   2.0000      -0.694946       -18.9104
 140   2.0000      -0.674446       -18.3526
 141   2.0000      -0.670538       -18.2463
 142   2.0000      -0.668560       -18.1924
 143   2.0000      -0.655654       -17.8413
 144   2.0000      -0.653115       -17.7722
 145   2.0000      -0.649859       -17.6836
 146   2.0000      -0.644859       -17.5475
 147   2.0000      -0.639398       -17.3989
 148   2.0000      -0.637487       -17.3469
 149   2.0000      -0.636584       -17.3223
 150   2.0000      -0.633636       -17.2421
 151   2.0000      -0.624778       -17.0011
 152   2.0000      -0.620910       -16.8958
 153   2.0000      -0.615830       -16.7576
 154   2.0000      -0.603039       -16.4095
 155   2.0000      -0.598291       -16.2803
 156   2.0000      -0.596448       -16.2302
 157   2.0000      -0.590217       -16.0606
 158   2.0000      -0.587408       -15.9842
 159   2.0000      -0.583621       -15.8811
 160   2.0000      -0.575726       -15.6663
 161   2.0000      -0.568855       -15.4793
 162   2.0000      -0.563892       -15.3443
 163   2.0000      -0.562432       -15.3046
 164   2.0000      -0.555131       -15.1059
 165   2.0000      -0.552080       -15.0229
 166   2.0000      -0.547629       -14.9017
 167   2.0000      -0.544222       -14.8090
 168   2.0000      -0.538239       -14.6462
 169   2.0000      -0.533349       -14.5132
 170   2.0000      -0.525572       -14.3015
 171   2.0000      -0.520836       -14.1727
 172   2.0000      -0.518306       -14.1038
 173   2.0000      -0.518163       -14.0999
 174   2.0000      -0.514159       -13.9910
 175   2.0000      -0.513139       -13.9632
 176   2.0000      -0.508489       -13.8367
 177   2.0000      -0.502742       -13.6803
 178   2.0000      -0.502170       -13.6647
 179   2.0000      -0.498357       -13.5610
 180   2.0000      -0.497959       -13.5502
 181   2.0000      -0.495074       -13.4717
 182   2.0000      -0.493095       -13.4178
 183   2.0000      -0.485344       -13.2069
 184   2.0000      -0.483655       -13.1609
 185   2.0000      -0.480950       -13.0873
 186   2.0000      -0.479071       -13.0362
 187   2.0000      -0.477510       -12.9937
 188   2.0000      -0.474396       -12.9090
 189   2.0000      -0.474185       -12.9032
 190   2.0000      -0.471299       -12.8247
 191   2.0000      -0.467180       -12.7126
 192   2.0000      -0.465456       -12.6657
 193   2.0000      -0.464674       -12.6444
 194   2.0000      -0.462976       -12.5982
 195   2.0000      -0.460329       -12.5262
 196   2.0000      -0.457787       -12.4570
 197   2.0000      -0.454233       -12.3603
 198   2.0000      -0.453690       -12.3455
 199   2.0000      -0.452673       -12.3179
 200   2.0000      -0.450242       -12.2517
 201   2.0000      -0.446468       -12.1490
 202   2.0000      -0.445835       -12.1318
 203   2.0000      -0.441063       -12.0019
 204   2.0000      -0.434902       -11.8343
 205   2.0000      -0.432274       -11.7628
 206   2.0000      -0.431071       -11.7300
 207   2.0000      -0.430975       -11.7274
 208   2.0000      -0.429358       -11.6834
 209   2.0000      -0.428460       -11.6590
 210   2.0000      -0.427323       -11.6280
 211   2.0000      -0.426271       -11.5994
 212   2.0000      -0.424476       -11.5506
 213   2.0000      -0.421599       -11.4723
 214   2.0000      -0.420449       -11.4410
 215   2.0000      -0.420196       -11.4341
 216   2.0000      -0.416978       -11.3465
 217   2.0000      -0.411932       -11.2092
 218   2.0000      -0.409523       -11.1437
 219   2.0000      -0.408145       -11.1062
 220   2.0000      -0.404637       -11.0107
 221   2.0000      -0.400016       -10.8850
 222   2.0000      -0.398705       -10.8493
 223   2.0000      -0.395313       -10.7570
 224   2.0000      -0.394515       -10.7353
 225   2.0000      -0.392973       -10.6933
 226   2.0000      -0.392571       -10.6824
 227   2.0000      -0.391329       -10.6486
 228   2.0000      -0.389868       -10.6088
 229   2.0000      -0.388107       -10.5609
 230   2.0000      -0.387319       -10.5395
 231   2.0000      -0.386255       -10.5105
 232   2.0000      -0.384664       -10.4672
 233   2.0000      -0.384330       -10.4582
 234   2.0000      -0.383346       -10.4314
 235   2.0000      -0.380060       -10.3419
 236   2.0000      -0.379208       -10.3188
 237   2.0000      -0.378867       -10.3095
 238   2.0000      -0.377884       -10.2828
 239   2.0000      -0.377220       -10.2647
 240   2.0000      -0.374369       -10.1871
 241   2.0000      -0.370265       -10.0754
 242   2.0000      -0.368749       -10.0342
 243   2.0000      -0.368017       -10.0143
 244   2.0000      -0.366457        -9.9718
 245   2.0000      -0.366169        -9.9640
 246   2.0000      -0.365408        -9.9433
 247   2.0000      -0.363979        -9.9044
 248   2.0000      -0.362701        -9.8696
 249   2.0000      -0.361381        -9.8337
 250   2.0000      -0.355105        -9.6629
 251   2.0000      -0.353353        -9.6152
 252   2.0000      -0.350764        -9.5448
 253   2.0000      -0.348177        -9.4744
 254   2.0000      -0.347084        -9.4446
 255   2.0000      -0.345143        -9.3918
 256   2.0000      -0.341807        -9.3011
 257   2.0000      -0.339591        -9.2408
 258   2.0000      -0.339414        -9.2359
 259   2.0000      -0.334938        -9.1141
 260   2.0000      -0.331594        -9.0231
 261   2.0000      -0.328748        -8.9457
 262   2.0000      -0.326020        -8.8714
 263   2.0000      -0.323584        -8.8052
 264   2.0000      -0.316255        -8.6057
 265   2.0000      -0.308504        -8.3948
 266   2.0000      -0.307231        -8.3602
 267   2.0000      -0.306145        -8.3306
 268   2.0000      -0.301338        -8.1998
 269   2.0000      -0.298473        -8.1219
 270   2.0000      -0.296719        -8.0741
 271   2.0000      -0.281853        -7.6696
 272   2.0000      -0.280445        -7.6313
 273   2.0000      -0.277124        -7.5409
 274   2.0000      -0.266806        -7.2602
 275   2.0000      -0.266221        -7.2442
 276   2.0000      -0.261631        -7.1193
 277   2.0000      -0.253140        -6.8883
 278   2.0000      -0.247482        -6.7343
 279   2.0000      -0.233091        -6.3427
 280   2.0000      -0.225429        -6.1342
 281   2.0000      -0.218044        -5.9333
 282   2.0000      -0.206948        -5.6314
 283   0.0000      -0.132130        -3.5954
 284   0.0000      -0.125183        -3.4064
 285   0.0000      -0.110712        -3.0126
 286   0.0000      -0.109285        -2.9738
 287   0.0000      -0.094123        -2.5612

MULLIKEN ATOMIC CHARGES
-----------------------
   0 C :    0.197573
   1 O :   -0.360121
   2 C :    0.124568
   3 C :   -0.341757
   4 C :    0.406498
   5 C :   -0.213255
   6 C :   -0.152423
   7 C :    0.041798
   8 C :   -0.004643
   9 C :    0.143302
  10 C :   -0.230619
  11 N :    0.040762
  12 C :   -0.203227
  13 N :    0.020124
  14 C :   -0.037186
  15 C :   -0.140898
  16 C :    0.066639
  17 S :    0.008995
  18 C :   -0.149547
  19 C :    0.006329
  20 C :    0.031482
  21 C :   -0.221791
  22 C :   -0.320379
  23 S :    0.020113
  24 C :   -0.165951
  25 C :    0.343398
  26 N :    0.009754
  27 C :   -0.291363
  28 C :    0.035070
  29 C :   -0.073334
  30 C :    0.038115
  31 C :   -0.031732
  32 N :   -0.248721
  33 N :    0.331653
  34 C :   -0.103143
  35 C :   -0.340329
  36 N :   -0.262636
  37 C :    0.020230
  38 C :    0.103990
  39 C :   -0.096541
  40 N :    0.114528
  41 C :   -0.308938
  42 C :    0.107184
  43 C :    0.116626
  44 C :   -0.035399
  45 S :   -0.057183
  46 C :    0.192005
  47 C :   -0.121439
  48 S :   -0.321670
  49 C :    0.011314
  50 C :    0.074758
  51 C :   -0.158505
  52 C :   -0.355682
  53 C :   -0.215318
  54 C :    0.037109
  55 C :    0.124821
  56 C :    0.059232
  57 C :   -0.179323
  58 N :   -0.001026
  59 C :   -0.212090
  60 N :    0.044451
  61 C :    0.106072
  62 C :   -0.213249
  63 C :   -0.240209
  64 C :    0.417125
  65 C :   -0.304299
  66 C :    0.015162
  67 C :    0.174683
  68 O :   -0.263115
  69 F :   -0.198835
  70 F :   -0.194598
  71 C :   -0.143907
  72 C :   -0.363656
  73 C :   -0.382451
  74 C :   -0.097384
  75 C :   -0.417920
  76 C :   -0.393317
  77 H :    0.140101
  78 H :    0.135425
  79 H :    0.166565
  80 H :    0.138386
  81 H :    0.107047
  82 H :    0.133229
  83 H :    0.115375
  84 H :    0.122880
  85 H :    0.115592
  86 H :    0.160591
  87 H :    0.152079
  88 H :    0.060666
  89 H :    0.136850
  90 H :    0.126072
  91 H :    0.131669
  92 H :    0.111676
  93 H :    0.111748
  94 H :    0.130227
  95 H :    0.153706
  96 H :    0.039803
  97 H :    0.122919
  98 H :    0.125803
  99 H :    0.144331
 100 H :    0.116251
 101 H :    0.115085
 102 H :    0.144749
 103 H :    0.214232
 104 H :    0.141714
 105 H :    0.143862
 106 H :    0.083694
 107 H :    0.112528
 108 H :    0.096228
 109 H :    0.113277
 110 H :    0.127421
 111 H :    0.141149
 112 H :    0.108199
 113 H :    0.099575
 114 H :    0.089828
 115 H :    0.098163
 116 H :    0.110717
 117 H :    0.129773
 118 H :    0.124893
 119 H :    0.174670
 120 H :    0.110046
 121 H :    0.104857
Sum of atomic charges:    0.0000000

LOEWDIN ATOMIC CHARGES
----------------------
   0 C :   -0.253504
   1 O :    0.113506
   2 C :   -0.052954
   3 C :   -0.052410
   4 C :   -0.237362
   5 C :   -0.090230
   6 C :   -0.065410
   7 C :   -0.046371
   8 C :    0.010095
   9 C :   -0.138062
  10 C :   -0.165048
  11 N :    0.079217
  12 C :   -0.168584
  13 N :    0.075631
  14 C :   -0.091307
  15 C :   -0.052365
  16 C :   -0.299794
  17 S :    0.798282
  18 C :   -0.340606
  19 C :   -0.322632
  20 C :   -0.129401
  21 C :   -0.230823
  22 C :   -0.282223
  23 S :    0.745493
  24 C :   -0.292404
  25 C :   -0.189840
  26 N :    0.299731
  27 C :   -0.213147
  28 C :   -0.282503
  29 C :   -0.092794
  30 C :   -0.089365
  31 C :   -0.215628
  32 N :    0.089378
  33 N :    0.141610
  34 C :   -0.268374
  35 C :   -0.294740
  36 N :    0.104782
  37 C :   -0.215193
  38 C :   -0.097170
  39 C :   -0.088115
  40 N :    0.310378
  41 C :   -0.224577
  42 C :   -0.278654
  43 C :   -0.191094
  44 C :   -0.302213
  45 S :    0.745160
  46 C :   -0.297590
  47 C :   -0.441131
  48 S :    0.279587
  49 C :   -0.028962
  50 C :   -0.020166
  51 C :   -0.236738
  52 C :   -0.279601
  53 C :   -0.023802
  54 C :   -0.054742
  55 C :    0.004532
  56 C :   -0.142825
  57 C :   -0.149588
  58 N :    0.093199
  59 C :   -0.176775
  60 N :    0.089981
  61 C :   -0.048036
  62 C :   -0.065044
  63 C :   -0.089380
  64 C :   -0.240578
  65 C :   -0.048889
  66 C :   -0.049586
  67 C :   -0.245294
  68 O :    0.154045
  69 F :    0.201365
  70 F :    0.196689
  71 C :   -0.262169
  72 C :   -0.306639
  73 C :   -0.280851
  74 C :   -0.260358
  75 C :   -0.309650
  76 C :   -0.277953
  77 H :    0.160525
  78 H :    0.156657
  79 H :    0.162991
  80 H :    0.178163
  81 H :    0.143706
  82 H :    0.147733
  83 H :    0.119821
  84 H :    0.123993
  85 H :    0.120522
  86 H :    0.140130
  87 H :    0.150146
  88 H :    0.148291
  89 H :    0.143326
  90 H :    0.141877
  91 H :    0.124255
  92 H :    0.122178
  93 H :    0.119830
  94 H :    0.137752
  95 H :    0.146265
  96 H :    0.142869
  97 H :    0.158611
  98 H :    0.160829
  99 H :    0.128996
 100 H :    0.120991
 101 H :    0.122839
 102 H :    0.174356
 103 H :    0.162632
 104 H :    0.158529
 105 H :    0.162765
 106 H :    0.137821
 107 H :    0.138354
 108 H :    0.113599
 109 H :    0.119232
 110 H :    0.119161
 111 H :    0.120430
 112 H :    0.118865
 113 H :    0.115653
 114 H :    0.140569
 115 H :    0.135870
 116 H :    0.117089
 117 H :    0.121475
 118 H :    0.117048
 119 H :    0.121160
 120 H :    0.121393
 121 H :    0.119279

  Mayer bond orders larger than 0.100000
B(  0-C ,  1-O ) :   1.9750 B(  0-C ,  2-C ) :   1.0270 B(  0-C , 14-C ) :   1.0499
B(  1-O ,  2-C ) :  -0.1460 B(  2-C ,  3-C ) :   1.2957 B(  2-C ,  7-C ) :   1.3365
B(  3-C ,  4-C ) :   1.3660 B(  3-C , 77-H ) :   1.0005 B(  4-C ,  5-C ) :   1.3802
B(  4-C , 70-F ) :   1.0302 B(  5-C ,  6-C ) :   1.3627 B(  5-C , 78-H ) :   0.9794
B(  6-C ,  7-C ) :   1.4036 B(  6-C , 79-H ) :   0.9109 B(  7-C ,  8-C ) :   1.0611
B(  8-C ,  9-C ) :   1.4562 B(  8-C , 14-C ) :   1.1631 B(  9-C , 10-C ) :   1.0250
B(  9-C , 12-C ) :   1.0642 B( 10-C , 11-N ) :   2.9909 B( 12-C , 13-N ) :   2.9157
B( 14-C , 15-C ) :   1.4208 B( 15-C , 16-C ) :   1.2965 B( 15-C , 80-H ) :   0.8552
B( 16-C , 17-S ) :   1.3336 B( 16-C , 20-C ) :   1.2732 B( 17-S , 18-C ) :   1.3472
B( 17-S , 25-C ) :  -0.1378 B( 18-C , 19-C ) :   1.2583 B( 18-C , 25-C ) :   1.0698
B( 19-C , 20-C ) :   1.3626 B( 19-C , 23-S ) :   1.1926 B( 20-C , 21-C ) :   0.9446
B( 21-C , 22-C ) :   0.9640 B( 21-C , 81-H ) :   0.9726 B( 21-C , 82-H ) :   0.9532
B( 22-C , 83-H ) :   0.9714 B( 22-C , 84-H ) :   0.9727 B( 22-C , 85-H ) :   0.9737
B( 23-S , 24-C ) :   1.3526 B( 24-C , 25-C ) :   1.2449 B( 24-C , 30-C ) :   1.1616
B( 25-C , 26-N ) :   1.0778 B( 26-N , 27-C ) :   0.8661 B( 26-N , 29-C ) :   1.2255
B( 27-C , 28-C ) :   0.8931 B( 27-C , 86-H ) :   0.9604 B( 27-C , 87-H ) :   0.9712
B( 28-C , 74-C ) :   0.9493 B( 28-C , 76-C ) :   0.9267 B( 28-C , 88-H ) :   0.9641
B( 29-C , 30-C ) :   1.1966 B( 29-C , 39-C ) :   1.3830 B( 30-C , 31-C ) :   1.1348
B( 31-C , 32-N ) :   1.5103 B( 31-C , 37-C ) :   1.2599 B( 32-N , 33-N ) :   1.1691
B( 32-N , 36-N ) :   0.1010 B( 33-N , 34-C ) :   0.8902 B( 33-N , 36-N ) :   1.1338
B( 34-C , 35-C ) :   0.9605 B( 34-C , 89-H ) :   0.9510 B( 34-C , 90-H ) :   0.9646
B( 35-C , 91-H ) :   0.9709 B( 35-C , 92-H ) :   0.9707 B( 35-C , 93-H ) :   0.9715
B( 36-N , 37-C ) :   1.4622 B( 37-C , 38-C ) :   1.1210 B( 38-C , 39-C ) :   1.1657
B( 38-C , 40-N ) :  -0.1006 B( 38-C , 44-C ) :   1.2541 B( 39-C , 40-N ) :   1.2506
B( 40-N , 41-C ) :   0.8571 B( 40-N , 43-C ) :   1.0501 B( 41-C , 42-C ) :   0.9063
B( 41-C , 94-H ) :   0.9653 B( 41-C , 95-H ) :   0.9448 B( 42-C , 71-C ) :   0.9328
B( 42-C , 73-C ) :   0.9079 B( 42-C , 96-H ) :   0.9645 B( 43-C , 44-C ) :   1.2928
B( 43-C , 47-C ) :   1.1960 B( 44-C , 45-S ) :   1.2022 B( 45-S , 46-C ) :   0.9956
B( 45-S , 56-C ) :   0.1999 B( 46-C , 47-C ) :   0.9885 B( 46-C , 49-C ) :   0.8912
B( 46-C , 50-C ) :   0.9453 B( 47-C , 48-S ) :   1.7653 B( 49-C , 50-C ) :   1.6625
B( 49-C , 53-C ) :   1.0965 B( 50-C , 51-C ) :   0.9480 B( 51-C , 52-C ) :   0.9888
B( 51-C , 97-H ) :   0.9572 B( 51-C , 98-H ) :   0.9532 B( 52-C , 99-H ) :   0.9718
B( 52-C ,100-H ) :   0.9733 B( 52-C ,101-H ) :   0.9737 B( 53-C , 54-C ) :   1.6158
B( 53-C ,102-H ) :   0.9539 B( 54-C , 55-C ) :   1.1036 B( 54-C , 67-C ) :   0.9792
B( 54-C , 68-O ) :  -0.1258 B( 55-C , 56-C ) :   1.3877 B( 55-C , 61-C ) :   0.9525
B( 56-C , 57-C ) :   1.0445 B( 56-C , 59-C ) :   1.0584 B( 57-C , 58-N ) :   2.8895
B( 59-C , 60-N ) :   2.9628 B( 61-C , 62-C ) :   1.3260 B( 61-C , 66-C ) :   1.2770
B( 62-C , 63-C ) :   1.3646 B( 62-C ,103-H ) :   0.9125 B( 63-C , 64-C ) :   1.3357
B( 63-C ,104-H ) :   0.9952 B( 64-C , 65-C ) :   1.3736 B( 64-C , 69-F ) :   0.9944
B( 65-C , 66-C ) :   1.3212 B( 65-C ,105-H ) :   1.0068 B( 66-C , 67-C ) :   0.9451
B( 66-C , 68-O ) :  -0.1458 B( 67-C , 68-O ) :   2.2308 B( 71-C , 72-C ) :   0.9390
B( 71-C ,106-H ) :   0.9761 B( 71-C ,107-H ) :   0.9572 B( 72-C ,108-H ) :   0.9710
B( 72-C ,109-H ) :   0.9792 B( 72-C ,110-H ) :   0.9809 B( 73-C ,111-H ) :   0.9777
B( 73-C ,112-H ) :   0.9755 B( 73-C ,113-H ) :   0.9783 B( 74-C , 75-C ) :   0.9581
B( 74-C ,114-H ) :   0.9807 B( 74-C ,115-H ) :   0.9486 B( 75-C ,116-H ) :   0.9710
B( 75-C ,117-H ) :   0.9712 B( 75-C ,118-H ) :   0.9698 B( 76-C ,119-H ) :   0.9710
B( 76-C ,120-H ) :   0.9738 B( 76-C ,121-H ) :   0.9773

-----------------------------------------------------------------------------
         ABSORPTION SPECTRUM VIA TRANSITION ELECTRIC DIPOLE MOMENTS
-----------------------------------------------------------------------------
State   Energy    Wavelength  fosc         T2        TX        TY        TZ
        (cm-1)      (nm)                 (au**2)    (au)      (au)      (au)
-----------------------------------------------------------------------------
   1   12402.8    806.3   0.058454507   1.55157   0.56307   1.09740   0.17393
   2   14632.3    683.4   0.128036359   2.88069  -1.07830  -1.30395  -0.13301
   3   16075.2    622.1   0.256530516   5.25361  -0.94510  -2.08127   0.16942
   4   16122.5    620.3   0.088400829   1.80509  -0.89304  -1.00033   0.08315
   5   17241.3    580.0   0.360461993   6.88279  -1.65205  -2.03633   0.08290
   6   17698.3    565.0   0.251248828   4.67356   0.98592   1.85452  -0.51213
   7   18299.1    546.5   0.098056929   1.76411  -0.99256  -0.84019   0.27022
   8   18819.4    531.4   0.082097642   1.43615   0.72722   0.95172   0.03912
   9   19043.9    525.1   0.474918699   8.20992  -1.81707  -2.20092   0.25323
  10   19770.2    505.8   0.004880331   0.08127  -0.03860  -0.04494   0.27885
  11   20554.4    486.5   0.267820886   4.28959  -0.99151  -1.81653   0.08207
  12   21102.0    473.9   0.020986044   0.32740   0.55911   0.11198  -0.04754
  13   21218.6    471.3   0.081139671   1.25890   0.72172   0.79478  -0.32611
  14   21757.9    459.6   0.007876966   0.11918   0.26381   0.20477  -0.08752
  15   22144.1    451.6   0.036707303   0.54572  -0.41008  -0.61437   0.01006
  16   23176.9    431.5   0.034084619   0.48415  -0.26193   0.61785   0.18385
  17   23358.4    428.1   0.004128506   0.05819   0.00639   0.09016  -0.22364
  18   23556.3    424.5   0.021774588   0.30431   0.06987  -0.53259  -0.12559
  19   23798.1    420.2   0.101087440   1.39840  -0.09850   0.96354  -0.67845
  20   24130.0    414.4   0.077859317   1.06225  -0.40917  -0.93101   0.16747
  21   24665.0    405.4   0.061780477   0.82460  -0.86633  -0.12934   0.23947
  22   24785.4    403.5   0.012030526   0.15980   0.21423   0.22154   0.25460
  23   24833.9    402.7   0.086406561   1.14545   0.48502   0.59467  -0.74604
  24   25528.0    391.7   0.036893822   0.47579   0.55168   0.27003  -0.31388
  25   26068.0    383.6   0.004601697   0.05811   0.03499   0.23250  -0.05325
  26   26339.5    379.7   0.063273139   0.79084  -0.13798   0.86753  -0.13852
  27   26554.9    376.6   0.004975113   0.06168   0.00340  -0.24583   0.03514
  28   26642.4    375.3   0.013615398   0.16824   0.33811   0.22114  -0.07084
  29   27125.0    368.7   0.114934339   1.39494   1.09900   0.25517  -0.34932
  30   27254.6    366.9   0.028281625   0.34162  -0.33448  -0.47866   0.02512
  31   27385.2    365.2   0.040619702   0.48831   0.07033  -0.67136   0.18067
  32   27470.9    364.0   0.001582479   0.01896   0.06286  -0.08985   0.08331
  33   27543.2    363.1   0.009825234   0.11744   0.04665  -0.05818   0.33448
  34   27671.0    361.4   0.079292116   0.94337   0.63609  -0.72884   0.08683
  35   28349.8    352.7   0.013333217   0.15483  -0.14660  -0.28867   0.22362
  36   28494.1    351.0   0.022776827   0.26316  -0.44750   0.24650   0.04619
  37   28810.4    347.1   0.030440165   0.34784  -0.15846  -0.06766   0.56405
  38   29155.5    343.0   0.019009049   0.21464  -0.37242  -0.24506   0.12606
  39   29336.6    340.9   0.007486895   0.08402   0.12436  -0.25316  -0.06681
  40   29639.9    337.4   0.068401697   0.75974  -0.86625  -0.06273  -0.07367
  41   30087.7    332.4   0.007979344   0.08731  -0.19514   0.20809   0.07697
  42   30142.5    331.8   0.097567834   1.06562  -0.01015   1.01011  -0.21258
  43   30326.8    329.7   0.012101158   0.13136   0.33836   0.11710  -0.05628
  44   30603.0    326.8   0.042982331   0.46238  -0.47407   0.47506   0.10935
  45   30625.6    326.5   0.005650612   0.06074  -0.15641   0.19046   0.00097
  46   31175.9    320.8   0.015773488   0.16657  -0.30811  -0.17849   0.19943
  47   31432.7    318.1   0.020213201   0.21170   0.05455   0.30203  -0.34279
  48   31562.7    316.8   0.012253318   0.12781   0.19949  -0.28665  -0.07642
  49   31824.5    314.2   0.076810527   0.79457  -0.22953  -0.45493   0.73139
  50   31863.2    313.8   0.070518663   0.72860  -0.09381  -0.48906   0.69327

FINAL SINGLE POINT ENERGY     -4748.018995712423

DIPOLE MOMENT
-------------
                                X             Y             Z
Electronic contribution:     -6.27205      38.96902     -23.89448
Nuclear contribution   :      6.93609     -40.66764      24.88500
                        -----------------------------------------
Total Dipole Moment    :      0.66404      -1.69862       0.99053
                        -----------------------------------------
Magnitude (a.u.)       :      2.07543
Magnitude (Debye)      :      5.27532

Rotational constants in cm-1:     0.001659     0.000422     0.000385
Rotational constants in MHz :    49.722820    12.665846    11.535841

                             ****ORCA TERMINATED NORMALLY****
TOTAL RUN TIME: 2 days 8 hours 6 minutes 38 seconds 839 msec
