                         Program Version 4.2.0 -  RELEASE  -
|  1> # ORCA input file
|  2> # Y15.out
|  3> ! B3LYP def2-TZVP def2/J RIJCOSX Grid4 TightSCF
|  4>
|  5> %maxcore 6000
|  6> %tddft
|  7>   maxdim 5
|  8>   nroots 50
|  9>   end
| 10> %pal
| 11>   nprocs 6
| 12>   end
| 13>
| 14>
| 15> * xyz 0 1
| 16>    C        6.50141         4.48916        -0.64483
| 17>    O        7.34191         3.61027        -0.72694
| 18>    C        6.58672         5.83315        -1.25164
| 19>    C        7.59480         6.36712        -2.02648
| 20>    C        7.44683         7.66802        -2.49247
| 21>   Cl        8.67744         8.37011        -3.46339
| 22>    C        6.30051         8.40326        -2.17549
| 23>   Cl        6.12728        10.00882        -2.76123
| 24>    C        5.28699         7.85948        -1.39251
| 25>    C        5.43104         6.56374        -0.92616
| 26>    C        4.56079         5.72534        -0.10084
| 27>    C        3.35153         6.11737         0.41645
| 28>    C        2.49939         5.32842         1.21620
| 29>    N        1.74951         4.75456         1.87148
| 30>    C        2.78334         7.39353         0.21882
| 31>    N        2.26076         8.40864         0.09918
| 32>    C        5.22003         4.44614         0.05894
| 33>    C        4.70724         3.37141         0.74999
| 34>    C        5.22391         2.09635         0.98059
| 35>    S        6.80204         1.52421         0.43082
| 36>    C        6.51313        -0.01075         1.15804
| 37>    C        5.25220        -0.06772         1.78175
| 38>    C        4.52252         1.10754         1.69770
| 39>    C        3.14274         1.24576         2.25239
| 40>    C        2.09233         0.98787         1.16828
| 41>    S        4.90023        -1.62101         2.51482
| 42>    C        6.44477        -2.18621         1.97794
| 43>    C        7.19185        -1.22481         1.28507
| 44>    N        8.39841        -1.75095         0.89960
| 45>    C        9.08283        -1.13450        -0.21823
| 46>    C        8.65037        -1.76843        -1.53845
| 47>    C        8.43175        -3.07166         1.32721
| 48>    C        7.19914        -3.36401         1.98565
| 49>    C        6.89643        -4.67248         2.41392
| 50>    N        5.82720        -5.20604         3.00725
| 51>    N        6.11119        -6.48187         3.08690
| 52>    C        5.18114        -7.42800         3.63145
| 53>    C        4.20997        -7.90432         2.55523
| 54>    N        7.26831        -6.85645         2.60118
| 55>    C        7.81469        -5.72351         2.15637
| 56>    C        9.07249        -5.42416         1.59520
| 57>    C        9.42251        -4.08425         1.25023
| 58>    N       10.75594        -4.06707         0.87640
| 59>    C       11.69007        -2.96589         0.80253
| 60>    C       12.18829        -2.72397        -0.62115
| 61>    C       11.22682        -5.35116         0.94303
| 62>    C       10.20549        -6.21208         1.36768
| 63>    S       10.69122        -7.86533         1.50313
| 64>    C       12.30553        -7.40238         1.01185
| 65>    C       12.43201        -6.02963         0.74797
| 66>    S       14.03167        -5.65976         0.23581
| 67>    C       14.53424        -7.35043         0.43914
| 68>    C       13.46578        -8.16123         0.83282
| 69>    C       13.42937        -9.64567         0.95278
| 70>    C       13.90856       -10.36722        -0.30504
| 71>    C       15.87052        -7.58807         0.07838
| 72>    C       16.73725        -8.58075         0.46845
| 73>    C       18.01058        -8.86479        -0.16073
| 74>    C       18.47122        -8.36031        -1.35013
| 75>    C       19.72346        -8.68367        -1.91309
| 76>    N       20.73046        -8.89689        -2.42111
| 77>    C       17.76205        -7.47576        -2.18974
| 78>    N       17.24121        -6.77793        -2.93895
| 79>    C       18.69058        -9.87100         0.65230
| 80>    C       19.91614       -10.49830         0.50247
| 81>    C       20.29700       -11.44915         1.44347
| 82>   Cl       21.81388       -12.23580         1.26417
| 83>    C       19.47092       -11.77099         2.52500
| 84>   Cl       19.97088       -12.95303         3.66625
| 85>    C       18.24351       -11.13818         2.68135
| 86>    C       17.86716       -10.20183         1.74162
| 87>    C       16.62922        -9.39366         1.68999
| 88>    O       15.76626        -9.34666         2.54478
| 89>    H        8.47340         5.78838        -2.26347
| 90>    H        4.41887         8.45791        -1.17093
| 91>    H        3.73207         3.52172         1.19212
| 92>    H        2.98725         2.23804         2.67819
| 93>    H        3.02025         0.50880         3.04861
| 94>    H        2.19059         1.70586         0.35749
| 95>    H        1.09663         1.08165         1.59184
| 96>    H        2.20706        -0.01412         0.76131
| 97>    H       10.16071        -1.19617        -0.10443
| 98>    H        8.80637        -0.07735        -0.21020
| 99>    H        8.88591        -2.83102        -1.55034
|100>    H        9.15937        -1.28296        -2.36642
|101>    H        7.57788        -1.65347        -1.67733
|102>    H        4.64011        -6.93193         4.43960
|103>    H        5.76120        -8.26548         4.02300
|104>    H        3.65529        -7.05999         2.15344
|105>    H        3.50799        -8.61602         2.97977
|106>    H        4.75361        -8.38680         1.74662
|107>    H       12.54997        -3.22042         1.43281
|108>    H       11.22267        -2.08007         1.23416
|109>    H       12.77741        -3.57288        -0.95775
|110>    H       12.82058        -1.84074        -0.64382
|111>    H       11.36425        -2.58739        -1.31545
|112>    H       12.39888        -9.93739         1.16785
|113>    H       14.04732        -9.94364         1.80527
|114>    H       13.31573       -10.06380        -1.16544
|115>    H       13.80221       -11.44077        -0.17329
|116>    H       14.95260       -10.15004        -0.51406
|117>    H       16.27528        -6.83486        -0.58937
|118>    H       20.58158       -10.27245        -0.31444
|119>    H       17.59853       -11.37516         3.51263
|120> *
|121>
|122>                          ****END OF INPUT****

CARTESIAN COORDINATES (ANGSTROEM)
---------------------------------
  C      6.501410    4.489160   -0.644830
  O      7.341910    3.610270   -0.726940
  C      6.586720    5.833150   -1.251640
  C      7.594800    6.367120   -2.026480
  C      7.446830    7.668020   -2.492470
  Cl     8.677440    8.370110   -3.463390
  C      6.300510    8.403260   -2.175490
  Cl     6.127280   10.008820   -2.761230
  C      5.286990    7.859480   -1.392510
  C      5.431040    6.563740   -0.926160
  C      4.560790    5.725340   -0.100840
  C      3.351530    6.117370    0.416450
  C      2.499390    5.328420    1.216200
  N      1.749510    4.754560    1.871480
  C      2.783340    7.393530    0.218820
  N      2.260760    8.408640    0.099180
  C      5.220030    4.446140    0.058940
  C      4.707240    3.371410    0.749990
  C      5.223910    2.096350    0.980590
  S      6.802040    1.524210    0.430820
  C      6.513130   -0.010750    1.158040
  C      5.252200   -0.067720    1.781750
  C      4.522520    1.107540    1.697700
  C      3.142740    1.245760    2.252390
  C      2.092330    0.987870    1.168280
  S      4.900230   -1.621010    2.514820
  C      6.444770   -2.186210    1.977940
  C      7.191850   -1.224810    1.285070
  N      8.398410   -1.750950    0.899600
  C      9.082830   -1.134500   -0.218230
  C      8.650370   -1.768430   -1.538450
  C      8.431750   -3.071660    1.327210
  C      7.199140   -3.364010    1.985650
  C      6.896430   -4.672480    2.413920
  N      5.827200   -5.206040    3.007250
  N      6.111190   -6.481870    3.086900
  C      5.181140   -7.428000    3.631450
  C      4.209970   -7.904320    2.555230
  N      7.268310   -6.856450    2.601180
  C      7.814690   -5.723510    2.156370
  C      9.072490   -5.424160    1.595200
  C      9.422510   -4.084250    1.250230
  N     10.755940   -4.067070    0.876400
  C     11.690070   -2.965890    0.802530
  C     12.188290   -2.723970   -0.621150
  C     11.226820   -5.351160    0.943030
  C     10.205490   -6.212080    1.367680
  S     10.691220   -7.865330    1.503130
  C     12.305530   -7.402380    1.011850
  C     12.432010   -6.029630    0.747970
  S     14.031670   -5.659760    0.235810
  C     14.534240   -7.350430    0.439140
  C     13.465780   -8.161230    0.832820
  C     13.429370   -9.645670    0.952780
  C     13.908560  -10.367220   -0.305040
  C     15.870520   -7.588070    0.078380
  C     16.737250   -8.580750    0.468450
  C     18.010580   -8.864790   -0.160730
  C     18.471220   -8.360310   -1.350130
  C     19.723460   -8.683670   -1.913090
  N     20.730460   -8.896890   -2.421110
  C     17.762050   -7.475760   -2.189740
  N     17.241210   -6.777930   -2.938950
  C     18.690580   -9.871000    0.652300
  C     19.916140  -10.498300    0.502470
  C     20.297000  -11.449150    1.443470
  Cl    21.813880  -12.235800    1.264170
  C     19.470920  -11.770990    2.525000
  Cl    19.970880  -12.953030    3.666250
  C     18.243510  -11.138180    2.681350
  C     17.867160  -10.201830    1.741620
  C     16.629220   -9.393660    1.689990
  O     15.766260   -9.346660    2.544780
  H      8.473400    5.788380   -2.263470
  H      4.418870    8.457910   -1.170930
  H      3.732070    3.521720    1.192120
  H      2.987250    2.238040    2.678190
  H      3.020250    0.508800    3.048610
  H      2.190590    1.705860    0.357490
  H      1.096630    1.081650    1.591840
  H      2.207060   -0.014120    0.761310
  H     10.160710   -1.196170   -0.104430
  H      8.806370   -0.077350   -0.210200
  H      8.885910   -2.831020   -1.550340
  H      9.159370   -1.282960   -2.366420
  H      7.577880   -1.653470   -1.677330
  H      4.640110   -6.931930    4.439600
  H      5.761200   -8.265480    4.023000
  H      3.655290   -7.059990    2.153440
  H      3.507990   -8.616020    2.979770
  H      4.753610   -8.386800    1.746620
  H     12.549970   -3.220420    1.432810
  H     11.222670   -2.080070    1.234160
  H     12.777410   -3.572880   -0.957750
  H     12.820580   -1.840740   -0.643820
  H     11.364250   -2.587390   -1.315450
  H     12.398880   -9.937390    1.167850
  H     14.047320   -9.943640    1.805270
  H     13.315730  -10.063800   -1.165440
  H     13.802210  -11.440770   -0.173290
  H     14.952600  -10.150040   -0.514060
  H     16.275280   -6.834860   -0.589370
  H     20.581580  -10.272450   -0.314440
  H     17.598530  -11.375160    3.512630

 Total Charge           Charge          ....    0
 Multiplicity           Mult            ....    1
 Number of Electrons    NEL             ....  566
 Basis Dimension        Dim             .... 2497

ORBITAL ENERGIES
----------------

  NO   OCC          E(Eh)            E(eV)
   0   2.0000    -101.548964     -2763.2878
   1   2.0000    -101.548565     -2763.2769
   2   2.0000    -101.546527     -2763.2215
   3   2.0000    -101.546298     -2763.2153
   4   2.0000     -88.911337     -2419.4005
   5   2.0000     -88.908811     -2419.3317
   6   2.0000     -88.906598     -2419.2715
   7   2.0000     -88.903242     -2419.1802
   8   2.0000     -19.138299      -520.7796
   9   2.0000     -19.133270      -520.6427
  10   2.0000     -14.449284      -393.1850
  11   2.0000     -14.404092      -391.9553
  12   2.0000     -14.401032      -391.8720
  13   2.0000     -14.363186      -390.8422
  14   2.0000     -14.363167      -390.8416
  15   2.0000     -14.331332      -389.9754
  16   2.0000     -14.328637      -389.9020
  17   2.0000     -14.326330      -389.8393
  18   2.0000     -14.325177      -389.8079
  19   2.0000     -10.280200      -279.7385
  20   2.0000     -10.277768      -279.6723
  21   2.0000     -10.271190      -279.4933
  22   2.0000     -10.270957      -279.4870
  23   2.0000     -10.270603      -279.4773
  24   2.0000     -10.270349      -279.4704
  25   2.0000     -10.258176      -279.1392
  26   2.0000     -10.256844      -279.1029
  27   2.0000     -10.255654      -279.0705
  28   2.0000     -10.254671      -279.0438
  29   2.0000     -10.253416      -279.0096
  30   2.0000     -10.253075      -279.0003
  31   2.0000     -10.251710      -278.9632
  32   2.0000     -10.246364      -278.8177
  33   2.0000     -10.245083      -278.7829
  34   2.0000     -10.244275      -278.7609
  35   2.0000     -10.241001      -278.6718
  36   2.0000     -10.238524      -278.6044
  37   2.0000     -10.236161      -278.5401
  38   2.0000     -10.234331      -278.4903
  39   2.0000     -10.234219      -278.4873
  40   2.0000     -10.231777      -278.4208
  41   2.0000     -10.231063      -278.4014
  42   2.0000     -10.230839      -278.3953
  43   2.0000     -10.228747      -278.3384
  44   2.0000     -10.228028      -278.3188
  45   2.0000     -10.227926      -278.3160
  46   2.0000     -10.227880      -278.3148
  47   2.0000     -10.227497      -278.3043
  48   2.0000     -10.227246      -278.2975
  49   2.0000     -10.226933      -278.2890
  50   2.0000     -10.226249      -278.2704
  51   2.0000     -10.224812      -278.2313
  52   2.0000     -10.224161      -278.2136
  53   2.0000     -10.223272      -278.1894
  54   2.0000     -10.222622      -278.1717
  55   2.0000     -10.222159      -278.1591
  56   2.0000     -10.219654      -278.0909
  57   2.0000     -10.218884      -278.0700
  58   2.0000     -10.218027      -278.0467
  59   2.0000     -10.217963      -278.0449
  60   2.0000     -10.215980      -277.9910
  61   2.0000     -10.215417      -277.9756
  62   2.0000     -10.214153      -277.9412
  63   2.0000     -10.213858      -277.9332
  64   2.0000     -10.212554      -277.8977
  65   2.0000     -10.210902      -277.8528
  66   2.0000     -10.196814      -277.4694
  67   2.0000     -10.196126      -277.4507
  68   2.0000     -10.193069      -277.3675
  69   2.0000     -10.187043      -277.2035
  70   2.0000     -10.184408      -277.1318
  71   2.0000     -10.174465      -276.8613
  72   2.0000     -10.173331      -276.8304
  73   2.0000      -9.481551      -258.0061
  74   2.0000      -9.481154      -257.9953
  75   2.0000      -9.479130      -257.9402
  76   2.0000      -9.478904      -257.9341
  77   2.0000      -7.987792      -217.3589
  78   2.0000      -7.984498      -217.2692
  79   2.0000      -7.982329      -217.2102
  80   2.0000      -7.978272      -217.0998
  81   2.0000      -7.243178      -197.0969
  82   2.0000      -7.242774      -197.0859
  83   2.0000      -7.240798      -197.0321
  84   2.0000      -7.240568      -197.0259
  85   2.0000      -7.234843      -196.8701
  86   2.0000      -7.234447      -196.8593
  87   2.0000      -7.234055      -196.8487
  88   2.0000      -7.233653      -196.8377
  89   2.0000      -7.232402      -196.8037
  90   2.0000      -7.232174      -196.7975
  91   2.0000      -7.231601      -196.7819
  92   2.0000      -7.231378      -196.7758
  93   2.0000      -5.950491      -161.9211
  94   2.0000      -5.947481      -161.8392
  95   2.0000      -5.946721      -161.8185
  96   2.0000      -5.945289      -161.7795
  97   2.0000      -5.943945      -161.7430
  98   2.0000      -5.943693      -161.7361
  99   2.0000      -5.941586      -161.6788
 100   2.0000      -5.941306      -161.6711
 101   2.0000      -5.940259      -161.6427
 102   2.0000      -5.938045      -161.5824
 103   2.0000      -5.937024      -161.5546
 104   2.0000      -5.934221      -161.4784
 105   2.0000      -1.140080       -31.0232
 106   2.0000      -1.068862       -29.0852
 107   2.0000      -1.063735       -28.9457
 108   2.0000      -1.042017       -28.3547
 109   2.0000      -1.030117       -28.0309
 110   2.0000      -0.950123       -25.8542
 111   2.0000      -0.949753       -25.8441
 112   2.0000      -0.941098       -25.6086
 113   2.0000      -0.940019       -25.5792
 114   2.0000      -0.937195       -25.5024
 115   2.0000      -0.932802       -25.3828
 116   2.0000      -0.924059       -25.1449
 117   2.0000      -0.923241       -25.1227
 118   2.0000      -0.920098       -25.0371
 119   2.0000      -0.911875       -24.8134
 120   2.0000      -0.911623       -24.8065
 121   2.0000      -0.907752       -24.7012
 122   2.0000      -0.882372       -24.0106
 123   2.0000      -0.882105       -24.0033
 124   2.0000      -0.881740       -23.9934
 125   2.0000      -0.879601       -23.9352
 126   2.0000      -0.861369       -23.4390
 127   2.0000      -0.855787       -23.2872
 128   2.0000      -0.853186       -23.2164
 129   2.0000      -0.838904       -22.8277
 130   2.0000      -0.825151       -22.4535
 131   2.0000      -0.822113       -22.3708
 132   2.0000      -0.821159       -22.3449
 133   2.0000      -0.819528       -22.3005
 134   2.0000      -0.807398       -21.9704
 135   2.0000      -0.795533       -21.6475
 136   2.0000      -0.793438       -21.5905
 137   2.0000      -0.785399       -21.3718
 138   2.0000      -0.784989       -21.3606
 139   2.0000      -0.780538       -21.2395
 140   2.0000      -0.776970       -21.1424
 141   2.0000      -0.761009       -20.7081
 142   2.0000      -0.757129       -20.6025
 143   2.0000      -0.746370       -20.3098
 144   2.0000      -0.733447       -19.9581
 145   2.0000      -0.728678       -19.8283
 146   2.0000      -0.724289       -19.7089
 147   2.0000      -0.709957       -19.3189
 148   2.0000      -0.704281       -19.1645
 149   2.0000      -0.696431       -18.9508
 150   2.0000      -0.694010       -18.8850
 151   2.0000      -0.692870       -18.8540
 152   2.0000      -0.683751       -18.6058
 153   2.0000      -0.665954       -18.1215
 154   2.0000      -0.661837       -18.0095
 155   2.0000      -0.653282       -17.7767
 156   2.0000      -0.649531       -17.6746
 157   2.0000      -0.647301       -17.6140
 158   2.0000      -0.636721       -17.3261
 159   2.0000      -0.632893       -17.2219
 160   2.0000      -0.626455       -17.0467
 161   2.0000      -0.622408       -16.9366
 162   2.0000      -0.621160       -16.9026
 163   2.0000      -0.613866       -16.7041
 164   2.0000      -0.602669       -16.3995
 165   2.0000      -0.597042       -16.2463
 166   2.0000      -0.588241       -16.0069
 167   2.0000      -0.583449       -15.8764
 168   2.0000      -0.582360       -15.8468
 169   2.0000      -0.575913       -15.6714
 170   2.0000      -0.564739       -15.3673
 171   2.0000      -0.557380       -15.1671
 172   2.0000      -0.552731       -15.0406
 173   2.0000      -0.549113       -14.9421
 174   2.0000      -0.548546       -14.9267
 175   2.0000      -0.538242       -14.6463
 176   2.0000      -0.536887       -14.6094
 177   2.0000      -0.533633       -14.5209
 178   2.0000      -0.522360       -14.2141
 179   2.0000      -0.520893       -14.1742
 180   2.0000      -0.517035       -14.0692
 181   2.0000      -0.513268       -13.9667
 182   2.0000      -0.511219       -13.9110
 183   2.0000      -0.505117       -13.7449
 184   2.0000      -0.503533       -13.7018
 185   2.0000      -0.499442       -13.5905
 186   2.0000      -0.492432       -13.3998
 187   2.0000      -0.490551       -13.3486
 188   2.0000      -0.487184       -13.2569
 189   2.0000      -0.485224       -13.2036
 190   2.0000      -0.482478       -13.1289
 191   2.0000      -0.481379       -13.0990
 192   2.0000      -0.478485       -13.0202
 193   2.0000      -0.477034       -12.9808
 194   2.0000      -0.474047       -12.8995
 195   2.0000      -0.473243       -12.8776
 196   2.0000      -0.471894       -12.8409
 197   2.0000      -0.469540       -12.7768
 198   2.0000      -0.467252       -12.7146
 199   2.0000      -0.464815       -12.6483
 200   2.0000      -0.463712       -12.6183
 201   2.0000      -0.461343       -12.5538
 202   2.0000      -0.459465       -12.5027
 203   2.0000      -0.456230       -12.4146
 204   2.0000      -0.452736       -12.3196
 205   2.0000      -0.445153       -12.1132
 206   2.0000      -0.443959       -12.0807
 207   2.0000      -0.441983       -12.0270
 208   2.0000      -0.440144       -11.9769
 209   2.0000      -0.439354       -11.9554
 210   2.0000      -0.436522       -11.8784
 211   2.0000      -0.434868       -11.8334
 212   2.0000      -0.429567       -11.6891
 213   2.0000      -0.427926       -11.6445
 214   2.0000      -0.426844       -11.6150
 215   2.0000      -0.425135       -11.5685
 216   2.0000      -0.422588       -11.4992
 217   2.0000      -0.421125       -11.4594
 218   2.0000      -0.418770       -11.3953
 219   2.0000      -0.417166       -11.3517
 220   2.0000      -0.416049       -11.3213
 221   2.0000      -0.413757       -11.2589
 222   2.0000      -0.412031       -11.2119
 223   2.0000      -0.408955       -11.1282
 224   2.0000      -0.405308       -11.0290
 225   2.0000      -0.402721       -10.9586
 226   2.0000      -0.402154       -10.9432
 227   2.0000      -0.401791       -10.9333
 228   2.0000      -0.401130       -10.9153
 229   2.0000      -0.398976       -10.8567
 230   2.0000      -0.393260       -10.7011
 231   2.0000      -0.391077       -10.6417
 232   2.0000      -0.388419       -10.5694
 233   2.0000      -0.386110       -10.5066
 234   2.0000      -0.384844       -10.4721
 235   2.0000      -0.384022       -10.4498
 236   2.0000      -0.382307       -10.4031
 237   2.0000      -0.379314       -10.3217
 238   2.0000      -0.379271       -10.3205
 239   2.0000      -0.377480       -10.2717
 240   2.0000      -0.375606       -10.2207
 241   2.0000      -0.372484       -10.1358
 242   2.0000      -0.368924       -10.0389
 243   2.0000      -0.368129       -10.0173
 244   2.0000      -0.367389        -9.9972
 245   2.0000      -0.367199        -9.9920
 246   2.0000      -0.365437        -9.9441
 247   2.0000      -0.364892        -9.9292
 248   2.0000      -0.362498        -9.8641
 249   2.0000      -0.362108        -9.8535
 250   2.0000      -0.361773        -9.8443
 251   2.0000      -0.360372        -9.8062
 252   2.0000      -0.354621        -9.6497
 253   2.0000      -0.352405        -9.5894
 254   2.0000      -0.351125        -9.5546
 255   2.0000      -0.348413        -9.4808
 256   2.0000      -0.345498        -9.4015
 257   2.0000      -0.345127        -9.3914
 258   2.0000      -0.344212        -9.3665
 259   2.0000      -0.342206        -9.3119
 260   2.0000      -0.341235        -9.2855
 261   2.0000      -0.335982        -9.1425
 262   2.0000      -0.333413        -9.0726
 263   2.0000      -0.329968        -8.9789
 264   2.0000      -0.323188        -8.7944
 265   2.0000      -0.322951        -8.7879
 266   2.0000      -0.317105        -8.6289
 267   2.0000      -0.308176        -8.3859
 268   2.0000      -0.305598        -8.3157
 269   2.0000      -0.295344        -8.0367
 270   2.0000      -0.287885        -7.8337
 271   2.0000      -0.284849        -7.7511
 272   2.0000      -0.282430        -7.6853
 273   2.0000      -0.279361        -7.6018
 274   2.0000      -0.277503        -7.5512
 275   2.0000      -0.266049        -7.2396
 276   2.0000      -0.263771        -7.1776
 277   2.0000      -0.262590        -7.1455
 278   2.0000      -0.257825        -7.0158
 279   2.0000      -0.243045        -6.6136
 280   2.0000      -0.235509        -6.4085
 281   2.0000      -0.229148        -6.2354
 282   2.0000      -0.205291        -5.5863
 283   0.0000      -0.134379        -3.6566
 284   0.0000      -0.124111        -3.3772
 285   0.0000      -0.111235        -3.0269
 286   0.0000      -0.108277        -2.9464
 287   0.0000      -0.073015        -1.9868

MULLIKEN ATOMIC CHARGES
-----------------------
   0 C :    0.193433
   1 O :   -0.345088
   2 C :    0.129401
   3 C :   -0.333710
   4 C :    0.174151
   5 Cl:   -0.059993
   6 C :    0.113382
   7 Cl:   -0.047132
   8 C :   -0.263713
   9 C :    0.099570
  10 C :   -0.020167
  11 C :    0.151709
  12 C :   -0.200628
  13 N :    0.019998
  14 C :   -0.228706
  15 N :    0.044373
  16 C :   -0.051635
  17 C :   -0.140287
  18 C :    0.068338
  19 S :    0.023215
  20 C :   -0.238914
  21 C :    0.052903
  22 C :    0.015296
  23 C :   -0.222247
  24 C :   -0.320204
  25 S :    0.016150
  26 C :   -0.161488
  27 C :    0.369134
  28 N :   -0.103473
  29 C :   -0.126853
  30 C :   -0.347233
  31 C :    0.046971
  32 C :    0.033961
  33 C :    0.029704
  34 N :   -0.245307
  35 N :    0.288990
  36 C :   -0.089562
  37 C :   -0.346639
  38 N :   -0.239938
  39 C :    0.026648
  40 C :    0.043050
  41 C :   -0.002551
  42 N :   -0.041847
  43 C :   -0.224477
  44 C :   -0.336132
  45 C :    0.384034
  46 C :   -0.165214
  47 S :    0.017946
  48 C :    0.030440
  49 C :   -0.215838
  50 S :   -0.027935
  51 C :    0.121207
  52 C :    0.042243
  53 C :   -0.233605
  54 C :   -0.346563
  55 C :   -0.208657
  56 C :   -0.119561
  57 C :    0.057431
  58 C :    0.147638
  59 C :   -0.227521
  60 N :    0.041555
  61 C :   -0.232611
  62 N :    0.050398
  63 C :    0.069323
  64 C :   -0.261543
  65 C :    0.112685
  66 Cl:   -0.048329
  67 C :    0.173887
  68 Cl:   -0.059203
  69 C :   -0.318421
  70 C :    0.144775
  71 C :    0.174722
  72 O :   -0.332559
  73 H :    0.133476
  74 H :    0.159347
  75 H :    0.139992
  76 H :    0.133164
  77 H :    0.106502
  78 H :    0.117210
  79 H :    0.122900
  80 H :    0.113506
  81 H :    0.110616
  82 H :    0.137432
  83 H :    0.127528
  84 H :    0.125591
  85 H :    0.133080
  86 H :    0.123395
  87 H :    0.126997
  88 H :    0.125576
  89 H :    0.113421
  90 H :    0.122999
  91 H :    0.137439
  92 H :    0.156408
  93 H :    0.134908
  94 H :    0.124178
  95 H :    0.130699
  96 H :    0.091386
  97 H :    0.166772
  98 H :    0.113348
  99 H :    0.115406
 100 H :    0.127701
 101 H :    0.159515
 102 H :    0.159883
 103 H :    0.136446
Sum of atomic charges:   -0.0000000

LOEWDIN ATOMIC CHARGES
----------------------
   0 C :   -0.257219
   1 O :    0.113823
   2 C :   -0.057298
   3 C :   -0.075283
   4 C :   -0.432102
   5 Cl:    0.446033
   6 C :   -0.428620
   7 Cl:    0.451668
   8 C :   -0.076201
   9 C :   -0.042049
  10 C :    0.009504
  11 C :   -0.137188
  12 C :   -0.167964
  13 N :    0.076510
  14 C :   -0.165677
  15 N :    0.082427
  16 C :   -0.092814
  17 C :   -0.054346
  18 C :   -0.298091
  19 S :    0.781451
  20 C :   -0.336797
  21 C :   -0.323381
  22 C :   -0.129005
  23 C :   -0.230469
  24 C :   -0.282325
  25 S :    0.744323
  26 C :   -0.289610
  27 C :   -0.187355
  28 N :    0.289391
  29 C :   -0.262499
  30 C :   -0.292315
  31 C :   -0.091816
  32 C :   -0.086518
  33 C :   -0.203873
  34 N :    0.088438
  35 N :    0.132946
  36 C :   -0.267762
  37 C :   -0.292582
  38 N :    0.087574
  39 C :   -0.204359
  40 C :   -0.088132
  41 C :   -0.091795
  42 N :    0.292845
  43 C :   -0.266693
  44 C :   -0.298685
  45 C :   -0.184499
  46 C :   -0.290260
  47 S :    0.755721
  48 C :   -0.319321
  49 C :   -0.340433
  50 S :    0.756475
  51 C :   -0.289509
  52 C :   -0.120269
  53 C :   -0.232345
  54 C :   -0.283281
  55 C :   -0.070742
  56 C :   -0.095558
  57 C :    0.006829
  58 C :   -0.134894
  59 C :   -0.163677
  60 N :    0.084086
  61 C :   -0.169424
  62 N :    0.082226
  63 C :   -0.043828
  64 C :   -0.076378
  65 C :   -0.428736
  66 Cl:    0.450747
  67 C :   -0.431594
  68 Cl:    0.446791
  69 C :   -0.074816
  70 C :   -0.057616
  71 C :   -0.260985
  72 O :    0.132341
  73 H :    0.158781
  74 H :    0.165049
  75 H :    0.178227
  76 H :    0.147910
  77 H :    0.143359
  78 H :    0.120685
  79 H :    0.124036
  80 H :    0.119498
  81 H :    0.133166
  82 H :    0.141159
  83 H :    0.122121
  84 H :    0.125236
  85 H :    0.126452
  86 H :    0.141821
  87 H :    0.142447
  88 H :    0.123236
  89 H :    0.122949
  90 H :    0.122848
  91 H :    0.142990
  92 H :    0.138239
  93 H :    0.117081
  94 H :    0.126712
  95 H :    0.121724
  96 H :    0.138940
  97 H :    0.159876
  98 H :    0.122078
  99 H :    0.121175
 100 H :    0.123300
 101 H :    0.171423
 102 H :    0.164804
 103 H :    0.159517

  Mayer bond orders larger than 0.100000
B(  0-C ,  1-O ) :   2.0222 B(  0-C ,  2-C ) :   1.0431 B(  0-C , 16-C ) :   1.0182
B(  1-O ,  2-C ) :  -0.1663 B(  2-C ,  3-C ) :   1.3819 B(  2-C ,  9-C ) :   1.3402
B(  3-C ,  4-C ) :   1.3404 B(  3-C ,  5-Cl) :   0.1039 B(  3-C , 73-H ) :   0.9889
B(  4-C ,  5-Cl) :   1.0394 B(  4-C ,  6-C ) :   1.2649 B(  6-C ,  7-Cl) :   1.1051
B(  6-C ,  8-C ) :   1.3686 B(  8-C ,  9-C ) :   1.4290 B(  8-C , 74-H ) :   0.9203
B(  9-C , 10-C ) :   1.0491 B( 10-C , 11-C ) :   1.4536 B( 10-C , 16-C ) :   1.1707
B( 11-C , 12-C ) :   1.0646 B( 11-C , 14-C ) :   1.0262 B( 12-C , 13-N ) :   2.9151
B( 14-C , 15-N ) :   2.9842 B( 16-C , 17-C ) :   1.4097 B( 17-C , 18-C ) :   1.2982
B( 17-C , 75-H ) :   0.8532 B( 18-C , 19-S ) :   1.2920 B( 18-C , 22-C ) :   1.2796
B( 19-S , 20-C ) :   1.4154 B( 19-S , 27-C ) :  -0.1421 B( 20-C , 21-C ) :   1.3007
B( 20-C , 25-S ) :   0.1169 B( 20-C , 27-C ) :   1.0650 B( 21-C , 22-C ) :   1.3604
B( 21-C , 25-S ) :   1.1984 B( 21-C , 27-C ) :  -0.1050 B( 22-C , 23-C ) :   0.9571
B( 23-C , 24-C ) :   0.9623 B( 23-C , 76-H ) :   0.9531 B( 23-C , 77-H ) :   0.9717
B( 24-C , 78-H ) :   0.9736 B( 24-C , 79-H ) :   0.9732 B( 24-C , 80-H ) :   0.9710
B( 25-S , 26-C ) :   1.3559 B( 26-C , 27-C ) :   1.2533 B( 26-C , 32-C ) :   1.1686
B( 27-C , 28-N ) :   1.1447 B( 28-N , 29-C ) :   0.9022 B( 28-N , 31-C ) :   1.1725
B( 29-C , 30-C ) :   0.9554 B( 29-C , 81-H ) :   0.9588 B( 29-C , 82-H ) :   0.9597
B( 30-C , 83-H ) :   0.9714 B( 30-C , 84-H ) :   0.9701 B( 30-C , 85-H ) :   0.9684
B( 31-C , 32-C ) :   1.2581 B( 31-C , 41-C ) :   1.3219 B( 32-C , 33-C ) :   1.1721
B( 33-C , 34-N ) :   1.5042 B( 33-C , 39-C ) :   1.2283 B( 34-N , 35-N ) :   1.1663
B( 34-N , 38-N ) :   0.1124 B( 35-N , 36-C ) :   0.8950 B( 35-N , 38-N ) :   1.1679
B( 36-C , 37-C ) :   0.9586 B( 36-C , 86-H ) :   0.9605 B( 36-C , 87-H ) :   0.9606
B( 37-C , 88-H ) :   0.9717 B( 37-C , 89-H ) :   0.9687 B( 37-C , 90-H ) :   0.9716
B( 38-N , 39-C ) :   1.5087 B( 39-C , 40-C ) :   1.1791 B( 40-C , 41-C ) :   1.2179
B( 40-C , 46-C ) :   1.1610 B( 41-C , 42-N ) :   1.2140 B( 42-N , 43-C ) :   0.8623
B( 42-N , 45-C ) :   1.1411 B( 43-C , 44-C ) :   0.9345 B( 43-C , 91-H ) :   0.9597
B( 43-C , 92-H ) :   0.9745 B( 44-C , 93-H ) :   0.9605 B( 44-C , 94-H ) :   0.9704
B( 44-C , 95-H ) :   0.9776 B( 45-C , 46-C ) :   1.2502 B( 45-C , 49-C ) :   1.0583
B( 45-C , 50-S ) :  -0.1681 B( 46-C , 47-S ) :   1.3656 B( 47-S , 48-C ) :   1.1992
B( 47-S , 49-C ) :   0.1219 B( 48-C , 49-C ) :   1.3489 B( 48-C , 52-C ) :   1.2514
B( 49-C , 50-S ) :   1.3612 B( 50-S , 51-C ) :   1.1872 B( 51-C , 52-C ) :   1.3615
B( 51-C , 55-C ) :   1.2710 B( 52-C , 53-C ) :   0.9512 B( 53-C , 54-C ) :   0.9471
B( 53-C , 96-H ) :   0.9628 B( 53-C , 97-H ) :   0.9465 B( 54-C , 98-H ) :   0.9716
B( 54-C , 99-H ) :   0.9767 B( 54-C ,100-H ) :   0.9758 B( 55-C , 56-C ) :   1.4229
B( 55-C ,101-H ) :   0.9140 B( 56-C , 57-C ) :   1.1144 B( 56-C , 71-C ) :   1.0342
B( 57-C , 58-C ) :   1.4637 B( 57-C , 63-C ) :   1.0485 B( 58-C , 59-C ) :   1.0309
B( 58-C , 61-C ) :   1.0283 B( 59-C , 60-N ) :   2.9821 B( 61-C , 62-N ) :   3.0047
B( 63-C , 64-C ) :   1.4199 B( 63-C , 70-C ) :   1.3419 B( 64-C , 65-C ) :   1.3767
B( 64-C ,102-H ) :   0.9185 B( 65-C , 66-Cl) :   1.1013 B( 65-C , 67-C ) :   1.2658
B( 67-C , 68-Cl) :   1.0409 B( 67-C , 69-C ) :   1.3375 B( 68-Cl, 69-C ) :   0.1016
B( 69-C , 70-C ) :   1.3784 B( 69-C ,103-H ) :   0.9860 B( 70-C , 71-C ) :   0.9551
B( 70-C , 72-O ) :  -0.1735 B( 71-C , 72-O ) :   2.0822

-----------------------------------------------------------------------------
         ABSORPTION SPECTRUM VIA TRANSITION ELECTRIC DIPOLE MOMENTS
-----------------------------------------------------------------------------
State   Energy    Wavelength  fosc         T2        TX        TY        TZ
        (cm-1)      (nm)                 (au**2)    (au)      (au)      (au)
-----------------------------------------------------------------------------
   1   14686.3    680.9   2.790377490  62.54984   5.31485  -5.85599   0.09793
   2   16681.2    599.5   0.109923229   2.16939  -0.24961  -1.35327   0.52512
   3   18174.1    550.2   0.126306205   2.28795   1.15433  -0.97594   0.05492
   4   18289.6    546.8   0.280175657   5.04315   0.89530  -2.00075   0.48847
   5   18992.3    526.5   0.018055318   0.31297  -0.55487  -0.05792   0.04164
   6   19938.5    501.5   0.084862389   1.40120   0.83479  -0.83453  -0.08880
   7   21338.7    468.6   0.006224687   0.09603  -0.25547   0.10765   0.13849
   8   22066.5    453.2   0.457679985   6.82815  -2.12189  -1.17232   0.97540
   9   22586.4    442.7   0.145890464   2.12645   0.45652  -1.36534   0.23212
  10   23061.4    433.6   0.018087067   0.25820  -0.44179  -0.13582   0.21113
  11   23521.8    425.1   0.073519777   1.02898   0.00148   0.96366  -0.31676
  12   23885.8    418.7   0.034173481   0.47101  -0.09529  -0.64936   0.20064
  13   24350.7    410.7   0.027364630   0.36996   0.48123   0.25153  -0.27406
  14   24974.2    400.4   0.085369438   1.12535  -0.24887   1.02814  -0.07965
  15   25138.7    397.8   0.005355256   0.07013  -0.06869  -0.12604   0.22254
  16   25653.2    389.8   0.037366806   0.47953  -0.31144   0.56815  -0.24443
  17   26077.9    383.5   0.018831921   0.23774  -0.16667   0.17603  -0.42305
  18   26142.9    382.5   0.009534900   0.12007   0.30088   0.02845  -0.16951
  19   26218.7    381.4   0.044537676   0.55923  -0.67548   0.20129   0.24988
  20   26464.6    377.9   0.284262799   3.53614   1.33881  -1.29795   0.24300
  21   26591.5    376.1   0.155881804   1.92987   1.04864   0.70916  -0.57211
  22   26880.1    372.0   0.018858749   0.23097  -0.30293  -0.33762   0.15880
  23   27082.0    369.2   0.001179332   0.01434  -0.02848  -0.11625   0.00329
  24   27313.0    366.1   0.023203268   0.27968   0.45282   0.07877  -0.26158
  25   27562.5    362.8   0.002166487   0.02588  -0.01958  -0.03228   0.15637
  26   27965.2    357.6   0.006219352   0.07322  -0.05254   0.22773  -0.13636
  27   28575.4    350.0   0.010434588   0.12021  -0.22701   0.03930   0.25911
  28   28744.0    347.9   0.020705510   0.23715   0.17409   0.38310  -0.24509
  29   28950.2    345.4   0.005713600   0.06497  -0.23742   0.07977  -0.04735
  30   29525.3    338.7   0.028269505   0.31521   0.40972  -0.38097   0.04691
  31   29847.5    335.0   0.022049347   0.24320  -0.48565   0.03454   0.07844
  32   30042.1    332.9   0.002624521   0.02876  -0.09011  -0.14200  -0.02182
  33   30332.0    329.7   0.021495022   0.23330  -0.45140  -0.14216   0.09658
  34   30708.0    325.6   0.017501543   0.18763  -0.29697   0.11417   0.29395
  35   30818.4    324.5   0.068185197   0.72838   0.56205   0.52604  -0.36844
  36   30866.0    324.0   0.005278055   0.05629  -0.17430  -0.08166   0.13873
  37   31049.1    322.1   0.000199966   0.00212  -0.00252   0.01676   0.04281
  38   31245.1    320.1   0.005919081   0.06237   0.12087  -0.00734  -0.21841
  39   31476.8    317.7   0.183519668   1.91941  -0.97667   0.90417  -0.38471
  40   31635.7    316.1   0.054934157   0.57166   0.30523   0.35191   0.59553
  41   31723.5    315.2   0.341017249   3.53892   1.47561   0.28399  -1.13175
  42   31823.5    314.2   0.175496048   1.81550   0.00513  -1.03686   0.86046
  43   31961.5    312.9   0.154565085   1.59206   0.99684   0.43267  -0.64122
  44   32263.5    309.9   0.360523880   3.67873  -0.50920  -1.17076   1.43135
  45   32442.9    308.2   0.059478439   0.60355   0.43939   0.36690  -0.52524
  46   32589.7    306.8   0.011331099   0.11446   0.18851  -0.19837   0.19894
  47   32782.0    305.0   0.030295332   0.30424   0.50688  -0.19578   0.09477
  48   33138.6    301.8   0.054238594   0.53883   0.28697  -0.62521   0.25610
  49   33709.5    296.7   0.023751112   0.23196   0.06734   0.41201  -0.24015
  50   33888.6    295.1   0.020691996   0.20101  -0.44128   0.06404  -0.04676

FINAL SINGLE POINT ENERGY     -6152.088590078831

DIPOLE MOMENT
-------------
                                X             Y             Z
Electronic contribution:     60.07653      31.49316      -5.01264
Nuclear contribution   :    -61.08890     -33.52340       6.13875
                        -----------------------------------------
Total Dipole Moment    :     -1.01237      -2.03023       1.12611
                        -----------------------------------------
Magnitude (a.u.)       :      2.53276
Magnitude (Debye)      :      6.43776

Rotational constants in cm-1:     0.001351     0.000217     0.000191
Rotational constants in MHz :    40.508492     6.514082     5.725185

                             ****ORCA TERMINATED NORMALLY****
TOTAL RUN TIME: 0 days 5 hours 25 minutes 45 seconds 764 msec
