                         Program Version 4.2.0 -  RELEASE  -
|  1> # ORCA input file
|  2> # ../Y16.out
|  3> ! B3LYP def2-TZVP def2/J RIJCOSX Grid4 TightSCF
|  4> %maxcore 1000
|  5> %tddft
|  6>   maxdim 5
|  7>   nroots 50
|  8>   end
|  9> * xyz 0 1
| 10>    C       -0.53189        -0.50916        -0.80644
| 11>    O       -0.75401         0.52403        -1.39625
| 12>    C        0.76986        -1.17339        -0.58637
| 13>    C        2.02025        -0.81278        -1.04912
| 14>    C        3.10014        -1.62039        -0.71972
| 15>    C        2.92051        -2.76078         0.05026
| 16>    C        1.66699        -3.12449         0.52495
| 17>    C        0.58445        -2.32188         0.20626
| 18>    C       -0.82423        -2.40427         0.58647
| 19>    C       -1.31657        -3.06851         1.67958
| 20>    C       -2.61238        -2.84307         2.18933
| 21>    N       -3.63972        -2.63542         2.65759
| 22>    C       -0.56494        -3.96708         2.46099
| 23>    N       -0.00508        -4.72887         3.11210
| 24>    C       -1.53679        -1.42138        -0.19807
| 25>    C       -2.85410        -1.27992        -0.51414
| 26>    C       -3.90069        -2.22407        -0.43756
| 27>    S       -3.57441        -3.95792        -0.38263
| 28>    C       -5.26122        -4.30503        -0.44385
| 29>    C       -6.01792        -3.12708        -0.50996
| 30>    C       -5.26127        -1.95229        -0.51451
| 31>    C       -5.86697        -0.59015        -0.59852
| 32>    C       -6.11658        -0.20277        -2.05871
| 33>    S       -7.74031        -3.41492        -0.58488
| 34>    C       -7.43177        -5.11500        -0.52544
| 35>    C       -6.07258        -5.44226        -0.43919
| 36>    N       -5.91420        -6.80131        -0.37842
| 37>    C       -4.63732        -7.34631        -0.78965
| 38>    C       -4.58508        -7.52456        -2.30587
| 39>    C       -7.18184        -7.37117        -0.44003
| 40>    C       -8.13941        -6.32179        -0.56152
| 41>    C       -9.50684        -6.60050        -0.76817
| 42>    N      -10.57034        -5.81781        -0.95279
| 43>    N      -11.55258        -6.65920        -1.16171
| 44>    C      -12.89950        -6.20928        -1.36273
| 45>    C      -13.54333        -5.83759        -0.03033
| 46>    N      -11.24917        -7.93243        -1.13185
| 47>    C       -9.93825        -7.94717        -0.88291
| 48>    C       -9.01790        -8.99023        -0.65654
| 49>    C       -7.64425        -8.71237        -0.35497
| 50>    N       -7.03959        -9.89594         0.00223
| 51>    C       -5.76864       -10.13206         0.64701
| 52>    C       -4.75328       -10.76604        -0.30291
| 53>    C       -7.96556       -10.90238        -0.10450
| 54>    C       -9.18202       -10.36817        -0.52322
| 55>    S      -10.43006       -11.56369        -0.67089
| 56>    C       -9.31317       -12.78896        -0.12545
| 57>    C       -8.01636       -12.28767         0.18728
| 58>    S       -6.81203       -13.26510         0.83079
| 59>    C      -10.65934       -14.07658         0.96991
| 60>    C       -9.73248       -14.17349         0.05341
| 61>    C       -9.09827       -15.36038        -0.58187
| 62>    C       -8.72965       -16.42296         0.44900
| 63>    C      -11.45274       -13.63092         1.94423
| 64>    C      -12.83108       -13.40128         1.91609
| 65>    C      -13.79647       -13.61599         0.89176
| 66>    C      -13.68759       -14.46632        -0.18665
| 67>    C      -14.64929       -14.56937        -1.20931
| 68>    N      -15.38395       -14.68027        -2.08561
| 69>    C      -12.67120       -15.42442        -0.34718
| 70>    N      -11.95341       -16.30442        -0.52792
| 71>    C      -14.99027       -12.84143         1.25382
| 72>    C      -16.17904       -12.62400         0.58100
| 73>    C      -17.16084       -11.85870         1.20139
| 74>    C      -16.96956       -11.32107         2.46442
| 75>    C      -15.77676       -11.52928         3.14583
| 76>    C      -14.79920       -12.28554         2.53259
| 77>    C      -13.45035       -12.64328         3.02083
| 78>    O      -12.93070       -12.34824         4.07716
| 79>    H        2.14042         0.07716        -1.64754
| 80>    H        4.08922        -1.36068        -1.06581
| 81>    H        3.77205        -3.38017         0.28898
| 82>    H        1.54857        -4.01759         1.11760
| 83>    H       -3.10947        -0.33379        -0.98140
| 84>    H       -5.21623         0.14350        -0.12315
| 85>    H       -6.81905        -0.60312        -0.06420
| 86>    H       -5.18268        -0.17884        -2.61583
| 87>    H       -6.57474         0.78121        -2.10794
| 88>    H       -6.78362        -0.92003        -2.53120
| 89>    H       -4.43200        -8.28926        -0.29632
| 90>    H       -3.87418        -6.62949        -0.47503
| 91>    H       -3.61878        -7.92592        -2.59824
| 92>    H       -4.73001        -6.56961        -2.80596
| 93>    H       -5.36592        -8.20676        -2.63678
| 94>    H      -13.44146        -7.02605        -1.84219
| 95>    H      -12.86844        -5.33904        -2.02216
| 96>    H      -13.57411        -6.70272         0.62774
| 97>    H      -14.55776        -5.48638        -0.19508
| 98>    H      -12.97056        -5.04871         0.45085
| 99>    H       -5.94698       -10.83165         1.47080
|100>    H       -5.41725        -9.19554         1.08200
|101>    H       -4.69783       -10.23295        -1.24831
|102>    H       -5.04280       -11.79326        -0.50922
|103>    H       -3.77066       -10.77828         0.16042
|104>    H       -8.21648       -15.04061        -1.13872
|105>    H       -9.82548       -15.78613        -1.28046
|106>    H       -8.02164       -16.02225         1.17055
|107>    H       -8.27668       -17.27697        -0.04669
|108>    H       -9.62160       -16.75581         0.97257
|109>    H      -10.98931       -13.38592         2.89979
|110>    H      -16.35362       -13.02832        -0.40282
|111>    H      -18.09238       -11.68401         0.68404
|112>    H      -17.75345       -10.73578         2.92120
|113>    H      -15.60789       -11.11873         4.12953
|114> *
|115>
|116>                          ****END OF INPUT****

CARTESIAN COORDINATES (ANGSTROEM)
---------------------------------
  C     -0.531890   -0.509160   -0.806440
  O     -0.754010    0.524030   -1.396250
  C      0.769860   -1.173390   -0.586370
  C      2.020250   -0.812780   -1.049120
  C      3.100140   -1.620390   -0.719720
  C      2.920510   -2.760780    0.050260
  C      1.666990   -3.124490    0.524950
  C      0.584450   -2.321880    0.206260
  C     -0.824230   -2.404270    0.586470
  C     -1.316570   -3.068510    1.679580
  C     -2.612380   -2.843070    2.189330
  N     -3.639720   -2.635420    2.657590
  C     -0.564940   -3.967080    2.460990
  N     -0.005080   -4.728870    3.112100
  C     -1.536790   -1.421380   -0.198070
  C     -2.854100   -1.279920   -0.514140
  C     -3.900690   -2.224070   -0.437560
  S     -3.574410   -3.957920   -0.382630
  C     -5.261220   -4.305030   -0.443850
  C     -6.017920   -3.127080   -0.509960
  C     -5.261270   -1.952290   -0.514510
  C     -5.866970   -0.590150   -0.598520
  C     -6.116580   -0.202770   -2.058710
  S     -7.740310   -3.414920   -0.584880
  C     -7.431770   -5.115000   -0.525440
  C     -6.072580   -5.442260   -0.439190
  N     -5.914200   -6.801310   -0.378420
  C     -4.637320   -7.346310   -0.789650
  C     -4.585080   -7.524560   -2.305870
  C     -7.181840   -7.371170   -0.440030
  C     -8.139410   -6.321790   -0.561520
  C     -9.506840   -6.600500   -0.768170
  N    -10.570340   -5.817810   -0.952790
  N    -11.552580   -6.659200   -1.161710
  C    -12.899500   -6.209280   -1.362730
  C    -13.543330   -5.837590   -0.030330
  N    -11.249170   -7.932430   -1.131850
  C     -9.938250   -7.947170   -0.882910
  C     -9.017900   -8.990230   -0.656540
  C     -7.644250   -8.712370   -0.354970
  N     -7.039590   -9.895940    0.002230
  C     -5.768640  -10.132060    0.647010
  C     -4.753280  -10.766040   -0.302910
  C     -7.965560  -10.902380   -0.104500
  C     -9.182020  -10.368170   -0.523220
  S    -10.430060  -11.563690   -0.670890
  C     -9.313170  -12.788960   -0.125450
  C     -8.016360  -12.287670    0.187280
  S     -6.812030  -13.265100    0.830790
  C    -10.659340  -14.076580    0.969910
  C     -9.732480  -14.173490    0.053410
  C     -9.098270  -15.360380   -0.581870
  C     -8.729650  -16.422960    0.449000
  C    -11.452740  -13.630920    1.944230
  C    -12.831080  -13.401280    1.916090
  C    -13.796470  -13.615990    0.891760
  C    -13.687590  -14.466320   -0.186650
  C    -14.649290  -14.569370   -1.209310
  N    -15.383950  -14.680270   -2.085610
  C    -12.671200  -15.424420   -0.347180
  N    -11.953410  -16.304420   -0.527920
  C    -14.990270  -12.841430    1.253820
  C    -16.179040  -12.624000    0.581000
  C    -17.160840  -11.858700    1.201390
  C    -16.969560  -11.321070    2.464420
  C    -15.776760  -11.529280    3.145830
  C    -14.799200  -12.285540    2.532590
  C    -13.450350  -12.643280    3.020830
  O    -12.930700  -12.348240    4.077160
  H      2.140420    0.077160   -1.647540
  H      4.089220   -1.360680   -1.065810
  H      3.772050   -3.380170    0.288980
  H      1.548570   -4.017590    1.117600
  H     -3.109470   -0.333790   -0.981400
  H     -5.216230    0.143500   -0.123150
  H     -6.819050   -0.603120   -0.064200
  H     -5.182680   -0.178840   -2.615830
  H     -6.574740    0.781210   -2.107940
  H     -6.783620   -0.920030   -2.531200
  H     -4.432000   -8.289260   -0.296320
  H     -3.874180   -6.629490   -0.475030
  H     -3.618780   -7.925920   -2.598240
  H     -4.730010   -6.569610   -2.805960
  H     -5.365920   -8.206760   -2.636780
  H    -13.441460   -7.026050   -1.842190
  H    -12.868440   -5.339040   -2.022160
  H    -13.574110   -6.702720    0.627740
  H    -14.557760   -5.486380   -0.195080
  H    -12.970560   -5.048710    0.450850
  H     -5.946980  -10.831650    1.470800
  H     -5.417250   -9.195540    1.082000
  H     -4.697830  -10.232950   -1.248310
  H     -5.042800  -11.793260   -0.509220
  H     -3.770660  -10.778280    0.160420
  H     -8.216480  -15.040610   -1.138720
  H     -9.825480  -15.786130   -1.280460
  H     -8.021640  -16.022250    1.170550
  H     -8.276680  -17.276970   -0.046690
  H     -9.621600  -16.755810    0.972570
  H    -10.989310  -13.385920    2.899790
  H    -16.353620  -13.028320   -0.402820
  H    -18.092380  -11.684010    0.684040
  H    -17.753450  -10.735780    2.921200
  H    -15.607890  -11.118730    4.129530

 Total Charge           Charge          ....    0
 Multiplicity           Mult            ....    1
 Number of Electrons    NEL             ....  502
 Basis Dimension        Dim             .... 2373

ORBITAL ENERGIES
----------------

  NO   OCC          E(Eh)            E(eV)
   0   2.0000     -88.910289     -2419.3720
   1   2.0000     -88.910104     -2419.3669
   2   2.0000     -88.910068     -2419.3660
   3   2.0000     -88.831925     -2417.2396
   4   2.0000     -19.129024      -520.5272
   5   2.0000     -19.123435      -520.3751
   6   2.0000     -14.449896      -393.2017
   7   2.0000     -14.403117      -391.9287
   8   2.0000     -14.402898      -391.9228
   9   2.0000     -14.365012      -390.8918
  10   2.0000     -14.364430      -390.8760
  11   2.0000     -14.327670      -389.8757
  12   2.0000     -14.324741      -389.7960
  13   2.0000     -14.320054      -389.6685
  14   2.0000     -14.319511      -389.6537
  15   2.0000     -10.273842      -279.5655
  16   2.0000     -10.266044      -279.3533
  17   2.0000     -10.265970      -279.3512
  18   2.0000     -10.261533      -279.2305
  19   2.0000     -10.257977      -279.1337
  20   2.0000     -10.254638      -279.0429
  21   2.0000     -10.251483      -278.9570
  22   2.0000     -10.247181      -278.8400
  23   2.0000     -10.247178      -278.8399
  24   2.0000     -10.245904      -278.8052
  25   2.0000     -10.245542      -278.7954
  26   2.0000     -10.242585      -278.7149
  27   2.0000     -10.241640      -278.6892
  28   2.0000     -10.235861      -278.5319
  29   2.0000     -10.235066      -278.5103
  30   2.0000     -10.235010      -278.5088
  31   2.0000     -10.234081      -278.4835
  32   2.0000     -10.231591      -278.4157
  33   2.0000     -10.229283      -278.3529
  34   2.0000     -10.228962      -278.3442
  35   2.0000     -10.228110      -278.3210
  36   2.0000     -10.227078      -278.2929
  37   2.0000     -10.226469      -278.2764
  38   2.0000     -10.225770      -278.2574
  39   2.0000     -10.225051      -278.2378
  40   2.0000     -10.224247      -278.2159
  41   2.0000     -10.223536      -278.1965
  42   2.0000     -10.222877      -278.1786
  43   2.0000     -10.221251      -278.1344
  44   2.0000     -10.220877      -278.1242
  45   2.0000     -10.220520      -278.1145
  46   2.0000     -10.219239      -278.0796
  47   2.0000     -10.218356      -278.0556
  48   2.0000     -10.218288      -278.0538
  49   2.0000     -10.212871      -277.9063
  50   2.0000     -10.210508      -277.8420
  51   2.0000     -10.209819      -277.8233
  52   2.0000     -10.207201      -277.7521
  53   2.0000     -10.206932      -277.7447
  54   2.0000     -10.206400      -277.7303
  55   2.0000     -10.206249      -277.7262
  56   2.0000     -10.205608      -277.7087
  57   2.0000     -10.200365      -277.5660
  58   2.0000     -10.199275      -277.5364
  59   2.0000     -10.199011      -277.5292
  60   2.0000     -10.198654      -277.5195
  61   2.0000     -10.197987      -277.5013
  62   2.0000     -10.197457      -277.4869
  63   2.0000     -10.192785      -277.3598
  64   2.0000     -10.183294      -277.1015
  65   2.0000     -10.180891      -277.0361
  66   2.0000     -10.179705      -277.0039
  67   2.0000     -10.175379      -276.8861
  68   2.0000     -10.148938      -276.1666
  69   2.0000      -7.986776      -217.3312
  70   2.0000      -7.986174      -217.3148
  71   2.0000      -7.985716      -217.3024
  72   2.0000      -7.909852      -215.2380
  73   2.0000      -5.949496      -161.8940
  74   2.0000      -5.949159      -161.8849
  75   2.0000      -5.948648      -161.8709
  76   2.0000      -5.945708      -161.7909
  77   2.0000      -5.945209      -161.7774
  78   2.0000      -5.944943      -161.7701
  79   2.0000      -5.942855      -161.7133
  80   2.0000      -5.941958      -161.6889
  81   2.0000      -5.941501      -161.6765
  82   2.0000      -5.872003      -159.7853
  83   2.0000      -5.870681      -159.7494
  84   2.0000      -5.864224      -159.5736
  85   2.0000      -1.141127       -31.0516
  86   2.0000      -1.059003       -28.8169
  87   2.0000      -1.051416       -28.6105
  88   2.0000      -1.041733       -28.3470
  89   2.0000      -1.030025       -28.0284
  90   2.0000      -0.943749       -25.6807
  91   2.0000      -0.936444       -25.4819
  92   2.0000      -0.936298       -25.4780
  93   2.0000      -0.922953       -25.1148
  94   2.0000      -0.922063       -25.0906
  95   2.0000      -0.920199       -25.0399
  96   2.0000      -0.918940       -25.0056
  97   2.0000      -0.916400       -24.9365
  98   2.0000      -0.911942       -24.8152
  99   2.0000      -0.907880       -24.7047
 100   2.0000      -0.883736       -24.0477
 101   2.0000      -0.870479       -23.6869
 102   2.0000      -0.869958       -23.6728
 103   2.0000      -0.862972       -23.4827
 104   2.0000      -0.856273       -23.3004
 105   2.0000      -0.838667       -22.8213
 106   2.0000      -0.825691       -22.4682
 107   2.0000      -0.824956       -22.4482
 108   2.0000      -0.818795       -22.2805
 109   2.0000      -0.806652       -21.9501
 110   2.0000      -0.802721       -21.8431
 111   2.0000      -0.799880       -21.7659
 112   2.0000      -0.795200       -21.6385
 113   2.0000      -0.785861       -21.3844
 114   2.0000      -0.781794       -21.2737
 115   2.0000      -0.777989       -21.1701
 116   2.0000      -0.770791       -20.9743
 117   2.0000      -0.761135       -20.7115
 118   2.0000      -0.755912       -20.5694
 119   2.0000      -0.747105       -20.3298
 120   2.0000      -0.734834       -19.9958
 121   2.0000      -0.729742       -19.8573
 122   2.0000      -0.717609       -19.5271
 123   2.0000      -0.703942       -19.1552
 124   2.0000      -0.702362       -19.1123
 125   2.0000      -0.692219       -18.8362
 126   2.0000      -0.688228       -18.7276
 127   2.0000      -0.686609       -18.6836
 128   2.0000      -0.674138       -18.3442
 129   2.0000      -0.660770       -17.9805
 130   2.0000      -0.654748       -17.8166
 131   2.0000      -0.651851       -17.7378
 132   2.0000      -0.645617       -17.5681
 133   2.0000      -0.640771       -17.4363
 134   2.0000      -0.633391       -17.2354
 135   2.0000      -0.631674       -17.1887
 136   2.0000      -0.625433       -17.0189
 137   2.0000      -0.618694       -16.8355
 138   2.0000      -0.610276       -16.6065
 139   2.0000      -0.607043       -16.5185
 140   2.0000      -0.600594       -16.3430
 141   2.0000      -0.596043       -16.2192
 142   2.0000      -0.586416       -15.9572
 143   2.0000      -0.581768       -15.8307
 144   2.0000      -0.577155       -15.7052
 145   2.0000      -0.567002       -15.4289
 146   2.0000      -0.563618       -15.3368
 147   2.0000      -0.556367       -15.1395
 148   2.0000      -0.552871       -15.0444
 149   2.0000      -0.541015       -14.7218
 150   2.0000      -0.539233       -14.6733
 151   2.0000      -0.538600       -14.6560
 152   2.0000      -0.532582       -14.4923
 153   2.0000      -0.522849       -14.2274
 154   2.0000      -0.517696       -14.0872
 155   2.0000      -0.511827       -13.9275
 156   2.0000      -0.509537       -13.8652
 157   2.0000      -0.506643       -13.7865
 158   2.0000      -0.501005       -13.6331
 159   2.0000      -0.499312       -13.5870
 160   2.0000      -0.498173       -13.5560
 161   2.0000      -0.490473       -13.3464
 162   2.0000      -0.486483       -13.2379
 163   2.0000      -0.481740       -13.1088
 164   2.0000      -0.481204       -13.0942
 165   2.0000      -0.478902       -13.0316
 166   2.0000      -0.475627       -12.9425
 167   2.0000      -0.474288       -12.9060
 168   2.0000      -0.469191       -12.7673
 169   2.0000      -0.465593       -12.6694
 170   2.0000      -0.464299       -12.6342
 171   2.0000      -0.463414       -12.6101
 172   2.0000      -0.461716       -12.5639
 173   2.0000      -0.460096       -12.5198
 174   2.0000      -0.459404       -12.5010
 175   2.0000      -0.456990       -12.4353
 176   2.0000      -0.454507       -12.3678
 177   2.0000      -0.451955       -12.2983
 178   2.0000      -0.451604       -12.2888
 179   2.0000      -0.450378       -12.2554
 180   2.0000      -0.445527       -12.1234
 181   2.0000      -0.441674       -12.0186
 182   2.0000      -0.438026       -11.9193
 183   2.0000      -0.436056       -11.8657
 184   2.0000      -0.431842       -11.7510
 185   2.0000      -0.430201       -11.7064
 186   2.0000      -0.427552       -11.6343
 187   2.0000      -0.426150       -11.5961
 188   2.0000      -0.422730       -11.5031
 189   2.0000      -0.418991       -11.4013
 190   2.0000      -0.417727       -11.3669
 191   2.0000      -0.415344       -11.3021
 192   2.0000      -0.414480       -11.2786
 193   2.0000      -0.406507       -11.0616
 194   2.0000      -0.405604       -11.0371
 195   2.0000      -0.402998       -10.9661
 196   2.0000      -0.402334       -10.9481
 197   2.0000      -0.397389       -10.8135
 198   2.0000      -0.395340       -10.7577
 199   2.0000      -0.393133       -10.6977
 200   2.0000      -0.390749       -10.6328
 201   2.0000      -0.390092       -10.6149
 202   2.0000      -0.389148       -10.5892
 203   2.0000      -0.388173       -10.5627
 204   2.0000      -0.385649       -10.4940
 205   2.0000      -0.384360       -10.4590
 206   2.0000      -0.383411       -10.4331
 207   2.0000      -0.383114       -10.4251
 208   2.0000      -0.381681       -10.3861
 209   2.0000      -0.378238       -10.2924
 210   2.0000      -0.378094       -10.2885
 211   2.0000      -0.376515       -10.2455
 212   2.0000      -0.376009       -10.2317
 213   2.0000      -0.372751       -10.1431
 214   2.0000      -0.372112       -10.1257
 215   2.0000      -0.370181       -10.0731
 216   2.0000      -0.369076       -10.0431
 217   2.0000      -0.364249        -9.9117
 218   2.0000      -0.362756        -9.8711
 219   2.0000      -0.360028        -9.7969
 220   2.0000      -0.359257        -9.7759
 221   2.0000      -0.358356        -9.7513
 222   2.0000      -0.355505        -9.6738
 223   2.0000      -0.354520        -9.6470
 224   2.0000      -0.348908        -9.4943
 225   2.0000      -0.345886        -9.4120
 226   2.0000      -0.344947        -9.3865
 227   2.0000      -0.344428        -9.3724
 228   2.0000      -0.340438        -9.2638
 229   2.0000      -0.339492        -9.2381
 230   2.0000      -0.336986        -9.1699
 231   2.0000      -0.332991        -9.0612
 232   2.0000      -0.318283        -8.6609
 233   2.0000      -0.315760        -8.5923
 234   2.0000      -0.311486        -8.4760
 235   2.0000      -0.306468        -8.3394
 236   2.0000      -0.294932        -8.0255
 237   2.0000      -0.290040        -7.8924
 238   2.0000      -0.284445        -7.7401
 239   2.0000      -0.282403        -7.6846
 240   2.0000      -0.276730        -7.5302
 241   2.0000      -0.274608        -7.4725
 242   2.0000      -0.268193        -7.2979
 243   2.0000      -0.264315        -7.1924
 244   2.0000      -0.258897        -7.0450
 245   2.0000      -0.253471        -6.8973
 246   2.0000      -0.245725        -6.6865
 247   2.0000      -0.233959        -6.3663
 248   2.0000      -0.230657        -6.2765
 249   2.0000      -0.210729        -5.7342
 250   2.0000      -0.208711        -5.6793
 251   0.0000      -0.161378        -4.3913
 252   0.0000      -0.128017        -3.4835
 253   0.0000      -0.103656        -2.8206
 254   0.0000      -0.101726        -2.7681
 255   0.0000      -0.074499        -2.0272

MULLIKEN ATOMIC CHARGES
-----------------------
   0 C :    0.211025
   1 O :   -0.290917
   2 C :   -0.020892
   3 C :   -0.208684
   4 C :   -0.067239
   5 C :   -0.103179
   6 C :   -0.177238
   7 C :    0.126445
   8 C :   -0.024678
   9 C :    0.125276
  10 C :   -0.228491
  11 N :    0.044623
  12 C :   -0.251126
  13 N :    0.042544
  14 C :   -0.001269
  15 C :   -0.249631
  16 C :    0.182069
  17 S :   -0.044679
  18 C :   -0.182016
  19 C :    0.027265
  20 C :    0.063514
  21 C :   -0.244611
  22 C :   -0.334666
  23 S :    0.024461
  24 C :   -0.149745
  25 C :    0.374346
  26 N :   -0.104922
  27 C :   -0.130666
  28 C :   -0.339391
  29 C :    0.057699
  30 C :    0.045135
  31 C :    0.025878
  32 N :   -0.248193
  33 N :    0.286773
  34 C :   -0.091472
  35 C :   -0.345475
  36 N :   -0.233702
  37 C :    0.043592
  38 C :    0.021538
  39 C :    0.001731
  40 N :   -0.025400
  41 C :   -0.199362
  42 C :   -0.341408
  43 C :    0.242211
  44 C :   -0.116223
  45 S :    0.046547
  46 C :    0.192879
  47 C :   -0.191341
  48 S :   -0.264220
  49 C :    0.085681
  50 C :    0.002447
  51 C :   -0.064986
  52 C :   -0.358456
  53 C :   -0.350139
  54 C :    0.026686
  55 C :    0.016596
  56 C :    0.126975
  57 C :   -0.232702
  58 N :    0.033438
  59 C :   -0.170927
  60 N :   -0.023546
  61 C :    0.117151
  62 C :   -0.178109
  63 C :   -0.107100
  64 C :   -0.071943
  65 C :   -0.211769
  66 C :   -0.014055
  67 C :    0.224270
  68 O :   -0.293648
  69 H :    0.134203
  70 H :    0.124950
  71 H :    0.125781
  72 H :    0.150787
  73 H :    0.149935
  74 H :    0.128115
  75 H :    0.114937
  76 H :    0.119746
  77 H :    0.118251
  78 H :    0.117871
  79 H :    0.125805
  80 H :    0.124276
  81 H :    0.124749
  82 H :    0.131922
  83 H :    0.126279
  84 H :    0.131735
  85 H :    0.119085
  86 H :    0.123541
  87 H :    0.112533
  88 H :    0.128466
  89 H :    0.136681
  90 H :    0.150643
  91 H :    0.117244
  92 H :    0.140527
  93 H :    0.117447
  94 H :    0.097910
  95 H :    0.129147
  96 H :    0.120821
  97 H :    0.104716
  98 H :    0.126039
  99 H :    0.160292
 100 H :    0.158732
 101 H :    0.123147
 102 H :    0.120591
 103 H :    0.132519
Sum of atomic charges:   -0.0000000

LOEWDIN ATOMIC CHARGES
----------------------
   0 C :   -0.253610
   1 O :    0.133246
   2 C :   -0.057267
   3 C :   -0.068964
   4 C :   -0.112364
   5 C :   -0.108279
   6 C :   -0.075431
   7 C :   -0.041826
   8 C :   -0.003175
   9 C :   -0.152454
  10 C :   -0.181519
  11 N :    0.088122
  12 C :   -0.163513
  13 N :    0.081042
  14 C :   -0.087169
  15 C :   -0.058276
  16 C :   -0.303068
  17 S :    0.793723
  18 C :   -0.333405
  19 C :   -0.320094
  20 C :   -0.131084
  21 C :   -0.227437
  22 C :   -0.284778
  23 S :    0.757369
  24 C :   -0.289110
  25 C :   -0.180982
  26 N :    0.292168
  27 C :   -0.263037
  28 C :   -0.292095
  29 C :   -0.089541
  30 C :   -0.082713
  31 C :   -0.202766
  32 N :    0.090443
  33 N :    0.133334
  34 C :   -0.267365
  35 C :   -0.292269
  36 N :    0.091325
  37 C :   -0.204039
  38 C :   -0.081584
  39 C :   -0.081466
  40 N :    0.305792
  41 C :   -0.272099
  42 C :   -0.309559
  43 C :   -0.179835
  44 C :   -0.289770
  45 S :    0.787178
  46 C :   -0.231925
  47 C :   -0.453266
  48 S :    0.299227
  49 C :    0.063252
  50 C :   -0.158204
  51 C :   -0.237710
  52 C :   -0.291181
  53 C :   -0.083265
  54 C :   -0.063509
  55 C :    0.000819
  56 C :   -0.135065
  57 C :   -0.163207
  58 N :    0.077592
  59 C :   -0.150611
  60 N :    0.089291
  61 C :   -0.039255
  62 C :   -0.077796
  63 C :   -0.112095
  64 C :   -0.117441
  65 C :   -0.072660
  66 C :   -0.058142
  67 C :   -0.256658
  68 O :    0.130567
  69 H :    0.155448
  70 H :    0.147684
  71 H :    0.149417
  72 H :    0.158718
  73 H :    0.172885
  74 H :    0.146519
  75 H :    0.147040
  76 H :    0.120693
  77 H :    0.121159
  78 H :    0.120050
  79 H :    0.137727
  80 H :    0.138487
  81 H :    0.125358
  82 H :    0.125053
  83 H :    0.122686
  84 H :    0.143478
  85 H :    0.140922
  86 H :    0.123339
  87 H :    0.122824
  88 H :    0.123891
  89 H :    0.142718
  90 H :    0.135196
  91 H :    0.116911
  92 H :    0.118358
  93 H :    0.124330
  94 H :    0.141708
  95 H :    0.156541
  96 H :    0.114417
  97 H :    0.118262
  98 H :    0.122055
  99 H :    0.187008
 100 H :    0.159574
 101 H :    0.148270
 102 H :    0.146254
 103 H :    0.154463

  Mayer bond orders larger than 0.100000
B(  0-C ,  1-O ) :   2.1787 B(  0-C ,  2-C ) :   0.9698 B(  0-C , 14-C ) :   0.9964
B(  1-O ,  2-C ) :  -0.1451 B(  1-O , 14-C ) :  -0.1263 B(  2-C ,  3-C ) :   1.3872
B(  2-C ,  7-C ) :   1.3162 B(  3-C ,  4-C ) :   1.3790 B(  3-C , 69-H ) :   0.9821
B(  4-C ,  5-C ) :   1.3864 B(  4-C , 70-H ) :   0.9713 B(  5-C ,  6-C ) :   1.4172
B(  5-C , 71-H ) :   0.9680 B(  6-C ,  7-C ) :   1.3797 B(  6-C , 72-H ) :   0.9438
B(  7-C ,  8-C ) :   1.0477 B(  8-C ,  9-C ) :   1.4256 B(  8-C , 14-C ) :   1.1380
B(  9-C , 10-C ) :   1.0411 B(  9-C , 12-C ) :   1.0498 B( 10-C , 11-N ) :   2.9986
B( 12-C , 13-N ) :   3.0044 B( 14-C , 15-C ) :   1.5347 B( 15-C , 16-C ) :   1.0675
B( 15-C , 73-H ) :   0.9419 B( 16-C , 17-S ) :   1.1657 B( 16-C , 20-C ) :   1.4355
B( 17-S , 18-C ) :   1.2978 B( 17-S , 25-C ) :  -0.1282 B( 18-C , 19-C ) :   1.3863
B( 18-C , 23-S ) :   0.1301 B( 18-C , 25-C ) :   1.0714 B( 19-C , 20-C ) :   1.2770
B( 19-C , 23-S ) :   1.1773 B( 19-C , 25-C ) :  -0.1122 B( 20-C , 21-C ) :   0.9164
B( 21-C , 22-C ) :   0.9510 B( 21-C , 74-H ) :   0.9837 B( 21-C , 75-H ) :   0.9671
B( 22-C , 76-H ) :   0.9763 B( 22-C , 77-H ) :   0.9727 B( 22-C , 78-H ) :   0.9722
B( 23-S , 24-C ) :   1.3365 B( 24-C , 25-C ) :   1.2430 B( 24-C , 30-C ) :   1.1932
B( 25-C , 26-N ) :   1.1555 B( 26-N , 27-C ) :   0.9023 B( 26-N , 29-C ) :   1.1684
B( 27-C , 28-C ) :   0.9589 B( 27-C , 79-H ) :   0.9575 B( 27-C , 80-H ) :   0.9595
B( 28-C , 81-H ) :   0.9713 B( 28-C , 82-H ) :   0.9683 B( 28-C , 83-H ) :   0.9690
B( 29-C , 30-C ) :   1.2826 B( 29-C , 39-C ) :   1.2771 B( 30-C , 31-C ) :   1.1698
B( 31-C , 32-N ) :   1.4987 B( 31-C , 37-C ) :   1.2289 B( 32-N , 33-N ) :   1.1592
B( 32-N , 36-N ) :   0.1074 B( 33-N , 34-C ) :   0.8972 B( 33-N , 36-N ) :   1.1745
B( 34-C , 35-C ) :   0.9591 B( 34-C , 84-H ) :   0.9610 B( 34-C , 85-H ) :   0.9597
B( 35-C , 86-H ) :   0.9713 B( 35-C , 87-H ) :   0.9684 B( 35-C , 88-H ) :   0.9714
B( 36-N , 37-C ) :   1.5108 B( 37-C , 38-C ) :   1.1689 B( 38-C , 39-C ) :   1.1911
B( 38-C , 44-C ) :   1.2351 B( 39-C , 40-N ) :   1.2642 B( 40-N , 41-C ) :   0.8688
B( 40-N , 43-C ) :   1.1298 B( 41-C , 42-C ) :   0.9241 B( 41-C , 89-H ) :   0.9387
B( 41-C , 90-H ) :   0.9719 B( 42-C , 91-H ) :   0.9761 B( 42-C , 92-H ) :   0.9538
B( 42-C , 93-H ) :   0.9720 B( 43-C , 44-C ) :   1.2682 B( 43-C , 47-C ) :   1.0940
B( 44-C , 45-S ) :   1.2817 B( 45-S , 46-C ) :   1.2284 B( 46-C , 47-C ) :   1.1870
B( 46-C , 49-C ) :   0.2303 B( 46-C , 50-C ) :   0.9595 B( 47-C , 48-S ) :   1.7186
B( 49-C , 50-C ) :   1.7863 B( 49-C , 53-C ) :   1.5191 B( 50-C , 51-C ) :   0.9737
B( 51-C , 52-C ) :   0.9523 B( 51-C , 94-H ) :   0.9591 B( 51-C , 95-H ) :   0.9214
B( 52-C , 96-H ) :   0.9721 B( 52-C , 97-H ) :   0.9741 B( 52-C , 98-H ) :   0.9712
B( 53-C , 54-C ) :   1.2606 B( 53-C , 99-H ) :   0.9553 B( 54-C , 55-C ) :   1.2549
B( 54-C , 67-C ) :   1.0074 B( 54-C , 68-O ) :  -0.1439 B( 55-C , 56-C ) :   1.3945
B( 55-C , 61-C ) :   1.0073 B( 56-C , 57-C ) :   1.0347 B( 56-C , 59-C ) :   1.0600
B( 57-C , 58-N ) :   2.9914 B( 59-C , 60-N ) :   2.8600 B( 61-C , 62-C ) :   1.4051
B( 61-C , 66-C ) :   1.3267 B( 62-C , 63-C ) :   1.4068 B( 62-C ,100-H ) :   0.9304
B( 63-C , 64-C ) :   1.3976 B( 63-C ,101-H ) :   0.9696 B( 64-C , 65-C ) :   1.3627
B( 64-C ,102-H ) :   0.9751 B( 65-C , 66-C ) :   1.3970 B( 65-C ,103-H ) :   0.9843
B( 66-C , 67-C ) :   0.9582 B( 66-C , 68-O ) :  -0.1569 B( 67-C , 68-O ) :   2.1836

-----------------------------------------------------------------------------
         ABSORPTION SPECTRUM VIA TRANSITION ELECTRIC DIPOLE MOMENTS
-----------------------------------------------------------------------------
State   Energy    Wavelength  fosc         T2        TX        TY        TZ
        (cm-1)      (nm)                 (au**2)    (au)      (au)      (au)
-----------------------------------------------------------------------------
   1    8465.5   1181.3   0.005601944   0.21785  -0.27458  -0.37012   0.07396
   2    9621.7   1039.3   0.230422567   7.88407  -1.18658  -2.53391   0.23536
   3   11920.6    838.9   1.118431710  30.88786  -4.10760  -3.69270   0.61600
   4   14194.5    704.5   0.236750268   5.49092   2.20387   0.78205  -0.14923
   5   15156.2    659.8   0.010665145   0.23166  -0.47604  -0.05245  -0.04792
   6   15690.7    637.3   0.120480908   2.52785  -1.14360  -1.10428  -0.02443
   7   16664.7    600.1   0.322527932   6.37156   1.85332   1.68086   0.33387
   8   17934.5    557.6   0.035141104   0.64506  -0.20110  -0.50227  -0.59359
   9   18379.4    544.1   0.146142668   2.61771   1.58535  -0.02432   0.32218
  10   18874.7    529.8   0.069490412   1.21205  -0.83792  -0.59581   0.39363
  11   19679.4    508.1   0.007064289   0.11818  -0.30040   0.16429   0.03076
  12   20094.3    497.7   0.023019148   0.37713  -0.05658   0.59367   0.14659
  13   20268.1    493.4   0.042623833   0.69233  -0.38089  -0.58787  -0.44907
  14   20334.2    491.8   0.008179003   0.13242  -0.18158  -0.27014  -0.16270
  15   20801.4    480.7   0.293546302   4.64579   1.51988   1.51652  -0.18958
  16   21471.5    465.7   0.001582116   0.02426  -0.02091  -0.00471   0.15427
  17   21485.2    465.4   0.005189914   0.07952  -0.17634  -0.12479   0.18126
  18   21833.6    458.0   0.065832670   0.99264   0.88086   0.37614   0.27430
  19   23003.4    434.7   0.006999552   0.10017   0.30978   0.01480  -0.06317
  20   23159.3    431.8   0.097364044   1.38404  -1.16632  -0.03596  -0.14977
  21   23269.8    429.7   0.074453870   1.05334   0.57438   0.58864  -0.61395
  22   23452.2    426.4   0.014006967   0.19662  -0.15024  -0.22741   0.34976
  23   24689.2    405.0   0.047057446   0.62748   0.62068  -0.08118   0.48542
  24   25038.4    399.4   0.000810638   0.01066   0.07167   0.01491  -0.07280
  25   25549.7    391.4   0.014518203   0.18707  -0.40960  -0.06306   0.12378
  26   25710.2    389.0   0.074739305   0.95702  -0.76391  -0.60949   0.04439
  27   25884.6    386.3   0.003746742   0.04765   0.18644   0.08345   0.07698
  28   26164.4    382.2   0.006483384   0.08158  -0.17105  -0.22171   0.05622
  29   26444.0    378.2   0.009432013   0.11742  -0.04899  -0.13041   0.31308
  30   26467.4    377.8   0.019578909   0.24353   0.02424   0.47224  -0.14117
  31   26607.1    375.8   0.002688707   0.03327  -0.09183  -0.15147   0.04348
  32   26901.2    371.7   0.006536878   0.08000  -0.08269  -0.26485   0.05491
  33   27208.2    367.5   0.004632721   0.05605   0.02931   0.10079   0.21222
  34   27335.0    365.8   0.011453887   0.13795  -0.03917  -0.34983   0.11846
  35   27762.9    360.2   0.027743310   0.32898  -0.03913  -0.55825  -0.12573
  36   27882.1    358.7   0.009287756   0.10966  -0.32640   0.02533   0.04984
  37   28229.1    354.2   0.167192663   1.94983  -0.34109  -1.28214   0.43543
  38   28434.8    351.7   0.095661080   1.10754  -0.46659  -0.89998   0.28261
  39   28972.0    345.2   0.141272955   1.60530   0.34062  -1.17359   0.33462
  40   29249.9    341.9   0.017259877   0.19426  -0.15888   0.33760  -0.23462
  41   29315.7    341.1   0.008597761   0.09655   0.02557  -0.27998   0.13232
  42   29472.5    339.3   0.007329339   0.08187   0.23652  -0.14699   0.06574
  43   29627.4    337.5   0.022561081   0.25069   0.49564   0.00107  -0.07097
  44   29960.1    333.8   0.103719651   1.13971  -1.03624   0.24789  -0.06687
  45   30064.9    332.6   0.011755092   0.12872  -0.33121   0.13469   0.02964
  46   30507.5    327.8   0.028409896   0.30658   0.28663  -0.43809   0.18027
  47   30725.1    325.5   0.034603339   0.37077  -0.57798  -0.11651  -0.15208
  48   30786.9    324.8   0.023819401   0.25471  -0.46356  -0.16909  -0.10596
  49   30914.8    323.5   0.009004017   0.09588   0.28046  -0.12931  -0.02242
  50   31081.2    321.7   0.058981517   0.62473  -0.65076  -0.35505   0.27418

FINAL SINGLE POINT ENERGY     -4313.764474669139

DIPOLE MOMENT
-------------
                                X             Y             Z
Electronic contribution:     -3.98233      -0.57974      11.37253
Nuclear contribution   :      4.80031       3.44657     -13.18724
                        -----------------------------------------
Total Dipole Moment    :      0.81797       2.86682      -1.81470
                        -----------------------------------------
Magnitude (a.u.)       :      3.49012
Magnitude (Debye)      :      8.87117

Rotational constants in cm-1:     0.002076     0.000383     0.000345
Rotational constants in MHz :    62.245435    11.483157    10.346391

                             ****ORCA TERMINATED NORMALLY****
TOTAL RUN TIME: 3 days 2 hours 27 minutes 14 seconds 448 msec
