                         Program Version 4.2.0 -  RELEASE  -
|  1> # ORCA input file
|  2> # ../Y2.out
|  3> ! B3LYP def2-TZVP def2/J RIJCOSX Grid4 TightSCF
|  4> %maxcore 1000
|  5> %tddft
|  6>   maxdim 5
|  7>   nroots 50
|  8>   end
|  9> * xyz 0 1
| 10>    C        4.48978         1.94151        -0.72963
| 11>    O        5.42205         2.62976        -1.07605
| 12>    C        3.06089         2.28321        -0.67749
| 13>    C        2.27182         3.34007        -0.99445
| 14>    S        0.61747         2.99500        -0.64613
| 15>    C        0.99212         1.41719        -0.05621
| 16>    C        2.32774         1.17535        -0.13773
| 17>    C        3.25754         0.11769         0.21433
| 18>    C        2.96746        -0.90630         1.08128
| 19>    C        1.65805        -1.11452         1.55719
| 20>    N        0.59053        -1.30372         1.93416
| 21>    C        3.92564        -1.76931         1.64160
| 22>    N        4.68217        -2.46816         2.14916
| 23>    C        4.55050         0.51233        -0.30160
| 24>    C        5.70758        -0.18270        -0.50877
| 25>    C        5.90786        -1.57483        -0.57834
| 26>    S        7.54361        -2.19985        -0.41220
| 27>    C        6.99016        -3.81111        -0.65983
| 28>    C        5.60365        -3.83893        -0.90029
| 29>    C        5.00220        -2.58958        -0.84450
| 30>    S        4.97882        -5.44590        -1.17726
| 31>    C        6.57533        -6.07516        -0.94480
| 32>    C        7.54027        -5.09438        -0.68535
| 33>    N        8.75788        -5.68086        -0.47960
| 34>    C        9.85090        -4.85763        -0.01737
| 35>    C       10.50215        -4.08025        -1.16170
| 36>    C        8.60574        -7.05272        -0.61170
| 37>    C        7.22603        -7.31034        -0.88640
| 38>    C        6.72608        -8.62435        -0.98067
| 39>    N        5.50803        -9.11465        -1.21624
| 40>    N        5.66792       -10.41210        -1.13494
| 41>    C        4.56892       -11.31838        -1.30395
| 42>    C        3.62931       -11.25160        -0.10455
| 43>    N        6.87694       -10.83803        -0.86644
| 44>    C        7.59723        -9.71960        -0.75974
| 45>    C        8.96875        -9.48139        -0.53981
| 46>    C        9.50337        -8.15305        -0.51997
| 47>    N       10.87955        -8.25699        -0.40571
| 48>    C       11.94877        -7.29353        -0.53033
| 49>    C       12.59477        -6.97590         0.81864
| 50>    C       11.20320        -9.58310        -0.32042
| 51>    C       10.04180       -10.36283        -0.39144
| 52>    S       10.33785       -12.06859        -0.31718
| 53>    C       12.05341       -11.73221        -0.20803
| 54>    C       12.36263       -10.35541        -0.22676
| 55>    S       14.06133       -10.07172        -0.13746
| 56>    C       14.36180       -11.80450        -0.06438
| 57>    C       13.17108       -12.53574        -0.11286
| 58>    C       15.61191       -12.42655         0.02896
| 59>    C       16.87705       -11.89252         0.07214
| 60>    C       18.10217       -12.66637         0.16299
| 61>    C       18.25960       -14.02602         0.25232
| 62>    C       19.54223       -14.60579         0.33538
| 63>    N       20.57948       -15.09277         0.40179
| 64>    C       17.22976       -14.98506         0.27728
| 65>    N       16.44091       -15.82030         0.30291
| 66>    C       19.20069       -11.71835         0.14935
| 67>    C       20.56028       -11.73828         0.19244
| 68>    S       21.20100       -10.13704         0.12997
| 69>    C       19.62925        -9.43048         0.04427
| 70>    C       18.67078       -10.39032         0.06417
| 71>    C       17.20642       -10.45924         0.01957
| 72>    O       16.42847        -9.52280        -0.04726
| 73>    H        2.54814         4.29094        -1.40371
| 74>    H        0.20295         0.78362         0.29614
| 75>    H        6.57591         0.43497        -0.71893
| 76>    H        3.95883        -2.41648        -1.03533
| 77>    H       10.56996        -5.47272         0.51450
| 78>    H        9.43692        -4.13952         0.69900
| 79>    H       11.38266        -3.55846        -0.79778
| 80>    H        9.80722        -3.34502        -1.55851
| 81>    H       10.79385        -4.73845        -1.97769
| 82>    H        4.99731       -12.31585        -1.41368
| 83>    H        4.03363       -11.03893        -2.21508
| 84>    H        4.15168       -11.54494         0.80278
| 85>    H        2.78790       -11.92134        -0.25653
| 86>    H        3.25686       -10.23745         0.01573
| 87>    H       11.57624        -6.40060        -1.02344
| 88>    H       12.71158        -7.73693        -1.17949
| 89>    H       11.85188        -6.70526         1.56642
| 90>    H       13.29809        -6.15605         0.70467
| 91>    H       13.13908        -7.84186         1.18465
| 92>    H       13.15345       -13.61009        -0.08042
| 93>    H       15.54313       -13.50735         0.06785
| 94>    H       21.23168       -12.57087         0.25564
| 95>    H       19.51990        -8.36621        -0.01419
| 96> *
| 97>
| 98>                          ****END OF INPUT****

CARTESIAN COORDINATES (ANGSTROEM)
---------------------------------
  C      4.489780    1.941510   -0.729630
  O      5.422050    2.629760   -1.076050
  C      3.060890    2.283210   -0.677490
  C      2.271820    3.340070   -0.994450
  S      0.617470    2.995000   -0.646130
  C      0.992120    1.417190   -0.056210
  C      2.327740    1.175350   -0.137730
  C      3.257540    0.117690    0.214330
  C      2.967460   -0.906300    1.081280
  C      1.658050   -1.114520    1.557190
  N      0.590530   -1.303720    1.934160
  C      3.925640   -1.769310    1.641600
  N      4.682170   -2.468160    2.149160
  C      4.550500    0.512330   -0.301600
  C      5.707580   -0.182700   -0.508770
  C      5.907860   -1.574830   -0.578340
  S      7.543610   -2.199850   -0.412200
  C      6.990160   -3.811110   -0.659830
  C      5.603650   -3.838930   -0.900290
  C      5.002200   -2.589580   -0.844500
  S      4.978820   -5.445900   -1.177260
  C      6.575330   -6.075160   -0.944800
  C      7.540270   -5.094380   -0.685350
  N      8.757880   -5.680860   -0.479600
  C      9.850900   -4.857630   -0.017370
  C     10.502150   -4.080250   -1.161700
  C      8.605740   -7.052720   -0.611700
  C      7.226030   -7.310340   -0.886400
  C      6.726080   -8.624350   -0.980670
  N      5.508030   -9.114650   -1.216240
  N      5.667920  -10.412100   -1.134940
  C      4.568920  -11.318380   -1.303950
  C      3.629310  -11.251600   -0.104550
  N      6.876940  -10.838030   -0.866440
  C      7.597230   -9.719600   -0.759740
  C      8.968750   -9.481390   -0.539810
  C      9.503370   -8.153050   -0.519970
  N     10.879550   -8.256990   -0.405710
  C     11.948770   -7.293530   -0.530330
  C     12.594770   -6.975900    0.818640
  C     11.203200   -9.583100   -0.320420
  C     10.041800  -10.362830   -0.391440
  S     10.337850  -12.068590   -0.317180
  C     12.053410  -11.732210   -0.208030
  C     12.362630  -10.355410   -0.226760
  S     14.061330  -10.071720   -0.137460
  C     14.361800  -11.804500   -0.064380
  C     13.171080  -12.535740   -0.112860
  C     15.611910  -12.426550    0.028960
  C     16.877050  -11.892520    0.072140
  C     18.102170  -12.666370    0.162990
  C     18.259600  -14.026020    0.252320
  C     19.542230  -14.605790    0.335380
  N     20.579480  -15.092770    0.401790
  C     17.229760  -14.985060    0.277280
  N     16.440910  -15.820300    0.302910
  C     19.200690  -11.718350    0.149350
  C     20.560280  -11.738280    0.192440
  S     21.201000  -10.137040    0.129970
  C     19.629250   -9.430480    0.044270
  C     18.670780  -10.390320    0.064170
  C     17.206420  -10.459240    0.019570
  O     16.428470   -9.522800   -0.047260
  H      2.548140    4.290940   -1.403710
  H      0.202950    0.783620    0.296140
  H      6.575910    0.434970   -0.718930
  H      3.958830   -2.416480   -1.035330
  H     10.569960   -5.472720    0.514500
  H      9.436920   -4.139520    0.699000
  H     11.382660   -3.558460   -0.797780
  H      9.807220   -3.345020   -1.558510
  H     10.793850   -4.738450   -1.977690
  H      4.997310  -12.315850   -1.413680
  H      4.033630  -11.038930   -2.215080
  H      4.151680  -11.544940    0.802780
  H      2.787900  -11.921340   -0.256530
  H      3.256860  -10.237450    0.015730
  H     11.576240   -6.400600   -1.023440
  H     12.711580   -7.736930   -1.179490
  H     11.851880   -6.705260    1.566420
  H     13.298090   -6.156050    0.704670
  H     13.139080   -7.841860    1.184650
  H     13.153450  -13.610090   -0.080420
  H     15.543130  -13.507350    0.067850
  H     21.231680  -12.570870    0.255640
  H     19.519900   -8.366210   -0.014190

 Total Charge           Charge          ....    0
 Multiplicity           Mult            ....    1
 Number of Electrons    NEL             ....  474
 Basis Dimension        Dim             .... 2127

ORBITAL ENERGIES
----------------

  NO   OCC          E(Eh)            E(eV)
   0   2.0000     -88.918103     -2419.5846
   1   2.0000     -88.917866     -2419.5781
   2   2.0000     -88.912855     -2419.4418
   3   2.0000     -88.905264     -2419.2352
   4   2.0000     -88.903513     -2419.1876
   5   2.0000     -88.902943     -2419.1721
   6   2.0000     -19.133789      -520.6569
   7   2.0000     -19.124716      -520.4100
   8   2.0000     -14.443835      -393.0367
   9   2.0000     -14.401488      -391.8844
  10   2.0000     -14.400204      -391.8495
  11   2.0000     -14.358245      -390.7077
  12   2.0000     -14.357362      -390.6837
  13   2.0000     -14.324594      -389.7920
  14   2.0000     -14.323967      -389.7750
  15   2.0000     -14.323473      -389.7615
  16   2.0000     -14.319909      -389.6645
  17   2.0000     -10.279134      -279.7095
  18   2.0000     -10.273970      -279.5689
  19   2.0000     -10.256457      -279.0924
  20   2.0000     -10.255919      -279.0777
  21   2.0000     -10.251474      -278.9568
  22   2.0000     -10.249273      -278.8969
  23   2.0000     -10.248841      -278.8851
  24   2.0000     -10.248838      -278.8851
  25   2.0000     -10.246767      -278.8287
  26   2.0000     -10.246586      -278.8238
  27   2.0000     -10.241540      -278.6865
  28   2.0000     -10.240001      -278.6446
  29   2.0000     -10.237083      -278.5652
  30   2.0000     -10.236180      -278.5406
  31   2.0000     -10.234767      -278.5022
  32   2.0000     -10.232446      -278.4390
  33   2.0000     -10.232128      -278.4304
  34   2.0000     -10.231818      -278.4219
  35   2.0000     -10.231587      -278.4156
  36   2.0000     -10.230987      -278.3993
  37   2.0000     -10.230189      -278.3776
  38   2.0000     -10.229673      -278.3636
  39   2.0000     -10.228808      -278.3400
  40   2.0000     -10.226873      -278.2873
  41   2.0000     -10.226239      -278.2701
  42   2.0000     -10.223232      -278.1883
  43   2.0000     -10.223009      -278.1822
  44   2.0000     -10.222927      -278.1800
  45   2.0000     -10.221973      -278.1540
  46   2.0000     -10.221851      -278.1507
  47   2.0000     -10.218730      -278.0658
  48   2.0000     -10.216906      -278.0161
  49   2.0000     -10.216521      -278.0057
  50   2.0000     -10.216013      -277.9918
  51   2.0000     -10.215485      -277.9775
  52   2.0000     -10.214099      -277.9398
  53   2.0000     -10.214076      -277.9391
  54   2.0000     -10.210719      -277.8478
  55   2.0000     -10.210333      -277.8373
  56   2.0000     -10.209905      -277.8256
  57   2.0000     -10.209746      -277.8213
  58   2.0000     -10.204187      -277.6700
  59   2.0000     -10.204119      -277.6682
  60   2.0000     -10.197390      -277.4851
  61   2.0000     -10.192813      -277.3605
  62   2.0000     -10.178531      -276.9719
  63   2.0000      -7.993813      -217.5227
  64   2.0000      -7.993585      -217.5165
  65   2.0000      -7.989175      -217.3965
  66   2.0000      -7.980812      -217.1689
  67   2.0000      -7.978518      -217.1065
  68   2.0000      -7.978457      -217.1049
  69   2.0000      -5.956223      -162.0771
  70   2.0000      -5.955983      -162.0705
  71   2.0000      -5.951889      -161.9591
  72   2.0000      -5.951790      -161.9564
  73   2.0000      -5.951655      -161.9528
  74   2.0000      -5.951306      -161.9433
  75   2.0000      -5.951059      -161.9365
  76   2.0000      -5.948058      -161.8549
  77   2.0000      -5.945515      -161.7857
  78   2.0000      -5.943847      -161.7403
  79   2.0000      -5.941571      -161.6784
  80   2.0000      -5.941467      -161.6755
  81   2.0000      -5.940077      -161.6377
  82   2.0000      -5.937801      -161.5758
  83   2.0000      -5.937067      -161.5558
  84   2.0000      -5.936473      -161.5397
  85   2.0000      -5.934576      -161.4880
  86   2.0000      -5.934126      -161.4758
  87   2.0000      -1.134633       -30.8749
  88   2.0000      -1.064630       -28.9700
  89   2.0000      -1.055927       -28.7332
  90   2.0000      -1.038981       -28.2721
  91   2.0000      -1.027979       -27.9727
  92   2.0000      -0.942639       -25.6505
  93   2.0000      -0.940366       -25.5887
  94   2.0000      -0.933628       -25.4053
  95   2.0000      -0.928850       -25.2753
  96   2.0000      -0.926431       -25.2095
  97   2.0000      -0.926217       -25.2037
  98   2.0000      -0.919776       -25.0284
  99   2.0000      -0.917654       -24.9706
 100   2.0000      -0.914740       -24.8913
 101   2.0000      -0.903416       -24.5832
 102   2.0000      -0.883998       -24.0548
 103   2.0000      -0.882132       -24.0040
 104   2.0000      -0.873591       -23.7716
 105   2.0000      -0.871636       -23.7184
 106   2.0000      -0.855422       -23.2772
 107   2.0000      -0.836252       -22.7556
 108   2.0000      -0.822932       -22.3931
 109   2.0000      -0.820241       -22.3199
 110   2.0000      -0.808787       -22.0082
 111   2.0000      -0.802134       -21.8272
 112   2.0000      -0.800314       -21.7776
 113   2.0000      -0.791334       -21.5333
 114   2.0000      -0.783725       -21.3263
 115   2.0000      -0.774573       -21.0772
 116   2.0000      -0.764292       -20.7974
 117   2.0000      -0.764135       -20.7932
 118   2.0000      -0.759857       -20.6768
 119   2.0000      -0.750690       -20.4273
 120   2.0000      -0.735939       -20.0259
 121   2.0000      -0.729670       -19.8553
 122   2.0000      -0.726131       -19.7590
 123   2.0000      -0.706038       -19.2123
 124   2.0000      -0.699768       -19.0417
 125   2.0000      -0.692518       -18.8444
 126   2.0000      -0.685411       -18.6510
 127   2.0000      -0.679922       -18.5016
 128   2.0000      -0.672742       -18.3062
 129   2.0000      -0.661548       -18.0016
 130   2.0000      -0.646126       -17.5820
 131   2.0000      -0.645797       -17.5730
 132   2.0000      -0.630292       -17.1511
 133   2.0000      -0.625014       -17.0075
 134   2.0000      -0.615710       -16.7543
 135   2.0000      -0.607114       -16.5204
 136   2.0000      -0.598005       -16.2725
 137   2.0000      -0.595081       -16.1930
 138   2.0000      -0.592753       -16.1296
 139   2.0000      -0.588227       -16.0065
 140   2.0000      -0.582598       -15.8533
 141   2.0000      -0.578338       -15.7374
 142   2.0000      -0.570440       -15.5225
 143   2.0000      -0.567132       -15.4324
 144   2.0000      -0.565114       -15.3775
 145   2.0000      -0.561718       -15.2851
 146   2.0000      -0.550529       -14.9807
 147   2.0000      -0.547360       -14.8944
 148   2.0000      -0.536882       -14.6093
 149   2.0000      -0.531109       -14.4522
 150   2.0000      -0.528192       -14.3728
 151   2.0000      -0.526903       -14.3378
 152   2.0000      -0.524554       -14.2738
 153   2.0000      -0.517114       -14.0714
 154   2.0000      -0.506646       -13.7865
 155   2.0000      -0.502193       -13.6654
 156   2.0000      -0.499286       -13.5863
 157   2.0000      -0.491100       -13.3635
 158   2.0000      -0.483978       -13.1697
 159   2.0000      -0.479999       -13.0614
 160   2.0000      -0.474639       -12.9156
 161   2.0000      -0.472165       -12.8483
 162   2.0000      -0.468843       -12.7579
 163   2.0000      -0.466135       -12.6842
 164   2.0000      -0.464887       -12.6502
 165   2.0000      -0.463613       -12.6155
 166   2.0000      -0.461930       -12.5697
 167   2.0000      -0.461123       -12.5478
 168   2.0000      -0.457131       -12.4392
 169   2.0000      -0.453224       -12.3328
 170   2.0000      -0.452700       -12.3186
 171   2.0000      -0.446105       -12.1391
 172   2.0000      -0.443310       -12.0631
 173   2.0000      -0.442766       -12.0483
 174   2.0000      -0.438199       -11.9240
 175   2.0000      -0.434886       -11.8338
 176   2.0000      -0.430593       -11.7170
 177   2.0000      -0.430017       -11.7013
 178   2.0000      -0.427314       -11.6278
 179   2.0000      -0.423537       -11.5250
 180   2.0000      -0.422286       -11.4910
 181   2.0000      -0.420630       -11.4459
 182   2.0000      -0.418658       -11.3923
 183   2.0000      -0.415458       -11.3052
 184   2.0000      -0.413551       -11.2533
 185   2.0000      -0.412300       -11.2192
 186   2.0000      -0.409450       -11.1417
 187   2.0000      -0.406610       -11.0644
 188   2.0000      -0.405654       -11.0384
 189   2.0000      -0.405242       -11.0272
 190   2.0000      -0.403859       -10.9896
 191   2.0000      -0.399541       -10.8721
 192   2.0000      -0.397494       -10.8164
 193   2.0000      -0.396340       -10.7850
 194   2.0000      -0.395391       -10.7591
 195   2.0000      -0.387764       -10.5516
 196   2.0000      -0.386562       -10.5189
 197   2.0000      -0.383841       -10.4449
 198   2.0000      -0.381810       -10.3896
 199   2.0000      -0.380557       -10.3555
 200   2.0000      -0.379109       -10.3161
 201   2.0000      -0.378739       -10.3060
 202   2.0000      -0.375727       -10.2241
 203   2.0000      -0.373230       -10.1561
 204   2.0000      -0.371389       -10.1060
 205   2.0000      -0.369879       -10.0649
 206   2.0000      -0.364020        -9.9055
 207   2.0000      -0.362507        -9.8643
 208   2.0000      -0.361037        -9.8243
 209   2.0000      -0.359216        -9.7748
 210   2.0000      -0.357439        -9.7264
 211   2.0000      -0.355725        -9.6798
 212   2.0000      -0.347503        -9.4560
 213   2.0000      -0.345825        -9.4104
 214   2.0000      -0.345534        -9.4025
 215   2.0000      -0.343351        -9.3431
 216   2.0000      -0.340653        -9.2696
 217   2.0000      -0.336630        -9.1602
 218   2.0000      -0.331084        -9.0092
 219   2.0000      -0.330715        -8.9992
 220   2.0000      -0.311951        -8.4886
 221   2.0000      -0.309284        -8.4160
 222   2.0000      -0.308702        -8.4002
 223   2.0000      -0.296241        -8.0611
 224   2.0000      -0.285934        -7.7807
 225   2.0000      -0.280162        -7.6236
 226   2.0000      -0.279093        -7.5945
 227   2.0000      -0.273827        -7.4512
 228   2.0000      -0.272430        -7.4132
 229   2.0000      -0.268835        -7.3154
 230   2.0000      -0.263784        -7.1779
 231   2.0000      -0.259720        -7.0673
 232   2.0000      -0.254046        -6.9130
 233   2.0000      -0.240421        -6.5422
 234   2.0000      -0.233205        -6.3458
 235   2.0000      -0.224027        -6.0961
 236   2.0000      -0.200535        -5.4568
 237   0.0000      -0.131701        -3.5838
 238   0.0000      -0.120667        -3.2835
 239   0.0000      -0.093421        -2.5421
 240   0.0000      -0.090359        -2.4588
 241   0.0000      -0.069502        -1.8912

MULLIKEN ATOMIC CHARGES
-----------------------
   0 C :    0.181545
   1 O :   -0.286887
   2 C :   -0.118525
   3 C :   -0.139569
   4 S :    0.119568
   5 C :   -0.178174
   6 C :    0.093911
   7 C :   -0.022409
   8 C :    0.100246
   9 C :   -0.244070
  10 N :    0.027090
  11 C :   -0.220769
  12 N :    0.040581
  13 C :    0.003231
  14 C :   -0.230432
  15 C :    0.193025
  16 S :   -0.000512
  17 C :   -0.200419
  18 C :    0.126498
  19 C :   -0.302224
  20 S :    0.051126
  21 C :   -0.149727
  22 C :    0.363607
  23 N :   -0.040460
  24 C :   -0.220882
  25 C :   -0.308955
  26 C :    0.004283
  27 C :    0.065619
  28 C :    0.021393
  29 N :   -0.251794
  30 N :    0.289625
  31 C :   -0.093493
  32 C :   -0.341218
  33 N :   -0.240545
  34 C :    0.007713
  35 C :    0.050998
  36 C :    0.015618
  37 N :   -0.041180
  38 C :   -0.217636
  39 C :   -0.307986
  40 C :    0.317739
  41 C :   -0.135972
  42 S :    0.046193
  43 C :    0.043746
  44 C :   -0.154824
  45 S :    0.042789
  46 C :    0.063743
  47 C :   -0.216177
  48 C :   -0.201802
  49 C :   -0.004367
  50 C :    0.005179
  51 C :    0.135253
  52 C :   -0.237995
  53 N :    0.022844
  54 C :   -0.230614
  55 N :    0.042219
  56 C :    0.060279
  57 C :   -0.171793
  58 S :    0.116068
  59 C :   -0.131986
  60 C :   -0.043146
  61 C :    0.165938
  62 O :   -0.341423
  63 H :    0.167875
  64 H :    0.183383
  65 H :    0.146411
  66 H :    0.157986
  67 H :    0.127409
  68 H :    0.138058
  69 H :    0.123361
  70 H :    0.129715
  71 H :    0.119656
  72 H :    0.132195
  73 H :    0.114172
  74 H :    0.117990
  75 H :    0.111843
  76 H :    0.132166
  77 H :    0.124385
  78 H :    0.136105
  79 H :    0.117947
  80 H :    0.120980
  81 H :    0.138228
  82 H :    0.147707
  83 H :    0.167203
  84 H :    0.191242
  85 H :    0.164280
Sum of atomic charges:   -0.0000000

LOEWDIN ATOMIC CHARGES
----------------------
   0 C :   -0.261955
   1 O :    0.130604
   2 C :   -0.128211
   3 C :   -0.314041
   4 S :    0.760273
   5 C :   -0.322221
   6 C :   -0.116010
   7 C :   -0.001959
   8 C :   -0.148504
   9 C :   -0.159259
  10 N :    0.076131
  11 C :   -0.160673
  12 N :    0.095225
  13 C :   -0.078660
  14 C :   -0.067790
  15 C :   -0.343628
  16 S :    0.767692
  17 C :   -0.336652
  18 C :   -0.349920
  19 C :   -0.113103
  20 S :    0.759070
  21 C :   -0.287395
  22 C :   -0.185839
  23 N :    0.294800
  24 C :   -0.266924
  25 C :   -0.298665
  26 C :   -0.087752
  27 C :   -0.088516
  28 C :   -0.204791
  29 N :    0.088056
  30 N :    0.132419
  31 C :   -0.267740
  32 C :   -0.292841
  33 N :    0.087164
  34 C :   -0.205745
  35 C :   -0.089105
  36 C :   -0.087200
  37 N :    0.294938
  38 C :   -0.267295
  39 C :   -0.297974
  40 C :   -0.188075
  41 C :   -0.287580
  42 S :    0.745398
  43 C :   -0.354000
  44 C :   -0.337178
  45 S :    0.789304
  46 C :   -0.327133
  47 C :   -0.115844
  48 C :   -0.054867
  49 C :   -0.087239
  50 C :    0.004437
  51 C :   -0.141969
  52 C :   -0.157686
  53 N :    0.074005
  54 C :   -0.171654
  55 N :    0.075333
  56 C :   -0.114781
  57 C :   -0.318710
  58 S :    0.758946
  59 C :   -0.316920
  60 C :   -0.128663
  61 C :   -0.260356
  62 O :    0.108331
  63 H :    0.135616
  64 H :    0.139507
  65 H :    0.168808
  66 H :    0.157297
  67 H :    0.138457
  68 H :    0.143220
  69 H :    0.125867
  70 H :    0.117913
  71 H :    0.118307
  72 H :    0.143104
  73 H :    0.139934
  74 H :    0.122214
  75 H :    0.122475
  76 H :    0.124656
  77 H :    0.136800
  78 H :    0.143491
  79 H :    0.117694
  80 H :    0.125811
  81 H :    0.120433
  82 H :    0.154797
  83 H :    0.179991
  84 H :    0.140540
  85 H :    0.133966

  Mayer bond orders larger than 0.100000
B(  0-C ,  1-O ) :   2.2099 B(  0-C ,  2-C ) :   0.9849 B(  0-C , 13-C ) :   0.9752
B(  1-O ,  2-C ) :  -0.1166 B(  1-O , 13-C ) :  -0.1462 B(  1-O , 14-C ) :   0.1010
B(  2-C ,  3-C ) :   1.6302 B(  2-C ,  6-C ) :   1.1415 B(  3-C ,  4-S ) :   1.2772
B(  3-C , 63-H ) :   0.9215 B(  4-S ,  5-C ) :   1.3104 B(  5-C ,  6-C ) :   1.5907
B(  5-C , 64-H ) :   0.9069 B(  6-C ,  7-C ) :   1.0317 B(  7-C ,  8-C ) :   1.4178
B(  7-C , 13-C ) :   1.1321 B(  8-C ,  9-C ) :   1.0458 B(  8-C , 11-C ) :   1.0566
B(  9-C , 10-N ) :   2.9999 B( 11-C , 12-N ) :   2.9793 B( 13-C , 14-C ) :   1.5172
B( 14-C , 15-C ) :   1.1044 B( 14-C , 65-H ) :   0.9398 B( 15-C , 16-S ) :   1.1906
B( 15-C , 19-C ) :   1.4036 B( 16-S , 17-C ) :   1.3483 B( 16-S , 22-C ) :  -0.1611
B( 17-C , 18-C ) :   1.3843 B( 17-C , 20-S ) :   0.1021 B( 17-C , 22-C ) :   1.0562
B( 18-C , 19-C ) :   1.2829 B( 18-C , 20-S ) :   1.1762 B( 19-C , 66-H ) :   0.9611
B( 20-S , 21-C ) :   1.3248 B( 21-C , 22-C ) :   1.2891 B( 21-C , 27-C ) :   1.1970
B( 22-C , 23-N ) :   1.1295 B( 23-N , 24-C ) :   0.8864 B( 23-N , 26-C ) :   1.2263
B( 24-C , 25-C ) :   0.9468 B( 24-C , 67-H ) :   0.9582 B( 24-C , 68-H ) :   0.9637
B( 25-C , 69-H ) :   0.9726 B( 25-C , 70-H ) :   0.9623 B( 25-C , 71-H ) :   0.9641
B( 26-C , 27-C ) :   1.2180 B( 26-C , 36-C ) :   1.3409 B( 27-C , 28-C ) :   1.1777
B( 28-C , 29-N ) :   1.4950 B( 28-C , 34-C ) :   1.2348 B( 29-N , 30-N ) :   1.1554
B( 29-N , 33-N ) :   0.1096 B( 30-N , 31-C ) :   0.8987 B( 30-N , 33-N ) :   1.1719
B( 31-C , 32-C ) :   0.9620 B( 31-C , 72-H ) :   0.9618 B( 31-C , 73-H ) :   0.9585
B( 32-C , 74-H ) :   0.9712 B( 32-C , 75-H ) :   0.9684 B( 32-C , 76-H ) :   0.9707
B( 33-N , 34-C ) :   1.5155 B( 34-C , 35-C ) :   1.1665 B( 35-C , 36-C ) :   1.2352
B( 35-C , 41-C ) :   1.2048 B( 36-C , 37-N ) :   1.2334 B( 37-N , 38-C ) :   0.8862
B( 37-N , 40-C ) :   1.1264 B( 38-C , 39-C ) :   0.9491 B( 38-C , 77-H ) :   0.9561
B( 38-C , 78-H ) :   0.9621 B( 39-C , 79-H ) :   0.9642 B( 39-C , 80-H ) :   0.9725
B( 39-C , 81-H ) :   0.9593 B( 40-C , 41-C ) :   1.2783 B( 40-C , 44-C ) :   1.0803
B( 40-C , 45-S ) :  -0.1688 B( 41-C , 42-S ) :   1.3187 B( 42-S , 43-C ) :   1.1738
B( 43-C , 44-C ) :   1.3012 B( 43-C , 47-C ) :   1.3619 B( 44-C , 45-S ) :   1.4030
B( 45-S , 46-C ) :   1.2837 B( 46-C , 47-C ) :   1.3054 B( 46-C , 48-C ) :   1.3256
B( 47-C , 82-H ) :   0.9544 B( 48-C , 49-C ) :   1.3832 B( 48-C , 83-H ) :   0.8855
B( 49-C , 50-C ) :   1.1282 B( 49-C , 61-C ) :   0.9985 B( 50-C , 51-C ) :   1.4476
B( 50-C , 56-C ) :   1.0575 B( 51-C , 52-C ) :   1.0304 B( 51-C , 54-C ) :   1.0378
B( 52-C , 53-N ) :   2.9942 B( 54-C , 55-N ) :   2.9906 B( 56-C , 57-C ) :   1.6096
B( 56-C , 60-C ) :   1.1469 B( 57-C , 58-S ) :   1.3140 B( 57-C , 84-H ) :   0.8930
B( 58-S , 59-C ) :   1.2716 B( 59-C , 60-C ) :   1.6291 B( 59-C , 85-H ) :   0.9247
B( 60-C , 61-C ) :   1.0860 B( 60-C , 62-O ) :  -0.1049 B( 61-C , 62-O ) :   2.0180

-----------------------------------------------------------------------------
         ABSORPTION SPECTRUM VIA TRANSITION ELECTRIC DIPOLE MOMENTS
-----------------------------------------------------------------------------
State   Energy    Wavelength  fosc         T2        TX        TY        TZ
        (cm-1)      (nm)                 (au**2)    (au)      (au)      (au)
-----------------------------------------------------------------------------
   1   14353.5    696.7   2.551693364  58.52547  -5.63960   5.16630   0.17234
   2   16806.7    595.0   0.361607908   7.08321  -2.50271   0.83829  -0.34197
   3   17596.7    568.3   0.009668000   0.18088   0.33783   0.25808   0.01191
   4   19409.1    515.2   0.091093927   1.54511   0.87259  -0.88509  -0.01795
   5   20958.3    477.1   0.070493817   1.10731   0.95390  -0.44243   0.04062
   6   21127.7    473.3   0.081106961   1.26381  -0.88252   0.54868  -0.42887
   7   21286.6    469.8   0.074963139   1.15936   0.84625  -0.58089   0.32524
   8   22121.6    452.0   0.188153929   2.80009   0.04723  -1.59688  -0.49784
   9   23034.3    434.1   0.070297511   1.00471  -0.97396   0.23676  -0.00672
  10   23394.5    427.5   0.238423242   3.35513  -1.79149   0.16296  -0.34515
  11   24611.0    406.3   0.042963511   0.57471  -0.69007  -0.20667   0.23622
  12   25128.4    398.0   0.084744867   1.11026  -0.54546   0.89354   0.11964
  13   25696.6    389.2   0.000613078   0.00785  -0.06045   0.05128   0.03963
  14   25999.2    384.6   0.005503408   0.06969   0.19662   0.12329  -0.12580
  15   26034.3    384.1   0.003968631   0.05018   0.20096  -0.09722  -0.01864
  16   26501.7    377.3   0.022708850   0.28210   0.31897   0.41991  -0.06348
  17   26622.5    375.6   0.177261359   2.19200   1.12339  -0.95533   0.13167
  18   26930.1    371.3   0.096327978   1.17758   0.92076  -0.55572   0.14480
  19   27301.2    366.3   0.032840927   0.39601  -0.29559   0.49288  -0.25634
  20   27864.7    358.9   0.002188058   0.02585  -0.10677   0.08397   0.08602
  21   28171.5    355.0   0.028155977   0.32903   0.09023  -0.55519   0.11250
  22   28383.6    352.3   0.098396154   1.14126  -0.29129  -1.00959   0.19272
  23   28636.9    349.2   0.009592646   0.11028  -0.01977   0.29503  -0.15114
  24   28919.4    345.8   0.002212224   0.02518   0.09590  -0.05153  -0.11546
  25   29322.9    341.0   0.024454825   0.27456   0.52274  -0.01884   0.03081
  26   29544.6    338.5   0.005326520   0.05935   0.07040   0.19075   0.13420
  27   29564.3    338.2   0.005337680   0.05944  -0.16675  -0.17779  -0.00455
  28   29762.8    336.0   0.070035809   0.77468  -0.84790  -0.20477  -0.11750
  29   29872.8    334.8   0.003624176   0.03994  -0.19247  -0.04184  -0.03383
  30   30144.5    331.7   0.059118779   0.64564   0.25342  -0.74236   0.17415
  31   30342.0    329.6   0.013977417   0.15166  -0.20041   0.32600  -0.07218
  32   30473.1    328.2   0.096569895   1.04328  -0.49564  -0.89181   0.04796
  33   30682.9    325.9   0.000055586   0.00060   0.01164   0.01900  -0.01000
  34   30999.8    322.6   0.016695985   0.17731  -0.40600  -0.06261   0.09249
  35   31199.6    320.5   0.018131949   0.19132   0.09182   0.40725  -0.13053
  36   31381.9    318.7   0.009827374   0.10309   0.14079  -0.28792   0.01942
  37   31582.1    316.6   0.173039293   1.80376  -1.12606  -0.71563  -0.15366
  38   32528.2    307.4   0.017313013   0.17522   0.20948   0.36169  -0.02287
  39   32638.3    306.4   0.005129335   0.05174  -0.20196  -0.03515  -0.09857
  40   32839.1    304.5   0.002013211   0.02018   0.06325  -0.11969   0.04308
  41   33560.2    298.0   0.070178925   0.68843   0.20892   0.80285  -0.01434
  42   33779.0    296.0   0.037972264   0.37008  -0.55538   0.24808  -0.00920
  43   34134.3    293.0   0.017903581   0.17267  -0.07329   0.35774  -0.19830
  44   34137.6    292.9   0.035874511   0.34596   0.03181   0.58730  -0.00551
  45   34199.7    292.4   0.005709038   0.05496   0.01988   0.11091   0.20557
  46   34363.8    291.0   0.243349447   2.33134   0.07441   1.50462  -0.24882
  47   34425.8    290.5   0.029139553   0.27866   0.52256  -0.05172   0.05395
  48   34555.3    289.4   0.027062310   0.25783   0.41086  -0.29793  -0.01603
  49   34823.2    287.2   0.465824737   4.40382   0.21455   2.05702  -0.35558
  50   34894.7    286.6   0.241964022   2.28279  -0.73327   1.14037  -0.66682

FINAL SINGLE POINT ENERGY     -4798.144519252957

DIPOLE MOMENT
-------------
                                X             Y             Z
Electronic contribution:      5.16065       3.55629       0.45413
Nuclear contribution   :     -5.64307      -1.21269      -2.01926
                        -----------------------------------------
Total Dipole Moment    :     -0.48242       2.34360      -1.56514
                        -----------------------------------------
Magnitude (a.u.)       :      2.85917
Magnitude (Debye)      :      7.26743

Rotational constants in cm-1:     0.002349     0.000322     0.000288
Rotational constants in MHz :    70.428933     9.652594     8.620909

                             ****ORCA TERMINATED NORMALLY****
TOTAL RUN TIME: 2 days 3 hours 58 minutes 12 seconds 545 msec
