                         Program Version 4.2.0 -  RELEASE  -
|  1> # ORCA input file
|  2> # Y5.out
|  3> ! B3LYP def2-TZVP def2/J RIJCOSX Grid4 TightSCF
|  4>
|  5> %maxcore 6000
|  6> %tddft
|  7>   maxdim 5
|  8>   nroots 50
|  9>   end
| 10> %pal
| 11>   nprocs 6
| 12>   end
| 13>
| 14>
| 15> * xyz 0 1
| 16>    C        0.44489        -1.20242        -0.98087
| 17>    O        0.96552        -0.67030        -1.93529
| 18>    C        1.06014        -1.55096         0.31780
| 19>    C        2.37346        -1.41644         0.72306
| 20>    C        2.71407        -1.84495         1.99885
| 21>    C        1.75657        -2.39662         2.83802
| 22>    C        0.43224        -2.52562         2.43988
| 23>    C        0.08211        -2.09613         1.17094
| 24>    C       -1.20901        -2.05023         0.48814
| 25>    C       -2.43578        -2.04340         1.10044
| 26>    C       -3.61372        -1.64747         0.43334
| 27>    N       -4.57577        -1.27390        -0.06984
| 28>    C       -2.64039        -2.33728         2.46167
| 29>    N       -2.86401        -2.60262         3.55635
| 30>    C       -0.95081        -1.70424        -0.89057
| 31>    C       -1.69246        -1.85788        -2.02367
| 32>    C       -2.81697        -2.67698        -2.25071
| 33>    S       -3.17325        -4.06735        -1.22288
| 34>    C       -4.53284        -4.47150        -2.20052
| 35>    C       -4.67546        -3.57809        -3.27111
| 36>    C       -3.70467        -2.57444        -3.31686
| 37>    C       -3.70578        -1.46702        -4.31508
| 38>    C       -4.35440        -0.21565        -3.71752
| 39>    S       -6.04409        -3.94438        -4.29640
| 40>    C       -6.42231        -5.28339        -3.27228
| 41>    C       -5.53971        -5.43774        -2.19563
| 42>    N       -5.92921        -6.49596        -1.41447
| 43>    C       -4.94022        -7.17004        -0.60099
| 44>    C       -3.82670        -7.76220        -1.46505
| 45>    C       -7.08274        -7.01850        -1.97303
| 46>    C       -7.38256        -6.30148        -3.16527
| 47>    C       -8.43340        -6.70130        -4.02100
| 48>    N       -8.79445        -6.18171        -5.18328
| 49>    S      -10.01135        -7.06321        -5.78492
| 50>    N      -10.12991        -8.13981        -4.58201
| 51>    C       -9.22012        -7.84896        -3.66612
| 52>    C       -9.01536        -8.45420        -2.40537
| 53>    C       -7.99694        -8.00182        -1.51870
| 54>    N       -8.16806        -8.62347        -0.29794
| 55>    C       -7.63113        -8.29200         1.00343
| 56>    C       -6.75693        -9.41319         1.56508
| 57>    C       -9.24351        -9.46391        -0.40380
| 58>    C       -9.77012        -9.40159        -1.69947
| 59>    S      -11.16949       -10.38859        -1.92944
| 60>    C      -11.07960       -10.87306        -0.25088
| 61>    C      -10.00746       -10.28442         0.43252
| 62>    S      -10.03395       -10.70412         2.10030
| 63>    C      -11.45210       -11.72001         1.85564
| 64>    C      -11.89478       -11.69632         0.53888
| 65>    C      -13.16316       -12.29942         0.02131
| 66>    C      -12.93100       -13.22819        -1.17129
| 67>    C      -12.00575       -12.29469         3.02613
| 68>    C      -12.72799       -13.43481         3.20017
| 69>    C      -12.91688       -14.61015         2.38083
| 70>    C      -12.02092       -15.10456         1.46993
| 71>    C      -12.19707       -16.31602         0.77192
| 72>    N      -12.30063       -17.28596         0.16685
| 73>    C      -10.78630       -14.48489         1.19078
| 74>    N       -9.75800       -14.03265         0.95413
| 75>    C      -14.08203       -15.32157         2.90339
| 76>    C      -14.79098       -16.40303         2.40782
| 77>    C      -15.85822       -16.88895         3.15225
| 78>    C      -16.21261       -16.31955         4.36700
| 79>    C      -15.51139       -15.23169         4.86898
| 80>    C      -14.45435       -14.73894         4.12921
| 81>    C      -13.57153       -13.58965         4.41754
| 82>    O      -13.55566       -12.88841         5.40302
| 83>    H        3.10467        -0.98595         0.05631
| 84>    H        3.73326        -1.74994         2.34206
| 85>    H        2.04356        -2.73210         3.82339
| 86>    H       -0.29570        -2.96119         3.10577
| 87>    H       -1.30594        -1.33884        -2.89607
| 88>    H       -4.27185        -1.78785        -5.19172
| 89>    H       -2.68457        -1.23549        -4.62457
| 90>    H       -5.37771        -0.42809        -3.41908
| 91>    H       -4.36293         0.58651        -4.45060
| 92>    H       -3.80570         0.11491        -2.83889
| 93>    H       -5.41114        -7.97416        -0.04808
| 94>    H       -4.52026        -6.44220         0.10057
| 95>    H       -3.11806        -8.28991        -0.83283
| 96>    H       -3.29353        -6.98371        -2.00386
| 97>    H       -4.24250        -8.46299        -2.18621
| 98>    H       -8.47862        -8.14118         1.68190
| 99>    H       -7.09168        -7.34672         0.93628
|100>    H       -7.36162       -10.29129         1.77366
|101>    H       -6.29402        -9.08653         2.49183
|102>    H       -5.97658        -9.70616         0.86598
|103>    H      -13.81146       -11.47931        -0.30387
|104>    H      -13.67867       -12.83106         0.82154
|105>    H      -12.20597       -14.00308        -0.93655
|106>    H      -12.55689       -12.66667        -2.02293
|107>    H      -13.86621       -13.70410        -1.45562
|108>    H      -11.87712       -11.70510         3.93077
|109>    H      -14.53701       -16.85640         1.46295
|110>    H      -16.42213       -17.72849         2.77437
|111>    H      -17.04300       -16.72570         4.92462
|112>    H      -15.77390       -14.77344         5.81002
|113> *
|114>
|115>                          ****END OF INPUT****

CARTESIAN COORDINATES (ANGSTROEM)
---------------------------------
  C      0.444890   -1.202420   -0.980870
  O      0.965520   -0.670300   -1.935290
  C      1.060140   -1.550960    0.317800
  C      2.373460   -1.416440    0.723060
  C      2.714070   -1.844950    1.998850
  C      1.756570   -2.396620    2.838020
  C      0.432240   -2.525620    2.439880
  C      0.082110   -2.096130    1.170940
  C     -1.209010   -2.050230    0.488140
  C     -2.435780   -2.043400    1.100440
  C     -3.613720   -1.647470    0.433340
  N     -4.575770   -1.273900   -0.069840
  C     -2.640390   -2.337280    2.461670
  N     -2.864010   -2.602620    3.556350
  C     -0.950810   -1.704240   -0.890570
  C     -1.692460   -1.857880   -2.023670
  C     -2.816970   -2.676980   -2.250710
  S     -3.173250   -4.067350   -1.222880
  C     -4.532840   -4.471500   -2.200520
  C     -4.675460   -3.578090   -3.271110
  C     -3.704670   -2.574440   -3.316860
  C     -3.705780   -1.467020   -4.315080
  C     -4.354400   -0.215650   -3.717520
  S     -6.044090   -3.944380   -4.296400
  C     -6.422310   -5.283390   -3.272280
  C     -5.539710   -5.437740   -2.195630
  N     -5.929210   -6.495960   -1.414470
  C     -4.940220   -7.170040   -0.600990
  C     -3.826700   -7.762200   -1.465050
  C     -7.082740   -7.018500   -1.973030
  C     -7.382560   -6.301480   -3.165270
  C     -8.433400   -6.701300   -4.021000
  N     -8.794450   -6.181710   -5.183280
  S    -10.011350   -7.063210   -5.784920
  N    -10.129910   -8.139810   -4.582010
  C     -9.220120   -7.848960   -3.666120
  C     -9.015360   -8.454200   -2.405370
  C     -7.996940   -8.001820   -1.518700
  N     -8.168060   -8.623470   -0.297940
  C     -7.631130   -8.292000    1.003430
  C     -6.756930   -9.413190    1.565080
  C     -9.243510   -9.463910   -0.403800
  C     -9.770120   -9.401590   -1.699470
  S    -11.169490  -10.388590   -1.929440
  C    -11.079600  -10.873060   -0.250880
  C    -10.007460  -10.284420    0.432520
  S    -10.033950  -10.704120    2.100300
  C    -11.452100  -11.720010    1.855640
  C    -11.894780  -11.696320    0.538880
  C    -13.163160  -12.299420    0.021310
  C    -12.931000  -13.228190   -1.171290
  C    -12.005750  -12.294690    3.026130
  C    -12.727990  -13.434810    3.200170
  C    -12.916880  -14.610150    2.380830
  C    -12.020920  -15.104560    1.469930
  C    -12.197070  -16.316020    0.771920
  N    -12.300630  -17.285960    0.166850
  C    -10.786300  -14.484890    1.190780
  N     -9.758000  -14.032650    0.954130
  C    -14.082030  -15.321570    2.903390
  C    -14.790980  -16.403030    2.407820
  C    -15.858220  -16.888950    3.152250
  C    -16.212610  -16.319550    4.367000
  C    -15.511390  -15.231690    4.868980
  C    -14.454350  -14.738940    4.129210
  C    -13.571530  -13.589650    4.417540
  O    -13.555660  -12.888410    5.403020
  H      3.104670   -0.985950    0.056310
  H      3.733260   -1.749940    2.342060
  H      2.043560   -2.732100    3.823390
  H     -0.295700   -2.961190    3.105770
  H     -1.305940   -1.338840   -2.896070
  H     -4.271850   -1.787850   -5.191720
  H     -2.684570   -1.235490   -4.624570
  H     -5.377710   -0.428090   -3.419080
  H     -4.362930    0.586510   -4.450600
  H     -3.805700    0.114910   -2.838890
  H     -5.411140   -7.974160   -0.048080
  H     -4.520260   -6.442200    0.100570
  H     -3.118060   -8.289910   -0.832830
  H     -3.293530   -6.983710   -2.003860
  H     -4.242500   -8.462990   -2.186210
  H     -8.478620   -8.141180    1.681900
  H     -7.091680   -7.346720    0.936280
  H     -7.361620  -10.291290    1.773660
  H     -6.294020   -9.086530    2.491830
  H     -5.976580   -9.706160    0.865980
  H    -13.811460  -11.479310   -0.303870
  H    -13.678670  -12.831060    0.821540
  H    -12.205970  -14.003080   -0.936550
  H    -12.556890  -12.666670   -2.022930
  H    -13.866210  -13.704100   -1.455620
  H    -11.877120  -11.705100    3.930770
  H    -14.537010  -16.856400    1.462950
  H    -16.422130  -17.728490    2.774370
  H    -17.043000  -16.725700    4.924620
  H    -15.773900  -14.773440    5.810020

 Total Charge           Charge          ....    0
 Multiplicity           Mult            ....    1
 Number of Electrons    NEL             ....  494
 Basis Dimension        Dim             .... 2287

ORBITAL ENERGIES
----------------

  NO   OCC          E(Eh)            E(eV)
   0   2.0000     -88.941895     -2420.2320
   1   2.0000     -88.905705     -2419.2472
   2   2.0000     -88.905205     -2419.2336
   3   2.0000     -88.904573     -2419.2164
   4   2.0000     -88.903202     -2419.1791
   5   2.0000     -19.128058      -520.5009
   6   2.0000     -19.123932      -520.3886
   7   2.0000     -14.402789      -391.9198
   8   2.0000     -14.400179      -391.8488
   9   2.0000     -14.348908      -390.4536
  10   2.0000     -14.348543      -390.4437
  11   2.0000     -14.326169      -389.8349
  12   2.0000     -14.326142      -389.8341
  13   2.0000     -14.323907      -389.7733
  14   2.0000     -14.320843      -389.6899
  15   2.0000     -10.272532      -279.5298
  16   2.0000     -10.268700      -279.4255
  17   2.0000     -10.255298      -279.0608
  18   2.0000     -10.254686      -279.0442
  19   2.0000     -10.253313      -279.0068
  20   2.0000     -10.250215      -278.9225
  21   2.0000     -10.249338      -278.8987
  22   2.0000     -10.248211      -278.8680
  23   2.0000     -10.246601      -278.8242
  24   2.0000     -10.246101      -278.8106
  25   2.0000     -10.238824      -278.6126
  26   2.0000     -10.238609      -278.6067
  27   2.0000     -10.237193      -278.5682
  28   2.0000     -10.236358      -278.5455
  29   2.0000     -10.234396      -278.4921
  30   2.0000     -10.233983      -278.4808
  31   2.0000     -10.231838      -278.4225
  32   2.0000     -10.228510      -278.3319
  33   2.0000     -10.226248      -278.2704
  34   2.0000     -10.225984      -278.2632
  35   2.0000     -10.225291      -278.2443
  36   2.0000     -10.224964      -278.2354
  37   2.0000     -10.224295      -278.2172
  38   2.0000     -10.223325      -278.1908
  39   2.0000     -10.222648      -278.1724
  40   2.0000     -10.222577      -278.1705
  41   2.0000     -10.222372      -278.1649
  42   2.0000     -10.220221      -278.1063
  43   2.0000     -10.219964      -278.0994
  44   2.0000     -10.219809      -278.0951
  45   2.0000     -10.219532      -278.0876
  46   2.0000     -10.216449      -278.0037
  47   2.0000     -10.211112      -277.8585
  48   2.0000     -10.209562      -277.8163
  49   2.0000     -10.208844      -277.7968
  50   2.0000     -10.206171      -277.7240
  51   2.0000     -10.206032      -277.7203
  52   2.0000     -10.205539      -277.7068
  53   2.0000     -10.205344      -277.7015
  54   2.0000     -10.204781      -277.6862
  55   2.0000     -10.203435      -277.6496
  56   2.0000     -10.202968      -277.6369
  57   2.0000     -10.202847      -277.6336
  58   2.0000     -10.202362      -277.6204
  59   2.0000     -10.202155      -277.6148
  60   2.0000     -10.201616      -277.6001
  61   2.0000     -10.195639      -277.4374
  62   2.0000     -10.195224      -277.4262
  63   2.0000     -10.193232      -277.3719
  64   2.0000     -10.189465      -277.2694
  65   2.0000     -10.173438      -276.8333
  66   2.0000     -10.168526      -276.6996
  67   2.0000      -8.012997      -218.0447
  68   2.0000      -7.982183      -217.2062
  69   2.0000      -7.981338      -217.1832
  70   2.0000      -7.980729      -217.1667
  71   2.0000      -7.978828      -217.1149
  72   2.0000      -5.977725      -162.6622
  73   2.0000      -5.970342      -162.4613
  74   2.0000      -5.969734      -162.4447
  75   2.0000      -5.944906      -161.7691
  76   2.0000      -5.944014      -161.7449
  77   2.0000      -5.943675      -161.7356
  78   2.0000      -5.941785      -161.6842
  79   2.0000      -5.941084      -161.6651
  80   2.0000      -5.940280      -161.6432
  81   2.0000      -5.939918      -161.6334
  82   2.0000      -5.938352      -161.5908
  83   2.0000      -5.937997      -161.5811
  84   2.0000      -5.937427      -161.5656
  85   2.0000      -5.936550      -161.5417
  86   2.0000      -5.934629      -161.4895
  87   2.0000      -1.058132       -28.7932
  88   2.0000      -1.053824       -28.6760
  89   2.0000      -1.041667       -28.3452
  90   2.0000      -1.028678       -27.9917
  91   2.0000      -1.028125       -27.9767
  92   2.0000      -0.942535       -25.6477
  93   2.0000      -0.939542       -25.5662
  94   2.0000      -0.931970       -25.3602
  95   2.0000      -0.930849       -25.3297
  96   2.0000      -0.921681       -25.0802
  97   2.0000      -0.918334       -24.9891
  98   2.0000      -0.918137       -24.9838
  99   2.0000      -0.914701       -24.8903
 100   2.0000      -0.898970       -24.4622
 101   2.0000      -0.888713       -24.1831
 102   2.0000      -0.878393       -23.9023
 103   2.0000      -0.873385       -23.7660
 104   2.0000      -0.866636       -23.5824
 105   2.0000      -0.862158       -23.4605
 106   2.0000      -0.834805       -22.7162
 107   2.0000      -0.825151       -22.4535
 108   2.0000      -0.820729       -22.3332
 109   2.0000      -0.819652       -22.3039
 110   2.0000      -0.818959       -22.2850
 111   2.0000      -0.812853       -22.1188
 112   2.0000      -0.801464       -21.8089
 113   2.0000      -0.797820       -21.7098
 114   2.0000      -0.785053       -21.3624
 115   2.0000      -0.782153       -21.2835
 116   2.0000      -0.781677       -21.2705
 117   2.0000      -0.773066       -21.0362
 118   2.0000      -0.758163       -20.6307
 119   2.0000      -0.754194       -20.5226
 120   2.0000      -0.747239       -20.3334
 121   2.0000      -0.732790       -19.9402
 122   2.0000      -0.727119       -19.7859
 123   2.0000      -0.723423       -19.6853
 124   2.0000      -0.710828       -19.3426
 125   2.0000      -0.695391       -18.9226
 126   2.0000      -0.689366       -18.7586
 127   2.0000      -0.682938       -18.5837
 128   2.0000      -0.679704       -18.4957
 129   2.0000      -0.677379       -18.4324
 130   2.0000      -0.656382       -17.8611
 131   2.0000      -0.651385       -17.7251
 132   2.0000      -0.646293       -17.5865
 133   2.0000      -0.644752       -17.5446
 134   2.0000      -0.633291       -17.2327
 135   2.0000      -0.629956       -17.1420
 136   2.0000      -0.628835       -17.1115
 137   2.0000      -0.621808       -16.9203
 138   2.0000      -0.607737       -16.5374
 139   2.0000      -0.605266       -16.4701
 140   2.0000      -0.598761       -16.2931
 141   2.0000      -0.589969       -16.0539
 142   2.0000      -0.586945       -15.9716
 143   2.0000      -0.580142       -15.7865
 144   2.0000      -0.572474       -15.5778
 145   2.0000      -0.566534       -15.4162
 146   2.0000      -0.558081       -15.1862
 147   2.0000      -0.551863       -15.0170
 148   2.0000      -0.544621       -14.8199
 149   2.0000      -0.542946       -14.7743
 150   2.0000      -0.536545       -14.6001
 151   2.0000      -0.531959       -14.4753
 152   2.0000      -0.530765       -14.4428
 153   2.0000      -0.525060       -14.2876
 154   2.0000      -0.520709       -14.1692
 155   2.0000      -0.511718       -13.9245
 156   2.0000      -0.506931       -13.7943
 157   2.0000      -0.502093       -13.6626
 158   2.0000      -0.499952       -13.6044
 159   2.0000      -0.495655       -13.4875
 160   2.0000      -0.487422       -13.2634
 161   2.0000      -0.485530       -13.2119
 162   2.0000      -0.483465       -13.1558
 163   2.0000      -0.479521       -13.0484
 164   2.0000      -0.477381       -12.9902
 165   2.0000      -0.475972       -12.9519
 166   2.0000      -0.473908       -12.8957
 167   2.0000      -0.469079       -12.7643
 168   2.0000      -0.464656       -12.6439
 169   2.0000      -0.462974       -12.5982
 170   2.0000      -0.461650       -12.5621
 171   2.0000      -0.459319       -12.4987
 172   2.0000      -0.456825       -12.4308
 173   2.0000      -0.454948       -12.3798
 174   2.0000      -0.453918       -12.3517
 175   2.0000      -0.452760       -12.3202
 176   2.0000      -0.448506       -12.2045
 177   2.0000      -0.447182       -12.1684
 178   2.0000      -0.442215       -12.0333
 179   2.0000      -0.440355       -11.9827
 180   2.0000      -0.438946       -11.9443
 181   2.0000      -0.434742       -11.8299
 182   2.0000      -0.432089       -11.7577
 183   2.0000      -0.431322       -11.7369
 184   2.0000      -0.424079       -11.5398
 185   2.0000      -0.421536       -11.4706
 186   2.0000      -0.420848       -11.4519
 187   2.0000      -0.419677       -11.4200
 188   2.0000      -0.418653       -11.3921
 189   2.0000      -0.414855       -11.2888
 190   2.0000      -0.410484       -11.1698
 191   2.0000      -0.409187       -11.1345
 192   2.0000      -0.406146       -11.0518
 193   2.0000      -0.403551       -10.9812
 194   2.0000      -0.397391       -10.8136
 195   2.0000      -0.395685       -10.7671
 196   2.0000      -0.394550       -10.7362
 197   2.0000      -0.393665       -10.7122
 198   2.0000      -0.391360       -10.6494
 199   2.0000      -0.391238       -10.6461
 200   2.0000      -0.389559       -10.6004
 201   2.0000      -0.388483       -10.5712
 202   2.0000      -0.386849       -10.5267
 203   2.0000      -0.386349       -10.5131
 204   2.0000      -0.385372       -10.4865
 205   2.0000      -0.384194       -10.4544
 206   2.0000      -0.382882       -10.4187
 207   2.0000      -0.380516       -10.3544
 208   2.0000      -0.379382       -10.3235
 209   2.0000      -0.378406       -10.2969
 210   2.0000      -0.374283       -10.1847
 211   2.0000      -0.374153       -10.1812
 212   2.0000      -0.370485       -10.0814
 213   2.0000      -0.365117        -9.9353
 214   2.0000      -0.364102        -9.9077
 215   2.0000      -0.362550        -9.8655
 216   2.0000      -0.360346        -9.8055
 217   2.0000      -0.359082        -9.7711
 218   2.0000      -0.357547        -9.7294
 219   2.0000      -0.355776        -9.6811
 220   2.0000      -0.355568        -9.6755
 221   2.0000      -0.352166        -9.5829
 222   2.0000      -0.350858        -9.5473
 223   2.0000      -0.343750        -9.3539
 224   2.0000      -0.342638        -9.3236
 225   2.0000      -0.341829        -9.3017
 226   2.0000      -0.339639        -9.2421
 227   2.0000      -0.331825        -9.0294
 228   2.0000      -0.331301        -9.0152
 229   2.0000      -0.329699        -8.9716
 230   2.0000      -0.307580        -8.3697
 231   2.0000      -0.304615        -8.2890
 232   2.0000      -0.302984        -8.2446
 233   2.0000      -0.291107        -7.9214
 234   2.0000      -0.288967        -7.8632
 235   2.0000      -0.285964        -7.7815
 236   2.0000      -0.280365        -7.6291
 237   2.0000      -0.275146        -7.4871
 238   2.0000      -0.271980        -7.4010
 239   2.0000      -0.268168        -7.2972
 240   2.0000      -0.264064        -7.1855
 241   2.0000      -0.259750        -7.0682
 242   2.0000      -0.255565        -6.9543
 243   2.0000      -0.239407        -6.5146
 244   2.0000      -0.232554        -6.3281
 245   2.0000      -0.228153        -6.2084
 246   2.0000      -0.200540        -5.4570
 247   0.0000      -0.127767        -3.4767
 248   0.0000      -0.119819        -3.2605
 249   0.0000      -0.102984        -2.8023
 250   0.0000      -0.098381        -2.6771
 251   0.0000      -0.084361        -2.2956

MULLIKEN ATOMIC CHARGES
-----------------------
   0 C :    0.202811
   1 O :   -0.291737
   2 C :   -0.009247
   3 C :   -0.205601
   4 C :   -0.070688
   5 C :   -0.103839
   6 C :   -0.174775
   7 C :    0.108743
   8 C :   -0.002982
   9 C :    0.124799
  10 C :   -0.215999
  11 N :    0.029513
  12 C :   -0.251636
  13 N :    0.037826
  14 C :   -0.010525
  15 C :   -0.310518
  16 C :    0.228052
  17 S :   -0.036121
  18 C :   -0.230313
  19 C :    0.015202
  20 C :    0.074387
  21 C :   -0.233441
  22 C :   -0.312991
  23 S :    0.032049
  24 C :   -0.153645
  25 C :    0.418037
  26 N :   -0.097959
  27 C :   -0.128079
  28 C :   -0.341004
  29 C :   -0.012539
  30 C :    0.089715
  31 C :   -0.018091
  32 N :   -0.254044
  33 S :    0.347046
  34 N :   -0.250797
  35 C :   -0.005046
  36 C :    0.080187
  37 C :    0.076748
  38 N :   -0.050827
  39 C :   -0.232540
  40 C :   -0.321575
  41 C :    0.395804
  42 C :   -0.172570
  43 S :    0.012683
  44 C :    0.068772
  45 C :   -0.204602
  46 S :   -0.021834
  47 C :    0.142439
  48 C :   -0.007216
  49 C :   -0.179377
  50 C :   -0.350268
  51 C :   -0.237489
  52 C :    0.023408
  53 C :   -0.101707
  54 C :    0.081322
  55 C :   -0.211767
  56 N :    0.044547
  57 C :   -0.227462
  58 N :    0.050608
  59 C :    0.130965
  60 C :   -0.167600
  61 C :   -0.106375
  62 C :   -0.066838
  63 C :   -0.201878
  64 C :   -0.015993
  65 C :    0.215411
  66 O :   -0.286504
  67 H :    0.133950
  68 H :    0.122993
  69 H :    0.124862
  70 H :    0.149559
  71 H :    0.136536
  72 H :    0.103848
  73 H :    0.111127
  74 H :    0.119614
  75 H :    0.112360
  76 H :    0.130238
  77 H :    0.092947
  78 H :    0.134233
  79 H :    0.119521
  80 H :    0.138016
  81 H :    0.122969
  82 H :    0.136481
  83 H :    0.172179
  84 H :    0.144306
  85 H :    0.125937
  86 H :    0.117692
  87 H :    0.111916
  88 H :    0.126901
  89 H :    0.133410
  90 H :    0.126674
  91 H :    0.116134
  92 H :    0.147930
  93 H :    0.155763
  94 H :    0.126647
  95 H :    0.124456
  96 H :    0.135768
Sum of atomic charges:    0.0000000

LOEWDIN ATOMIC CHARGES
----------------------
   0 C :   -0.254714
   1 O :    0.131562
   2 C :   -0.056942
   3 C :   -0.070103
   4 C :   -0.113832
   5 C :   -0.110267
   6 C :   -0.076658
   7 C :   -0.042148
   8 C :   -0.003709
   9 C :   -0.155882
  10 C :   -0.181326
  11 N :    0.083850
  12 C :   -0.165123
  13 N :    0.076113
  14 C :   -0.091431
  15 C :   -0.059813
  16 C :   -0.305591
  17 S :    0.795707
  18 C :   -0.337337
  19 C :   -0.322144
  20 C :   -0.131407
  21 C :   -0.228231
  22 C :   -0.278940
  23 S :    0.761557
  24 C :   -0.286745
  25 C :   -0.184980
  26 N :    0.289984
  27 C :   -0.267876
  28 C :   -0.288249
  29 C :   -0.092887
  30 C :   -0.089338
  31 C :   -0.245057
  32 N :   -0.127299
  33 S :    0.655160
  34 N :   -0.127355
  35 C :   -0.244433
  36 C :   -0.090920
  37 C :   -0.092935
  38 N :    0.297884
  39 C :   -0.266966
  40 C :   -0.298272
  41 C :   -0.181460
  42 C :   -0.290359
  43 S :    0.762592
  44 C :   -0.316250
  45 C :   -0.339208
  46 S :    0.769257
  47 C :   -0.312694
  48 C :   -0.137083
  49 C :   -0.226064
  50 C :   -0.283714
  51 C :   -0.066861
  52 C :   -0.088425
  53 C :   -0.003908
  54 C :   -0.144422
  55 C :   -0.166483
  56 N :    0.083150
  57 C :   -0.160192
  58 N :    0.095942
  59 C :   -0.043669
  60 C :   -0.074793
  61 C :   -0.108061
  62 C :   -0.111709
  63 C :   -0.068593
  64 C :   -0.057467
  65 C :   -0.252706
  66 O :    0.136705
  67 H :    0.155114
  68 H :    0.147175
  69 H :    0.148872
  70 H :    0.158247
  71 H :    0.172271
  72 H :    0.142141
  73 H :    0.144449
  74 H :    0.124996
  75 H :    0.118628
  76 H :    0.124326
  77 H :    0.140025
  78 H :    0.138710
  79 H :    0.124890
  80 H :    0.122769
  81 H :    0.124726
  82 H :    0.142096
  83 H :    0.141931
  84 H :    0.119470
  85 H :    0.126860
  86 H :    0.117541
  87 H :    0.150836
  88 H :    0.150356
  89 H :    0.127709
  90 H :    0.115076
  91 H :    0.122594
  92 H :    0.169748
  93 H :    0.159143
  94 H :    0.149538
  95 H :    0.147739
  96 H :    0.155594

  Mayer bond orders larger than 0.100000
B(  0-C ,  1-O ) :   2.1866 B(  0-C ,  2-C ) :   0.9632 B(  0-C , 14-C ) :   0.9983
B(  1-O ,  2-C ) :  -0.1497 B(  1-O , 14-C ) :  -0.1376 B(  1-O , 15-C ) :   0.1016
B(  2-C ,  3-C ) :   1.3885 B(  2-C ,  7-C ) :   1.3199 B(  3-C ,  4-C ) :   1.3747
B(  3-C , 67-H ) :   0.9799 B(  4-C ,  5-C ) :   1.3876 B(  4-C , 68-H ) :   0.9739
B(  5-C ,  6-C ) :   1.4173 B(  5-C , 69-H ) :   0.9684 B(  6-C ,  7-C ) :   1.3795
B(  6-C , 70-H ) :   0.9449 B(  7-C ,  8-C ) :   1.0499 B(  8-C ,  9-C ) :   1.4103
B(  8-C , 14-C ) :   1.1459 B(  9-C , 10-C ) :   1.0404 B(  9-C , 12-C ) :   1.0493
B( 10-C , 11-N ) :   2.9712 B( 12-C , 13-N ) :   3.0091 B( 14-C , 15-C ) :   1.5224
B( 15-C , 16-C ) :   1.0306 B( 15-C , 71-H ) :   0.9664 B( 16-C , 17-S ) :   1.1618
B( 16-C , 20-C ) :   1.4042 B( 17-S , 18-C ) :   1.3242 B( 17-S , 25-C ) :  -0.1410
B( 18-C , 19-C ) :   1.3717 B( 18-C , 23-S ) :   0.1247 B( 18-C , 25-C ) :   1.0290
B( 19-C , 20-C ) :   1.3055 B( 19-C , 23-S ) :   1.1748 B( 19-C , 25-C ) :  -0.1112
B( 20-C , 21-C ) :   0.9336 B( 21-C , 22-C ) :   0.9695 B( 21-C , 72-H ) :   0.9765
B( 21-C , 73-H ) :   0.9724 B( 22-C , 74-H ) :   0.9690 B( 22-C , 75-H ) :   0.9706
B( 22-C , 76-H ) :   0.9707 B( 23-S , 24-C ) :   1.3622 B( 24-C , 25-C ) :   1.2452
B( 24-C , 30-C ) :   1.1613 B( 25-C , 26-N ) :   1.1131 B( 26-N , 27-C ) :   0.8893
B( 26-N , 29-C ) :   1.1997 B( 27-C , 28-C ) :   0.9638 B( 27-C , 77-H ) :   0.9569
B( 27-C , 78-H ) :   0.9626 B( 28-C , 79-H ) :   0.9698 B( 28-C , 80-H ) :   0.9729
B( 28-C , 81-H ) :   0.9681 B( 29-C , 30-C ) :   1.2962 B( 29-C , 37-C ) :   1.2555
B( 30-C , 31-C ) :   1.1133 B( 31-C , 32-N ) :   1.5846 B( 31-C , 33-S ) :   0.1140
B( 31-C , 35-C ) :   1.1833 B( 32-N , 33-S ) :   1.2882 B( 32-N , 34-N ) :   0.1000
B( 33-S , 34-N ) :   1.2851 B( 33-S , 35-C ) :   0.1212 B( 34-N , 35-C ) :   1.5846
B( 35-C , 36-C ) :   1.1261 B( 36-C , 37-C ) :   1.2459 B( 36-C , 42-C ) :   1.1858
B( 37-C , 38-N ) :   1.2307 B( 38-N , 39-C ) :   0.8747 B( 38-N , 41-C ) :   1.1333
B( 39-C , 40-C ) :   0.9368 B( 39-C , 82-H ) :   0.9593 B( 39-C , 83-H ) :   0.9660
B( 40-C , 84-H ) :   0.9594 B( 40-C , 85-H ) :   0.9707 B( 40-C , 86-H ) :   0.9678
B( 41-C , 42-C ) :   1.2557 B( 41-C , 44-C ) :  -0.1073 B( 41-C , 45-C ) :   1.0400
B( 41-C , 46-S ) :  -0.1471 B( 42-C , 43-S ) :   1.3605 B( 43-S , 44-C ) :   1.1663
B( 43-S , 45-C ) :   0.1228 B( 44-C , 45-C ) :   1.4395 B( 44-C , 48-C ) :   1.2273
B( 45-C , 46-S ) :   1.3139 B( 46-S , 47-C ) :   1.1948 B( 47-C , 48-C ) :   1.4153
B( 47-C , 51-C ) :   1.0526 B( 48-C , 49-C ) :   0.9503 B( 49-C , 50-C ) :   0.9551
B( 49-C , 87-H ) :   0.9447 B( 49-C , 88-H ) :   0.9826 B( 50-C , 89-H ) :   0.9690
B( 50-C , 90-H ) :   0.9662 B( 50-C , 91-H ) :   0.9743 B( 51-C , 52-C ) :   1.5177
B( 51-C , 66-O ) :   0.1060 B( 51-C , 92-H ) :   0.9521 B( 52-C , 53-C ) :   1.1233
B( 52-C , 65-C ) :   0.9889 B( 52-C , 66-O ) :  -0.1424 B( 53-C , 54-C ) :   1.3796
B( 53-C , 59-C ) :   1.0212 B( 54-C , 55-C ) :   1.0477 B( 54-C , 57-C ) :   1.0747
B( 55-C , 56-N ) :   2.9993 B( 57-C , 58-N ) :   2.9767 B( 59-C , 60-C ) :   1.3820
B( 59-C , 64-C ) :   1.3254 B( 60-C , 61-C ) :   1.4217 B( 60-C , 93-H ) :   0.9372
B( 61-C , 62-C ) :   1.3870 B( 61-C , 94-H ) :   0.9672 B( 62-C , 63-C ) :   1.3770
B( 62-C , 95-H ) :   0.9716 B( 63-C , 64-C ) :   1.3848 B( 63-C , 96-H ) :   0.9793
B( 64-C , 65-C ) :   0.9754 B( 64-C , 66-O ) :  -0.1454 B( 65-C , 66-O ) :   2.1897

-----------------------------------------------------------------------------
         ABSORPTION SPECTRUM VIA TRANSITION ELECTRIC DIPOLE MOMENTS
-----------------------------------------------------------------------------
State   Energy    Wavelength  fosc         T2        TX        TY        TZ
        (cm-1)      (nm)                 (au**2)    (au)      (au)      (au)
-----------------------------------------------------------------------------
   1   14442.9    692.4   1.624418043  37.02715   4.05150   4.49280  -0.65365
   2   16205.6    617.1   0.115565135   2.34768   0.93478   0.25630   1.18667
   3   18947.4    527.8   0.380111931   6.60445   1.72186   1.68406  -0.89644
   4   19270.5    518.9   0.069089474   1.18031  -0.90034  -0.60311   0.07715
   5   19812.4    504.7   0.118399564   1.96738   1.00965   0.96377  -0.13832
   6   20267.6    493.4   0.022838251   0.37097   0.25168   0.35587   0.42542
   7   21601.4    462.9   0.220224599   3.35629  -0.12306   0.71030  -1.68422
   8   21777.7    459.2   0.089755849   1.35683   0.65898   0.42048   0.86358
   9   22178.1    450.9   0.113526390   1.68518  -0.39209   0.52802  -1.11922
  10   22808.9    438.4   0.047058749   0.67922  -0.00776  -0.16736   0.80694
  11   23250.5    430.1   0.034529109   0.48891   0.29827   0.22581   0.59072
  12   24758.2    403.9   0.024906338   0.33118   0.45720   0.14504  -0.31798
  13   25031.3    399.5   0.016464374   0.21654  -0.23527  -0.40107   0.01815
  14   25545.8    391.5   0.016785875   0.21632  -0.17735   0.37139  -0.21665
  15   25856.7    386.7   0.045167714   0.57508  -0.57523  -0.35303   0.34578
  16   25989.4    384.8   0.028727284   0.36389   0.29428   0.17336   0.49723
  17   26280.4    380.5   0.021445317   0.26864   0.12952  -0.25554   0.43194
  18   26532.5    376.9   0.015041263   0.18663  -0.27113   0.14026  -0.30569
  19   26951.6    371.0   0.037399662   0.45683  -0.25808  -0.57483  -0.24454
  20   27153.1    368.3   0.010186211   0.12350   0.07652  -0.11033  -0.32477
  21   27340.5    365.8   0.004460102   0.05370   0.02845  -0.01692  -0.22937
  22   27366.6    365.4   0.010390035   0.12499  -0.20006  -0.25119   0.14788
  23   27640.4    361.8   0.006225017   0.07414  -0.20729  -0.02454   0.17485
  24   28000.0    357.1   0.030205588   0.35514   0.20049  -0.22782   0.51288
  25   28211.3    354.5   0.004367917   0.05097   0.21987   0.04854  -0.01649
  26   28512.5    350.7   0.342998052   3.96034  -1.69329  -1.03325   0.15966
  27   28830.9    346.8   0.048915780   0.55855  -0.26072  -0.22297   0.66398
  28   29075.0    343.9   0.077959498   0.88272  -0.54206   0.08664  -0.76249
  29   29357.8    340.6   0.019475809   0.21840   0.32095  -0.09939   0.32482
  30   29497.8    339.0   0.048682957   0.54333   0.30869  -0.20983   0.63562
  31   29713.7    336.5   0.078473824   0.86945   0.64387   0.27517  -0.61576
  32   30065.4    332.6   0.032057556   0.35103  -0.18939   0.12360  -0.54761
  33   30226.5    330.8   0.134155407   1.46115   0.89403   0.69425  -0.42412
  34   30663.4    326.1   0.183127152   1.96611   0.95406   0.69211  -0.75951
  35   30876.0    323.9   0.052659756   0.56148  -0.10646   0.33065  -0.66394
  36   31219.2    320.3   0.015669816   0.16524   0.23837   0.05603  -0.32447
  37   31343.5    319.0   0.124630666   1.30904   0.66827   0.06483   0.92642
  38   31451.1    318.0   0.001584317   0.01658  -0.06463  -0.08153  -0.07589
  39   31665.3    315.8   0.016654324   0.17315  -0.38846  -0.02644  -0.14680
  40   31958.6    312.9   0.004430635   0.04564   0.03185   0.10416  -0.18378
  41   32001.4    312.5   0.018883984   0.19427   0.35661   0.20641  -0.15649
  42   32437.5    308.3   0.013470937   0.13672   0.17541   0.07388  -0.31700
  43   32919.0    303.8   0.043105626   0.43108  -0.60723  -0.16266  -0.18948
  44   33003.0    303.0   0.021926233   0.21872  -0.44249  -0.11100  -0.10295
  45   33433.5    299.1   0.022083128   0.21745  -0.41977  -0.19208   0.06592
  46   33716.5    296.6   0.026278692   0.25659   0.07674   0.03894  -0.49918
  47   33880.9    295.2   0.322484265   3.13350  -1.70776   0.07851   0.45924
  48   34106.3    293.2   0.363863241   3.51220  -1.66428  -0.38044   0.77307
  49   34266.2    291.8   0.125036029   1.20128   0.09161   0.05960  -1.09057
  50   34519.8    289.7   0.110357424   1.05247  -0.94288  -0.22358   0.33685

FINAL SINGLE POINT ENERGY     -4578.071733767461

DIPOLE MOMENT
-------------
                                X             Y             Z
Electronic contribution:    -11.48559       3.70446     -12.74660
Nuclear contribution   :     11.60120      -4.22281      12.90437
                        -----------------------------------------
Total Dipole Moment    :      0.11561      -0.51835       0.15778
                        -----------------------------------------
Magnitude (a.u.)       :      0.55403
Magnitude (Debye)      :      1.40823

Rotational constants in cm-1:     0.002069     0.000357     0.000319
Rotational constants in MHz :    62.040836    10.700820     9.563756

                             ****ORCA TERMINATED NORMALLY****
TOTAL RUN TIME: 0 days 5 hours 17 minutes 33 seconds 149 msec
