                         Program Version 4.2.0 -  RELEASE  -
|  1> # ORCA input file
|  2> # ../Y5.out
|  3> ! B3LYP def2-TZVP def2/J RIJCOSX Grid4 TightSCF
|  4> %maxcore 1000
|  5> %tddft
|  6>   maxdim 5
|  7>   nroots 50
|  8>   end
|  9> * xyz 0 1
| 10>    C       -2.26755        -0.67117        -0.92230
| 11>    O       -2.36677         0.21267        -1.74273
| 12>    C       -1.05402        -1.12817        -0.21215
| 13>    C        0.25526        -0.71948        -0.37373
| 14>    C        1.23371        -1.33134         0.39820
| 15>    C        0.89908        -2.32770         1.30426
| 16>    C       -0.41690        -2.73669         1.47788
| 17>    C       -1.39987        -2.13036         0.71410
| 18>    C       -2.84916        -2.31324         0.68382
| 19>    C       -3.61346        -2.82844         1.69803
| 20>    C       -5.01659        -2.68941         1.73604
| 21>    N       -6.15300        -2.54425         1.81247
| 22>    C       -3.08627        -3.46046         2.84047
| 23>    N       -2.71041        -4.00600         3.77806
| 24>    C       -3.34602        -1.58535        -0.46082
| 25>    C       -4.49525        -1.69241        -1.18425
| 26>    C       -5.41757        -2.75662        -1.24857
| 27>    S       -4.99126        -4.38335        -0.71423
| 28>    C       -6.50057        -4.99280        -1.27866
| 29>    C       -7.27718        -3.97663        -1.85268
| 30>    C       -6.67259        -2.71649        -1.84685
| 31>    C       -7.33883        -1.47331        -2.32985
| 32>    C       -7.88817        -0.67132        -1.14808
| 33>    S       -8.80175        -4.54709        -2.49164
| 34>    C       -8.38202        -6.14585        -1.98883
| 35>    C       -7.14460        -6.23135        -1.33830
| 36>    N       -6.90043        -7.52278        -0.95134
| 37>    C       -5.52989        -7.91900        -0.70307
| 38>    C       -4.85966        -8.40579        -1.98552
| 39>    C       -7.97454        -8.29251        -1.37788
| 40>    C       -8.89647        -7.44797        -2.06024
| 41>    C      -10.02008        -7.96243        -2.74894
| 42>    N      -10.92381        -7.31027        -3.46365
| 43>    S      -11.93343        -8.38905        -4.11834
| 44>    N      -11.25049        -9.73033        -3.53151
| 45>    C      -10.21811        -9.37965        -2.78288
| 46>    C       -9.39578       -10.19561        -1.97278
| 47>    C       -8.31357        -9.66137        -1.20859
| 48>    N       -7.85065       -10.64486        -0.36892
| 49>    C       -6.98938       -10.52683         0.78486
| 50>    C       -5.61646       -11.15215         0.54571
| 51>    C       -8.59743       -11.77946        -0.58214
| 52>    C       -9.54367       -11.52748        -1.58380
| 53>    S      -10.63460       -12.81975        -1.89267
| 54>    C       -9.92241       -13.72038        -0.45541
| 55>    C       -8.71194       -13.02774         0.04699
| 56>    S       -7.84528       -13.63990         1.31844
| 57>    C      -10.79381       -14.31161         0.66189
| 58>    C      -10.27266       -15.14628        -0.21386
| 59>    C      -10.15937       -16.46887        -0.81558
| 60>    C      -10.81897       -17.53749         0.05031
| 61>    C      -11.08412       -13.85601         1.95671
| 62>    C      -11.15011       -12.53374         2.26618
| 63>    C      -11.35123       -11.41543         1.36658
| 64>    C      -12.24038       -11.40695         0.32863
| 65>    C      -12.54330       -10.25686        -0.42615
| 66>    N      -12.81793        -9.32834        -1.04213
| 67>    C      -13.00456       -12.55023         0.00390
| 68>    N      -13.64688       -13.47060        -0.23383
| 69>    C      -10.62133       -10.28510         1.92203
| 70>    C      -10.29388        -9.05602         1.37338
| 71>    C       -9.51927        -8.18702         2.12823
| 72>    C       -9.09426        -8.52523         3.40575
| 73>    C       -9.43534        -9.74758         3.97067
| 74>    C      -10.19612       -10.62313         3.22141
| 75>    C      -10.65398       -11.99330         3.56341
| 76>    O      -10.57947       -12.56420         4.62206
| 77>    H        0.49728         0.05578        -1.08429
| 78>    H        2.26542        -1.03165         0.29185
| 79>    H        1.67632        -2.79732         1.88846
| 80>    H       -0.65573        -3.51721         2.18284
| 81>    H       -4.66403        -0.88627        -1.89256
| 82>    H       -8.15787        -1.75126        -2.99534
| 83>    H       -6.63090        -0.85838        -2.88881
| 84>    H       -8.61407        -1.26318        -0.59726
| 85>    H       -8.37292         0.23414        -1.50337
| 86>    H       -7.08588        -0.39673        -0.46686
| 87>    H       -5.47345        -8.68538         0.06312
| 88>    H       -5.01095        -7.03263        -0.32892
| 89>    H       -5.38446        -9.27077        -2.38615
| 90>    H       -3.82911        -8.68199        -1.78086
| 91>    H       -4.86577        -7.62143        -2.73867
| 92>    H       -7.47053       -11.06429         1.60921
| 93>    H       -6.93436        -9.47467         1.06896
| 94>    H       -5.71614       -12.23359         0.50550
| 95>    H       -4.94979       -10.90328         1.36695
| 96>    H       -5.17694       -10.81480        -0.38916
| 97>    H       -9.09696       -16.68682        -0.96566
| 98>    H      -10.62342       -16.43801        -1.80780
| 99>    H      -10.34459       -17.57903         1.02859
|100>    H      -10.72555       -18.51096        -0.42333
|101>    H      -11.87496       -17.31360         0.18592
|102>    H      -11.02261       -14.58018         2.76117
|103>    H      -10.61806        -8.78110         0.38187
|104>    H       -9.24207        -7.22940         1.70983
|105>    H       -8.49531        -7.82665         3.96726
|106>    H       -9.11602       -10.01957         4.96442
|107> *
|108>
|109>                          ****END OF INPUT****

CARTESIAN COORDINATES (ANGSTROEM)
---------------------------------
  C     -2.267550   -0.671170   -0.922300
  O     -2.366770    0.212670   -1.742730
  C     -1.054020   -1.128170   -0.212150
  C      0.255260   -0.719480   -0.373730
  C      1.233710   -1.331340    0.398200
  C      0.899080   -2.327700    1.304260
  C     -0.416900   -2.736690    1.477880
  C     -1.399870   -2.130360    0.714100
  C     -2.849160   -2.313240    0.683820
  C     -3.613460   -2.828440    1.698030
  C     -5.016590   -2.689410    1.736040
  N     -6.153000   -2.544250    1.812470
  C     -3.086270   -3.460460    2.840470
  N     -2.710410   -4.006000    3.778060
  C     -3.346020   -1.585350   -0.460820
  C     -4.495250   -1.692410   -1.184250
  C     -5.417570   -2.756620   -1.248570
  S     -4.991260   -4.383350   -0.714230
  C     -6.500570   -4.992800   -1.278660
  C     -7.277180   -3.976630   -1.852680
  C     -6.672590   -2.716490   -1.846850
  C     -7.338830   -1.473310   -2.329850
  C     -7.888170   -0.671320   -1.148080
  S     -8.801750   -4.547090   -2.491640
  C     -8.382020   -6.145850   -1.988830
  C     -7.144600   -6.231350   -1.338300
  N     -6.900430   -7.522780   -0.951340
  C     -5.529890   -7.919000   -0.703070
  C     -4.859660   -8.405790   -1.985520
  C     -7.974540   -8.292510   -1.377880
  C     -8.896470   -7.447970   -2.060240
  C    -10.020080   -7.962430   -2.748940
  N    -10.923810   -7.310270   -3.463650
  S    -11.933430   -8.389050   -4.118340
  N    -11.250490   -9.730330   -3.531510
  C    -10.218110   -9.379650   -2.782880
  C     -9.395780  -10.195610   -1.972780
  C     -8.313570   -9.661370   -1.208590
  N     -7.850650  -10.644860   -0.368920
  C     -6.989380  -10.526830    0.784860
  C     -5.616460  -11.152150    0.545710
  C     -8.597430  -11.779460   -0.582140
  C     -9.543670  -11.527480   -1.583800
  S    -10.634600  -12.819750   -1.892670
  C     -9.922410  -13.720380   -0.455410
  C     -8.711940  -13.027740    0.046990
  S     -7.845280  -13.639900    1.318440
  C    -10.793810  -14.311610    0.661890
  C    -10.272660  -15.146280   -0.213860
  C    -10.159370  -16.468870   -0.815580
  C    -10.818970  -17.537490    0.050310
  C    -11.084120  -13.856010    1.956710
  C    -11.150110  -12.533740    2.266180
  C    -11.351230  -11.415430    1.366580
  C    -12.240380  -11.406950    0.328630
  C    -12.543300  -10.256860   -0.426150
  N    -12.817930   -9.328340   -1.042130
  C    -13.004560  -12.550230    0.003900
  N    -13.646880  -13.470600   -0.233830
  C    -10.621330  -10.285100    1.922030
  C    -10.293880   -9.056020    1.373380
  C     -9.519270   -8.187020    2.128230
  C     -9.094260   -8.525230    3.405750
  C     -9.435340   -9.747580    3.970670
  C    -10.196120  -10.623130    3.221410
  C    -10.653980  -11.993300    3.563410
  O    -10.579470  -12.564200    4.622060
  H      0.497280    0.055780   -1.084290
  H      2.265420   -1.031650    0.291850
  H      1.676320   -2.797320    1.888460
  H     -0.655730   -3.517210    2.182840
  H     -4.664030   -0.886270   -1.892560
  H     -8.157870   -1.751260   -2.995340
  H     -6.630900   -0.858380   -2.888810
  H     -8.614070   -1.263180   -0.597260
  H     -8.372920    0.234140   -1.503370
  H     -7.085880   -0.396730   -0.466860
  H     -5.473450   -8.685380    0.063120
  H     -5.010950   -7.032630   -0.328920
  H     -5.384460   -9.270770   -2.386150
  H     -3.829110   -8.681990   -1.780860
  H     -4.865770   -7.621430   -2.738670
  H     -7.470530  -11.064290    1.609210
  H     -6.934360   -9.474670    1.068960
  H     -5.716140  -12.233590    0.505500
  H     -4.949790  -10.903280    1.366950
  H     -5.176940  -10.814800   -0.389160
  H     -9.096960  -16.686820   -0.965660
  H    -10.623420  -16.438010   -1.807800
  H    -10.344590  -17.579030    1.028590
  H    -10.725550  -18.510960   -0.423330
  H    -11.874960  -17.313600    0.185920
  H    -11.022610  -14.580180    2.761170
  H    -10.618060   -8.781100    0.381870
  H     -9.242070   -7.229400    1.709830
  H     -8.495310   -7.826650    3.967260
  H     -9.116020  -10.019570    4.964420

 Total Charge           Charge          ....    0
 Multiplicity           Mult            ....    1
 Number of Electrons    NEL             ....  494
 Basis Dimension        Dim             .... 2287

ORBITAL ENERGIES
----------------

  NO   OCC          E(Eh)            E(eV)
   0   2.0000     -88.939322     -2420.1620
   1   2.0000     -88.909876     -2419.3607
   2   2.0000     -88.909094     -2419.3394
   3   2.0000     -88.887084     -2418.7405
   4   2.0000     -88.820609     -2416.9316
   5   2.0000     -19.133176      -520.6402
   6   2.0000     -19.128594      -520.5155
   7   2.0000     -14.406221      -392.0132
   8   2.0000     -14.403178      -391.9304
   9   2.0000     -14.347562      -390.4170
  10   2.0000     -14.344757      -390.3407
  11   2.0000     -14.330564      -389.9545
  12   2.0000     -14.328111      -389.8877
  13   2.0000     -14.325945      -389.8288
  14   2.0000     -14.323773      -389.7697
  15   2.0000     -10.280100      -279.7357
  16   2.0000     -10.273493      -279.5560
  17   2.0000     -10.262531      -279.2577
  18   2.0000     -10.259471      -279.1744
  19   2.0000     -10.258880      -279.1583
  20   2.0000     -10.254512      -279.0394
  21   2.0000     -10.252984      -278.9979
  22   2.0000     -10.251459      -278.9564
  23   2.0000     -10.249437      -278.9014
  24   2.0000     -10.247488      -278.8483
  25   2.0000     -10.245997      -278.8078
  26   2.0000     -10.245748      -278.8010
  27   2.0000     -10.242676      -278.7174
  28   2.0000     -10.242593      -278.7151
  29   2.0000     -10.234283      -278.4890
  30   2.0000     -10.233988      -278.4810
  31   2.0000     -10.233290      -278.4620
  32   2.0000     -10.232942      -278.4525
  33   2.0000     -10.232926      -278.4521
  34   2.0000     -10.232702      -278.4460
  35   2.0000     -10.231898      -278.4241
  36   2.0000     -10.230891      -278.3967
  37   2.0000     -10.229247      -278.3520
  38   2.0000     -10.229224      -278.3513
  39   2.0000     -10.227680      -278.3093
  40   2.0000     -10.227564      -278.3062
  41   2.0000     -10.226368      -278.2736
  42   2.0000     -10.224939      -278.2347
  43   2.0000     -10.224343      -278.2185
  44   2.0000     -10.223494      -278.1954
  45   2.0000     -10.222783      -278.1761
  46   2.0000     -10.220708      -278.1196
  47   2.0000     -10.218763      -278.0667
  48   2.0000     -10.217922      -278.0438
  49   2.0000     -10.211048      -277.8568
  50   2.0000     -10.210399      -277.8391
  51   2.0000     -10.209791      -277.8225
  52   2.0000     -10.209711      -277.8204
  53   2.0000     -10.209137      -277.8047
  54   2.0000     -10.208942      -277.7994
  55   2.0000     -10.208636      -277.7911
  56   2.0000     -10.207906      -277.7712
  57   2.0000     -10.207120      -277.7499
  58   2.0000     -10.207035      -277.7475
  59   2.0000     -10.206504      -277.7331
  60   2.0000     -10.206228      -277.7256
  61   2.0000     -10.205593      -277.7083
  62   2.0000     -10.199087      -277.5313
  63   2.0000     -10.193798      -277.3873
  64   2.0000     -10.179325      -276.9935
  65   2.0000     -10.177782      -276.9515
  66   2.0000     -10.172477      -276.8072
  67   2.0000      -8.010285      -217.9709
  68   2.0000      -7.986593      -217.3262
  69   2.0000      -7.984616      -217.2724
  70   2.0000      -7.963819      -216.7065
  71   2.0000      -7.899442      -214.9548
  72   2.0000      -5.974959      -162.5869
  73   2.0000      -5.967559      -162.3855
  74   2.0000      -5.967151      -162.3744
  75   2.0000      -5.949320      -161.8892
  76   2.0000      -5.947583      -161.8419
  77   2.0000      -5.945543      -161.7865
  78   2.0000      -5.943813      -161.7394
  79   2.0000      -5.942666      -161.7082
  80   2.0000      -5.940419      -161.6470
  81   2.0000      -5.926801      -161.2765
  82   2.0000      -5.923229      -161.1792
  83   2.0000      -5.918994      -161.0640
  84   2.0000      -5.861539      -159.5006
  85   2.0000      -5.859733      -159.4514
  86   2.0000      -5.854318      -159.3041
  87   2.0000      -1.064226       -28.9590
  88   2.0000      -1.058503       -28.8033
  89   2.0000      -1.043872       -28.4052
  90   2.0000      -1.030764       -28.0485
  91   2.0000      -1.026757       -27.9395
  92   2.0000      -0.949972       -25.8500
  93   2.0000      -0.944077       -25.6896
  94   2.0000      -0.939833       -25.5742
  95   2.0000      -0.936260       -25.4769
  96   2.0000      -0.923790       -25.1376
  97   2.0000      -0.922874       -25.1127
  98   2.0000      -0.920936       -25.0599
  99   2.0000      -0.919218       -25.0132
 100   2.0000      -0.897998       -24.4358
 101   2.0000      -0.890524       -24.2324
 102   2.0000      -0.879002       -23.9189
 103   2.0000      -0.875031       -23.8108
 104   2.0000      -0.872289       -23.7362
 105   2.0000      -0.866925       -23.5902
 106   2.0000      -0.836082       -22.7509
 107   2.0000      -0.829984       -22.5850
 108   2.0000      -0.825025       -22.4501
 109   2.0000      -0.823744       -22.4152
 110   2.0000      -0.812888       -22.1198
 111   2.0000      -0.810117       -22.0444
 112   2.0000      -0.802971       -21.8499
 113   2.0000      -0.796179       -21.6651
 114   2.0000      -0.790704       -21.5162
 115   2.0000      -0.788351       -21.4521
 116   2.0000      -0.785933       -21.3863
 117   2.0000      -0.780006       -21.2251
 118   2.0000      -0.767273       -20.8786
 119   2.0000      -0.754419       -20.5288
 120   2.0000      -0.745074       -20.2745
 121   2.0000      -0.731262       -19.8987
 122   2.0000      -0.727046       -19.7839
 123   2.0000      -0.722983       -19.6734
 124   2.0000      -0.701342       -19.0845
 125   2.0000      -0.694929       -18.9100
 126   2.0000      -0.690798       -18.7976
 127   2.0000      -0.685127       -18.6432
 128   2.0000      -0.674649       -18.3581
 129   2.0000      -0.670954       -18.2576
 130   2.0000      -0.666301       -18.1310
 131   2.0000      -0.651742       -17.7348
 132   2.0000      -0.646283       -17.5862
 133   2.0000      -0.644644       -17.5417
 134   2.0000      -0.636883       -17.3305
 135   2.0000      -0.630574       -17.1588
 136   2.0000      -0.627431       -17.0733
 137   2.0000      -0.627000       -17.0615
 138   2.0000      -0.611318       -16.6348
 139   2.0000      -0.609805       -16.5936
 140   2.0000      -0.602206       -16.3869
 141   2.0000      -0.593033       -16.1373
 142   2.0000      -0.581640       -15.8272
 143   2.0000      -0.578156       -15.7324
 144   2.0000      -0.571723       -15.5574
 145   2.0000      -0.568983       -15.4828
 146   2.0000      -0.557472       -15.1696
 147   2.0000      -0.553364       -15.0578
 148   2.0000      -0.549709       -14.9584
 149   2.0000      -0.544537       -14.8176
 150   2.0000      -0.538204       -14.6453
 151   2.0000      -0.533899       -14.5281
 152   2.0000      -0.529759       -14.4155
 153   2.0000      -0.524911       -14.2836
 154   2.0000      -0.519154       -14.1269
 155   2.0000      -0.511631       -13.9222
 156   2.0000      -0.507681       -13.8147
 157   2.0000      -0.502720       -13.6797
 158   2.0000      -0.501662       -13.6509
 159   2.0000      -0.495429       -13.4813
 160   2.0000      -0.490892       -13.3579
 161   2.0000      -0.489024       -13.3070
 162   2.0000      -0.484796       -13.1920
 163   2.0000      -0.481056       -13.0902
 164   2.0000      -0.479526       -13.0486
 165   2.0000      -0.476975       -12.9791
 166   2.0000      -0.471605       -12.8330
 167   2.0000      -0.468069       -12.7368
 168   2.0000      -0.467773       -12.7287
 169   2.0000      -0.466391       -12.6911
 170   2.0000      -0.465458       -12.6657
 171   2.0000      -0.463815       -12.6210
 172   2.0000      -0.461998       -12.5716
 173   2.0000      -0.461003       -12.5445
 174   2.0000      -0.459310       -12.4985
 175   2.0000      -0.457237       -12.4420
 176   2.0000      -0.455820       -12.4035
 177   2.0000      -0.451574       -12.2879
 178   2.0000      -0.446678       -12.1547
 179   2.0000      -0.444088       -12.0843
 180   2.0000      -0.438678       -11.9370
 181   2.0000      -0.436436       -11.8760
 182   2.0000      -0.436114       -11.8673
 183   2.0000      -0.433222       -11.7886
 184   2.0000      -0.428385       -11.6569
 185   2.0000      -0.426990       -11.6190
 186   2.0000      -0.422548       -11.4981
 187   2.0000      -0.416140       -11.3238
 188   2.0000      -0.413935       -11.2638
 189   2.0000      -0.410774       -11.1777
 190   2.0000      -0.409119       -11.1327
 191   2.0000      -0.406229       -11.0541
 192   2.0000      -0.404292       -11.0013
 193   2.0000      -0.400407       -10.8956
 194   2.0000      -0.398365       -10.8401
 195   2.0000      -0.395197       -10.7539
 196   2.0000      -0.394449       -10.7335
 197   2.0000      -0.394098       -10.7240
 198   2.0000      -0.391136       -10.6433
 199   2.0000      -0.390595       -10.6286
 200   2.0000      -0.390065       -10.6142
 201   2.0000      -0.389384       -10.5957
 202   2.0000      -0.387371       -10.5409
 203   2.0000      -0.386006       -10.5038
 204   2.0000      -0.385410       -10.4875
 205   2.0000      -0.383831       -10.4446
 206   2.0000      -0.383322       -10.4307
 207   2.0000      -0.378977       -10.3125
 208   2.0000      -0.378890       -10.3101
 209   2.0000      -0.377448       -10.2709
 210   2.0000      -0.375663       -10.2223
 211   2.0000      -0.373519       -10.1640
 212   2.0000      -0.371855       -10.1187
 213   2.0000      -0.370687       -10.0869
 214   2.0000      -0.367121        -9.9899
 215   2.0000      -0.366050        -9.9607
 216   2.0000      -0.361444        -9.8354
 217   2.0000      -0.360527        -9.8104
 218   2.0000      -0.359474        -9.7818
 219   2.0000      -0.358894        -9.7660
 220   2.0000      -0.355794        -9.6817
 221   2.0000      -0.354339        -9.6421
 222   2.0000      -0.348024        -9.4702
 223   2.0000      -0.346542        -9.4299
 224   2.0000      -0.343348        -9.3430
 225   2.0000      -0.335054        -9.1173
 226   2.0000      -0.332491        -9.0476
 227   2.0000      -0.329618        -8.9694
 228   2.0000      -0.318600        -8.6696
 229   2.0000      -0.314668        -8.5625
 230   2.0000      -0.307846        -8.3769
 231   2.0000      -0.301557        -8.2058
 232   2.0000      -0.300011        -8.1637
 233   2.0000      -0.292583        -7.9616
 234   2.0000      -0.290089        -7.8937
 235   2.0000      -0.284353        -7.7377
 236   2.0000      -0.278508        -7.5786
 237   2.0000      -0.276334        -7.5194
 238   2.0000      -0.269912        -7.3447
 239   2.0000      -0.267637        -7.2828
 240   2.0000      -0.261228        -7.1084
 241   2.0000      -0.254111        -6.9147
 242   2.0000      -0.250166        -6.8074
 243   2.0000      -0.236609        -6.4385
 244   2.0000      -0.228556        -6.2193
 245   2.0000      -0.222217        -6.0468
 246   2.0000      -0.209442        -5.6992
 247   0.0000      -0.132486        -3.6051
 248   0.0000      -0.125746        -3.4217
 249   0.0000      -0.105603        -2.8736
 250   0.0000      -0.104571        -2.8455
 251   0.0000      -0.096169        -2.6169

MULLIKEN ATOMIC CHARGES
-----------------------
   0 C :    0.198027
   1 O :   -0.290271
   2 C :   -0.011782
   3 C :   -0.200363
   4 C :   -0.070188
   5 C :   -0.103731
   6 C :   -0.176208
   7 C :    0.116919
   8 C :   -0.003270
   9 C :    0.126383
  10 C :   -0.218725
  11 N :    0.032121
  12 C :   -0.254485
  13 N :    0.041222
  14 C :   -0.002359
  15 C :   -0.284653
  16 C :    0.213960
  17 S :   -0.047742
  18 C :   -0.187619
  19 C :    0.008301
  20 C :    0.050915
  21 C :   -0.225088
  22 C :   -0.315414
  23 S :    0.039629
  24 C :   -0.127505
  25 C :    0.366470
  26 N :   -0.080764
  27 C :   -0.128521
  28 C :   -0.341027
  29 C :    0.028742
  30 C :    0.029436
  31 C :    0.060309
  32 N :   -0.251320
  33 S :    0.373641
  34 N :   -0.228519
  35 C :   -0.072177
  36 C :    0.073567
  37 C :   -0.050611
  38 N :    0.022368
  39 C :   -0.222396
  40 C :   -0.330548
  41 C :    0.112099
  42 C :    0.035159
  43 S :   -0.036926
  44 C :    0.230627
  45 C :   -0.153118
  46 S :   -0.315236
  47 C :    0.013411
  48 C :    0.047778
  49 C :   -0.152520
  50 C :   -0.350145
  51 C :   -0.202871
  52 C :    0.044429
  53 C :    0.168685
  54 C :    0.030141
  55 C :   -0.189310
  56 N :    0.020253
  57 C :   -0.219237
  58 N :    0.056351
  59 C :    0.102630
  60 C :   -0.210272
  61 C :   -0.134503
  62 C :   -0.096662
  63 C :   -0.180777
  64 C :   -0.014760
  65 C :    0.159000
  66 O :   -0.262113
  67 H :    0.135698
  68 H :    0.124740
  69 H :    0.126118
  70 H :    0.150411
  71 H :    0.138805
  72 H :    0.104984
  73 H :    0.112718
  74 H :    0.118922
  75 H :    0.114423
  76 H :    0.131574
  77 H :    0.128157
  78 H :    0.123543
  79 H :    0.128460
  80 H :    0.125199
  81 H :    0.132211
  82 H :    0.147533
  83 H :    0.154364
  84 H :    0.142376
  85 H :    0.116250
  86 H :    0.116330
  87 H :    0.124283
  88 H :    0.126249
  89 H :    0.120604
  90 H :    0.118457
  91 H :    0.132152
  92 H :    0.143020
  93 H :    0.193529
  94 H :    0.139937
  95 H :    0.132147
  96 H :    0.137967
Sum of atomic charges:   -0.0000000

LOEWDIN ATOMIC CHARGES
----------------------
   0 C :   -0.253600
   1 O :    0.133851
   2 C :   -0.056673
   3 C :   -0.068955
   4 C :   -0.112338
   5 C :   -0.108938
   6 C :   -0.075822
   7 C :   -0.042144
   8 C :   -0.003728
   9 C :   -0.154294
  10 C :   -0.180819
  11 N :    0.083738
  12 C :   -0.164443
  13 N :    0.079089
  14 C :   -0.089149
  15 C :   -0.058489
  16 C :   -0.303660
  17 S :    0.791420
  18 C :   -0.335284
  19 C :   -0.321056
  20 C :   -0.130743
  21 C :   -0.227964
  22 C :   -0.278382
  23 S :    0.763678
  24 C :   -0.289554
  25 C :   -0.184882
  26 N :    0.294822
  27 C :   -0.261484
  28 C :   -0.291158
  29 C :   -0.095150
  30 C :   -0.086832
  31 C :   -0.250376
  32 N :   -0.121181
  33 S :    0.684012
  34 N :   -0.114161
  35 C :   -0.254740
  36 C :   -0.098281
  37 C :   -0.091314
  38 N :    0.313839
  39 C :   -0.275734
  40 C :   -0.307916
  41 C :   -0.187390
  42 C :   -0.299386
  43 S :    0.754595
  44 C :   -0.296008
  45 C :   -0.438648
  46 S :    0.285123
  47 C :   -0.026998
  48 C :   -0.017320
  49 C :   -0.236766
  50 C :   -0.280069
  51 C :   -0.026866
  52 C :   -0.053244
  53 C :    0.004184
  54 C :   -0.141148
  55 C :   -0.152530
  56 N :    0.094300
  57 C :   -0.177150
  58 N :    0.089829
  59 C :   -0.046387
  60 C :   -0.072824
  61 C :   -0.113142
  62 C :   -0.113492
  63 C :   -0.068314
  64 C :   -0.056436
  65 C :   -0.246832
  66 O :    0.153957
  67 H :    0.155481
  68 H :    0.147641
  69 H :    0.149278
  70 H :    0.158391
  71 H :    0.173196
  72 H :    0.142390
  73 H :    0.145068
  74 H :    0.124881
  75 H :    0.119460
  76 H :    0.124556
  77 H :    0.138335
  78 H :    0.138462
  79 H :    0.122975
  80 H :    0.125751
  81 H :    0.125428
  82 H :    0.143173
  83 H :    0.134648
  84 H :    0.118858
  85 H :    0.123865
  86 H :    0.116634
  87 H :    0.159881
  88 H :    0.161234
  89 H :    0.124344
  90 H :    0.121566
  91 H :    0.127079
  92 H :    0.172287
  93 H :    0.160744
  94 H :    0.152129
  95 H :    0.149467
  96 H :    0.156553

  Mayer bond orders larger than 0.100000
B(  0-C ,  1-O ) :   2.1819 B(  0-C ,  2-C ) :   0.9685 B(  0-C , 14-C ) :   0.9966
B(  1-O ,  2-C ) :  -0.1457 B(  1-O , 14-C ) :  -0.1323 B(  2-C ,  3-C ) :   1.3836
B(  2-C ,  7-C ) :   1.3205 B(  3-C ,  4-C ) :   1.3764 B(  3-C , 67-H ) :   0.9783
B(  4-C ,  5-C ) :   1.3896 B(  4-C , 68-H ) :   0.9715 B(  5-C ,  6-C ) :   1.4180
B(  5-C , 69-H ) :   0.9670 B(  6-C ,  7-C ) :   1.3725 B(  6-C , 70-H ) :   0.9455
B(  7-C ,  8-C ) :   1.0464 B(  8-C ,  9-C ) :   1.4151 B(  8-C , 14-C ) :   1.1360
B(  9-C , 10-C ) :   1.0497 B(  9-C , 12-C ) :   1.0459 B( 10-C , 11-N ) :   2.9715
B( 12-C , 13-N ) :   3.0083 B( 14-C , 15-C ) :   1.5316 B( 15-C , 16-C ) :   1.0520
B( 15-C , 71-H ) :   0.9508 B( 16-C , 17-S ) :   1.1596 B( 16-C , 20-C ) :   1.4070
B( 17-S , 18-C ) :   1.3272 B( 17-S , 25-C ) :  -0.1420 B( 18-C , 19-C ) :   1.4049
B( 18-C , 23-S ) :   0.1252 B( 18-C , 25-C ) :   1.0581 B( 19-C , 20-C ) :   1.3025
B( 19-C , 23-S ) :   1.1807 B( 19-C , 25-C ) :  -0.1161 B( 20-C , 21-C ) :   0.9380
B( 21-C , 22-C ) :   0.9677 B( 21-C , 72-H ) :   0.9741 B( 21-C , 73-H ) :   0.9703
B( 22-C , 74-H ) :   0.9693 B( 22-C , 75-H ) :   0.9706 B( 22-C , 76-H ) :   0.9708
B( 23-S , 24-C ) :   1.3748 B( 24-C , 25-C ) :   1.2405 B( 24-C , 30-C ) :   1.1509
B( 25-C , 26-N ) :   1.1452 B( 26-N , 27-C ) :   0.8993 B( 26-N , 29-C ) :   1.1543
B( 27-C , 28-C ) :   0.9575 B( 27-C , 77-H ) :   0.9557 B( 27-C , 78-H ) :   0.9601
B( 28-C , 79-H ) :   0.9704 B( 28-C , 80-H ) :   0.9705 B( 28-C , 81-H ) :   0.9696
B( 29-C , 30-C ) :   1.2755 B( 29-C , 37-C ) :   1.2631 B( 30-C , 31-C ) :   1.1155
B( 31-C , 32-N ) :   1.5716 B( 31-C , 33-S ) :   0.1067 B( 31-C , 35-C ) :   1.1858
B( 32-N , 33-S ) :   1.3056 B( 33-S , 34-N ) :   1.2993 B( 33-S , 35-C ) :   0.1291
B( 34-N , 35-C ) :   1.5970 B( 35-C , 36-C ) :   1.0876 B( 36-C , 37-C ) :   1.1841
B( 36-C , 42-C ) :   1.2880 B( 37-C , 38-N ) :   1.2423 B( 38-N , 39-C ) :   0.8419
B( 38-N , 41-C ) :   1.1159 B( 39-C , 40-C ) :   0.9209 B( 39-C , 82-H ) :   0.9385
B( 39-C , 83-H ) :   0.9713 B( 40-C , 84-H ) :   0.9541 B( 40-C , 85-H ) :   0.9748
B( 40-C , 86-H ) :   0.9804 B( 41-C , 42-C ) :   1.2670 B( 41-C , 45-C ) :   1.2457
B( 42-C , 43-S ) :   1.2015 B( 43-S , 44-C ) :   0.9574 B( 43-S , 54-C ) :   0.1923
B( 44-C , 45-C ) :   0.9917 B( 44-C , 47-C ) :   0.9040 B( 44-C , 48-C ) :   0.9167
B( 45-C , 46-S ) :   1.7481 B( 47-C , 48-C ) :   1.6595 B( 47-C , 51-C ) :   1.1199
B( 48-C , 49-C ) :   0.9628 B( 49-C , 50-C ) :   0.9931 B( 49-C , 87-H ) :   0.9518
B( 49-C , 88-H ) :   0.9498 B( 50-C , 89-H ) :   0.9741 B( 50-C , 90-H ) :   0.9747
B( 50-C , 91-H ) :   0.9717 B( 51-C , 52-C ) :   1.6214 B( 51-C , 92-H ) :   0.9525
B( 52-C , 53-C ) :   1.0777 B( 52-C , 65-C ) :   0.9806 B( 52-C , 66-O ) :  -0.1194
B( 53-C , 54-C ) :   1.3768 B( 53-C , 59-C ) :   0.9580 B( 54-C , 55-C ) :   1.0496
B( 54-C , 57-C ) :   1.0683 B( 55-C , 56-N ) :   2.9141 B( 57-C , 58-N ) :   2.9961
B( 59-C , 60-C ) :   1.3611 B( 59-C , 64-C ) :   1.2697 B( 60-C , 61-C ) :   1.4171
B( 60-C , 93-H ) :   0.9220 B( 61-C , 62-C ) :   1.3590 B( 61-C , 94-H ) :   0.9782
B( 62-C , 63-C ) :   1.3567 B( 62-C , 95-H ) :   0.9803 B( 63-C , 64-C ) :   1.4015
B( 63-C , 96-H ) :   0.9902 B( 64-C , 65-C ) :   0.9373 B( 64-C , 66-O ) :  -0.1415
B( 65-C , 66-O ) :   2.2378

-----------------------------------------------------------------------------
         ABSORPTION SPECTRUM VIA TRANSITION ELECTRIC DIPOLE MOMENTS
-----------------------------------------------------------------------------
State   Energy    Wavelength  fosc         T2        TX        TY        TZ
        (cm-1)      (nm)                 (au**2)    (au)      (au)      (au)
-----------------------------------------------------------------------------
   1   13320.3    750.7   0.080959313   2.00092   0.76370   1.14731  -0.31837
   2   15035.6    665.1   0.129552222   2.83660  -1.16237  -1.20977   0.14821
   3   16147.5    619.3   0.403187681   8.22009   1.58461   2.34966   0.43380
   4   17038.0    586.9   0.117840730   2.27695  -1.04226  -1.08826  -0.07948
   5   17481.7    572.0   0.143393193   2.70035   1.04269   1.16247   0.51169
   6   18896.7    529.2   0.016261934   0.28331   0.03626   0.19085   0.49555
   7   19080.7    524.1   0.145478527   2.51004  -1.23234  -0.88687  -0.45260
   8   19651.5    508.9   0.049936748   0.83657   0.47080   0.75744   0.20296
   9   20540.5    486.8   0.356422705   5.71254   1.14503   2.08796  -0.20465
  10   20704.5    483.0   0.008278549   0.13163   0.17474   0.17475  -0.26564
  11   20825.9    480.2   0.013251367   0.20948  -0.33994  -0.30195   0.05237
  12   21296.8    469.6   0.046193435   0.71407  -0.57446  -0.54359  -0.29761
  13   22803.5    438.5   0.041716854   0.60226  -0.00828   0.77557  -0.02616
  14   22804.3    438.5   0.014443485   0.20851  -0.33277  -0.29639  -0.09963
  15   23165.9    431.7   0.062991437   0.89518  -0.15876   0.22469   0.90525
  16   23631.9    423.2   0.029827899   0.41553   0.35001   0.53036   0.10835
  17   23851.5    419.3   0.048149212   0.66458  -0.56538   0.22437  -0.54275
  18   24578.5    406.9   0.017660215   0.23655  -0.31213  -0.22120   0.30032
  19   24683.2    405.1   0.065321951   0.87123  -0.68206   0.18961  -0.60834
  20   24866.4    402.1   0.017041952   0.22562  -0.47099   0.02441   0.05650
  21   24950.3    400.8   0.049362965   0.65133  -0.37344  -0.61522  -0.36520
  22   25098.4    398.4   0.087544439   1.14831   0.04314  -0.95996   0.47425
  23   25478.4    392.5   0.032591130   0.42112   0.26484  -0.08415   0.58642
  24   25649.2    389.9   0.012477096   0.16015   0.23253  -0.31349   0.08831
  25   25933.6    385.6   0.050504231   0.64112   0.06577  -0.79799   0.00117
  26   26401.2    378.8   0.047498816   0.59229   0.42469   0.63105   0.11707
  27   26663.0    375.1   0.041032204   0.50663  -0.26463   0.62123  -0.22512
  28   26893.7    371.8   0.097159801   1.18935   0.32802  -0.75863   0.71150
  29   27145.3    368.4   0.012454028   0.15104  -0.15715   0.22196  -0.27763
  30   27336.4    365.8   0.022121845   0.26641   0.31348  -0.33888  -0.23088
  31   27563.7    362.8   0.009851517   0.11766   0.22883   0.23806   0.09288
  32   27691.4    361.1   0.034476775   0.40988  -0.02359  -0.59505   0.23504
  33   28017.8    356.9   0.088888678   1.04445   0.73579   0.68757  -0.17411
  34   28111.6    355.7   0.020687140   0.24226   0.20326   0.39735  -0.20751
  35   28219.2    354.4   0.025858533   0.30167   0.41930  -0.16288   0.31516
  36   28810.1    347.1   0.015248732   0.17425  -0.24958   0.27834  -0.18569
  37   28921.2    345.8   0.037810608   0.43040   0.39202  -0.01499   0.52583
  38   29006.6    344.7   0.032810819   0.37239  -0.55565  -0.21825  -0.12650
  39   29320.8    341.1   0.052245577   0.58661  -0.07230   0.35284   0.67593
  40   29593.4    337.9   0.021585273   0.24013   0.43159  -0.13056   0.19185
  41   30046.0    332.8   0.030570048   0.33495   0.52882  -0.19497   0.13149
  42   30299.5    330.0   0.003975022   0.04319  -0.03620  -0.20316   0.02463
  43   30472.5    328.2   0.126472963   1.36636  -0.27451   1.07033  -0.38131
  44   30636.4    326.4   0.042341294   0.45499  -0.34986   0.56494   0.11588
  45   30690.9    325.8   0.027948762   0.29980   0.48177  -0.11629   0.23275
  46   30899.6    323.6   0.064543983   0.68767   0.36901   0.72579   0.15727
  47   31008.6    322.5   0.006096864   0.06473   0.05307   0.22411  -0.10811
  48   31031.3    322.3   0.004743476   0.05032   0.05574   0.11450   0.18468
  49   31063.1    321.9   0.065869775   0.69810   0.54605   0.63028  -0.05166
  50   31397.2    318.5   0.051696653   0.54206  -0.66635   0.21636  -0.22632

FINAL SINGLE POINT ENERGY     -4577.974642233273

DIPOLE MOMENT
-------------
                                X             Y             Z
Electronic contribution:    -30.57854       5.90721      -9.68581
Nuclear contribution   :     33.46801      -6.27176       8.34519
                        -----------------------------------------
Total Dipole Moment    :      2.88947      -0.36455      -1.34062
                        -----------------------------------------
Magnitude (a.u.)       :      3.20612
Magnitude (Debye)      :      8.14931

Rotational constants in cm-1:     0.002193     0.000544     0.000495
Rotational constants in MHz :    65.731288    16.311078    14.840864

                             ****ORCA TERMINATED NORMALLY****
TOTAL RUN TIME: 3 days 1 hours 54 minutes 22 seconds 342 msec
