                         Program Version 4.2.0 -  RELEASE  -
|  1> # ORCA input file
|  2> # Y6_2.out
|  3> ! B3LYP def2-TZVP def2/J RIJCOSX Grid4 TightSCF
|  4> %maxcore 1000
|  5> %tddft
|  6>   maxdim 5
|  7>   nroots 50
|  8>   end
|  9> * xyz 0 1
| 10>    C        1.95345         3.55773         2.60812
| 11>    O        1.74284         4.44788         1.81814
| 12>    C        1.17119         3.21481         3.81942
| 13>    C        0.07405         3.86372         4.35066
| 14>    C       -0.47182         3.35467         5.51877
| 15>    F       -1.53421         3.95349         6.06906
| 16>    C        0.07599         2.22576         6.12965
| 17>    F       -0.46401         1.76586         7.26321
| 18>    C        1.17186         1.56702         5.59173
| 19>    C        1.72047         2.06983         4.42325
| 20>    C        2.83472         1.59404         3.60289
| 21>    C        3.34229         0.32168         3.62394
| 22>    C        4.22489        -0.18794         2.64994
| 23>    N        4.90873        -0.67238         1.86552
| 24>    C        2.97926        -0.65423         4.57530
| 25>    N        2.73476        -1.47700         5.33673
| 26>    C        3.08896         2.60142         2.59829
| 27>    C        4.12881         2.79885         1.73775
| 28>    C        5.44414         2.28007         1.76098
| 29>    S        6.20723         2.03645         0.19092
| 30>    C        7.64112         1.46999         0.94983
| 31>    C        7.54462         1.54631         2.34724
| 32>    C        6.30193         1.98972         2.81750
| 33>    C        6.02519         2.25972         4.26381
| 34>    C        6.26803         1.04061         5.15458
| 35>    S        9.00881         1.03735         3.15917
| 36>    C        9.71593         0.68099         1.62414
| 37>    C        8.87227         0.95348         0.54051
| 38>    N        9.49002         0.61307        -0.63496
| 39>    C        9.07825         1.26061        -1.86225
| 40>    C        9.29361         2.77213        -1.78576
| 41>    C       10.73152         0.09308        -0.31305
| 42>    C       10.91199         0.17167         1.09711
| 43>    C       12.14343        -0.16564         1.70300
| 44>    N       12.48605        -0.08172         2.97843
| 45>    S       14.03639        -0.52094         3.12534
| 46>    N       14.33083        -0.84110         1.56601
| 47>    C       13.22577        -0.61548         0.87437
| 48>    C       12.98555        -0.84213        -0.50057
| 49>    C       11.72076        -0.55510        -1.09318
| 50>    N       11.71195        -1.05365        -2.37896
| 51>    C       10.59408        -1.34161        -3.25215
| 52>    C       10.64143        -0.52532        -4.54429
| 53>    C       12.93680        -1.62032        -2.61616
| 54>    C       13.75029        -1.48618        -1.48070
| 55>    S       15.30812        -2.21651        -1.64460
| 56>    C       14.85204        -2.74954        -3.25239
| 57>    C       13.55580        -2.35066        -3.63234
| 58>    S       13.15073        -2.90408        -5.21172
| 59>    C       14.71522        -3.71008        -5.34631
| 60>    C       15.51125        -3.51676        -4.19981
| 61>    C       16.90438        -4.02077        -4.01322
| 62>    C       17.91415        -3.10321        -4.70872
| 63>    C       15.11728        -4.49475        -6.42663
| 64>    C       14.48650        -4.78793        -7.61556
| 65>    C       15.00083        -5.68042        -8.63275
| 66>    C       16.12705        -6.46106        -8.57038
| 67>    C       16.54717        -7.32690        -9.60234
| 68>    N       16.94774        -8.04919       -10.39912
| 69>    C       17.02043        -6.53361        -7.48077
| 70>    N       17.79446        -6.65392        -6.63976
| 71>    C       14.06845        -5.64022        -9.76144
| 72>    C       14.08755        -6.27910       -10.99086
| 73>    C       13.04245        -6.03282       -11.86903
| 74>    F       13.04429        -6.63774       -13.06215
| 75>    C       11.99603        -5.17148       -11.54041
| 76>    F       11.00931        -4.96035       -12.42011
| 77>    C       11.96832        -4.53019       -10.31237
| 78>    C       13.00850        -4.77615        -9.43956
| 79>    C       13.21948        -4.22859        -8.08264
| 80>    O       12.47435        -3.46196        -7.49705
| 81>    H       -0.34889         4.73575         3.87785
| 82>    H        1.56276         0.70005         6.09915
| 83>    H        3.91347         3.48660         0.92349
| 84>    H        5.00295         2.61930         4.38533
| 85>    H        6.69761         3.06110         4.58694
| 86>    H        5.72299         0.17113         4.79614
| 87>    H        5.94535         1.25652         6.17011
| 88>    H        7.32433         0.78776         5.17625
| 89>    H        8.01790         1.04365        -2.02462
| 90>    H        9.65822         0.87183        -2.69083
| 91>    H       10.34175         2.99434        -1.59535
| 92>    H        8.69467         3.21334        -0.99396
| 93>    H        9.00549         3.22762        -2.72900
| 94>    H        9.66717        -1.18135        -2.70046
| 95>    H       10.64390        -2.40424        -3.51390
| 96>    H        9.69860        -0.62513        -5.07418
| 97>    H       11.43420        -0.89021        -5.19082
| 98>    H       10.82617         0.52899        -4.34836
| 99>    H       17.00931        -5.03552        -4.40068
|100>    H       17.11927        -4.04005        -2.94302
|101>    H       17.72432        -3.06000        -5.77882
|102>    H       18.92082        -3.47925        -4.55165
|103>    H       17.85045        -2.09584        -4.30412
|104>    H       16.09054        -4.94550        -6.28896
|105>    H       14.87209        -6.95247       -11.29429
|106>    H       11.16067        -3.86418       -10.05399
|107> *
|108>
|109>                          ****END OF INPUT****

CARTESIAN COORDINATES (ANGSTROEM)
---------------------------------
  C      1.953450    3.557730    2.608120
  O      1.742840    4.447880    1.818140
  C      1.171190    3.214810    3.819420
  C      0.074050    3.863720    4.350660
  C     -0.471820    3.354670    5.518770
  F     -1.534210    3.953490    6.069060
  C      0.075990    2.225760    6.129650
  F     -0.464010    1.765860    7.263210
  C      1.171860    1.567020    5.591730
  C      1.720470    2.069830    4.423250
  C      2.834720    1.594040    3.602890
  C      3.342290    0.321680    3.623940
  C      4.224890   -0.187940    2.649940
  N      4.908730   -0.672380    1.865520
  C      2.979260   -0.654230    4.575300
  N      2.734760   -1.477000    5.336730
  C      3.088960    2.601420    2.598290
  C      4.128810    2.798850    1.737750
  C      5.444140    2.280070    1.760980
  S      6.207230    2.036450    0.190920
  C      7.641120    1.469990    0.949830
  C      7.544620    1.546310    2.347240
  C      6.301930    1.989720    2.817500
  C      6.025190    2.259720    4.263810
  C      6.268030    1.040610    5.154580
  S      9.008810    1.037350    3.159170
  C      9.715930    0.680990    1.624140
  C      8.872270    0.953480    0.540510
  N      9.490020    0.613070   -0.634960
  C      9.078250    1.260610   -1.862250
  C      9.293610    2.772130   -1.785760
  C     10.731520    0.093080   -0.313050
  C     10.911990    0.171670    1.097110
  C     12.143430   -0.165640    1.703000
  N     12.486050   -0.081720    2.978430
  S     14.036390   -0.520940    3.125340
  N     14.330830   -0.841100    1.566010
  C     13.225770   -0.615480    0.874370
  C     12.985550   -0.842130   -0.500570
  C     11.720760   -0.555100   -1.093180
  N     11.711950   -1.053650   -2.378960
  C     10.594080   -1.341610   -3.252150
  C     10.641430   -0.525320   -4.544290
  C     12.936800   -1.620320   -2.616160
  C     13.750290   -1.486180   -1.480700
  S     15.308120   -2.216510   -1.644600
  C     14.852040   -2.749540   -3.252390
  C     13.555800   -2.350660   -3.632340
  S     13.150730   -2.904080   -5.211720
  C     14.715220   -3.710080   -5.346310
  C     15.511250   -3.516760   -4.199810
  C     16.904380   -4.020770   -4.013220
  C     17.914150   -3.103210   -4.708720
  C     15.117280   -4.494750   -6.426630
  C     14.486500   -4.787930   -7.615560
  C     15.000830   -5.680420   -8.632750
  C     16.127050   -6.461060   -8.570380
  C     16.547170   -7.326900   -9.602340
  N     16.947740   -8.049190  -10.399120
  C     17.020430   -6.533610   -7.480770
  N     17.794460   -6.653920   -6.639760
  C     14.068450   -5.640220   -9.761440
  C     14.087550   -6.279100  -10.990860
  C     13.042450   -6.032820  -11.869030
  F     13.044290   -6.637740  -13.062150
  C     11.996030   -5.171480  -11.540410
  F     11.009310   -4.960350  -12.420110
  C     11.968320   -4.530190  -10.312370
  C     13.008500   -4.776150   -9.439560
  C     13.219480   -4.228590   -8.082640
  O     12.474350   -3.461960   -7.497050
  H     -0.348890    4.735750    3.877850
  H      1.562760    0.700050    6.099150
  H      3.913470    3.486600    0.923490
  H      5.002950    2.619300    4.385330
  H      6.697610    3.061100    4.586940
  H      5.722990    0.171130    4.796140
  H      5.945350    1.256520    6.170110
  H      7.324330    0.787760    5.176250
  H      8.017900    1.043650   -2.024620
  H      9.658220    0.871830   -2.690830
  H     10.341750    2.994340   -1.595350
  H      8.694670    3.213340   -0.993960
  H      9.005490    3.227620   -2.729000
  H      9.667170   -1.181350   -2.700460
  H     10.643900   -2.404240   -3.513900
  H      9.698600   -0.625130   -5.074180
  H     11.434200   -0.890210   -5.190820
  H     10.826170    0.528990   -4.348360
  H     17.009310   -5.035520   -4.400680
  H     17.119270   -4.040050   -2.943020
  H     17.724320   -3.060000   -5.778820
  H     18.920820   -3.479250   -4.551650
  H     17.850450   -2.095840   -4.304120
  H     16.090540   -4.945500   -6.288960
  H     14.872090   -6.952470  -11.294290
  H     11.160670   -3.864180  -10.053990

 Total Charge           Charge          ....    0
 Multiplicity           Mult            ....    1
 Number of Electrons    NEL             ....  526
 Basis Dimension        Dim             .... 2387

ORBITAL ENERGIES
----------------

  NO   OCC          E(Eh)            E(eV)
   0   2.0000     -88.946834     -2420.3664
   1   2.0000     -88.912551     -2419.4335
   2   2.0000     -88.909887     -2419.3610
   3   2.0000     -88.907429     -2419.2941
   4   2.0000     -88.903960     -2419.1998
   5   2.0000     -24.728909      -672.9078
   6   2.0000     -24.728478      -672.8961
   7   2.0000     -24.725235      -672.8079
   8   2.0000     -24.723258      -672.7541
   9   2.0000     -19.139160      -520.8030
  10   2.0000     -19.136972      -520.7435
  11   2.0000     -14.407531      -392.0489
  12   2.0000     -14.405692      -391.9988
  13   2.0000     -14.353916      -390.5899
  14   2.0000     -14.353501      -390.5786
  15   2.0000     -14.333851      -390.0439
  16   2.0000     -14.333413      -390.0320
  17   2.0000     -14.331560      -389.9816
  18   2.0000     -14.325980      -389.8297
  19   2.0000     -10.305073      -280.4153
  20   2.0000     -10.304224      -280.3922
  21   2.0000     -10.299579      -280.2658
  22   2.0000     -10.298924      -280.2480
  23   2.0000     -10.282580      -279.8032
  24   2.0000     -10.281304      -279.7685
  25   2.0000     -10.262100      -279.2459
  26   2.0000     -10.261764      -279.2368
  27   2.0000     -10.260257      -279.1958
  28   2.0000     -10.259720      -279.1812
  29   2.0000     -10.255360      -279.0625
  30   2.0000     -10.254220      -279.0315
  31   2.0000     -10.251418      -278.9553
  32   2.0000     -10.251352      -278.9535
  33   2.0000     -10.243840      -278.7491
  34   2.0000     -10.242940      -278.7246
  35   2.0000     -10.242284      -278.7067
  36   2.0000     -10.239617      -278.6341
  37   2.0000     -10.239207      -278.6230
  38   2.0000     -10.238872      -278.6139
  39   2.0000     -10.235683      -278.5271
  40   2.0000     -10.235649      -278.5262
  41   2.0000     -10.234811      -278.5034
  42   2.0000     -10.234411      -278.4925
  43   2.0000     -10.231980      -278.4263
  44   2.0000     -10.231707      -278.4189
  45   2.0000     -10.231076      -278.4017
  46   2.0000     -10.230827      -278.3949
  47   2.0000     -10.230773      -278.3935
  48   2.0000     -10.229831      -278.3678
  49   2.0000     -10.229309      -278.3536
  50   2.0000     -10.228672      -278.3363
  51   2.0000     -10.228415      -278.3293
  52   2.0000     -10.227352      -278.3004
  53   2.0000     -10.225076      -278.2385
  54   2.0000     -10.224943      -278.2348
  55   2.0000     -10.224847      -278.2322
  56   2.0000     -10.223778      -278.2031
  57   2.0000     -10.221820      -278.1499
  58   2.0000     -10.220595      -278.1165
  59   2.0000     -10.218785      -278.0673
  60   2.0000     -10.217729      -278.0386
  61   2.0000     -10.217094      -278.0213
  62   2.0000     -10.216178      -277.9963
  63   2.0000     -10.215159      -277.9686
  64   2.0000     -10.211253      -277.8623
  65   2.0000     -10.202454      -277.6229
  66   2.0000     -10.196600      -277.4636
  67   2.0000     -10.195981      -277.4467
  68   2.0000     -10.195102      -277.4228
  69   2.0000     -10.179825      -277.0071
  70   2.0000     -10.175358      -276.8856
  71   2.0000      -8.017922      -218.1787
  72   2.0000      -7.988965      -217.3908
  73   2.0000      -7.985494      -217.2963
  74   2.0000      -7.983064      -217.2302
  75   2.0000      -7.979155      -217.1238
  76   2.0000      -5.982650      -162.7962
  77   2.0000      -5.975264      -162.5952
  78   2.0000      -5.974651      -162.5785
  79   2.0000      -5.951691      -161.9537
  80   2.0000      -5.948440      -161.8653
  81   2.0000      -5.947890      -161.8503
  82   2.0000      -5.946058      -161.8005
  83   2.0000      -5.945118      -161.7749
  84   2.0000      -5.944698      -161.7634
  85   2.0000      -5.942281      -161.6977
  86   2.0000      -5.942134      -161.6937
  87   2.0000      -5.941264      -161.6700
  88   2.0000      -5.938779      -161.6024
  89   2.0000      -5.937855      -161.5772
  90   2.0000      -5.935157      -161.5038
  91   2.0000      -1.272214       -34.6187
  92   2.0000      -1.267582       -34.4927
  93   2.0000      -1.258841       -34.2548
  94   2.0000      -1.254195       -34.1284
  95   2.0000      -1.069833       -29.1116
  96   2.0000      -1.067920       -29.0596
  97   2.0000      -1.046925       -28.4883
  98   2.0000      -1.033767       -28.1302
  99   2.0000      -1.033239       -28.1159
 100   2.0000      -0.951516       -25.8921
 101   2.0000      -0.945830       -25.7374
 102   2.0000      -0.938290       -25.5322
 103   2.0000      -0.933910       -25.4130
 104   2.0000      -0.931722       -25.3534
 105   2.0000      -0.928902       -25.2767
 106   2.0000      -0.928123       -25.2555
 107   2.0000      -0.923618       -25.1329
 108   2.0000      -0.904032       -24.6000
 109   2.0000      -0.894178       -24.3318
 110   2.0000      -0.887910       -24.1613
 111   2.0000      -0.883386       -24.0382
 112   2.0000      -0.877058       -23.8660
 113   2.0000      -0.869967       -23.6730
 114   2.0000      -0.840591       -22.8736
 115   2.0000      -0.834031       -22.6951
 116   2.0000      -0.828469       -22.5438
 117   2.0000      -0.826307       -22.4850
 118   2.0000      -0.821227       -22.3467
 119   2.0000      -0.818435       -22.2708
 120   2.0000      -0.810244       -22.0478
 121   2.0000      -0.805859       -21.9285
 122   2.0000      -0.805315       -21.9137
 123   2.0000      -0.800454       -21.7815
 124   2.0000      -0.787162       -21.4198
 125   2.0000      -0.778812       -21.1926
 126   2.0000      -0.763498       -20.7758
 127   2.0000      -0.760316       -20.6892
 128   2.0000      -0.754663       -20.5354
 129   2.0000      -0.743621       -20.2350
 130   2.0000      -0.734167       -19.9777
 131   2.0000      -0.727559       -19.7979
 132   2.0000      -0.721468       -19.6321
 133   2.0000      -0.707151       -19.2426
 134   2.0000      -0.702923       -19.1275
 135   2.0000      -0.695886       -18.9360
 136   2.0000      -0.686641       -18.6844
 137   2.0000      -0.682341       -18.5674
 138   2.0000      -0.674454       -18.3528
 139   2.0000      -0.663521       -18.0553
 140   2.0000      -0.656936       -17.8761
 141   2.0000      -0.652082       -17.7441
 142   2.0000      -0.648004       -17.6331
 143   2.0000      -0.642975       -17.4962
 144   2.0000      -0.638966       -17.3871
 145   2.0000      -0.634984       -17.2788
 146   2.0000      -0.628973       -17.1152
 147   2.0000      -0.621393       -16.9090
 148   2.0000      -0.615128       -16.7385
 149   2.0000      -0.603213       -16.4143
 150   2.0000      -0.594135       -16.1672
 151   2.0000      -0.591884       -16.1060
 152   2.0000      -0.589760       -16.0482
 153   2.0000      -0.583818       -15.8865
 154   2.0000      -0.578490       -15.7415
 155   2.0000      -0.576059       -15.6754
 156   2.0000      -0.573549       -15.6071
 157   2.0000      -0.568647       -15.4737
 158   2.0000      -0.560571       -15.2539
 159   2.0000      -0.551867       -15.0171
 160   2.0000      -0.549337       -14.9482
 161   2.0000      -0.545683       -14.8488
 162   2.0000      -0.542054       -14.7500
 163   2.0000      -0.535337       -14.5673
 164   2.0000      -0.529827       -14.4173
 165   2.0000      -0.528717       -14.3871
 166   2.0000      -0.524173       -14.2635
 167   2.0000      -0.523671       -14.2498
 168   2.0000      -0.519714       -14.1421
 169   2.0000      -0.519054       -14.1242
 170   2.0000      -0.515295       -14.0219
 171   2.0000      -0.513020       -13.9600
 172   2.0000      -0.503302       -13.6956
 173   2.0000      -0.495562       -13.4849
 174   2.0000      -0.490999       -13.3608
 175   2.0000      -0.489436       -13.3182
 176   2.0000      -0.489109       -13.3093
 177   2.0000      -0.488930       -13.3045
 178   2.0000      -0.488296       -13.2872
 179   2.0000      -0.487917       -13.2769
 180   2.0000      -0.484462       -13.1829
 181   2.0000      -0.483323       -13.1519
 182   2.0000      -0.482041       -13.1170
 183   2.0000      -0.474582       -12.9140
 184   2.0000      -0.469007       -12.7623
 185   2.0000      -0.468054       -12.7364
 186   2.0000      -0.467261       -12.7148
 187   2.0000      -0.465998       -12.6804
 188   2.0000      -0.465919       -12.6783
 189   2.0000      -0.463650       -12.6166
 190   2.0000      -0.461002       -12.5445
 191   2.0000      -0.457484       -12.4488
 192   2.0000      -0.452474       -12.3125
 193   2.0000      -0.449391       -12.2285
 194   2.0000      -0.448975       -12.2172
 195   2.0000      -0.445410       -12.1202
 196   2.0000      -0.441773       -12.0212
 197   2.0000      -0.439576       -11.9615
 198   2.0000      -0.434661       -11.8277
 199   2.0000      -0.432185       -11.7603
 200   2.0000      -0.431480       -11.7412
 201   2.0000      -0.430460       -11.7134
 202   2.0000      -0.429436       -11.6855
 203   2.0000      -0.428294       -11.6545
 204   2.0000      -0.427627       -11.6363
 205   2.0000      -0.423826       -11.5329
 206   2.0000      -0.420494       -11.4422
 207   2.0000      -0.417626       -11.3642
 208   2.0000      -0.416630       -11.3371
 209   2.0000      -0.415998       -11.3199
 210   2.0000      -0.412666       -11.2292
 211   2.0000      -0.410423       -11.1682
 212   2.0000      -0.402977       -10.9656
 213   2.0000      -0.399520       -10.8715
 214   2.0000      -0.397950       -10.8288
 215   2.0000      -0.396977       -10.8023
 216   2.0000      -0.395125       -10.7519
 217   2.0000      -0.393939       -10.7196
 218   2.0000      -0.393016       -10.6945
 219   2.0000      -0.392779       -10.6881
 220   2.0000      -0.391998       -10.6668
 221   2.0000      -0.390823       -10.6348
 222   2.0000      -0.389218       -10.5912
 223   2.0000      -0.388287       -10.5658
 224   2.0000      -0.387901       -10.5553
 225   2.0000      -0.384922       -10.4743
 226   2.0000      -0.381814       -10.3897
 227   2.0000      -0.379955       -10.3391
 228   2.0000      -0.375124       -10.2077
 229   2.0000      -0.371336       -10.1046
 230   2.0000      -0.368785       -10.0352
 231   2.0000      -0.367646       -10.0041
 232   2.0000      -0.367206        -9.9922
 233   2.0000      -0.366270        -9.9667
 234   2.0000      -0.363395        -9.8885
 235   2.0000      -0.362271        -9.8579
 236   2.0000      -0.362033        -9.8514
 237   2.0000      -0.358536        -9.7562
 238   2.0000      -0.350152        -9.5281
 239   2.0000      -0.349785        -9.5181
 240   2.0000      -0.348247        -9.4763
 241   2.0000      -0.347037        -9.4434
 242   2.0000      -0.343098        -9.3362
 243   2.0000      -0.339942        -9.2503
 244   2.0000      -0.337070        -9.1721
 245   2.0000      -0.335780        -9.1370
 246   2.0000      -0.313819        -8.5394
 247   2.0000      -0.310377        -8.4458
 248   2.0000      -0.308015        -8.3815
 249   2.0000      -0.300243        -8.1700
 250   2.0000      -0.297787        -8.1032
 251   2.0000      -0.294068        -8.0020
 252   2.0000      -0.285938        -7.7808
 253   2.0000      -0.283120        -7.7041
 254   2.0000      -0.278792        -7.5863
 255   2.0000      -0.273130        -7.4322
 256   2.0000      -0.269395        -7.3306
 257   2.0000      -0.265680        -7.2295
 258   2.0000      -0.262721        -7.1490
 259   2.0000      -0.244493        -6.6530
 260   2.0000      -0.237312        -6.4576
 261   2.0000      -0.233644        -6.3578
 262   2.0000      -0.206460        -5.6181
 263   0.0000      -0.135189        -3.6787
 264   0.0000      -0.125712        -3.4208
 265   0.0000      -0.111469        -3.0332
 266   0.0000      -0.108392        -2.9495
 267   0.0000      -0.089696        -2.4408

MULLIKEN ATOMIC CHARGES
-----------------------
   0 C :    0.225070
   1 O :   -0.283357
   2 C :   -0.017931
   3 C :   -0.291118
   4 C :    0.277908
   5 F :   -0.178180
   6 C :    0.258284
   7 F :   -0.174548
   8 C :   -0.256623
   9 C :    0.140600
  10 C :   -0.080667
  11 C :    0.076697
  12 C :   -0.223346
  13 N :    0.049146
  14 C :   -0.201899
  15 N :    0.047818
  16 C :    0.005938
  17 C :   -0.245550
  18 C :    0.140467
  19 S :   -0.006636
  20 C :   -0.288089
  21 C :    0.079694
  22 C :    0.002239
  23 C :   -0.172574
  24 C :   -0.355400
  25 S :    0.014168
  26 C :   -0.194119
  27 C :    0.480563
  28 N :   -0.101238
  29 C :   -0.126999
  30 C :   -0.341698
  31 C :   -0.044127
  32 C :    0.130030
  33 C :   -0.025511
  34 N :   -0.252261
  35 S :    0.350159
  36 N :   -0.249525
  37 C :   -0.009012
  38 C :    0.062973
  39 C :    0.099969
  40 N :   -0.048477
  41 C :   -0.228425
  42 C :   -0.325235
  43 C :    0.385759
  44 C :   -0.160137
  45 S :    0.027332
  46 C :    0.039474
  47 C :   -0.238834
  48 S :    0.028795
  49 C :    0.047331
  50 C :    0.012727
  51 C :   -0.216811
  52 C :   -0.325728
  53 C :   -0.121931
  54 C :   -0.047973
  55 C :   -0.001198
  56 C :    0.141547
  57 C :   -0.223996
  58 N :    0.044446
  59 C :   -0.199761
  60 N :    0.017237
  61 C :    0.081493
  62 C :   -0.267820
  63 C :    0.257202
  64 F :   -0.176843
  65 C :    0.282816
  66 F :   -0.181122
  67 C :   -0.315871
  68 C :    0.090276
  69 C :    0.202573
  70 O :   -0.345899
  71 H :    0.152669
  72 H :    0.164202
  73 H :    0.148891
  74 H :    0.123713
  75 H :    0.113243
  76 H :    0.135033
  77 H :    0.118509
  78 H :    0.128336
  79 H :    0.133039
  80 H :    0.095607
  81 H :    0.122321
  82 H :    0.137179
  83 H :    0.120285
  84 H :    0.171429
  85 H :    0.140966
  86 H :    0.124946
  87 H :    0.149560
  88 H :    0.114881
  89 H :    0.138761
  90 H :    0.106908
  91 H :    0.116044
  92 H :    0.123365
  93 H :    0.114270
  94 H :    0.143328
  95 H :    0.164536
  96 H :    0.143714
Sum of atomic charges:    0.0000000

LOEWDIN ATOMIC CHARGES
----------------------
   0 C :   -0.255698
   1 O :    0.139536
   2 C :   -0.058126
   3 C :   -0.044046
   4 C :   -0.224116
   5 F :    0.215333
   6 C :   -0.222417
   7 F :    0.218602
   8 C :   -0.049639
   9 C :   -0.045214
  10 C :   -0.003429
  11 C :   -0.142416
  12 C :   -0.158625
  13 N :    0.100042
  14 C :   -0.167070
  15 N :    0.088072
  16 C :   -0.090556
  17 C :   -0.064349
  18 C :   -0.313833
  19 S :    0.771654
  20 C :   -0.342507
  21 C :   -0.314938
  22 C :   -0.137402
  23 C :   -0.225816
  24 C :   -0.284666
  25 S :    0.766033
  26 C :   -0.288406
  27 C :   -0.184070
  28 N :    0.291121
  29 C :   -0.267343
  30 C :   -0.288494
  31 C :   -0.094223
  32 C :   -0.087041
  33 C :   -0.244827
  34 N :   -0.126487
  35 S :    0.658587
  36 N :   -0.126211
  37 C :   -0.244593
  38 C :   -0.091129
  39 C :   -0.090414
  40 N :    0.297336
  41 C :   -0.265467
  42 C :   -0.299609
  43 C :   -0.183098
  44 C :   -0.286507
  45 S :    0.752258
  46 C :   -0.322267
  47 C :   -0.336273
  48 S :    0.788436
  49 C :   -0.299184
  50 C :   -0.128440
  51 C :   -0.229835
  52 C :   -0.281993
  53 C :   -0.054192
  54 C :   -0.093691
  55 C :    0.009377
  56 C :   -0.137271
  57 C :   -0.165512
  58 N :    0.082445
  59 C :   -0.167211
  60 N :    0.076120
  61 C :   -0.043122
  62 C :   -0.048380
  63 C :   -0.224138
  64 F :    0.216550
  65 C :   -0.225631
  66 F :    0.212435
  67 C :   -0.048629
  68 C :   -0.058658
  69 C :   -0.257851
  70 O :    0.112417
  71 H :    0.165197
  72 H :    0.168548
  73 H :    0.169811
  74 H :    0.150062
  75 H :    0.151802
  76 H :    0.127607
  77 H :    0.123184
  78 H :    0.114755
  79 H :    0.138615
  80 H :    0.141014
  81 H :    0.124506
  82 H :    0.122428
  83 H :    0.125039
  84 H :    0.141758
  85 H :    0.144338
  86 H :    0.126923
  87 H :    0.118761
  88 H :    0.117070
  89 H :    0.149123
  90 H :    0.143512
  91 H :    0.120205
  92 H :    0.123733
  93 H :    0.120278
  94 H :    0.178117
  95 H :    0.169632
  96 H :    0.162691

  Mayer bond orders larger than 0.100000
B(  0-C ,  1-O ) :   2.1863 B(  0-C ,  2-C ) :   0.9571 B(  0-C , 16-C ) :   1.0019
B(  1-O ,  2-C ) :  -0.1473 B(  1-O , 16-C ) :  -0.1426 B(  1-O , 17-C ) :   0.1080
B(  2-C ,  3-C ) :   1.3109 B(  2-C ,  9-C ) :   1.3215 B(  3-C ,  4-C ) :   1.3600
B(  3-C , 71-H ) :   0.9820 B(  4-C ,  5-F ) :   1.0646 B(  4-C ,  6-C ) :   1.3438
B(  6-C ,  7-F ) :   1.0770 B(  6-C ,  8-C ) :   1.3910 B(  8-C ,  9-C ) :   1.3050
B(  8-C , 72-H ) :   0.9412 B(  9-C , 10-C ) :   1.0217 B( 10-C , 11-C ) :   1.3767
B( 10-C , 16-C ) :   1.1307 B( 11-C , 12-C ) :   1.0677 B( 11-C , 14-C ) :   1.0570
B( 12-C , 13-N ) :   2.9684 B( 14-C , 15-N ) :   2.9853 B( 16-C , 17-C ) :   1.5041
B( 17-C , 18-C ) :   1.0579 B( 17-C , 73-H ) :   0.9587 B( 18-C , 19-S ) :   1.1966
B( 18-C , 22-C ) :   1.3996 B( 19-S , 20-C ) :   1.3218 B( 19-S , 27-C ) :  -0.1451
B( 20-C , 21-C ) :   1.3983 B( 20-C , 25-S ) :   0.1355 B( 20-C , 26-C ) :   0.1009
B( 20-C , 27-C ) :   0.9794 B( 21-C , 22-C ) :   1.2573 B( 21-C , 25-S ) :   1.1610
B( 21-C , 27-C ) :  -0.1171 B( 22-C , 23-C ) :   0.9496 B( 23-C , 24-C ) :   0.9557
B( 23-C , 74-H ) :   0.9800 B( 23-C , 75-H ) :   0.9446 B( 24-C , 76-H ) :   0.9694
B( 24-C , 77-H ) :   0.9742 B( 24-C , 78-H ) :   0.9655 B( 25-S , 26-C ) :   1.3899
B( 26-C , 27-C ) :   1.2315 B( 26-C , 32-C ) :   1.1407 B( 27-C , 28-N ) :   1.1145
B( 28-N , 29-C ) :   0.8913 B( 28-N , 31-C ) :   1.1995 B( 29-C , 30-C ) :   0.9631
B( 29-C , 79-H ) :   0.9624 B( 29-C , 80-H ) :   0.9574 B( 30-C , 81-H ) :   0.9677
B( 30-C , 82-H ) :   0.9738 B( 30-C , 83-H ) :   0.9701 B( 31-C , 32-C ) :   1.2868
B( 31-C , 39-C ) :   1.2694 B( 32-C , 33-C ) :   1.1044 B( 33-C , 34-N ) :   1.5881
B( 33-C , 35-S ) :   0.1144 B( 33-C , 37-C ) :   1.1836 B( 34-N , 35-S ) :   1.2891
B( 35-S , 36-N ) :   1.2851 B( 35-S , 37-C ) :   0.1219 B( 36-N , 37-C ) :   1.5933
B( 37-C , 38-C ) :   1.1226 B( 38-C , 39-C ) :   1.2396 B( 38-C , 44-C ) :   1.2001
B( 39-C , 40-N ) :   1.2291 B( 40-N , 41-C ) :   0.8723 B( 40-N , 43-C ) :   1.1212
B( 41-C , 42-C ) :   0.9377 B( 41-C , 84-H ) :   0.9653 B( 41-C , 85-H ) :   0.9571
B( 42-C , 86-H ) :   0.9715 B( 42-C , 87-H ) :   0.9565 B( 42-C , 88-H ) :   0.9694
B( 43-C , 44-C ) :   1.2335 B( 43-C , 47-C ) :   1.0523 B( 43-C , 48-S ) :  -0.1500
B( 44-C , 45-S ) :   1.3587 B( 45-S , 46-C ) :   1.1944 B( 45-S , 47-C ) :   0.1114
B( 46-C , 47-C ) :   1.2815 B( 46-C , 50-C ) :   1.3509 B( 47-C , 48-S ) :   1.4147
B( 48-S , 49-C ) :   1.2865 B( 49-C , 50-C ) :   1.2638 B( 49-C , 53-C ) :   1.3136
B( 50-C , 51-C ) :   0.9580 B( 51-C , 52-C ) :   0.9584 B( 51-C , 89-H ) :   0.9517
B( 51-C , 90-H ) :   0.9705 B( 52-C , 91-H ) :   0.9745 B( 52-C , 92-H ) :   0.9730
B( 52-C , 93-H ) :   0.9723 B( 53-C , 54-C ) :   1.4029 B( 53-C , 94-H ) :   0.8578
B( 54-C , 55-C ) :   1.1591 B( 54-C , 69-C ) :   1.0182 B( 55-C , 56-C ) :   1.4566
B( 55-C , 61-C ) :   1.0445 B( 56-C , 57-C ) :   1.0214 B( 56-C , 59-C ) :   1.0610
B( 57-C , 58-N ) :   2.9912 B( 59-C , 60-N ) :   2.9160 B( 61-C , 62-C ) :   1.3345
B( 61-C , 68-C ) :   1.3347 B( 62-C , 63-C ) :   1.3824 B( 62-C , 95-H ) :   0.9300
B( 63-C , 64-F ) :   1.0838 B( 63-C , 65-C ) :   1.3471 B( 65-C , 66-F ) :   1.0612
B( 65-C , 67-C ) :   1.3562 B( 67-C , 68-C ) :   1.3073 B( 67-C , 96-H ) :   0.9882
B( 68-C , 69-C ) :   1.0408 B( 68-C , 70-O ) :  -0.1453 B( 69-C , 70-O ) :   2.0070

-----------------------------------------------------------------------------
         ABSORPTION SPECTRUM VIA TRANSITION ELECTRIC DIPOLE MOMENTS
-----------------------------------------------------------------------------
State   Energy    Wavelength  fosc         T2        TX        TY        TZ
        (cm-1)      (nm)                 (au**2)    (au)      (au)      (au)
-----------------------------------------------------------------------------
   1   14207.4    703.9   1.562953743  36.21657  -4.25646   2.05590   3.72457
   2   16574.9    603.3   0.734914894  14.59690   1.51985  -2.00054  -2.87833
   3   18451.1    542.0   0.371583128   6.62992   1.70428  -1.09219  -1.59138
   4   18866.1    530.1   0.007001528   0.12218   0.14787  -0.09314   0.30271
   5   19096.9    523.6   0.047073117   0.81150   0.12233   0.00531   0.89247
   6   20307.4    492.4   0.060955123   0.98817  -0.95641   0.13927   0.23249
   7   21341.9    468.6   0.213506802   3.29348  -1.33670  -0.83945  -0.89556
   8   21460.9    466.0   0.037319047   0.57248   0.25766   0.54723   0.45456
   9   22119.8    452.1   0.191426041   2.84902   0.19739  -0.92819  -1.39589
  10   22963.8    435.5   0.011671353   0.16732  -0.29568  -0.11770  -0.25698
  11   23356.4    428.1   0.156622791   2.20762   0.51998   0.70225   1.20171
  12   24373.4    410.3   0.044974338   0.60747   0.07247  -0.54494  -0.55250
  13   24649.1    405.7   0.068059477   0.90900   0.54296  -0.37370  -0.68887
  14   24917.1    401.3   0.073468208   0.97068   0.67442   0.33640   0.63457
  15   25568.8    391.1   0.023410581   0.30142   0.04168  -0.27563  -0.47299
  16   25770.2    388.0   0.007300372   0.09326  -0.05127   0.23081  -0.19328
  17   26003.6    384.6   0.007354195   0.09311  -0.26184  -0.14756   0.05268
  18   26384.0    379.0   0.036143489   0.45099  -0.67150  -0.00183   0.00827
  19   26545.5    376.7   0.027449009   0.34042   0.55079  -0.08685  -0.17178
  20   26630.3    375.5   0.000825966   0.01021  -0.07324  -0.00367  -0.06952
  21   27066.2    369.5   0.006930674   0.08430  -0.04102  -0.18498  -0.22000
  22   27439.2    364.4   0.025622412   0.30741  -0.36189   0.02017   0.41958
  23   27553.4    362.9   0.002305529   0.02755  -0.05870   0.15270  -0.02800
  24   27658.1    361.6   0.141742731   1.68715  -0.18076   0.39942   1.22268
  25   27816.9    359.5   0.006718515   0.07951   0.18609   0.04121   0.20781
  26   28050.5    356.5   0.017154669   0.20133  -0.43886   0.03605   0.08622
  27   28408.0    352.0   0.185800743   2.15319   1.18951  -0.74401  -0.42976
  28   28935.3    345.6   0.109071179   1.24096   0.56195   0.02455   0.96155
  29   29041.6    344.3   0.041565119   0.47118   0.62009  -0.16032   0.24689
  30   29395.3    340.2   0.008156060   0.09134  -0.18030  -0.19172  -0.14859
  31   29496.1    339.0   0.077572212   0.86580   0.37828   0.22950   0.81856
  32   29964.7    333.7   0.002052683   0.02255   0.14793   0.00869   0.02438
  33   30137.5    331.8   0.036615431   0.39997  -0.27357  -0.10884  -0.55972
  34   30242.1    330.7   0.217578165   2.36853  -1.25078   0.74911   0.49287
  35   30646.1    326.3   0.071772016   0.77100  -0.50164  -0.18722  -0.69592
  36   30785.6    324.8   0.002266494   0.02424   0.09173  -0.04827  -0.11616
  37   31220.4    320.3   0.019639863   0.20710   0.21724  -0.21916   0.33448
  38   31386.8    318.6   0.006121204   0.06420  -0.17890  -0.08015  -0.16055
  39   31713.0    315.3   0.016317918   0.16940   0.31816  -0.25921   0.03133
  40   31902.0    313.5   0.003778424   0.03899  -0.06517   0.07132   0.17221
  41   32077.5    311.7   0.041006210   0.42085   0.43967  -0.31397   0.35911
  42   32232.4    310.2   0.029660607   0.30294   0.48517  -0.18098   0.18654
  43   32530.5    307.4   0.060866822   0.61598   0.14195  -0.30536  -0.70893
  44   32813.9    304.7   0.024059062   0.24138  -0.28757   0.27625   0.28700
  45   33038.9    302.7   0.286324253   2.85304   1.46911  -0.81626   0.16875
  46   33262.3    300.6   0.182770618   1.80896   1.11012  -0.66217   0.37166
  47   33315.9    300.2   0.155104781   1.53267  -0.61144   0.98265   0.43955
  48   33681.8    296.9   0.273273464   2.67102   1.39662  -0.84824   0.03104
  49   33978.2    294.3   0.013951984   0.13518   0.00722  -0.14004  -0.33988
  50   34113.4    293.1   0.004067156   0.03925   0.07570  -0.14126   0.11648

FINAL SINGLE POINT ENERGY     -4975.066192283163

DIPOLE MOMENT
-------------
                                X             Y             Z
Electronic contribution:    -26.58896     -15.03482      -0.10115
Nuclear contribution   :     25.86585      18.40956       0.59052
                        -----------------------------------------
Total Dipole Moment    :     -0.72311       3.37474       0.48937
                        -----------------------------------------
Magnitude (a.u.)       :      3.48586
Magnitude (Debye)      :      8.86035

Rotational constants in cm-1:     0.001687     0.000271     0.000244
Rotational constants in MHz :    50.562082     8.130185     7.319484

                             ****ORCA TERMINATED NORMALLY****
TOTAL RUN TIME: 2 days 19 hours 5 minutes 54 seconds 306 msec
