                         Program Version 4.2.0 -  RELEASE  -
|  1> # ORCA input file
|  2> # ZY-4Cl.out
|  3> ! B3LYP def2-TZVP def2/J RIJCOSX Grid4 TightSCF
|  4>
|  5> %maxcore 6000
|  6> %tddft
|  7>   maxdim 5
|  8>   nroots 50
|  9>   end
| 10> %pal
| 11>   nprocs 6
| 12>   end
| 13>
| 14>
| 15> * xyz 0 1
| 16>    C        3.66669         2.59162         0.36508
| 17>    O        4.57569         2.46095        -0.43768
| 18>    C        2.34613         3.25477         0.09246
| 19>    C        1.86624         3.79562        -1.09323
| 20>    C        0.58333         4.35838        -1.09282
| 21>   Cl       -0.04191         5.01941        -2.56876
| 22>    C       -0.19370         4.38799         0.09052
| 23>   Cl       -1.77370         5.10267         0.09173
| 24>    C        0.30159         3.83697         1.27848
| 25>    C        1.56830         3.26919         1.25962
| 26>    C        2.31324         2.58214         2.36091
| 27>    O        1.93079         2.41656         3.50400
| 28>    C        3.60639         2.14692         1.76955
| 29>    C        4.47194         1.39286         2.51266
| 30>    C        5.75282         0.83627         2.28004
| 31>    S        6.76299         1.12285         0.84207
| 32>    C        8.03259         0.15064         1.52128
| 33>    C        7.66658        -0.38158         2.77784
| 34>    C        6.38901        -0.00455         3.21977
| 35>    C        5.76206        -0.54716         4.47488
| 36>    C        4.99297        -1.85138         4.20341
| 37>    S        8.90217        -1.40953         3.50507
| 38>    C        9.91863        -1.10840         2.12311
| 39>    C        9.33167        -0.28183         1.15295
| 40>    N       10.21994        -0.10112         0.09997
| 41>    C       10.09672         1.08507        -0.75213
| 42>    C       10.24319         2.39722         0.01697
| 43>    C       11.37890        -0.83468         0.38901
| 44>    C       11.20868        -1.44920         1.66919
| 45>    C       12.24907        -2.21779         2.28088
| 46>    N       12.20554        -2.83503         3.45305
| 47>    S       13.68797        -3.54367         3.67518
| 48>    N       14.41548        -3.06087         2.26688
| 49>    C       13.52092        -2.34563         1.59876
| 50>    C       13.66220        -1.79271         0.28625
| 51>    C       12.58473        -1.10141        -0.35763
| 52>    N       12.95058        -0.88244        -1.68875
| 53>    C       12.11313        -0.53971        -2.83699
| 54>    C       12.43404         0.83008        -3.43697
| 55>    C       14.22529        -1.39522        -1.87490
| 56>    C       14.68847        -1.93999        -0.66683
| 57>    S       16.24348        -2.71719        -0.79546
| 58>    C       16.24982        -2.34925        -2.52300
| 59>    C       15.11242        -1.63363        -2.95468
| 60>    S       15.16904        -1.30696        -4.65776
| 61>    C       16.71214        -2.18808        -4.79595
| 62>    C       17.15276        -2.67865        -3.54646
| 63>    C       18.43275        -3.42586        -3.29502
| 64>    C       19.59224        -2.49022        -2.92321
| 65>    C       17.39797        -2.44464        -6.00969
| 66>    C       17.17281        -2.09472        -7.31521
| 67>    C       18.03300        -2.64704        -8.39535
| 68>    O       18.98962        -3.38664        -8.26803
| 69>    C       17.45290        -2.14214        -9.68286
| 70>    C       17.83015        -2.41707       -10.99108
| 71>    C       17.10622        -1.81285       -12.02754
| 72>   Cl       17.53826        -2.15965       -13.67097
| 73>    C       16.03384        -0.93467       -11.74334
| 74>   Cl       15.15963        -0.17921       -13.03652
| 75>    C       15.66103        -0.66910       -10.41935
| 76>    C       16.37476        -1.29056        -9.40191
| 77>    C       16.14996        -1.22371        -7.92040
| 78>    O       15.27256        -0.57904        -7.36910
| 79>    H        2.46278         3.77931        -2.00672
| 80>    H       -0.29825         3.85048         2.18988
| 81>    H        4.07469         1.17256         3.51019
| 82>    H        5.09112         0.19518         4.93169
| 83>    H        6.56072        -0.73317         5.21117
| 84>    H        4.15792        -1.67504         3.50813
| 85>    H        4.58183        -2.26998         5.13525
| 86>    H        5.65376        -2.60529         3.74801
| 87>    H        9.11899         1.03847        -1.25913
| 88>    H       10.85762         1.02777        -1.52943
| 89>    H       11.21990         2.44715         0.52302
| 90>    H        9.45460         2.51814         0.77420
| 91>    H       10.16867         3.24378        -0.68370
| 92>    H       11.06457        -0.62230        -2.52430
| 93>    H       12.26624        -1.32129        -3.59916
| 94>    H       11.70962         1.07637        -4.22748
| 95>    H       13.43681         0.84277        -3.88891
| 96>    H       12.40425         1.62465        -2.67579
| 97>    H       18.70442        -4.03477        -4.17014
| 98>    H       18.25524        -4.13765        -2.47183
| 99>    H       19.83510        -1.81246        -3.75598
|100>    H       20.49454        -3.07023        -2.67465
|101>    H       19.33155        -1.87006        -2.05155
|102>    H       18.28423        -3.08219        -5.89581
|103>    H       18.66346        -3.08535       -11.21344
|104>    H       14.82749        -0.00062       -10.20005
|105> *
|106>
|107>                          ****END OF INPUT****

CARTESIAN COORDINATES (ANGSTROEM)
---------------------------------
  C      3.666690    2.591620    0.365080
  O      4.575690    2.460950   -0.437680
  C      2.346130    3.254770    0.092460
  C      1.866240    3.795620   -1.093230
  C      0.583330    4.358380   -1.092820
  Cl    -0.041910    5.019410   -2.568760
  C     -0.193700    4.387990    0.090520
  Cl    -1.773700    5.102670    0.091730
  C      0.301590    3.836970    1.278480
  C      1.568300    3.269190    1.259620
  C      2.313240    2.582140    2.360910
  O      1.930790    2.416560    3.504000
  C      3.606390    2.146920    1.769550
  C      4.471940    1.392860    2.512660
  C      5.752820    0.836270    2.280040
  S      6.762990    1.122850    0.842070
  C      8.032590    0.150640    1.521280
  C      7.666580   -0.381580    2.777840
  C      6.389010   -0.004550    3.219770
  C      5.762060   -0.547160    4.474880
  C      4.992970   -1.851380    4.203410
  S      8.902170   -1.409530    3.505070
  C      9.918630   -1.108400    2.123110
  C      9.331670   -0.281830    1.152950
  N     10.219940   -0.101120    0.099970
  C     10.096720    1.085070   -0.752130
  C     10.243190    2.397220    0.016970
  C     11.378900   -0.834680    0.389010
  C     11.208680   -1.449200    1.669190
  C     12.249070   -2.217790    2.280880
  N     12.205540   -2.835030    3.453050
  S     13.687970   -3.543670    3.675180
  N     14.415480   -3.060870    2.266880
  C     13.520920   -2.345630    1.598760
  C     13.662200   -1.792710    0.286250
  C     12.584730   -1.101410   -0.357630
  N     12.950580   -0.882440   -1.688750
  C     12.113130   -0.539710   -2.836990
  C     12.434040    0.830080   -3.436970
  C     14.225290   -1.395220   -1.874900
  C     14.688470   -1.939990   -0.666830
  S     16.243480   -2.717190   -0.795460
  C     16.249820   -2.349250   -2.523000
  C     15.112420   -1.633630   -2.954680
  S     15.169040   -1.306960   -4.657760
  C     16.712140   -2.188080   -4.795950
  C     17.152760   -2.678650   -3.546460
  C     18.432750   -3.425860   -3.295020
  C     19.592240   -2.490220   -2.923210
  C     17.397970   -2.444640   -6.009690
  C     17.172810   -2.094720   -7.315210
  C     18.033000   -2.647040   -8.395350
  O     18.989620   -3.386640   -8.268030
  C     17.452900   -2.142140   -9.682860
  C     17.830150   -2.417070  -10.991080
  C     17.106220   -1.812850  -12.027540
  Cl    17.538260   -2.159650  -13.670970
  C     16.033840   -0.934670  -11.743340
  Cl    15.159630   -0.179210  -13.036520
  C     15.661030   -0.669100  -10.419350
  C     16.374760   -1.290560   -9.401910
  C     16.149960   -1.223710   -7.920400
  O     15.272560   -0.579040   -7.369100
  H      2.462780    3.779310   -2.006720
  H     -0.298250    3.850480    2.189880
  H      4.074690    1.172560    3.510190
  H      5.091120    0.195180    4.931690
  H      6.560720   -0.733170    5.211170
  H      4.157920   -1.675040    3.508130
  H      4.581830   -2.269980    5.135250
  H      5.653760   -2.605290    3.748010
  H      9.118990    1.038470   -1.259130
  H     10.857620    1.027770   -1.529430
  H     11.219900    2.447150    0.523020
  H      9.454600    2.518140    0.774200
  H     10.168670    3.243780   -0.683700
  H     11.064570   -0.622300   -2.524300
  H     12.266240   -1.321290   -3.599160
  H     11.709620    1.076370   -4.227480
  H     13.436810    0.842770   -3.888910
  H     12.404250    1.624650   -2.675790
  H     18.704420   -4.034770   -4.170140
  H     18.255240   -4.137650   -2.471830
  H     19.835100   -1.812460   -3.755980
  H     20.494540   -3.070230   -2.674650
  H     19.331550   -1.870060   -2.051550
  H     18.284230   -3.082190   -5.895810
  H     18.663460   -3.085350  -11.213440
  H     14.827490   -0.000620  -10.200050

 Total Charge           Charge          ....    0
 Multiplicity           Mult            ....    1
 Number of Electrons    NEL             ....  510
 Basis Dimension        Dim             .... 2163

ORBITAL ENERGIES
----------------

  NO   OCC          E(Eh)            E(eV)
   0   2.0000    -101.543329     -2763.1345
   1   2.0000    -101.543001     -2763.1255
   2   2.0000    -101.542832     -2763.1209
   3   2.0000    -101.542800     -2763.1201
   4   2.0000     -88.941680     -2420.2262
   5   2.0000     -88.905166     -2419.2326
   6   2.0000     -88.904991     -2419.2278
   7   2.0000     -88.904753     -2419.2213
   8   2.0000     -88.904729     -2419.2207
   9   2.0000     -19.125731      -520.4376
  10   2.0000     -19.125547      -520.4326
  11   2.0000     -19.121320      -520.3176
  12   2.0000     -19.120902      -520.3062
  13   2.0000     -14.405306      -391.9883
  14   2.0000     -14.402485      -391.9115
  15   2.0000     -14.356600      -390.6629
  16   2.0000     -14.356346      -390.6560
  17   2.0000     -10.273046      -279.5438
  18   2.0000     -10.273023      -279.5432
  19   2.0000     -10.269236      -279.4401
  20   2.0000     -10.269065      -279.4355
  21   2.0000     -10.268995      -279.4336
  22   2.0000     -10.268716      -279.4260
  23   2.0000     -10.268510      -279.4204
  24   2.0000     -10.268142      -279.4103
  25   2.0000     -10.261960      -279.2421
  26   2.0000     -10.260888      -279.2129
  27   2.0000     -10.250981      -278.9434
  28   2.0000     -10.246592      -278.8239
  29   2.0000     -10.243278      -278.7338
  30   2.0000     -10.242463      -278.7116
  31   2.0000     -10.240451      -278.6568
  32   2.0000     -10.240034      -278.6455
  33   2.0000     -10.238715      -278.6096
  34   2.0000     -10.238680      -278.6086
  35   2.0000     -10.233500      -278.4677
  36   2.0000     -10.232655      -278.4447
  37   2.0000     -10.227867      -278.3144
  38   2.0000     -10.227616      -278.3076
  39   2.0000     -10.227547      -278.3057
  40   2.0000     -10.227453      -278.3031
  41   2.0000     -10.223441      -278.1940
  42   2.0000     -10.223085      -278.1843
  43   2.0000     -10.222556      -278.1699
  44   2.0000     -10.221793      -278.1491
  45   2.0000     -10.215440      -277.9763
  46   2.0000     -10.215206      -277.9699
  47   2.0000     -10.214988      -277.9639
  48   2.0000     -10.214966      -277.9634
  49   2.0000     -10.214517      -277.9511
  50   2.0000     -10.214409      -277.9482
  51   2.0000     -10.209569      -277.8165
  52   2.0000     -10.209400      -277.8119
  53   2.0000     -10.209016      -277.8015
  54   2.0000     -10.208254      -277.7807
  55   2.0000     -10.200772      -277.5771
  56   2.0000     -10.200460      -277.5686
  57   2.0000     -10.198711      -277.5210
  58   2.0000     -10.193059      -277.3672
  59   2.0000     -10.192943      -277.3641
  60   2.0000     -10.192250      -277.3452
  61   2.0000     -10.180654      -277.0297
  62   2.0000     -10.180537      -277.0265
  63   2.0000      -9.475603      -257.8443
  64   2.0000      -9.475286      -257.8356
  65   2.0000      -9.475087      -257.8302
  66   2.0000      -9.475075      -257.8299
  67   2.0000      -8.012167      -218.0222
  68   2.0000      -7.980281      -217.1545
  69   2.0000      -7.979824      -217.1421
  70   2.0000      -7.979697      -217.1386
  71   2.0000      -7.979493      -217.1331
  72   2.0000      -7.237306      -196.9371
  73   2.0000      -7.237004      -196.9289
  74   2.0000      -7.236805      -196.9235
  75   2.0000      -7.236796      -196.9232
  76   2.0000      -7.228855      -196.7071
  77   2.0000      -7.228534      -196.6984
  78   2.0000      -7.228330      -196.6929
  79   2.0000      -7.228322      -196.6926
  80   2.0000      -7.228148      -196.6879
  81   2.0000      -7.227830      -196.6793
  82   2.0000      -7.227624      -196.6737
  83   2.0000      -7.227614      -196.6734
  84   2.0000      -5.976925      -162.6404
  85   2.0000      -5.969864      -162.4483
  86   2.0000      -5.968542      -162.4123
  87   2.0000      -5.943293      -161.7252
  88   2.0000      -5.942860      -161.7134
  89   2.0000      -5.942549      -161.7050
  90   2.0000      -5.942324      -161.6989
  91   2.0000      -5.939582      -161.6242
  92   2.0000      -5.939123      -161.6117
  93   2.0000      -5.938633      -161.5984
  94   2.0000      -5.938403      -161.5922
  95   2.0000      -5.935989      -161.5265
  96   2.0000      -5.935853      -161.5228
  97   2.0000      -5.935663      -161.5176
  98   2.0000      -5.935504      -161.5133
  99   2.0000      -1.052575       -28.6420
 100   2.0000      -1.052022       -28.6270
 101   2.0000      -1.046926       -28.4883
 102   2.0000      -1.046224       -28.4692
 103   2.0000      -1.031075       -28.0570
 104   2.0000      -1.018508       -27.7150
 105   2.0000      -1.017443       -27.6860
 106   2.0000      -0.932563       -25.3763
 107   2.0000      -0.932192       -25.3662
 108   2.0000      -0.924071       -25.1453
 109   2.0000      -0.922796       -25.1105
 110   2.0000      -0.899353       -24.4726
 111   2.0000      -0.881935       -23.9987
 112   2.0000      -0.879861       -23.9422
 113   2.0000      -0.878871       -23.9153
 114   2.0000      -0.873299       -23.7637
 115   2.0000      -0.873108       -23.7585
 116   2.0000      -0.869557       -23.6618
 117   2.0000      -0.860280       -23.4094
 118   2.0000      -0.833053       -22.6685
 119   2.0000      -0.823800       -22.4167
 120   2.0000      -0.817179       -22.2366
 121   2.0000      -0.814367       -22.1601
 122   2.0000      -0.812952       -22.1215
 123   2.0000      -0.806543       -21.9472
 124   2.0000      -0.783104       -21.3094
 125   2.0000      -0.781732       -21.2720
 126   2.0000      -0.775891       -21.1131
 127   2.0000      -0.774582       -21.0775
 128   2.0000      -0.774330       -21.0706
 129   2.0000      -0.765917       -20.8417
 130   2.0000      -0.754544       -20.5322
 131   2.0000      -0.749261       -20.3884
 132   2.0000      -0.737136       -20.0585
 133   2.0000      -0.721971       -19.6458
 134   2.0000      -0.720591       -19.6083
 135   2.0000      -0.717673       -19.5289
 136   2.0000      -0.696811       -18.9612
 137   2.0000      -0.678320       -18.4580
 138   2.0000      -0.674618       -18.3573
 139   2.0000      -0.672434       -18.2979
 140   2.0000      -0.655297       -17.8315
 141   2.0000      -0.654436       -17.8081
 142   2.0000      -0.652216       -17.7477
 143   2.0000      -0.649034       -17.6611
 144   2.0000      -0.645716       -17.5708
 145   2.0000      -0.643909       -17.5217
 146   2.0000      -0.630724       -17.1629
 147   2.0000      -0.624772       -17.0009
 148   2.0000      -0.611094       -16.6287
 149   2.0000      -0.598334       -16.2815
 150   2.0000      -0.584665       -15.9095
 151   2.0000      -0.580291       -15.7905
 152   2.0000      -0.578911       -15.7530
 153   2.0000      -0.577491       -15.7143
 154   2.0000      -0.566030       -15.4024
 155   2.0000      -0.560306       -15.2467
 156   2.0000      -0.550917       -14.9912
 157   2.0000      -0.542885       -14.7727
 158   2.0000      -0.538884       -14.6638
 159   2.0000      -0.533360       -14.5135
 160   2.0000      -0.527895       -14.3648
 161   2.0000      -0.521166       -14.1817
 162   2.0000      -0.517418       -14.0797
 163   2.0000      -0.512515       -13.9463
 164   2.0000      -0.512211       -13.9380
 165   2.0000      -0.502990       -13.6871
 166   2.0000      -0.501970       -13.6593
 167   2.0000      -0.498413       -13.5625
 168   2.0000      -0.489206       -13.3120
 169   2.0000      -0.488171       -13.2838
 170   2.0000      -0.483286       -13.1509
 171   2.0000      -0.480820       -13.0838
 172   2.0000      -0.478396       -13.0178
 173   2.0000      -0.474963       -12.9244
 174   2.0000      -0.473934       -12.8964
 175   2.0000      -0.469605       -12.7786
 176   2.0000      -0.466981       -12.7072
 177   2.0000      -0.465938       -12.6788
 178   2.0000      -0.460957       -12.5433
 179   2.0000      -0.459104       -12.4929
 180   2.0000      -0.457833       -12.4583
 181   2.0000      -0.456886       -12.4325
 182   2.0000      -0.456642       -12.4258
 183   2.0000      -0.453600       -12.3431
 184   2.0000      -0.453516       -12.3408
 185   2.0000      -0.449924       -12.2431
 186   2.0000      -0.445061       -12.1107
 187   2.0000      -0.444102       -12.0846
 188   2.0000      -0.441847       -12.0233
 189   2.0000      -0.440217       -11.9789
 190   2.0000      -0.436025       -11.8648
 191   2.0000      -0.431699       -11.7471
 192   2.0000      -0.430525       -11.7152
 193   2.0000      -0.426621       -11.6090
 194   2.0000      -0.423802       -11.5322
 195   2.0000      -0.423275       -11.5179
 196   2.0000      -0.418200       -11.3798
 197   2.0000      -0.417269       -11.3545
 198   2.0000      -0.416770       -11.3409
 199   2.0000      -0.414077       -11.2676
 200   2.0000      -0.412382       -11.2215
 201   2.0000      -0.410804       -11.1785
 202   2.0000      -0.408944       -11.1279
 203   2.0000      -0.406541       -11.0625
 204   2.0000      -0.403130       -10.9697
 205   2.0000      -0.401606       -10.9283
 206   2.0000      -0.398077       -10.8322
 207   2.0000      -0.397517       -10.8170
 208   2.0000      -0.394401       -10.7322
 209   2.0000      -0.393233       -10.7004
 210   2.0000      -0.393039       -10.6951
 211   2.0000      -0.392762       -10.6876
 212   2.0000      -0.390895       -10.6368
 213   2.0000      -0.389746       -10.6055
 214   2.0000      -0.385764       -10.4972
 215   2.0000      -0.384406       -10.4602
 216   2.0000      -0.378688       -10.3046
 217   2.0000      -0.365521        -9.9463
 218   2.0000      -0.364567        -9.9204
 219   2.0000      -0.364075        -9.9070
 220   2.0000      -0.363460        -9.8902
 221   2.0000      -0.362643        -9.8680
 222   2.0000      -0.362608        -9.8671
 223   2.0000      -0.356993        -9.7143
 224   2.0000      -0.351110        -9.5542
 225   2.0000      -0.350013        -9.5243
 226   2.0000      -0.349571        -9.5123
 227   2.0000      -0.344483        -9.3738
 228   2.0000      -0.343511        -9.3474
 229   2.0000      -0.342659        -9.3242
 230   2.0000      -0.342024        -9.3069
 231   2.0000      -0.340369        -9.2619
 232   2.0000      -0.333240        -9.0679
 233   2.0000      -0.333073        -9.0634
 234   2.0000      -0.320410        -8.7188
 235   2.0000      -0.319986        -8.7073
 236   2.0000      -0.314408        -8.5555
 237   2.0000      -0.311021        -8.4633
 238   2.0000      -0.308396        -8.3919
 239   2.0000      -0.291793        -7.9401
 240   2.0000      -0.282659        -7.6915
 241   2.0000      -0.282260        -7.6807
 242   2.0000      -0.280853        -7.6424
 243   2.0000      -0.280523        -7.6334
 244   2.0000      -0.279502        -7.6056
 245   2.0000      -0.272441        -7.4135
 246   2.0000      -0.269138        -7.3236
 247   2.0000      -0.261064        -7.1039
 248   2.0000      -0.259437        -7.0596
 249   2.0000      -0.257253        -7.0002
 250   2.0000      -0.256865        -6.9896
 251   2.0000      -0.239722        -6.5232
 252   2.0000      -0.233056        -6.3418
 253   2.0000      -0.230126        -6.2620
 254   2.0000      -0.202498        -5.5103
 255   0.0000      -0.121000        -3.2926
 256   0.0000      -0.108286        -2.9466
 257   0.0000      -0.088961        -2.4207
 258   0.0000      -0.088594        -2.4108
 259   0.0000      -0.087539        -2.3820

MULLIKEN ATOMIC CHARGES
-----------------------
   0 C :    0.131565
   1 O :   -0.337790
   2 C :    0.171119
   3 C :   -0.307283
   4 C :    0.169189
   5 Cl:   -0.068734
   6 C :    0.160597
   7 Cl:   -0.066473
   8 C :   -0.318421
   9 C :    0.049685
  10 C :    0.227718
  11 O :   -0.307003
  12 C :   -0.115616
  13 C :   -0.202851
  14 C :    0.156609
  15 S :    0.043146
  16 C :   -0.263600
  17 C :    0.015692
  18 C :    0.066048
  19 C :   -0.225264
  20 C :   -0.330550
  21 S :    0.028907
  22 C :   -0.134222
  23 C :    0.393787
  24 N :   -0.093388
  25 C :   -0.121621
  26 C :   -0.342045
  27 C :   -0.039228
  28 C :    0.101076
  29 C :   -0.017860
  30 N :   -0.254719
  31 S :    0.325314
  32 N :   -0.250506
  33 C :    0.002968
  34 C :    0.057530
  35 C :    0.088574
  36 N :   -0.046477
  37 C :   -0.226997
  38 C :   -0.326241
  39 C :    0.342391
  40 C :   -0.151990
  41 S :    0.028559
  42 C :    0.000959
  43 C :   -0.197835
  44 S :    0.027325
  45 C :    0.132890
  46 C :    0.074224
  47 C :   -0.229765
  48 C :   -0.327630
  49 C :   -0.181844
  50 C :   -0.113114
  51 C :    0.212287
  52 O :   -0.305488
  53 C :    0.060991
  54 C :   -0.314147
  55 C :    0.162694
  56 Cl:   -0.067518
  57 C :    0.164221
  58 Cl:   -0.067907
  59 C :   -0.304016
  60 C :    0.154316
  61 C :    0.150247
  62 O :   -0.341739
  63 H :    0.136134
  64 H :    0.140345
  65 H :    0.133421
  66 H :    0.119798
  67 H :    0.108737
  68 H :    0.121409
  69 H :    0.118708
  70 H :    0.119476
  71 H :    0.137611
  72 H :    0.084421
  73 H :    0.120237
  74 H :    0.140282
  75 H :    0.121031
  76 H :    0.167506
  77 H :    0.141642
  78 H :    0.127572
  79 H :    0.143520
  80 H :    0.120277
  81 H :    0.117226
  82 H :    0.109551
  83 H :    0.119908
  84 H :    0.118223
  85 H :    0.118954
  86 H :    0.134712
  87 H :    0.141232
  88 H :    0.137320
Sum of atomic charges:   -0.0000000

LOEWDIN ATOMIC CHARGES
----------------------
   0 C :   -0.258114
   1 O :    0.109564
   2 C :   -0.059139
   3 C :   -0.081824
   4 C :   -0.414485
   5 Cl:    0.422957
   6 C :   -0.414925
   7 Cl:    0.423814
   8 C :   -0.079498
   9 C :   -0.061865
  10 C :   -0.256384
  11 O :    0.116018
  12 C :   -0.114464
  13 C :   -0.060063
  14 C :   -0.299906
  15 S :    0.767987
  16 C :   -0.335074
  17 C :   -0.323175
  18 C :   -0.130458
  19 C :   -0.236095
  20 C :   -0.289723
  21 S :    0.739020
  22 C :   -0.289110
  23 C :   -0.178151
  24 N :    0.279356
  25 C :   -0.268775
  26 C :   -0.295598
  27 C :   -0.087511
  28 C :   -0.091830
  29 C :   -0.244495
  30 N :   -0.120053
  31 S :    0.636417
  32 N :   -0.120880
  33 C :   -0.243848
  34 C :   -0.093220
  35 C :   -0.085339
  36 N :    0.286686
  37 C :   -0.269574
  38 C :   -0.304273
  39 C :   -0.177012
  40 C :   -0.288896
  41 S :    0.736223
  42 C :   -0.321520
  43 C :   -0.334732
  44 S :    0.768174
  45 C :   -0.297588
  46 C :   -0.130355
  47 C :   -0.236902
  48 C :   -0.290812
  49 C :   -0.058462
  50 C :   -0.114510
  51 C :   -0.256298
  52 O :    0.117194
  53 C :   -0.060677
  54 C :   -0.079296
  55 C :   -0.414590
  56 Cl:    0.423353
  57 C :   -0.415161
  58 Cl:    0.422823
  59 C :   -0.080809
  60 C :   -0.060028
  61 C :   -0.259721
  62 O :    0.107261
  63 H :    0.159773
  64 H :    0.161023
  65 H :    0.176713
  66 H :    0.144106
  67 H :    0.143966
  68 H :    0.123478
  69 H :    0.122428
  70 H :    0.122848
  71 H :    0.140725
  72 H :    0.140008
  73 H :    0.125411
  74 H :    0.125425
  75 H :    0.129041
  76 H :    0.141549
  77 H :    0.143774
  78 H :    0.130556
  79 H :    0.123293
  80 H :    0.120130
  81 H :    0.144168
  82 H :    0.145246
  83 H :    0.123187
  84 H :    0.122873
  85 H :    0.122495
  86 H :    0.175731
  87 H :    0.160801
  88 H :    0.159623

  Mayer bond orders larger than 0.100000
B(  0-C ,  1-O ) :   2.0643 B(  0-C ,  2-C ) :   1.0081 B(  0-C , 12-C ) :   1.0012
B(  1-O ,  2-C ) :  -0.1436 B(  2-C ,  3-C ) :   1.3541 B(  2-C ,  9-C ) :   1.3478
B(  3-C ,  4-C ) :   1.3501 B(  3-C , 63-H ) :   0.9853 B(  4-C ,  5-Cl) :   1.0369
B(  4-C ,  6-C ) :   1.2595 B(  6-C ,  7-Cl) :   1.0419 B(  6-C ,  8-C ) :   1.3530
B(  8-C ,  9-C ) :   1.3655 B(  8-C , 64-H ) :   0.9788 B(  9-C , 10-C ) :   0.9779
B(  9-C , 11-O ) :  -0.1530 B( 10-C , 11-O ) :   2.1449 B( 10-C , 12-C ) :   1.0145
B( 11-O , 12-C ) :  -0.1099 B( 12-C , 13-C ) :   1.5015 B( 13-C , 14-C ) :   1.1016
B( 13-C , 65-H ) :   0.9338 B( 14-C , 15-S ) :   1.2680 B( 14-C , 18-C ) :   1.3367
B( 15-S , 16-C ) :   1.3661 B( 15-S , 23-C ) :  -0.1381 B( 16-C , 17-C ) :   1.3353
B( 16-C , 21-S ) :   0.1102 B( 16-C , 23-C ) :   1.0345 B( 17-C , 18-C ) :   1.3265
B( 17-C , 21-S ) :   1.1826 B( 18-C , 19-C ) :   0.9216 B( 19-C , 20-C ) :   0.9586
B( 19-C , 66-H ) :   0.9696 B( 19-C , 67-H ) :   0.9721 B( 20-C , 68-H ) :   0.9709
B( 20-C , 69-H ) :   0.9709 B( 20-C , 70-H ) :   0.9729 B( 21-S , 22-C ) :   1.3463
B( 22-C , 23-C ) :   1.2578 B( 22-C , 28-C ) :   1.1868 B( 23-C , 24-N ) :   1.1185
B( 24-N , 25-C ) :   0.8902 B( 24-N , 27-C ) :   1.2111 B( 25-C , 26-C ) :   0.9672
B( 25-C , 71-H ) :   0.9618 B( 25-C , 72-H ) :   0.9579 B( 26-C , 73-H ) :   0.9674
B( 26-C , 74-H ) :   0.9707 B( 26-C , 75-H ) :   0.9666 B( 27-C , 28-C ) :   1.2803
B( 27-C , 35-C ) :   1.2486 B( 28-C , 29-C ) :   1.0850 B( 29-C , 30-N ) :   1.6150
B( 29-C , 31-S ) :   0.1106 B( 29-C , 33-C ) :   1.1606 B( 30-N , 31-S ) :   1.2530
B( 30-N , 32-N ) :   0.1094 B( 31-S , 32-N ) :   1.2520 B( 31-S , 33-C ) :   0.1182
B( 32-N , 33-C ) :   1.6102 B( 33-C , 34-C ) :   1.1048 B( 34-C , 35-C ) :   1.2436
B( 34-C , 40-C ) :   1.2016 B( 35-C , 36-N ) :   1.2339 B( 36-N , 37-C ) :   0.8765
B( 36-N , 39-C ) :   1.1194 B( 37-C , 38-C ) :   0.9359 B( 37-C , 76-H ) :   0.9674
B( 37-C , 77-H ) :   0.9553 B( 38-C , 78-H ) :   0.9694 B( 38-C , 79-H ) :   0.9594
B( 38-C , 80-H ) :   0.9694 B( 39-C , 40-C ) :   1.2715 B( 39-C , 43-C ) :   1.0697
B( 39-C , 44-S ) :  -0.1271 B( 40-C , 41-S ) :   1.3346 B( 41-S , 42-C ) :   1.1817
B( 41-S , 43-C ) :   0.1015 B( 42-C , 43-C ) :   1.3424 B( 42-C , 46-C ) :   1.3105
B( 43-C , 44-S ) :   1.3498 B( 44-S , 45-C ) :   1.2731 B( 45-C , 46-C ) :   1.3318
B( 45-C , 49-C ) :   1.1182 B( 46-C , 47-C ) :   0.9219 B( 47-C , 48-C ) :   0.9656
B( 47-C , 81-H ) :   0.9685 B( 47-C , 82-H ) :   0.9703 B( 48-C , 83-H ) :   0.9704
B( 48-C , 84-H ) :   0.9711 B( 48-C , 85-H ) :   0.9738 B( 49-C , 50-C ) :   1.4938
B( 49-C , 86-H ) :   0.9197 B( 50-C , 51-C ) :   1.0087 B( 50-C , 52-O ) :  -0.1173
B( 50-C , 61-C ) :   1.0124 B( 51-C , 52-O ) :   2.1464 B( 51-C , 53-C ) :   0.9809
B( 52-O , 53-C ) :  -0.1500 B( 53-C , 54-C ) :   1.3584 B( 53-C , 60-C ) :   1.3523
B( 54-C , 55-C ) :   1.3588 B( 54-C , 87-H ) :   0.9772 B( 55-C , 56-Cl) :   1.0397
B( 55-C , 57-C ) :   1.2596 B( 57-C , 58-Cl) :   1.0406 B( 57-C , 59-C ) :   1.3509
B( 59-C , 60-C ) :   1.3610 B( 59-C , 88-H ) :   0.9800 B( 60-C , 61-C ) :   1.0125
B( 60-C , 62-O ) :  -0.1465 B( 61-C , 62-O ) :   2.0552

-----------------------------------------------------------------------------
         ABSORPTION SPECTRUM VIA TRANSITION ELECTRIC DIPOLE MOMENTS
-----------------------------------------------------------------------------
State   Energy    Wavelength  fosc         T2        TX        TY        TZ
        (cm-1)      (nm)                 (au**2)    (au)      (au)      (au)
-----------------------------------------------------------------------------
   1   16817.7    594.6   2.463511353  48.22418  -5.54225   1.76447   3.79399
   2   19505.8    512.7   0.171860630   2.90060  -0.87895   0.64611  -1.30789
   3   21340.6    468.6   0.037128798   0.57277   0.30845  -0.43483   0.53717
   4   21736.2    460.1   0.001310667   0.01985  -0.13899   0.00322   0.02287
   5   22249.5    449.4   0.008419649   0.12458  -0.28827   0.19612  -0.05492
   6   22305.3    448.3   0.010233932   0.15105  -0.21932   0.03910   0.31846
   7   22972.9    435.3   0.067169819   0.96257   0.77537  -0.09088  -0.59423
   8   23558.3    424.5   0.007111464   0.09938  -0.26191   0.12828  -0.11968
   9   23652.0    422.8   0.010893090   0.15162  -0.32257   0.06900   0.20690
  10   23931.4    417.9   0.041600276   0.57227   0.60387  -0.23159  -0.39241
  11   24695.2    404.9   1.282682833  17.09949  -1.82906   1.46700  -3.40616
  12   25734.9    388.6   0.206726919   2.64454  -1.11148   0.48126   1.08514
  13   25806.7    387.5   0.172882936   2.20544   1.03770  -0.63709   0.85014
  14   26707.2    374.4   0.000204000   0.00251  -0.03066   0.03902  -0.00721
  15   26717.4    374.3   0.004368128   0.05382   0.09310  -0.06775   0.20141
  16   27764.0    360.2   0.011367586   0.13479  -0.18751   0.23052  -0.21562
  17   28111.3    355.7   0.199584022   2.33734   1.10245  -0.46666  -0.95087
  18   28344.6    352.8   0.016538186   0.19209  -0.08534   0.16287  -0.39784
  19   28485.8    351.1   0.008788461   0.10157  -0.16394   0.16458  -0.21819
  20   28634.5    349.2   0.044060674   0.50657   0.16754  -0.29517   0.62560
  21   28848.8    346.6   0.025029054   0.28562  -0.44777   0.28888  -0.04091
  22   28922.6    345.8   0.089563481   1.01946  -0.09932   0.36269  -0.93704
  23   29019.0    344.6   0.050919099   0.57766  -0.29663   0.29787  -0.63320
  24   29183.2    342.7   0.062404077   0.70397  -0.69565   0.46821  -0.02869
  25   29706.2    336.6   0.003464019   0.03839   0.19264  -0.02489   0.02565
  26   29766.4    335.9   0.064568023   0.71411  -0.32988   0.31590  -0.71099
  27   29869.5    334.8   0.004079215   0.04496  -0.17761   0.05018  -0.10439
  28   30084.2    332.4   0.064958422   0.71084   0.75068  -0.07633  -0.37616
  29   30152.4    331.6   0.012713636   0.13881   0.33265  -0.04077  -0.16277
  30   30234.7    330.7   0.000543970   0.00592   0.05208  -0.03944   0.04068
  31   30445.0    328.5   0.006083780   0.06579  -0.20276   0.09232   0.12710
  32   30825.7    324.4   0.005204806   0.05559  -0.09385   0.10883  -0.18691
  33   30871.3    323.9   0.001694561   0.01807   0.07768  -0.03431   0.10421
  34   30951.8    323.1   0.147139442   1.56502  -0.56232   0.48599  -1.00629
  35   31101.7    321.5   0.012834992   0.13586   0.22220  -0.24458  -0.16330
  36   31506.9    317.4   0.015074594   0.15751  -0.22527   0.10784  -0.30845
  37   32072.4    311.8   0.007118408   0.07307   0.26283   0.02142  -0.05941
  38   32202.6    310.5   0.000509664   0.00521   0.03607   0.03008  -0.05482
  39   32247.2    310.1   0.001491914   0.01523   0.12118  -0.01443  -0.01836
  40   33029.7    302.8   0.000187211   0.00187   0.03691  -0.00925   0.02045
  41   33045.5    302.6   0.000397128   0.00396  -0.05948   0.00666  -0.01934
  42   33053.3    302.5   0.000050124   0.00050  -0.01329   0.00604  -0.01692
  43   33723.0    296.5   0.018687358   0.18243   0.19499  -0.16458   0.34253
  44   34143.5    292.9   0.057496579   0.55438   0.29895  -0.33887   0.59176
  45   34590.5    289.1   0.011464061   0.10911  -0.23979   0.22222   0.04723
  46   34711.5    288.1   0.015121922   0.14342  -0.00714   0.16042  -0.34298
  47   34714.1    288.1   0.022313812   0.21161  -0.18950   0.24582  -0.33952
  48   34794.2    287.4   0.006221755   0.05887   0.07657   0.04009  -0.22671
  49   34855.3    286.9   0.002845242   0.02687  -0.12168   0.10410  -0.03507
  50   34948.3    286.1   0.001338301   0.01261   0.10053  -0.04553  -0.02066

FINAL SINGLE POINT ENERGY     -6119.316029168577

DIPOLE MOMENT
-------------
                                X             Y             Z
Electronic contribution:    -29.12134      13.03954     -46.78134
Nuclear contribution   :     29.57703     -13.01790      47.34739
                        -----------------------------------------
Total Dipole Moment    :      0.45568       0.02164       0.56605
                        -----------------------------------------
Magnitude (a.u.)       :      0.72700
Magnitude (Debye)      :      1.84788

Rotational constants in cm-1:     0.001069     0.000306     0.000241
Rotational constants in MHz :    32.039750     9.181133     7.230610

                             ****ORCA TERMINATED NORMALLY****
TOTAL RUN TIME: 0 days 5 hours 58 minutes 9 seconds 259 msec
