                         Program Version 4.2.0 -  RELEASE  -
|  1> # ORCA input file
|  2> # SCF done       -155.951795266660          0.000327488560
|  3> ! B3LYP/G D3BJ Opt RIJCOSX def2-SVP def2/J
|  4> * xyz 0 1
|  5>    C        0.74401         1.64156         0.20500
|  6>    C        1.67424         0.58844         0.21862
|  7>    C        1.22474        -0.75228         0.24337
|  8>    C       -0.11965        -1.11402         0.24168
|  9>    C       -1.05272        -0.05837         0.24828
| 10>    C       -0.60114         1.28357         0.23311
| 11>    C        3.09751         0.66535         0.21268
| 12>    C        3.71174        -0.53753         0.20285
| 13>    S        2.57024        -1.86040         0.21675
| 14>    C       -2.46708        -0.13814         0.27223
| 15>    C       -3.08679         1.07797         0.23752
| 16>    S       -1.93814         2.39813         0.19613
| 17>    C        1.13312         3.03735         0.14098
| 18>    C       -0.51489        -2.50755         0.20084
| 19>    C        0.56726         4.09146         0.79915
| 20>    C        1.15588         5.32739         0.45671
| 21>    C        2.15201         5.24222        -0.47146
| 22>    S        2.39680         3.59084        -0.92302
| 23>    C        0.06654        -3.56372         0.84286
| 24>    C       -0.54072        -4.79706         0.52514
| 25>    C       -1.56762        -4.70952        -0.36889
| 26>    S       -1.81729        -3.05854        -0.81874
| 27>    C        3.00312         6.33151        -1.02425
| 28>    C        4.28562         6.49712        -0.20527
| 29>    C       -2.44871        -5.79212        -0.88651
| 30>    C       -3.73718        -5.89069        -0.06603
| 31>    C        5.16769        -0.82740         0.19226
| 32>    C       -4.48682         1.34430         0.23852
| 33>    C       -5.52561         0.44604         0.36556
| 34>    C       -6.78637         1.03734         0.30848
| 35>    C       -6.74975         2.40475         0.13371
| 36>    S       -5.09191         2.95578         0.04469
| 37>    C       -7.77817         3.39159         0.05763
| 38>    S       -7.23455         5.04592         0.09555
| 39>    C       -8.85171         5.66732         0.02607
| 40>    C       -9.77444         4.63529         0.00702
| 41>    C       -9.16696         3.33601        -0.00212
| 42>    C      -11.22452         4.84215         0.12111
| 43>    C      -11.99725         3.60639         0.18443
| 44>    C      -11.40690         2.31338         0.04673
| 45>    C       -9.96972         2.11399        -0.13959
| 46>    C      -13.35894         3.56361         0.36068
| 47>    S      -13.92166         1.92842         0.37472
| 48>    C      -12.32735         1.29884         0.13030
| 49>    C       -9.00331         7.09032        -0.01401
| 50>    C       -9.93422         7.87349        -0.64655
| 51>    C       -9.68463         9.24932        -0.50366
| 52>    S       -7.78770         8.08245         0.75485
| 53>    O      -11.75174         5.94210         0.19469
| 54>    O       -9.50253         1.01660        -0.40602
| 55>    C      -14.28837         4.71065         0.52365
| 56>    C      -15.73253         4.29198         0.75583
| 57>    C      -12.12549        -0.16818         0.00718
| 58>    C      -12.09057        -0.58902        -1.46481
| 59>    C       -8.56816         9.51273         0.22743
| 60>   Cl        0.64385         6.81693         1.15171
| 61>   Cl       -0.01317        -6.28692         1.20823
| 62>    H        3.63824         1.59363         0.22083
| 63>    H       -3.00894        -1.06354         0.31507
| 64>    H       -0.21683         3.99827         1.52711
| 65>    H        0.87451        -3.47313         1.54444
| 66>    H        2.43480         7.26366        -1.00289
| 67>    H        3.26035         6.10363        -2.06045
| 68>    H        4.04416         6.73620         0.82756
| 69>    H        4.89154         7.30029        -0.61632
| 70>    H        4.86651         5.57763        -0.22265
| 71>    H       -1.90789        -6.73901        -0.83261
| 72>    H       -2.69835        -5.59219        -1.93045
| 73>    H       -3.50543        -6.10013         0.97550
| 74>    H       -4.36616        -6.68928        -0.45038
| 75>    H       -4.29019        -4.95553        -0.11814
| 76>    H        5.73355         0.10078         0.19041
| 77>    H        5.43386        -1.40662        -0.69143
| 78>    H        5.44719        -1.41251         1.06797
| 79>    H       -5.37390        -0.60948         0.49838
| 80>    H       -7.70247         0.48362         0.37683
| 81>    H      -10.76445         7.47314        -1.19541
| 82>    H      -10.31108        10.01310        -0.92816
| 83>    H      -14.21349         5.34166        -0.36793
| 84>    H      -13.92958         5.32761         1.35356
| 85>    H      -16.10183         3.70679        -0.08407
| 86>    H      -16.36340         5.16973         0.86849
| 87>    H      -15.81631         3.68846         1.65735
| 88>    H      -12.93368        -0.69198         0.52190
| 89>    H      -11.17180        -0.43419         0.46722
| 90>    H      -13.00689        -0.29146        -1.97037
| 91>    H      -11.98347        -1.66777        -1.53889
| 92>    H      -11.24342        -0.12092        -1.95857
| 93>    H       -8.15709        10.46584         0.49572
| 94> *
| 95>
| 96>                          ****END OF INPUT****
 Total Charge           Charge          ....    0
 Multiplicity           Mult            ....    1
 Number of Electrons    NEL             ....  480
Dispersion correction           -0.275167461
FINAL SINGLE POINT ENERGY     -5988.219517908644
Dispersion correction            ... done
Dispersion correction           -0.272547250
FINAL SINGLE POINT ENERGY     -5988.234431804976
Dispersion correction            ... done
Dispersion correction           -0.271960201
FINAL SINGLE POINT ENERGY     -5988.235295194642
Dispersion correction            ... done
FINAL SINGLE POINT ENERGY     -5988.234821238589
FINAL SINGLE POINT ENERGY     -5988.235084258939
FINAL SINGLE POINT ENERGY     -5988.235186476208
FINAL SINGLE POINT ENERGY     -5988.234879421935
FINAL SINGLE POINT ENERGY     -5988.234714672441
FINAL SINGLE POINT ENERGY     -5988.234090030935
FINAL SINGLE POINT ENERGY     -5988.233685842453
FINAL SINGLE POINT ENERGY     -5988.233459027110
FINAL SINGLE POINT ENERGY     -5988.233371827529
FINAL SINGLE POINT ENERGY     -5988.233275323877
FINAL SINGLE POINT ENERGY     -5988.233394709935
FINAL SINGLE POINT ENERGY     -5988.233444952366
FINAL SINGLE POINT ENERGY     -5988.233430514692
FINAL SINGLE POINT ENERGY     -5988.233419648425
Dispersion correction            ... done
Dispersion correction           -0.271566835
FINAL SINGLE POINT ENERGY     -5988.233420947327
Dispersion correction            ... done
Dispersion correction           -0.271573573
FINAL SINGLE POINT ENERGY     -5988.233439912566
Dispersion correction            ... done
                    ***********************HURRAY********************

CARTESIAN COORDINATES (ANGSTROEM)
---------------------------------
  C      0.615321    1.581474    0.536814
  C      1.607898    0.595012    0.723738
  C      1.232122   -0.780263    0.792642
  C     -0.091395   -1.228505    0.667674
  C     -1.093587   -0.237422    0.512001
  C     -0.710933    1.138071    0.458876
  C      3.035490    0.763718    0.817511
  C      3.720171   -0.410681    0.930776
  S      2.650178   -1.806997    0.945848
  C     -2.516112   -0.396504    0.370482
  C     -3.186523    0.793376    0.206237
  S     -2.090526    2.178118    0.194624
  C      0.927669    3.002427    0.325257
  C     -0.365012   -2.669473    0.605989
  C      0.403253    4.106437    0.956733
  C      0.830486    5.329114    0.354455
  C      1.657092    5.177545   -0.735392
  S      1.940443    3.483393   -1.019065
  C      0.108682   -3.667374    1.427259
  C     -0.196371   -4.969763    0.931844
  C     -0.882490   -4.988752   -0.260698
  S     -1.185508   -3.355316   -0.781249
  C      2.278511    6.232473   -1.599083
  C      3.750291    6.522558   -1.274731
  C     -1.355326   -6.170685   -1.050084
  C     -2.822313   -6.543687   -0.794713
  C      5.195978   -0.617574    1.043914
  C     -4.602290    1.051756    0.051641
  C     -5.638683    0.211630   -0.325157
  C     -6.895569    0.858450   -0.414371
  C     -6.847646    2.215905   -0.112015
  S     -5.204078    2.661433    0.337485
  C     -7.837240    3.277782   -0.117380
  S     -7.188795    4.907472   -0.093274
  C     -8.754693    5.657611    0.039834
  C     -9.752794    4.686707    0.025946
  C     -9.238605    3.333381   -0.102246
  C    -11.191603    4.974257    0.259032
  C    -12.067429    3.791399    0.304744
  C    -11.583719    2.462542    0.023990
  C    -10.152528    2.171107   -0.210034
  C    -13.430293    3.846911    0.545534
  S    -14.114143    2.253353    0.404129
  C    -12.589600    1.512274    0.024325
  C     -8.775163    7.106823    0.110281
  C     -9.675198    8.025673   -0.398853
  C     -9.276559    9.373127   -0.189596
  S     -7.424018    7.935647    0.868522
  O    -11.632212    6.109805    0.408815
  O     -9.766534    1.037456   -0.486348
  C    -14.280442    5.036695    0.883407
  C    -15.745818    4.722272    1.182763
  C    -12.552786    0.059974   -0.341954
  C    -12.575095   -0.145833   -1.863088
  C     -8.081079    9.481249    0.481611
  Cl     0.334993    6.885753    0.956885
  Cl     0.279717   -6.419897    1.767704
  H      3.526826    1.736245    0.789751
  H     -3.019072   -1.361461    0.419232
  H     -0.264685    4.057091    1.815971
  H      0.659145   -3.488913    2.349771
  H      1.682630    7.149410   -1.476229
  H      2.183707    5.933776   -2.656934
  H      3.859700    6.867906   -0.234802
  H      4.149774    7.304227   -1.939072
  H      4.369486    5.620453   -1.401335
  H     -0.705384   -7.019846   -0.788399
  H     -1.199236   -5.975079   -2.124283
  H     -2.978329   -6.806974    0.262917
  H     -3.119005   -7.405662   -1.411859
  H     -3.493209   -5.705122   -1.038409
  H      5.723350    0.338584    0.919161
  H      5.565530   -1.316333    0.276406
  H      5.472608   -1.040679    2.024854
  H     -5.482611   -0.839669   -0.570227
  H     -7.824419    0.380505   -0.708781
  H    -10.592066    7.724866   -0.896814
  H     -9.858235   10.232566   -0.523986
  H    -14.193925    5.760820    0.055455
  H    -13.808049    5.556476    1.733271
  H    -16.255216    4.283304    0.309330
  H    -16.289159    5.637578    1.460168
  H    -15.846076    4.010858    2.018442
  H    -13.411483   -0.453660    0.119112
  H    -11.635338   -0.381101    0.070376
  H    -13.452868    0.339755   -2.316845
  H    -12.608101   -1.217736   -2.113366
  H    -11.671172    0.284454   -2.316658
  H     -7.557258   10.385366    0.787414

 Multiplicity           Mult            ....    1
 Number of Electrons    NEL             ....  480
 Basis Dimension        Dim             ....  998

ORBITAL ENERGIES
----------------

  NO   OCC          E(Eh)            E(eV)
   0   2.0000    -101.509123     -2762.2037
   1   2.0000    -101.507912     -2762.1707
   2   2.0000     -88.890322     -2418.8286
   3   2.0000     -88.887681     -2418.7568
   4   2.0000     -88.881926     -2418.6002
   5   2.0000     -88.880893     -2418.5720
   6   2.0000     -88.880594     -2418.5639
   7   2.0000     -88.879076     -2418.5226
   8   2.0000     -88.875013     -2418.4120
   9   2.0000     -88.870838     -2418.2985
  10   2.0000     -19.122621      -520.3530
  11   2.0000     -19.117206      -520.2056
  12   2.0000     -10.281243      -279.7668
  13   2.0000     -10.277229      -279.6576
  14   2.0000     -10.250529      -278.9311
  15   2.0000     -10.246586      -278.8238
  16   2.0000     -10.243442      -278.7382
  17   2.0000     -10.242961      -278.7251
  18   2.0000     -10.235597      -278.5247
  19   2.0000     -10.235283      -278.5162
  20   2.0000     -10.235025      -278.5092
  21   2.0000     -10.233556      -278.4692
  22   2.0000     -10.231648      -278.4173
  23   2.0000     -10.230019      -278.3730
  24   2.0000     -10.229261      -278.3523
  25   2.0000     -10.228472      -278.3309
  26   2.0000     -10.227541      -278.3055
  27   2.0000     -10.226783      -278.2849
  28   2.0000     -10.226394      -278.2743
  29   2.0000     -10.224841      -278.2321
  30   2.0000     -10.223886      -278.2061
  31   2.0000     -10.221980      -278.1542
  32   2.0000     -10.219739      -278.0932
  33   2.0000     -10.219499      -278.0867
  34   2.0000     -10.214747      -277.9574
  35   2.0000     -10.213157      -277.9141
  36   2.0000     -10.211756      -277.8760
  37   2.0000     -10.210304      -277.8365
  38   2.0000     -10.206610      -277.7360
  39   2.0000     -10.206368      -277.7294
  40   2.0000     -10.205780      -277.7134
  41   2.0000     -10.205457      -277.7046
  42   2.0000     -10.205296      -277.7002
  43   2.0000     -10.204448      -277.6771
  44   2.0000     -10.202563      -277.6259
  45   2.0000     -10.202410      -277.6217
  46   2.0000     -10.201935      -277.6088
  47   2.0000     -10.199655      -277.5467
  48   2.0000     -10.199606      -277.5454
  49   2.0000     -10.197916      -277.4994
  50   2.0000     -10.197552      -277.4895
  51   2.0000     -10.196493      -277.4607
  52   2.0000     -10.195518      -277.4342
  53   2.0000     -10.191127      -277.3147
  54   2.0000     -10.190097      -277.2866
  55   2.0000     -10.190029      -277.2848
  56   2.0000     -10.183052      -277.0949
  57   2.0000      -9.462871      -257.4978
  58   2.0000      -9.461672      -257.4652
  59   2.0000      -7.985753      -217.3034
  60   2.0000      -7.982681      -217.2198
  61   2.0000      -7.976619      -217.0548
  62   2.0000      -7.975767      -217.0317
  63   2.0000      -7.975673      -217.0291
  64   2.0000      -7.974220      -216.9896
  65   2.0000      -7.969539      -216.8622
  66   2.0000      -7.965496      -216.7522
  67   2.0000      -7.231997      -196.7926
  68   2.0000      -7.230786      -196.7597
  69   2.0000      -7.222081      -196.5228
  70   2.0000      -7.221854      -196.5166
  71   2.0000      -7.220855      -196.4895
  72   2.0000      -7.220687      -196.4849
  73   2.0000      -5.953823      -162.0118
  74   2.0000      -5.950491      -161.9211
  75   2.0000      -5.949703      -161.8997
  76   2.0000      -5.946891      -161.8231
  77   2.0000      -5.946435      -161.8107
  78   2.0000      -5.944686      -161.7631
  79   2.0000      -5.944525      -161.7587
  80   2.0000      -5.943924      -161.7424
  81   2.0000      -5.943757      -161.7379
  82   2.0000      -5.942360      -161.6998
  83   2.0000      -5.940823      -161.6580
  84   2.0000      -5.939976      -161.6350
  85   2.0000      -5.939844      -161.6314
  86   2.0000      -5.938177      -161.5860
  87   2.0000      -5.938072      -161.5832
  88   2.0000      -5.937815      -161.5762
  89   2.0000      -5.936859      -161.5502
  90   2.0000      -5.936748      -161.5471
  91   2.0000      -5.935557      -161.5147
  92   2.0000      -5.934036      -161.4733
  93   2.0000      -5.934022      -161.4729
  94   2.0000      -5.929917      -161.3612
  95   2.0000      -5.929899      -161.3608
  96   2.0000      -5.926010      -161.2549
  97   2.0000      -1.028555       -27.9884
  98   2.0000      -1.024313       -27.8730
  99   2.0000      -0.915368       -24.9084
 100   2.0000      -0.910619       -24.7792
 101   2.0000      -0.906434       -24.6653
 102   2.0000      -0.900331       -24.4993
 103   2.0000      -0.897613       -24.4253
 104   2.0000      -0.891734       -24.2653
 105   2.0000      -0.880281       -23.9537
 106   2.0000      -0.872388       -23.7389
 107   2.0000      -0.852721       -23.2037
 108   2.0000      -0.849037       -23.1035
 109   2.0000      -0.821862       -22.3640
 110   2.0000      -0.809341       -22.0233
 111   2.0000      -0.802509       -21.8374
 112   2.0000      -0.800949       -21.7949
 113   2.0000      -0.789563       -21.4851
 114   2.0000      -0.786111       -21.3912
 115   2.0000      -0.777143       -21.1471
 116   2.0000      -0.764045       -20.7907
 117   2.0000      -0.759710       -20.6728
 118   2.0000      -0.749582       -20.3972
 119   2.0000      -0.745964       -20.2987
 120   2.0000      -0.739412       -20.1204
 121   2.0000      -0.736128       -20.0310
 122   2.0000      -0.730808       -19.8863
 123   2.0000      -0.728142       -19.8137
 124   2.0000      -0.724628       -19.7181
 125   2.0000      -0.719749       -19.5854
 126   2.0000      -0.714220       -19.4349
 127   2.0000      -0.713628       -19.4188
 128   2.0000      -0.703741       -19.1498
 129   2.0000      -0.684990       -18.6395
 130   2.0000      -0.680514       -18.5177
 131   2.0000      -0.654510       -17.8101
 132   2.0000      -0.646879       -17.6025
 133   2.0000      -0.645299       -17.5595
 134   2.0000      -0.632126       -17.2010
 135   2.0000      -0.626394       -17.0450
 136   2.0000      -0.619353       -16.8534
 137   2.0000      -0.613793       -16.7022
 138   2.0000      -0.607266       -16.5246
 139   2.0000      -0.596106       -16.2209
 140   2.0000      -0.584335       -15.9006
 141   2.0000      -0.576008       -15.6740
 142   2.0000      -0.569029       -15.4841
 143   2.0000      -0.560936       -15.2638
 144   2.0000      -0.553680       -15.0664
 145   2.0000      -0.547349       -14.8941
 146   2.0000      -0.541970       -14.7478
 147   2.0000      -0.536283       -14.5930
 148   2.0000      -0.530832       -14.4447
 149   2.0000      -0.530012       -14.4223
 150   2.0000      -0.524907       -14.2834
 151   2.0000      -0.522628       -14.2214
 152   2.0000      -0.519003       -14.1228
 153   2.0000      -0.514321       -13.9954
 154   2.0000      -0.505649       -13.7594
 155   2.0000      -0.500090       -13.6081
 156   2.0000      -0.498619       -13.5681
 157   2.0000      -0.483033       -13.1440
 158   2.0000      -0.479454       -13.0466
 159   2.0000      -0.473478       -12.8840
 160   2.0000      -0.470647       -12.8070
 161   2.0000      -0.464293       -12.6341
 162   2.0000      -0.460396       -12.5280
 163   2.0000      -0.457184       -12.4406
 164   2.0000      -0.449996       -12.2450
 165   2.0000      -0.448066       -12.1925
 166   2.0000      -0.444691       -12.1007
 167   2.0000      -0.443767       -12.0755
 168   2.0000      -0.441992       -12.0272
 169   2.0000      -0.440603       -11.9894
 170   2.0000      -0.437263       -11.8985
 171   2.0000      -0.436423       -11.8757
 172   2.0000      -0.433829       -11.8051
 173   2.0000      -0.429388       -11.6842
 174   2.0000      -0.428642       -11.6639
 175   2.0000      -0.427756       -11.6398
 176   2.0000      -0.423680       -11.5289
 177   2.0000      -0.423133       -11.5140
 178   2.0000      -0.420757       -11.4494
 179   2.0000      -0.414564       -11.2809
 180   2.0000      -0.413357       -11.2480
 181   2.0000      -0.412101       -11.2138
 182   2.0000      -0.409820       -11.1518
 183   2.0000      -0.409086       -11.1318
 184   2.0000      -0.406063       -11.0495
 185   2.0000      -0.403708       -10.9855
 186   2.0000      -0.399764       -10.8781
 187   2.0000      -0.397695       -10.8218
 188   2.0000      -0.397314       -10.8115
 189   2.0000      -0.394197       -10.7267
 190   2.0000      -0.389768       -10.6061
 191   2.0000      -0.387716       -10.5503
 192   2.0000      -0.385191       -10.4816
 193   2.0000      -0.384534       -10.4637
 194   2.0000      -0.380619       -10.3572
 195   2.0000      -0.379416       -10.3244
 196   2.0000      -0.378122       -10.2892
 197   2.0000      -0.377141       -10.2625
 198   2.0000      -0.374575       -10.1927
 199   2.0000      -0.371572       -10.1110
 200   2.0000      -0.370618       -10.0850
 201   2.0000      -0.369530       -10.0554
 202   2.0000      -0.368246       -10.0205
 203   2.0000      -0.364193        -9.9102
 204   2.0000      -0.361047        -9.8246
 205   2.0000      -0.360786        -9.8175
 206   2.0000      -0.360125        -9.7995
 207   2.0000      -0.358957        -9.7677
 208   2.0000      -0.357424        -9.7260
 209   2.0000      -0.351762        -9.5719
 210   2.0000      -0.349488        -9.5101
 211   2.0000      -0.348278        -9.4771
 212   2.0000      -0.347704        -9.4615
 213   2.0000      -0.346987        -9.4420
 214   2.0000      -0.344428        -9.3724
 215   2.0000      -0.343253        -9.3404
 216   2.0000      -0.338444        -9.2095
 217   2.0000      -0.336378        -9.1533
 218   2.0000      -0.330588        -8.9958
 219   2.0000      -0.317517        -8.6401
 220   2.0000      -0.314090        -8.5468
 221   2.0000      -0.311130        -8.4663
 222   2.0000      -0.304589        -8.2883
 223   2.0000      -0.292479        -7.9588
 224   2.0000      -0.277145        -7.5415
 225   2.0000      -0.267828        -7.2880
 226   2.0000      -0.267251        -7.2723
 227   2.0000      -0.263259        -7.1636
 228   2.0000      -0.261756        -7.1227
 229   2.0000      -0.259549        -7.0627
 230   2.0000      -0.256709        -6.9854
 231   2.0000      -0.255156        -6.9431
 232   2.0000      -0.254748        -6.9320
 233   2.0000      -0.249846        -6.7986
 234   2.0000      -0.240000        -6.5307
 235   2.0000      -0.238091        -6.4788
 236   2.0000      -0.233924        -6.3654
 237   2.0000      -0.229458        -6.2439
 238   2.0000      -0.208488        -5.6733
 239   2.0000      -0.195158        -5.3105
 240   0.0000      -0.094942        -2.5835
 241   0.0000      -0.084791        -2.3073
 242   0.0000      -0.065511        -1.7826
 243   0.0000      -0.047262        -1.2861
 244   0.0000      -0.038234        -1.0404

MULLIKEN ATOMIC CHARGES
-----------------------
   0 C :    0.075214
   1 C :    0.070749
   2 C :   -0.122787
   3 C :    0.085808
   4 C :    0.074425
   5 C :   -0.106643
   6 C :   -0.008870
   7 C :   -0.186714
   8 S :    0.105732
   9 C :   -0.049900
  10 C :   -0.009631
  11 S :    0.117038
  12 C :   -0.216216
  13 C :   -0.209847
  14 C :    0.059647
  15 C :    0.077989
  16 C :   -0.228581
  17 S :    0.142277
  18 C :    0.059667
  19 C :    0.078426
  20 C :   -0.231174
  21 S :    0.139655
  22 C :    0.089807
  23 C :    0.008581
  24 C :    0.087907
  25 C :    0.013047
  26 C :    0.113520
  27 C :   -0.045956
  28 C :    0.007321
  29 C :    0.018390
  30 C :   -0.072552
  31 S :    0.103717
  32 C :   -0.085913
  33 S :    0.137367
  34 C :   -0.103122
  35 C :    0.033448
  36 C :    0.015200
  37 C :    0.095774
  38 C :    0.064242
  39 C :    0.070069
  40 C :    0.118953
  41 C :   -0.266074
  42 S :    0.123774
  43 C :   -0.288834
  44 C :   -0.133866
  45 C :    0.082583
  46 C :    0.030475
  47 S :    0.112663
  48 O :   -0.206319
  49 O :   -0.211866
  50 C :    0.083843
  51 C :   -0.000964
  52 C :    0.128244
  53 C :    0.015737
  54 C :   -0.066431
  55 Cl:   -0.096306
  56 Cl:   -0.098061
  57 H :   -0.022116
  58 H :   -0.014065
  59 H :   -0.010040
  60 H :   -0.011738
  61 H :    0.011350
  62 H :    0.014220
  63 H :    0.019149
  64 H :    0.019357
  65 H :    0.011906
  66 H :    0.012343
  67 H :    0.013134
  68 H :    0.020824
  69 H :    0.018131
  70 H :    0.011434
  71 H :    0.019692
  72 H :    0.032862
  73 H :    0.034740
  74 H :   -0.012059
  75 H :    0.011456
  76 H :   -0.001073
  77 H :   -0.005729
  78 H :    0.038701
  79 H :    0.033301
  80 H :    0.018739
  81 H :    0.020257
  82 H :    0.019824
  83 H :   -0.006226
  84 H :    0.030913
  85 H :    0.001865
  86 H :    0.014050
  87 H :    0.027862
  88 H :    0.032275
Sum of atomic charges:   -0.0000000

LOEWDIN ATOMIC CHARGES
----------------------
   0 C :   -0.062819
   1 C :   -0.039206
   2 C :   -0.144242
   3 C :   -0.057598
   4 C :   -0.043017
   5 C :   -0.143259
   6 C :   -0.075577
   7 C :   -0.153949
   8 S :    0.395892
   9 C :   -0.055127
  10 C :   -0.167605
  11 S :    0.405544
  12 C :   -0.174965
  13 C :   -0.174357
  14 C :   -0.071676
  15 C :   -0.168456
  16 C :   -0.196225
  17 S :    0.439785
  18 C :   -0.072228
  19 C :   -0.168511
  20 C :   -0.195886
  21 S :    0.438992
  22 C :   -0.044333
  23 C :   -0.049484
  24 C :   -0.044790
  25 C :   -0.048776
  26 C :   -0.056427
  27 C :   -0.178073
  28 C :   -0.053998
  29 C :   -0.029285
  30 C :   -0.186453
  31 S :    0.413686
  32 C :   -0.141773
  33 S :    0.452150
  34 C :   -0.145192
  35 C :   -0.090166
  36 C :   -0.088131
  37 C :    0.075745
  38 C :   -0.100547
  39 C :   -0.097552
  40 C :    0.082974
  41 C :   -0.130198
  42 S :    0.465113
  43 C :   -0.132665
  44 C :   -0.198039
  45 C :   -0.023993
  46 C :   -0.063473
  47 S :    0.424259
  48 O :   -0.168330
  49 O :   -0.170014
  50 C :   -0.042249
  51 C :   -0.065221
  52 C :   -0.042134
  53 C :   -0.044164
  54 C :   -0.180414
  55 Cl:    0.116873
  56 Cl:    0.116772
  57 H :    0.024396
  58 H :    0.026922
  59 H :    0.033541
  60 H :    0.031497
  61 H :    0.030023
  62 H :    0.031477
  63 H :    0.026291
  64 H :    0.025400
  65 H :    0.020428
  66 H :    0.030684
  67 H :    0.030817
  68 H :    0.026474
  69 H :    0.025249
  70 H :    0.021033
  71 H :    0.037804
  72 H :    0.037451
  73 H :    0.038711
  74 H :    0.032783
  75 H :    0.034019
  76 H :    0.033559
  77 H :    0.031992
  78 H :    0.044434
  79 H :    0.043804
  80 H :    0.021539
  81 H :    0.030868
  82 H :    0.021899
  83 H :    0.022709
  84 H :    0.039269
  85 H :    0.018406
  86 H :    0.024617
  87 H :    0.027465
  88 H :    0.027228

  Mayer bond orders larger than 0.100000
B(  0-C ,  1-C ) :   1.3177 B(  0-C ,  5-C ) :   1.4138 B(  0-C , 12-C ) :   0.9766
B(  1-C ,  2-C ) :   1.2528 B(  1-C ,  6-C ) :   1.1739 B(  2-C ,  3-C ) :   1.4196
B(  2-C ,  8-S ) :   1.0633 B(  3-C ,  4-C ) :   1.2911 B(  3-C , 13-C ) :   0.9836
B(  4-C ,  5-C ) :   1.2490 B(  4-C ,  9-C ) :   1.1844 B(  5-C , 11-S ) :   1.0648
B(  6-C ,  7-C ) :   1.6195 B(  6-C , 57-H ) :   0.9816 B(  7-C ,  8-S ) :   1.0776
B(  7-C , 26-C ) :   1.0798 B(  9-C , 10-C ) :   1.5511 B(  9-C , 58-H ) :   0.9856
B( 10-C , 11-S ) :   1.0612 B( 10-C , 27-C ) :   1.0906 B( 12-C , 14-C ) :   1.5318
B( 12-C , 16-C ) :   0.1001 B( 12-C , 17-S ) :   1.1365 B( 13-C , 18-C ) :   1.5282
B( 13-C , 20-C ) :   0.1002 B( 13-C , 21-S ) :   1.1352 B( 14-C , 15-C ) :   1.2104
B( 14-C , 59-H ) :   1.0036 B( 15-C , 16-C ) :   1.5805 B( 15-C , 55-Cl) :   1.0049
B( 16-C , 17-S ) :   1.1248 B( 16-C , 22-C ) :   1.0653 B( 18-C , 19-C ) :   1.2172
B( 18-C , 60-H ) :   0.9981 B( 19-C , 20-C ) :   1.5803 B( 19-C , 56-Cl) :   1.0036
B( 20-C , 21-S ) :   1.1250 B( 20-C , 24-C ) :   1.0682 B( 22-C , 23-C ) :   1.1012
B( 22-C , 61-H ) :   0.9155 B( 22-C , 62-H ) :   0.9224 B( 23-C , 63-H ) :   0.9701
B( 23-C , 64-H ) :   0.9662 B( 23-C , 65-H ) :   0.9699 B( 24-C , 25-C ) :   1.1009
B( 24-C , 66-H ) :   0.9140 B( 24-C , 67-H ) :   0.9222 B( 25-C , 68-H ) :   0.9703
B( 25-C , 69-H ) :   0.9658 B( 25-C , 70-H ) :   0.9695 B( 26-C , 71-H ) :   0.9557
B( 26-C , 72-H ) :   0.9470 B( 26-C , 73-H ) :   0.9473 B( 27-C , 28-C ) :   1.4894
B( 27-C , 30-C ) :   0.1095 B( 27-C , 31-S ) :   1.1206 B( 28-C , 29-C ) :   1.2393
B( 28-C , 74-H ) :   0.9898 B( 29-C , 30-C ) :   1.4960 B( 29-C , 75-H ) :   0.9743
B( 30-C , 31-S ) :   1.0931 B( 30-C , 32-C ) :   1.1336 B( 32-C , 33-S ) :   1.1245
B( 32-C , 36-C ) :   1.4706 B( 33-S , 34-C ) :   1.1311 B( 34-C , 35-C ) :   1.4973
B( 34-C , 44-C ) :   1.0995 B( 35-C , 36-C ) :   1.1699 B( 35-C , 37-C ) :   0.9855
B( 36-C , 40-C ) :   0.9941 B( 37-C , 38-C ) :   0.9908 B( 37-C , 48-O ) :   2.0810
B( 38-C , 39-C ) :   1.1611 B( 38-C , 41-C ) :   1.5212 B( 39-C , 40-C ) :   0.9891
B( 39-C , 43-C ) :   1.5219 B( 40-C , 49-O ) :   2.0280 B( 41-C , 42-S ) :   1.1511
B( 41-C , 50-C ) :   1.0990 B( 42-S , 43-C ) :   1.1535 B( 43-C , 52-C ) :   1.0806
B( 44-C , 45-C ) :   1.5268 B( 44-C , 47-S ) :   1.1231 B( 44-C , 54-C ) :   0.1046
B( 45-C , 46-C ) :   1.2621 B( 45-C , 76-H ) :   0.9802 B( 46-C , 54-C ) :   1.5268
B( 46-C , 77-H ) :   0.9881 B( 47-S , 54-C ) :   1.1673 B( 50-C , 51-C ) :   1.0940
B( 50-C , 78-H ) :   0.9095 B( 50-C , 79-H ) :   0.9126 B( 51-C , 80-H ) :   0.9620
B( 51-C , 81-H ) :   0.9616 B( 51-C , 82-H ) :   0.9641 B( 52-C , 53-C ) :   1.0961
B( 52-C , 83-H ) :   0.9122 B( 52-C , 84-H ) :   0.9028 B( 53-C , 85-H ) :   0.9662
B( 53-C , 86-H ) :   0.9650 B( 53-C , 87-H ) :   0.9704 B( 54-C , 88-H ) :   0.9699

Dispersion correction           -0.271574043
FINAL SINGLE POINT ENERGY     -5988.233453893639

DIPOLE MOMENT
-------------
                                X             Y             Z
Electronic contribution:     31.10994       6.05267      15.25019
Nuclear contribution   :    -30.86843      -6.08268     -15.74716
                        -----------------------------------------
Total Dipole Moment    :      0.24151      -0.03001      -0.49697
                        -----------------------------------------
Magnitude (a.u.)       :      0.55336
Magnitude (Debye)      :      1.40653

Rotational constants in cm-1:     0.001347     0.000499     0.000373
Rotational constants in MHz :    40.367681    14.955609    11.184648

                             ****ORCA TERMINATED NORMALLY****
TOTAL RUN TIME: 0 days 19 hours 9 minutes 8 seconds 586 msec
