                         Program Version 4.2.0 -  RELEASE  -
|  1> # ORCA input file
|  2> # SCF done       -199.620564721867          0.000795835787
|  3> ! B3LYP/G D3BJ Opt RIJCOSX def2-SVP def2/J
|  4> * xyz 0 1
|  5>    C        8.85689         2.86215         1.35253
|  6>    O        9.48754         1.82917         1.20864
|  7>    C        9.37919         4.12391         1.91845
|  8>    C       10.64834         4.39208         2.38985
|  9>    C       10.89516         5.66453         2.88014
| 10>    F       12.11180         5.96997         3.34821
| 11>    C        9.88796         6.62904         2.89062
| 12>    F       10.15350         7.84958         3.36992
| 13>    C        8.61254         6.35793         2.41622
| 14>    C        8.35741         5.08786         1.92416
| 15>    C        7.14375         4.48948         1.36313
| 16>    C        5.94378         5.13873         1.21856
| 17>    C        4.76296         4.58385         0.68292
| 18>    N        3.76293         4.20986         0.25758
| 19>    C        5.72000         6.47976         1.59632
| 20>    N        5.46915         7.56266         1.88238
| 21>    C        7.45879         3.12040         1.01409
| 22>    C        6.57594         2.22042         0.45829
| 23>    C        6.73383         0.88225         0.10002
| 24>    S        8.21676        -0.05410         0.30831
| 25>    C        7.43994        -1.44811        -0.33788
| 26>    C        6.10411        -1.18984        -0.70233
| 27>    C        5.69451         0.11176        -0.45989
| 28>    C        4.33357         0.61267        -0.81562
| 29>    C        4.35087         1.30958        -2.17919
| 30>    S        5.27473        -2.58746        -1.36506
| 31>    C        6.72038        -3.50759        -1.14522
| 32>    C        7.78210        -2.77546        -0.60139
| 33>    N        8.87384        -3.58448        -0.44475
| 34>    C       10.05125        -3.03974         0.19012
| 35>    C       10.92401        -2.27087        -0.80167
| 36>    C        8.54358        -4.84498        -0.90414
| 37>    C        7.17837        -4.81711        -1.32645
| 38>    C        6.45712        -5.95067        -1.78208
| 39>    N        5.17475        -5.85000        -2.15185
| 40>    C        4.55782        -6.94909        -2.53187
| 41>    C        3.12896        -6.81719        -2.94123
| 42>    C        5.22580        -8.20047        -2.54769
| 43>    C        4.53316        -9.45417        -2.96607
| 44>    N        6.48957        -8.30492        -2.19378
| 45>    C        7.12335        -7.19040        -1.80965
| 46>    C        8.49381        -7.21769        -1.44365
| 47>    C        9.24090        -6.07425        -1.02694
| 48>    N       10.55552        -6.46584        -0.84678
| 49>    C       11.75990        -5.76596        -0.46599
| 50>    C       12.06602        -5.94473         1.02135
| 51>    C       10.63572        -7.80686        -1.09846
| 52>    C        9.37864        -8.30265        -1.46339
| 53>    S        9.36516        -9.99615        -1.79864
| 54>    C       11.08047       -10.05181        -1.45345
| 55>    C       11.61333        -8.80032        -1.10520
| 56>    S       13.30249        -8.90207        -0.78733
| 57>    C       13.27949       -10.64145        -1.08709
| 58>    C       12.01269       -11.08959        -1.46066
| 59>    C       11.66537       -12.51557        -1.71998
| 60>    C       11.49862       -13.27082        -0.39855
| 61>    C       14.45664       -11.40689        -1.03915
| 62>    C       15.65610       -11.10040        -0.45743
| 63>    C       16.01643       -10.12002         0.53821
| 64>    C       15.21799        -9.67386         1.56034
| 65>    C       15.62324        -8.73648         2.52922
| 66>    N       15.88905        -7.94566         3.31821
| 67>    C       13.91828       -10.17350         1.78690
| 68>    N       12.88088       -10.60060         2.03044
| 69>    C       17.46205        -9.92033         0.44467
| 70>    C       18.29436        -8.99501         1.05159
| 71>    C       19.65424        -9.07774         0.79091
| 72>    F       20.47757        -8.18461         1.35206
| 73>    C       20.18028       -10.06441        -0.04328
| 74>    F       21.50025       -10.10956        -0.26273
| 75>    C       19.35237       -10.99591        -0.65034
| 76>    C       17.99730       -10.90776        -0.40164
| 77>    C       16.89798       -11.74526        -0.94197
| 78>    O       16.99054       -12.71224        -1.66255
| 79>    H       11.42350         3.64260         2.38024
| 80>    H        7.87140         7.13935         2.44771
| 81>    H        5.58214         2.59937         0.26411
| 82>    H        3.95839         1.30505        -0.06068
| 83>    H        3.65745        -0.24315        -0.86179
| 84>    H        5.01922         2.16720        -2.16588
| 85>    H        3.35182         1.65636        -2.42684
| 86>    H        4.68418         0.62063        -2.95181
| 87>    H       10.60065        -3.83274         0.68977
| 88>    H        9.70679        -2.34158         0.95972
| 89>    H       11.16476        -2.87563        -1.67417
| 90>    H       11.84610        -1.96109        -0.31843
| 91>    H       10.40165        -1.38058        -1.14138
| 92>    H        2.82827        -5.77703        -2.85551
| 93>    H        2.49294        -7.43084        -2.30495
| 94>    H        2.99537        -7.14905        -3.96978
| 95>    H        3.67815        -9.64930        -2.32045
| 96>    H        5.23005       -10.28488        -2.90234
| 97>    H        4.16868        -9.36514        -3.98840
| 98>    H       11.68512        -4.71867        -0.74352
| 99>    H       12.57940        -6.20217        -1.04716
|100>    H       11.22743        -5.63187         1.64023
|101>    H       12.94227        -5.36335         1.29357
|102>    H       12.26742        -6.99063         1.23943
|103>    H       12.44641       -12.99225        -2.31573
|104>    H       10.72891       -12.54985        -2.27979
|105>    H       12.42260       -13.24629         0.17403
|106>    H       11.23177       -14.30610        -0.59272
|107>    H       10.71491       -12.81374         0.19987
|108>    H       14.45083       -12.32446        -1.61973
|109>    H       17.92977        -8.21612         1.70143
|110>    H       19.75961       -11.75952        -1.29367
|111> *
|112>
|113>                          ****END OF INPUT****
 Total Charge           Charge          ....    0
 Multiplicity           Mult            ....    1
 Number of Electrons    NEL             ....  540
Dispersion correction           -0.319269939
FINAL SINGLE POINT ENERGY     -4731.301323311395
Dispersion correction            ... done
Dispersion correction           -0.316658085
FINAL SINGLE POINT ENERGY     -4731.318334174871
Dispersion correction            ... done
Dispersion correction           -0.315248537
FINAL SINGLE POINT ENERGY     -4731.320080546709
Dispersion correction            ... done
FINAL SINGLE POINT ENERGY     -4731.320574407764
FINAL SINGLE POINT ENERGY     -4731.319553247634
FINAL SINGLE POINT ENERGY     -4731.318395791672
FINAL SINGLE POINT ENERGY     -4731.313936356503
FINAL SINGLE POINT ENERGY     -4731.318167794721
FINAL SINGLE POINT ENERGY     -4731.316895572832
FINAL SINGLE POINT ENERGY     -4731.319945202353
FINAL SINGLE POINT ENERGY     -4731.318781211620
FINAL SINGLE POINT ENERGY     -4731.319287629179
FINAL SINGLE POINT ENERGY     -4731.319522201981
FINAL SINGLE POINT ENERGY     -4731.319510650505
FINAL SINGLE POINT ENERGY     -4731.318892008809
FINAL SINGLE POINT ENERGY     -4731.319355824355
FINAL SINGLE POINT ENERGY     -4731.319600070951
Dispersion correction            ... done
Dispersion correction           -0.316311746
FINAL SINGLE POINT ENERGY     -4731.319439802201
Dispersion correction            ... done
Dispersion correction           -0.316325085
FINAL SINGLE POINT ENERGY     -4731.319395508196
Dispersion correction            ... done
                    ***********************HURRAY********************

CARTESIAN COORDINATES (ANGSTROEM)
---------------------------------
  C      8.636996    2.723118    1.861029
  O      9.111668    1.609300    2.010409
  C      9.067005    3.933912    2.595341
  C     10.048151    4.016622    3.574668
  C     10.298658    5.266813    4.126384
  F     11.223616    5.413779    5.071380
  C      9.575367    6.392336    3.691302
  F      9.846417    7.571816    4.243405
  C      8.590934    6.302870    2.709143
  C      8.326175    5.044573    2.152262
  C      7.361957    4.586318    1.115544
  C      6.503740    5.423038    0.420022
  C      5.612642    4.975197   -0.604415
  N      4.876496    4.645061   -1.442180
  C      6.442190    6.830736    0.660037
  N      6.384853    7.976399    0.848495
  C      7.532777    3.141145    0.966412
  C      6.737846    2.288399    0.216176
  C      6.808808    0.906233   -0.069512
  S      8.182909   -0.157455    0.309923
  C      7.403942   -1.472153   -0.484657
  C      6.113740   -1.139771   -0.955634
  C      5.778358    0.210937   -0.765988
  C      4.537254    0.849004   -1.328861
  C      4.762453    1.358884   -2.764339
  S      5.258543   -2.533758   -1.647256
  C      6.654711   -3.534785   -1.310839
  C      7.712162   -2.823393   -0.726843
  N      8.785076   -3.663188   -0.495358
  C      9.893530   -3.216308    0.345998
  C     10.897904   -2.324614   -0.379167
  C      8.428474   -4.935370   -0.941579
  C      7.072197   -4.883022   -1.413668
  C      6.334803   -6.055921   -1.776911
  N      5.032497   -5.967891   -2.110079
  C      4.371489   -7.092697   -2.340835
  C      2.910863   -6.993757   -2.675975
  C      5.026982   -8.366888   -2.263335
  C      4.274522   -9.643909   -2.512495
  N      6.312770   -8.455358   -1.957057
  C      6.982586   -7.315205   -1.702372
  C      8.372810   -7.354521   -1.364903
  C      9.124859   -6.182663   -1.017477
  N     10.460057   -6.556819   -0.855132
  C     11.658960   -5.783147   -0.561818
  C     12.124663   -5.918495    0.888208
  C     10.544225   -7.917791   -1.060069
  C      9.275034   -8.442098   -1.348704
  S      9.286937  -10.171145   -1.591348
  C     11.037598  -10.179270   -1.322656
  C     11.558118   -8.892567   -1.073311
  S     13.269991   -8.921403   -0.847961
  C     13.290179  -10.687729   -1.018099
  C     12.005400  -11.204641   -1.290147
  C     11.670629  -12.664961   -1.366520
  C     11.116951  -13.167062   -0.021100
  C     14.510818  -11.409039   -0.985212
  C     15.750044  -11.031918   -0.513071
  C     16.175668   -9.974616    0.388847
  C     15.446795   -9.453996    1.446980
  C     15.898978   -8.337412    2.211896
  N     16.256096   -7.400502    2.800927
  C     14.211390  -10.035079    1.868968
  N     13.231976  -10.536557    2.243532
  C     17.612169   -9.720725    0.123636
  C     18.490734   -8.745572    0.612886
  C     19.819552   -8.798683    0.198689
  F     20.686163   -7.883626    0.628166
  C     20.284961   -9.802574   -0.671099
  F     21.566422   -9.789592   -1.027939
  C     19.423262  -10.786883   -1.145377
  C     18.093860  -10.727615   -0.740362
  C     16.977920  -11.646710   -1.110734
  O     17.048901  -12.645578   -1.796163
  H     10.604507    3.137678    3.903584
  H      8.070701    7.214744    2.425786
  H      5.867477    2.749709   -0.247225
  H      4.196610    1.679865   -0.693260
  H      3.726317    0.101865   -1.314604
  H      5.521311    2.155095   -2.781175
  H      3.834276    1.780777   -3.177822
  H      5.103171    0.544009   -3.421703
  H     10.367203   -4.093972    0.791985
  H      9.452395   -2.660072    1.188292
  H     11.372229   -2.839274   -1.228407
  H     11.687620   -2.005268    0.317369
  H     10.411582   -1.419809   -0.770478
  H      2.594415   -5.945324   -2.608947
  H      2.297065   -7.596267   -1.988152
  H      2.703227   -7.367108   -3.693290
  H      3.460212   -9.778834   -1.781447
  H      4.967147  -10.491289   -2.429973
  H      3.804250   -9.653569   -3.509753
  H     11.477668   -4.743883   -0.844170
  H     12.447975   -6.139739   -1.242918
  H     11.322018   -5.663570    1.596281
  H     12.981524   -5.255474    1.078561
  H     12.441886   -6.947636    1.110113
  H     12.560790  -13.247486   -1.649841
  H     10.922868  -12.822269   -2.161883
  H     11.855208  -13.019106    0.780594
  H     10.854728  -14.234609   -0.077963
  H     10.211821  -12.607530    0.260168
  H     14.514804  -12.368915   -1.516106
  H     18.188715   -7.947388    1.288808
  H     19.783745  -11.575885   -1.807803

 Multiplicity           Mult            ....    1
 Number of Electrons    NEL             ....  540
 Basis Dimension        Dim             .... 1212

ORBITAL ENERGIES
----------------

  NO   OCC          E(Eh)            E(eV)
   0   2.0000     -88.905090     -2419.2305
   1   2.0000     -88.900420     -2419.1034
   2   2.0000     -88.899478     -2419.0778
   3   2.0000     -88.897608     -2419.0269
   4   2.0000     -24.730321      -672.9463
   5   2.0000     -24.729768      -672.9312
   6   2.0000     -24.729731      -672.9302
   7   2.0000     -24.727369      -672.8659
   8   2.0000     -19.146650      -521.0068
   9   2.0000     -19.142613      -520.8970
  10   2.0000     -14.417386      -392.3170
  11   2.0000     -14.415805      -392.2740
  12   2.0000     -14.348042      -390.4301
  13   2.0000     -14.347331      -390.4107
  14   2.0000     -14.347093      -390.4043
  15   2.0000     -14.347083      -390.4040
  16   2.0000     -14.343053      -390.2943
  17   2.0000     -14.342934      -390.2911
  18   2.0000     -10.312205      -280.6094
  19   2.0000     -10.311786      -280.5980
  20   2.0000     -10.310389      -280.5600
  21   2.0000     -10.309744      -280.5424
  22   2.0000     -10.293233      -280.0931
  23   2.0000     -10.292678      -280.0780
  24   2.0000     -10.274112      -279.5728
  25   2.0000     -10.273606      -279.5590
  26   2.0000     -10.273438      -279.5545
  27   2.0000     -10.272569      -279.5308
  28   2.0000     -10.269262      -279.4408
  29   2.0000     -10.269029      -279.4345
  30   2.0000     -10.268400      -279.4174
  31   2.0000     -10.266769      -279.3730
  32   2.0000     -10.258584      -279.1503
  33   2.0000     -10.255988      -279.0796
  34   2.0000     -10.255852      -279.0759
  35   2.0000     -10.252033      -278.9720
  36   2.0000     -10.250674      -278.9350
  37   2.0000     -10.250566      -278.9321
  38   2.0000     -10.249286      -278.8973
  39   2.0000     -10.249017      -278.8899
  40   2.0000     -10.248167      -278.8668
  41   2.0000     -10.247920      -278.8601
  42   2.0000     -10.247911      -278.8598
  43   2.0000     -10.246906      -278.8325
  44   2.0000     -10.246421      -278.8193
  45   2.0000     -10.246386      -278.8183
  46   2.0000     -10.246348      -278.8173
  47   2.0000     -10.245960      -278.8067
  48   2.0000     -10.245430      -278.7923
  49   2.0000     -10.244263      -278.7606
  50   2.0000     -10.243725      -278.7459
  51   2.0000     -10.243120      -278.7295
  52   2.0000     -10.241787      -278.6932
  53   2.0000     -10.241452      -278.6841
  54   2.0000     -10.240812      -278.6667
  55   2.0000     -10.240314      -278.6531
  56   2.0000     -10.236307      -278.5441
  57   2.0000     -10.235849      -278.5316
  58   2.0000     -10.233904      -278.4787
  59   2.0000     -10.233026      -278.4548
  60   2.0000     -10.229671      -278.3635
  61   2.0000     -10.226262      -278.2707
  62   2.0000     -10.226054      -278.2651
  63   2.0000     -10.225030      -278.2372
  64   2.0000     -10.224710      -278.2285
  65   2.0000     -10.224480      -278.2222
  66   2.0000     -10.220164      -278.1048
  67   2.0000     -10.217800      -278.0405
  68   2.0000     -10.216973      -278.0180
  69   2.0000     -10.216269      -277.9988
  70   2.0000     -10.203526      -277.6521
  71   2.0000     -10.202698      -277.6295
  72   2.0000     -10.197067      -277.4763
  73   2.0000     -10.194138      -277.3966
  74   2.0000      -7.998420      -217.6481
  75   2.0000      -7.993148      -217.5046
  76   2.0000      -7.991877      -217.4700
  77   2.0000      -7.990388      -217.4295
  78   2.0000      -5.966929      -162.3684
  79   2.0000      -5.963078      -162.2636
  80   2.0000      -5.961904      -162.2316
  81   2.0000      -5.960377      -162.1901
  82   2.0000      -5.959181      -162.1576
  83   2.0000      -5.958878      -162.1493
  84   2.0000      -5.958114      -162.1285
  85   2.0000      -5.956198      -162.0764
  86   2.0000      -5.955395      -162.0545
  87   2.0000      -5.953124      -161.9927
  88   2.0000      -5.952553      -161.9772
  89   2.0000      -5.950274      -161.9152
  90   2.0000      -1.250150       -34.0183
  91   2.0000      -1.248581       -33.9756
  92   2.0000      -1.234920       -33.6039
  93   2.0000      -1.233676       -33.5700
  94   2.0000      -1.051710       -28.6185
  95   2.0000      -1.047651       -28.5080
  96   2.0000      -1.028519       -27.9874
  97   2.0000      -1.016958       -27.6728
  98   2.0000      -0.988740       -26.9050
  99   2.0000      -0.932777       -25.3821
 100   2.0000      -0.930299       -25.3147
 101   2.0000      -0.927322       -25.2337
 102   2.0000      -0.924910       -25.1681
 103   2.0000      -0.917223       -24.9589
 104   2.0000      -0.914154       -24.8754
 105   2.0000      -0.913165       -24.8485
 106   2.0000      -0.909545       -24.7500
 107   2.0000      -0.909524       -24.7494
 108   2.0000      -0.882360       -24.0102
 109   2.0000      -0.875536       -23.8246
 110   2.0000      -0.869784       -23.6680
 111   2.0000      -0.865088       -23.5402
 112   2.0000      -0.859106       -23.3775
 113   2.0000      -0.829726       -22.5780
 114   2.0000      -0.819635       -22.3034
 115   2.0000      -0.818230       -22.2652
 116   2.0000      -0.815952       -22.2032
 117   2.0000      -0.815302       -22.1855
 118   2.0000      -0.813296       -22.1309
 119   2.0000      -0.798383       -21.7251
 120   2.0000      -0.794521       -21.6200
 121   2.0000      -0.789695       -21.4887
 122   2.0000      -0.788301       -21.4508
 123   2.0000      -0.787558       -21.4305
 124   2.0000      -0.771443       -20.9920
 125   2.0000      -0.763516       -20.7763
 126   2.0000      -0.753401       -20.5011
 127   2.0000      -0.744900       -20.2698
 128   2.0000      -0.738545       -20.0968
 129   2.0000      -0.729183       -19.8421
 130   2.0000      -0.728833       -19.8325
 131   2.0000      -0.722313       -19.6551
 132   2.0000      -0.717593       -19.5267
 133   2.0000      -0.711631       -19.3645
 134   2.0000      -0.691570       -18.8186
 135   2.0000      -0.689727       -18.7684
 136   2.0000      -0.685278       -18.6474
 137   2.0000      -0.679953       -18.5025
 138   2.0000      -0.667657       -18.1679
 139   2.0000      -0.660335       -17.9686
 140   2.0000      -0.652788       -17.7633
 141   2.0000      -0.645140       -17.5551
 142   2.0000      -0.641154       -17.4467
 143   2.0000      -0.640451       -17.4276
 144   2.0000      -0.636680       -17.3249
 145   2.0000      -0.631811       -17.1925
 146   2.0000      -0.628610       -17.1054
 147   2.0000      -0.620650       -16.8888
 148   2.0000      -0.613665       -16.6987
 149   2.0000      -0.609437       -16.5836
 150   2.0000      -0.605541       -16.4776
 151   2.0000      -0.599442       -16.3116
 152   2.0000      -0.586761       -15.9666
 153   2.0000      -0.584015       -15.8919
 154   2.0000      -0.577340       -15.7102
 155   2.0000      -0.571962       -15.5639
 156   2.0000      -0.569121       -15.4866
 157   2.0000      -0.568391       -15.4667
 158   2.0000      -0.564254       -15.3541
 159   2.0000      -0.560252       -15.2452
 160   2.0000      -0.549875       -14.9629
 161   2.0000      -0.548690       -14.9306
 162   2.0000      -0.547288       -14.8925
 163   2.0000      -0.539505       -14.6807
 164   2.0000      -0.536414       -14.5966
 165   2.0000      -0.529723       -14.4145
 166   2.0000      -0.523859       -14.2549
 167   2.0000      -0.521587       -14.1931
 168   2.0000      -0.517993       -14.0953
 169   2.0000      -0.517880       -14.0922
 170   2.0000      -0.516510       -14.0549
 171   2.0000      -0.516041       -14.0422
 172   2.0000      -0.514076       -13.9887
 173   2.0000      -0.501161       -13.6373
 174   2.0000      -0.500190       -13.6109
 175   2.0000      -0.494121       -13.4457
 176   2.0000      -0.487271       -13.2593
 177   2.0000      -0.482703       -13.1350
 178   2.0000      -0.481684       -13.1073
 179   2.0000      -0.481155       -13.0929
 180   2.0000      -0.480307       -13.0698
 181   2.0000      -0.480255       -13.0684
 182   2.0000      -0.478145       -13.0110
 183   2.0000      -0.477435       -12.9917
 184   2.0000      -0.472681       -12.8623
 185   2.0000      -0.470687       -12.8081
 186   2.0000      -0.468358       -12.7447
 187   2.0000      -0.463213       -12.6047
 188   2.0000      -0.462073       -12.5737
 189   2.0000      -0.460191       -12.5224
 190   2.0000      -0.458648       -12.4804
 191   2.0000      -0.458296       -12.4709
 192   2.0000      -0.455628       -12.3983
 193   2.0000      -0.452480       -12.3126
 194   2.0000      -0.451193       -12.2776
 195   2.0000      -0.448630       -12.2078
 196   2.0000      -0.443771       -12.0756
 197   2.0000      -0.440832       -11.9956
 198   2.0000      -0.438493       -11.9320
 199   2.0000      -0.437900       -11.9159
 200   2.0000      -0.435692       -11.8558
 201   2.0000      -0.430986       -11.7277
 202   2.0000      -0.427900       -11.6438
 203   2.0000      -0.427720       -11.6388
 204   2.0000      -0.427114       -11.6224
 205   2.0000      -0.424818       -11.5599
 206   2.0000      -0.424394       -11.5484
 207   2.0000      -0.422890       -11.5074
 208   2.0000      -0.422219       -11.4892
 209   2.0000      -0.420891       -11.4530
 210   2.0000      -0.418184       -11.3794
 211   2.0000      -0.417466       -11.3598
 212   2.0000      -0.415881       -11.3167
 213   2.0000      -0.413395       -11.2491
 214   2.0000      -0.410789       -11.1781
 215   2.0000      -0.410194       -11.1619
 216   2.0000      -0.408011       -11.1026
 217   2.0000      -0.404888       -11.0176
 218   2.0000      -0.403046       -10.9674
 219   2.0000      -0.400723       -10.9042
 220   2.0000      -0.396860       -10.7991
 221   2.0000      -0.393385       -10.7045
 222   2.0000      -0.392466       -10.6795
 223   2.0000      -0.391317       -10.6483
 224   2.0000      -0.390274       -10.6199
 225   2.0000      -0.388702       -10.5771
 226   2.0000      -0.385116       -10.4796
 227   2.0000      -0.384110       -10.4522
 228   2.0000      -0.383541       -10.4367
 229   2.0000      -0.382785       -10.4161
 230   2.0000      -0.382586       -10.4107
 231   2.0000      -0.381483       -10.3807
 232   2.0000      -0.376890       -10.2557
 233   2.0000      -0.375920       -10.2293
 234   2.0000      -0.371312       -10.1039
 235   2.0000      -0.367742       -10.0068
 236   2.0000      -0.367023        -9.9872
 237   2.0000      -0.366146        -9.9633
 238   2.0000      -0.364303        -9.9132
 239   2.0000      -0.361645        -9.8409
 240   2.0000      -0.361325        -9.8322
 241   2.0000      -0.360733        -9.8160
 242   2.0000      -0.357816        -9.7367
 243   2.0000      -0.356968        -9.7136
 244   2.0000      -0.355672        -9.6783
 245   2.0000      -0.350377        -9.5342
 246   2.0000      -0.349632        -9.5140
 247   2.0000      -0.345961        -9.4141
 248   2.0000      -0.345196        -9.3933
 249   2.0000      -0.340728        -9.2717
 250   2.0000      -0.335413        -9.1271
 251   2.0000      -0.327815        -8.9203
 252   2.0000      -0.315505        -8.5853
 253   2.0000      -0.312495        -8.5034
 254   2.0000      -0.305532        -8.3139
 255   2.0000      -0.295602        -8.0437
 256   2.0000      -0.293119        -7.9762
 257   2.0000      -0.289818        -7.8864
 258   2.0000      -0.286360        -7.7923
 259   2.0000      -0.277670        -7.5558
 260   2.0000      -0.276574        -7.5260
 261   2.0000      -0.269427        -7.3315
 262   2.0000      -0.264500        -7.1974
 263   2.0000      -0.262191        -7.1346
 264   2.0000      -0.261319        -7.1109
 265   2.0000      -0.257459        -7.0058
 266   2.0000      -0.242932        -6.6105
 267   2.0000      -0.235203        -6.4002
 268   2.0000      -0.227297        -6.1851
 269   2.0000      -0.207254        -5.6397
 270   0.0000      -0.134323        -3.6551
 271   0.0000      -0.124490        -3.3875
 272   0.0000      -0.106643        -2.9019
 273   0.0000      -0.103341        -2.8120
 274   0.0000      -0.076527        -2.0824

MULLIKEN ATOMIC CHARGES
-----------------------
   0 C :    0.140193
   1 O :   -0.189503
   2 C :   -0.008642
   3 C :   -0.099055
   4 C :    0.238990
   5 F :   -0.167328
   6 C :    0.236132
   7 F :   -0.163911
   8 C :   -0.088770
   9 C :    0.055169
  10 C :    0.251994
  11 C :   -0.314118
  12 C :   -0.144478
  13 N :    0.086146
  14 C :   -0.142734
  15 N :    0.101131
  16 C :   -0.072831
  17 C :   -0.050190
  18 C :   -0.076499
  19 S :    0.186596
  20 C :   -0.045062
  21 C :   -0.073834
  22 C :   -0.064779
  23 C :    0.041288
  24 C :    0.027912
  25 S :    0.192395
  26 C :   -0.091449
  27 C :    0.066999
  28 N :   -0.206321
  29 C :    0.108896
  30 C :    0.012250
  31 C :    0.054872
  32 C :   -0.030759
  33 C :   -0.053296
  34 N :   -0.029647
  35 C :   -0.145907
  36 C :    0.121294
  37 C :   -0.144394
  38 C :    0.121580
  39 N :   -0.030915
  40 C :   -0.054237
  41 C :   -0.033701
  42 C :    0.083687
  43 N :   -0.201342
  44 C :    0.102658
  45 C :    0.002928
  46 C :    0.055625
  47 C :   -0.087000
  48 S :    0.199338
  49 C :   -0.093310
  50 C :   -0.029089
  51 S :    0.144260
  52 C :   -0.115549
  53 C :   -0.027186
  54 C :    0.059729
  55 C :    0.012393
  56 C :    0.016635
  57 C :   -0.128800
  58 C :    0.211327
  59 C :   -0.316716
  60 C :   -0.133659
  61 N :    0.087025
  62 C :   -0.145593
  63 N :    0.110763
  64 C :    0.048155
  65 C :   -0.100994
  66 C :    0.242497
  67 F :   -0.165868
  68 C :    0.242154
  69 F :   -0.167299
  70 C :   -0.106822
  71 C :    0.006115
  72 C :    0.140003
  73 O :   -0.163442
  74 H :    0.003218
  75 H :    0.012616
  76 H :    0.002791
  77 H :    0.024712
  78 H :    0.013554
  79 H :    0.025656
  80 H :    0.030655
  81 H :    0.014578
  82 H :    0.000975
  83 H :    0.036011
  84 H :    0.029103
  85 H :    0.037088
  86 H :    0.029383
  87 H :    0.021934
  88 H :    0.022847
  89 H :    0.023277
  90 H :    0.026651
  91 H :    0.021866
  92 H :    0.019182
  93 H :    0.000885
  94 H :    0.029254
  95 H :    0.041199
  96 H :    0.039509
  97 H :    0.036419
  98 H :    0.011937
  99 H :    0.016713
 100 H :    0.039405
 101 H :    0.023505
 102 H :    0.018922
 103 H :    0.019272
 104 H :    0.012245
 105 H :    0.010538
Sum of atomic charges:   -0.0000000

LOEWDIN ATOMIC CHARGES
----------------------
   0 C :    0.074097
   1 O :   -0.169134
   2 C :   -0.043741
   3 C :   -0.010971
   4 C :    0.065597
   5 F :   -0.037895
   6 C :    0.068588
   7 F :   -0.036497
   8 C :   -0.022124
   9 C :   -0.010423
  10 C :    0.066865
  11 C :   -0.141201
  12 C :   -0.013092
  13 N :   -0.066590
  14 C :   -0.013862
  15 N :   -0.063284
  16 C :   -0.107317
  17 C :    0.035910
  18 C :   -0.175141
  19 S :    0.472342
  20 C :   -0.197583
  21 C :   -0.186968
  22 C :   -0.012570
  23 C :   -0.030306
  24 C :   -0.042308
  25 S :    0.415349
  26 C :   -0.161142
  27 C :   -0.033694
  28 N :    0.029452
  29 C :    0.040884
  30 C :   -0.059628
  31 C :    0.014907
  32 C :   -0.061347
  33 C :   -0.014034
  34 N :   -0.063496
  35 C :   -0.004568
  36 C :   -0.051099
  37 C :   -0.004493
  38 C :   -0.051708
  39 N :   -0.064037
  40 C :   -0.014692
  41 C :   -0.061852
  42 C :    0.015766
  43 N :    0.033258
  44 C :    0.038040
  45 C :   -0.060645
  46 C :   -0.030780
  47 C :   -0.162830
  48 S :    0.427233
  49 C :   -0.185271
  50 C :   -0.188263
  51 S :    0.441510
  52 C :   -0.173684
  53 C :   -0.009167
  54 C :   -0.026988
  55 C :   -0.043373
  56 C :    0.037446
  57 C :   -0.104673
  58 C :    0.050465
  59 C :   -0.147811
  60 C :   -0.016249
  61 N :   -0.069263
  62 C :   -0.027283
  63 N :   -0.064383
  64 C :   -0.008467
  65 C :   -0.027259
  66 C :    0.070041
  67 F :   -0.037738
  68 C :    0.065564
  69 F :   -0.037752
  70 C :   -0.011392
  71 C :   -0.043670
  72 C :    0.079167
  73 O :   -0.148221
  74 H :    0.049451
  75 H :    0.049803
  76 H :    0.046464
  77 H :    0.033864
  78 H :    0.032553
  79 H :    0.027259
  80 H :    0.032729
  81 H :    0.023408
  82 H :    0.027349
  83 H :    0.032402
  84 H :    0.023499
  85 H :    0.038685
  86 H :    0.024005
  87 H :    0.036248
  88 H :    0.036114
  89 H :    0.037469
  90 H :    0.037746
  91 H :    0.036240
  92 H :    0.035863
  93 H :    0.026433
  94 H :    0.029147
  95 H :    0.027589
  96 H :    0.038626
  97 H :    0.028358
  98 H :    0.031937
  99 H :    0.032867
 100 H :    0.033890
 101 H :    0.027786
 102 H :    0.024223
 103 H :    0.046693
 104 H :    0.049264
 105 H :    0.051517

  Mayer bond orders larger than 0.100000
B(  0-C ,  1-O ) :   2.1223 B(  0-C ,  2-C ) :   0.9706 B(  0-C , 16-C ) :   0.9762
B(  2-C ,  3-C ) :   1.3013 B(  2-C ,  9-C ) :   1.3388 B(  3-C ,  4-C ) :   1.3060
B(  3-C ,  8-C ) :   0.1026 B(  3-C , 74-H ) :   1.0134 B(  4-C ,  5-F ) :   1.1203
B(  4-C ,  6-C ) :   1.2704 B(  6-C ,  7-F ) :   1.1320 B(  6-C ,  8-C ) :   1.3285
B(  8-C ,  9-C ) :   1.2963 B(  8-C , 75-H ) :   0.9864 B(  9-C , 10-C ) :   1.0043
B( 10-C , 11-C ) :   1.5702 B( 10-C , 16-C ) :   1.1202 B( 11-C , 12-C ) :   1.1487
B( 11-C , 14-C ) :   1.1418 B( 12-C , 13-N ) :   2.9192 B( 14-C , 15-N ) :   2.9319
B( 16-C , 17-C ) :   1.4425 B( 17-C , 18-C ) :   1.3301 B( 17-C , 76-H ) :   0.9234
B( 18-C , 19-S ) :   1.0377 B( 18-C , 22-C ) :   1.3293 B( 19-S , 20-C ) :   1.0471
B( 20-C , 21-C ) :   1.3541 B( 20-C , 27-C ) :   1.3032 B( 21-C , 22-C ) :   1.4171
B( 21-C , 25-S ) :   1.0182 B( 22-C , 23-C ) :   1.0918 B( 23-C , 24-C ) :   1.1076
B( 23-C , 77-H ) :   0.9020 B( 23-C , 78-H ) :   0.9163 B( 24-C , 79-H ) :   0.9640
B( 24-C , 80-H ) :   0.9630 B( 24-C , 81-H ) :   0.9651 B( 25-S , 26-C ) :   1.0309
B( 26-C , 27-C ) :   1.3703 B( 26-C , 32-C ) :   1.3426 B( 27-C , 28-N ) :   1.1334
B( 28-N , 29-C ) :   0.9381 B( 28-N , 31-C ) :   1.1602 B( 29-C , 30-C ) :   1.1085
B( 29-C , 82-H ) :   0.9382 B( 29-C , 83-H ) :   0.9332 B( 30-C , 84-H ) :   0.9519
B( 30-C , 85-H ) :   0.9610 B( 30-C , 86-H ) :   0.9475 B( 31-C , 32-C ) :   1.3199
B( 31-C , 42-C ) :   1.1645 B( 32-C , 33-C ) :   1.1177 B( 33-C , 34-N ) :   1.5288
B( 33-C , 40-C ) :   1.2182 B( 34-N , 35-C ) :   1.6100 B( 35-C , 36-C ) :   1.1062
B( 35-C , 37-C ) :   1.2182 B( 36-C , 87-H ) :   0.9414 B( 36-C , 88-H ) :   0.9397
B( 36-C , 89-H ) :   0.9381 B( 37-C , 38-C ) :   1.1089 B( 37-C , 39-N ) :   1.6080
B( 38-C , 90-H ) :   0.9400 B( 38-C , 91-H ) :   0.9406 B( 38-C , 92-H ) :   0.9360
B( 39-N , 40-C ) :   1.5307 B( 40-C , 41-C ) :   1.1147 B( 41-C , 42-C ) :   1.3153
B( 41-C , 47-C ) :   1.3439 B( 42-C , 43-N ) :   1.1553 B( 43-N , 44-C ) :   0.9470
B( 43-N , 46-C ) :   1.1385 B( 44-C , 45-C ) :   1.1030 B( 44-C , 93-H ) :   0.9377
B( 44-C , 94-H ) :   0.9327 B( 45-C , 95-H ) :   0.9510 B( 45-C , 96-H ) :   0.9627
B( 45-C , 97-H ) :   0.9492 B( 46-C , 47-C ) :   1.3634 B( 46-C , 50-C ) :   1.3116
B( 47-C , 48-S ) :   1.0367 B( 48-S , 49-C ) :   1.0243 B( 49-C , 50-C ) :   1.3877
B( 49-C , 53-C ) :   1.3718 B( 50-C , 51-S ) :   1.0623 B( 51-S , 52-C ) :   1.0459
B( 52-C , 53-C ) :   1.3792 B( 52-C , 56-C ) :   1.2330 B( 53-C , 54-C ) :   1.1056
B( 54-C , 55-C ) :   1.1048 B( 54-C , 98-H ) :   0.9074 B( 54-C , 99-H ) :   0.9123
B( 55-C ,100-H ) :   0.9639 B( 55-C ,101-H ) :   0.9627 B( 55-C ,102-H ) :   0.9666
B( 56-C , 57-C ) :   1.5469 B( 56-C ,103-H ) :   0.9268 B( 57-C , 58-C ) :   1.0819
B( 57-C , 72-C ) :   0.9530 B( 58-C , 59-C ) :   1.5726 B( 58-C , 64-C ) :   1.0336
B( 59-C , 60-C ) :   1.1328 B( 59-C , 62-C ) :   1.1632 B( 60-C , 61-N ) :   2.9348
B( 62-C , 63-N ) :   2.9604 B( 64-C , 65-C ) :   1.2997 B( 64-C , 71-C ) :   1.3314
B( 65-C , 66-C ) :   1.3289 B( 65-C , 70-C ) :   0.1038 B( 65-C ,104-H ) :   0.9907
B( 66-C , 67-F ) :   1.1286 B( 66-C , 68-C ) :   1.2700 B( 68-C , 69-F ) :   1.1191
B( 68-C , 70-C ) :   1.3122 B( 70-C , 71-C ) :   1.3107 B( 70-C ,105-H ) :   1.0123
B( 71-C , 72-C ) :   0.9403 B( 72-C , 73-O ) :   2.1972

Dispersion correction           -0.316332212
FINAL SINGLE POINT ENERGY     -4731.319389451208

DIPOLE MOMENT
-------------
                                X             Y             Z
Electronic contribution:     60.15064      41.28908      27.02008
Nuclear contribution   :    -61.03388     -43.78333     -28.37273
                        -----------------------------------------
Total Dipole Moment    :     -0.88324      -2.49424      -1.35265
                        -----------------------------------------
Magnitude (a.u.)       :      2.97170
Magnitude (Debye)      :      7.55347

Rotational constants in cm-1:     0.001035     0.000336     0.000263
Rotational constants in MHz :    31.030865    10.064146     7.879789

                             ****ORCA TERMINATED NORMALLY****
TOTAL RUN TIME: 0 days 20 hours 11 minutes 19 seconds 792 msec
