                         Program Version 4.2.0 -  RELEASE  -
|  1> # ORCA input file
|  2> # SCF done       -115.576880948296          0.000632453380
|  3> ! B3LYP/G D3BJ Opt RIJCOSX def2-SVP def2/J
|  4> * xyz 0 1
|  5>    C        1.06622         1.91889        -0.01797
|  6>    C        2.28948         1.24158        -0.14673
|  7>    C        2.35738        -0.17822        -0.15810
|  8>    C        1.22552        -0.99446        -0.15792
|  9>    C       -0.01907        -0.32231        -0.06716
| 10>    C       -0.09171         1.10415         0.02443
| 11>    N       -1.22235        -0.88546        -0.03816
| 12>    S       -2.33868         0.25810         0.09811
| 13>    N       -1.34955         1.52863         0.12363
| 14>    O        3.40778         2.00682        -0.21691
| 15>    O        3.61264        -0.76062        -0.12632
| 16>    C        4.06782        -1.02261         1.18978
| 17>    C        4.51087         1.60269        -1.01186
| 18>    C        0.92259         3.34394         0.05948
| 19>    C        1.25176        -2.42893        -0.22113
| 20>    S       -0.66138         4.04829         0.05312
| 21>    C       -0.00013         5.65972         0.15107
| 22>    C        1.38467         5.61789         0.19721
| 23>    C        1.89533         4.32841         0.14876
| 24>    C        2.30754        -3.25617        -0.58093
| 25>    C        1.97318        -4.59660        -0.54526
| 26>    C        0.65502        -4.83470        -0.15834
| 27>    S       -0.17739        -3.33694         0.14827
| 28>    C       -0.88511         6.75736         0.18388
| 29>    C       -0.59114         8.08094         0.25885
| 30>    C        0.11548        -6.13323        -0.06476
| 31>    C       -1.14345        -6.54007         0.25844
| 32>    C       -1.64321         9.09550         0.29173
| 33>    N       -1.08255        10.36144         0.37515
| 34>    C        0.26978        10.44456         0.40673
| 35>    S        0.98387         8.83646         0.33267
| 36>    S       -1.57023        -8.24410         0.28078
| 37>    C       -3.23074        -7.88087         0.72036
| 38>    N       -3.39848        -6.53842         0.83629
| 39>    C       -2.29801        -5.73040         0.60648
| 40>    O       -2.83669         8.89547         0.25478
| 41>    C       -1.91058        11.54069         0.42745
| 42>    S        1.12084        11.83206         0.50046
| 43>    S       -4.40306        -8.98953         0.95794
| 44>    C       -4.67708        -5.97107         1.18703
| 45>    O       -2.34588        -4.51891         0.69925
| 46>    H        3.39113        -1.70516         1.71283
| 47>    H        4.16103        -0.09734         1.76805
| 48>    H        5.04559        -1.48848         1.08361
| 49>    H        4.95744         2.52823        -1.37933
| 50>    H        4.19587         0.98871        -1.85581
| 51>    H        5.25059         1.05639        -0.42368
| 52>    H        2.00147         6.49543         0.26760
| 53>    H        2.94366         4.10588         0.18912
| 54>    H        3.27107        -2.88540        -0.87713
| 55>    H        2.65346        -5.39163        -0.79588
| 56>    H       -1.94427         6.52936         0.14628
| 57>    H        0.82089        -6.92416        -0.29584
| 58>    H       -2.94701        11.20872         0.39080
| 59>    H       -1.68981        12.19081        -0.41984
| 60>    H       -1.72004        12.09017         1.35001
| 61>    H       -5.00196        -6.35271         2.15548
| 62>    H       -5.42215        -6.23972         0.43733
| 63>    H       -4.55154        -4.89020         1.22691
| 64> *
| 65>
| 66>                          ****END OF INPUT****
 Total Charge           Charge          ....    0
 Multiplicity           Mult            ....    1
 Number of Electrons    NEL             ....  346
Dispersion correction           -0.176757507
FINAL SINGLE POINT ENERGY     -4307.099769148387
Dispersion correction            ... done
Dispersion correction           -0.173811040
FINAL SINGLE POINT ENERGY     -4307.111663686351
Dispersion correction            ... done
Dispersion correction           -0.173454512
FINAL SINGLE POINT ENERGY     -4307.114756490017
Dispersion correction            ... done
FINAL SINGLE POINT ENERGY     -4307.116331801304
FINAL SINGLE POINT ENERGY     -4307.116770154557
FINAL SINGLE POINT ENERGY     -4307.116280105585
FINAL SINGLE POINT ENERGY     -4307.116829177832
FINAL SINGLE POINT ENERGY     -4307.117171559139
FINAL SINGLE POINT ENERGY     -4307.117378734510
FINAL SINGLE POINT ENERGY     -4307.117293767958
FINAL SINGLE POINT ENERGY     -4307.117440512542
FINAL SINGLE POINT ENERGY     -4307.117442860109
FINAL SINGLE POINT ENERGY     -4307.117456479455
FINAL SINGLE POINT ENERGY     -4307.117452694047
FINAL SINGLE POINT ENERGY     -4307.117445494360
FINAL SINGLE POINT ENERGY     -4307.117442017148
FINAL SINGLE POINT ENERGY     -4307.117438516538
Dispersion correction            ... done
Dispersion correction           -0.173928454
FINAL SINGLE POINT ENERGY     -4307.117438260699
Dispersion correction            ... done
Dispersion correction           -0.173926192
FINAL SINGLE POINT ENERGY     -4307.117436506837
Dispersion correction            ... done
                    ***********************HURRAY********************

CARTESIAN COORDINATES (ANGSTROEM)
---------------------------------
  C      0.916699    1.938379    0.468291
  C      2.085527    1.242322    0.151503
  C      2.199212   -0.194621    0.189024
  C      1.118122   -1.044382    0.447193
  C     -0.116321   -0.356628    0.733787
  C     -0.207970    1.094563    0.774581
  N     -1.274950   -0.950963    1.005598
  S     -2.389590    0.215845    1.283887
  N     -1.428541    1.529925    1.077570
  O      3.201799    1.931181   -0.221328
  O      3.410211   -0.725736   -0.130255
  C      4.490062   -0.498184    0.777219
  C      3.493059    1.919622   -1.621172
  C      0.808985    3.389765    0.449788
  C      1.191767   -2.500019    0.410162
  S     -0.735879    4.212063    0.505560
  C      0.018482    5.784736    0.386774
  C      1.406137    5.659296    0.343963
  C      1.844418    4.326713    0.378112
  C      2.327210   -3.312426    0.314122
  C      2.024132   -4.677526    0.269112
  C      0.654222   -4.958375    0.310602
  S     -0.265103   -3.477593    0.453777
  C     -0.801130    6.959903    0.355942
  C     -0.405300    8.260564    0.271567
  C      0.166754   -6.303195    0.227487
  C     -1.080313   -6.858694    0.209939
  C     -1.398491    9.360703    0.219778
  N     -0.733308   10.597362    0.089743
  C      0.638221   10.579619    0.055458
  S      1.227622    8.910030    0.194077
  S     -1.339023   -8.604474    0.057625
  C     -3.096278   -8.430799    0.132969
  N     -3.427386   -7.104052    0.282088
  C     -2.377446   -6.168559    0.302759
  O     -2.604453    9.249261    0.274387
  C     -1.484150   11.838833   -0.010120
  S      1.632323   11.876531   -0.086032
  S     -4.140095   -9.693957    0.028609
  C     -4.808533   -6.661320    0.383133
  O     -2.562898   -4.969984    0.388969
  H      4.251394   -0.913462    1.771464
  H      4.717971    0.573362    0.866113
  H      5.357121   -1.027321    0.360013
  H      4.303936    2.642806   -1.777491
  H      2.609133    2.237611   -2.198763
  H      3.809436    0.918403   -1.952816
  H      2.087230    6.505971    0.282524
  H      2.888099    4.029772    0.350453
  H      3.335711   -2.919385    0.264061
  H      2.777776   -5.463397    0.192304
  H     -1.888227    6.826385    0.381038
  H      0.989338   -7.023294    0.147045
  H     -2.545757   11.572001   -0.080960
  H     -1.157484   12.400459   -0.897032
  H     -1.305537   12.466586    0.876104
  H     -5.347345   -7.309483    1.086040
  H     -5.309098   -6.722689   -0.595107
  H     -4.794785   -5.621184    0.729853

 Multiplicity           Mult            ....    1
 Number of Electrons    NEL             ....  346
 Basis Dimension        Dim             ....  692

ORBITAL ENERGIES
----------------

  NO   OCC          E(Eh)            E(eV)
   0   2.0000     -88.948569     -2420.4136
   1   2.0000     -88.889644     -2418.8102
   2   2.0000     -88.888679     -2418.7839
   3   2.0000     -88.886159     -2418.7154
   4   2.0000     -88.881697     -2418.5939
   5   2.0000     -88.815939     -2416.8046
   6   2.0000     -88.812197     -2416.7027
   7   2.0000     -19.183289      -522.0038
   8   2.0000     -19.182904      -521.9934
   9   2.0000     -19.136830      -520.7396
  10   2.0000     -19.134283      -520.6703
  11   2.0000     -14.403394      -391.9363
  12   2.0000     -14.402518      -391.9124
  13   2.0000     -14.373115      -391.1123
  14   2.0000     -14.371885      -391.0789
  15   2.0000     -10.318167      -280.7716
  16   2.0000     -10.317766      -280.7607
  17   2.0000     -10.303000      -280.3589
  18   2.0000     -10.300783      -280.2985
  19   2.0000     -10.281923      -279.7854
  20   2.0000     -10.281321      -279.7690
  21   2.0000     -10.261412      -279.2272
  22   2.0000     -10.261375      -279.2262
  23   2.0000     -10.260984      -279.2156
  24   2.0000     -10.260815      -279.2110
  25   2.0000     -10.245235      -278.7870
  26   2.0000     -10.242384      -278.7094
  27   2.0000     -10.240739      -278.6647
  28   2.0000     -10.239888      -278.6415
  29   2.0000     -10.239583      -278.6332
  30   2.0000     -10.238995      -278.6172
  31   2.0000     -10.238167      -278.5947
  32   2.0000     -10.235762      -278.5292
  33   2.0000     -10.234931      -278.5066
  34   2.0000     -10.233674      -278.4724
  35   2.0000     -10.233095      -278.4567
  36   2.0000     -10.233003      -278.4542
  37   2.0000     -10.212095      -277.8852
  38   2.0000     -10.210248      -277.8350
  39   2.0000     -10.208777      -277.7950
  40   2.0000     -10.205109      -277.6951
  41   2.0000      -8.039565      -218.7677
  42   2.0000      -7.984985      -217.2825
  43   2.0000      -7.982630      -217.2184
  44   2.0000      -7.981966      -217.2003
  45   2.0000      -7.974380      -216.9939
  46   2.0000      -7.912086      -215.2988
  47   2.0000      -7.908241      -215.1942
  48   2.0000      -6.009801      -163.5350
  49   2.0000      -6.002484      -163.3359
  50   2.0000      -6.000268      -163.2756
  51   2.0000      -5.953551      -162.0044
  52   2.0000      -5.950775      -161.9288
  53   2.0000      -5.950539      -161.9224
  54   2.0000      -5.949723      -161.9002
  55   2.0000      -5.946882      -161.8229
  56   2.0000      -5.946697      -161.8178
  57   2.0000      -5.944762      -161.7652
  58   2.0000      -5.943823      -161.7396
  59   2.0000      -5.942620      -161.7069
  60   2.0000      -5.941497      -161.6764
  61   2.0000      -5.938249      -161.5880
  62   2.0000      -5.935588      -161.5156
  63   2.0000      -5.880736      -160.0230
  64   2.0000      -5.877532      -159.9358
  65   2.0000      -5.876915      -159.9190
  66   2.0000      -5.873591      -159.8285
  67   2.0000      -5.871345      -159.7674
  68   2.0000      -5.867618      -159.6660
  69   2.0000      -1.092873       -29.7386
  70   2.0000      -1.065640       -28.9975
  71   2.0000      -1.064421       -28.9644
  72   2.0000      -1.062568       -28.9139
  73   2.0000      -1.034402       -28.1475
  74   2.0000      -0.987059       -26.8592
  75   2.0000      -0.986274       -26.8379
  76   2.0000      -0.910638       -24.7797
  77   2.0000      -0.901087       -24.5198
  78   2.0000      -0.891420       -24.2568
  79   2.0000      -0.871216       -23.7070
  80   2.0000      -0.854639       -23.2559
  81   2.0000      -0.852646       -23.2017
  82   2.0000      -0.811766       -22.0893
  83   2.0000      -0.800846       -21.7921
  84   2.0000      -0.792722       -21.5710
  85   2.0000      -0.781748       -21.2724
  86   2.0000      -0.772034       -21.0081
  87   2.0000      -0.762895       -20.7594
  88   2.0000      -0.750955       -20.4345
  89   2.0000      -0.746220       -20.3057
  90   2.0000      -0.731225       -19.8976
  91   2.0000      -0.727247       -19.7894
  92   2.0000      -0.716779       -19.5046
  93   2.0000      -0.716216       -19.4892
  94   2.0000      -0.709091       -19.2953
  95   2.0000      -0.697322       -18.9751
  96   2.0000      -0.665910       -18.1203
  97   2.0000      -0.651479       -17.7277
  98   2.0000      -0.642996       -17.4968
  99   2.0000      -0.628688       -17.1075
 100   2.0000      -0.623967       -16.9790
 101   2.0000      -0.613848       -16.7037
 102   2.0000      -0.608271       -16.5519
 103   2.0000      -0.585546       -15.9335
 104   2.0000      -0.576164       -15.6782
 105   2.0000      -0.570067       -15.5123
 106   2.0000      -0.560517       -15.2524
 107   2.0000      -0.552702       -15.0398
 108   2.0000      -0.546881       -14.8814
 109   2.0000      -0.539055       -14.6684
 110   2.0000      -0.535107       -14.5610
 111   2.0000      -0.522549       -14.2193
 112   2.0000      -0.516866       -14.0646
 113   2.0000      -0.505335       -13.7509
 114   2.0000      -0.503749       -13.7077
 115   2.0000      -0.496054       -13.4983
 116   2.0000      -0.494681       -13.4609
 117   2.0000      -0.494548       -13.4573
 118   2.0000      -0.492841       -13.4109
 119   2.0000      -0.486119       -13.2280
 120   2.0000      -0.477884       -13.0039
 121   2.0000      -0.475701       -12.9445
 122   2.0000      -0.471087       -12.8189
 123   2.0000      -0.466961       -12.7066
 124   2.0000      -0.458861       -12.4862
 125   2.0000      -0.455515       -12.3952
 126   2.0000      -0.450541       -12.2598
 127   2.0000      -0.449277       -12.2254
 128   2.0000      -0.433501       -11.7962
 129   2.0000      -0.428541       -11.6612
 130   2.0000      -0.425594       -11.5810
 131   2.0000      -0.425096       -11.5674
 132   2.0000      -0.424060       -11.5392
 133   2.0000      -0.419006       -11.4017
 134   2.0000      -0.415133       -11.2963
 135   2.0000      -0.412430       -11.2228
 136   2.0000      -0.410171       -11.1613
 137   2.0000      -0.408214       -11.1081
 138   2.0000      -0.406276       -11.0553
 139   2.0000      -0.399334       -10.8664
 140   2.0000      -0.395527       -10.7628
 141   2.0000      -0.390700       -10.6315
 142   2.0000      -0.389561       -10.6005
 143   2.0000      -0.385928       -10.5016
 144   2.0000      -0.381519       -10.3817
 145   2.0000      -0.379030       -10.3139
 146   2.0000      -0.375838       -10.2271
 147   2.0000      -0.374973       -10.2035
 148   2.0000      -0.374412       -10.1883
 149   2.0000      -0.366030        -9.9602
 150   2.0000      -0.362134        -9.8542
 151   2.0000      -0.358401        -9.7526
 152   2.0000      -0.356968        -9.7136
 153   2.0000      -0.336836        -9.1658
 154   2.0000      -0.336265        -9.1502
 155   2.0000      -0.330168        -8.9843
 156   2.0000      -0.326634        -8.8882
 157   2.0000      -0.305180        -8.3044
 158   2.0000      -0.300833        -8.1861
 159   2.0000      -0.296269        -8.0619
 160   2.0000      -0.293131        -7.9765
 161   2.0000      -0.286680        -7.8009
 162   2.0000      -0.284580        -7.7438
 163   2.0000      -0.272208        -7.4071
 164   2.0000      -0.271282        -7.3820
 165   2.0000      -0.269180        -7.3248
 166   2.0000      -0.264774        -7.2049
 167   2.0000      -0.260676        -7.0933
 168   2.0000      -0.248667        -6.7666
 169   2.0000      -0.231419        -6.2972
 170   2.0000      -0.228603        -6.2206
 171   2.0000      -0.224541        -6.1101
 172   2.0000      -0.203973        -5.5504
 173   0.0000      -0.122505        -3.3335
 174   0.0000      -0.095544        -2.5999
 175   0.0000      -0.089001        -2.4218
 176   0.0000      -0.050974        -1.3871
 177   0.0000      -0.041803        -1.1375

MULLIKEN ATOMIC CHARGES
-----------------------
   0 C :    0.190136
   1 C :    0.037649
   2 C :    0.052640
   3 C :    0.174884
   4 C :   -0.012513
   5 C :   -0.013317
   6 N :   -0.306320
   7 S :    0.501335
   8 N :   -0.315735
   9 O :   -0.359162
  10 O :   -0.348352
  11 C :    0.194719
  12 C :    0.194913
  13 C :   -0.162718
  14 C :   -0.156246
  15 S :    0.175106
  16 C :   -0.079259
  17 C :    0.014347
  18 C :    0.005125
  19 C :    0.037913
  20 C :    0.014496
  21 C :   -0.040900
  22 S :    0.215358
  23 C :    0.063324
  24 C :   -0.168893
  25 C :    0.039350
  26 C :   -0.189667
  27 C :    0.232185
  28 N :   -0.237331
  29 C :   -0.000852
  30 S :    0.112081
  31 S :    0.139325
  32 C :   -0.015912
  33 N :   -0.237488
  34 C :    0.245283
  35 O :   -0.194527
  36 C :    0.129703
  37 S :   -0.159609
  38 S :   -0.165928
  39 C :    0.142490
  40 O :   -0.204489
  41 H :    0.022097
  42 H :    0.043415
  43 H :    0.034554
  44 H :    0.037561
  45 H :    0.027122
  46 H :    0.037435
  47 H :   -0.002086
  48 H :    0.000654
  49 H :   -0.024850
  50 H :   -0.016298
  51 H :    0.020299
  52 H :   -0.004930
  53 H :    0.057025
  54 H :    0.043636
  55 H :    0.046054
  56 H :    0.043619
  57 H :    0.042579
  58 H :    0.048970
Sum of atomic charges:   -0.0000000

LOEWDIN ATOMIC CHARGES
----------------------
   0 C :   -0.059190
   1 C :    0.033033
   2 C :    0.037082
   3 C :   -0.060304
   4 C :   -0.045642
   5 C :   -0.047098
   6 N :   -0.281205
   7 S :    0.620636
   8 N :   -0.289095
   9 O :   -0.116407
  10 O :   -0.112400
  11 C :    0.086050
  12 C :    0.090546
  13 C :   -0.157680
  14 C :   -0.157363
  15 S :    0.476269
  16 C :   -0.183690
  17 C :   -0.052967
  18 C :   -0.046616
  19 C :   -0.053201
  20 C :   -0.042675
  21 C :   -0.184261
  22 S :    0.514348
  23 C :   -0.015530
  24 C :   -0.215120
  25 C :   -0.011262
  26 C :   -0.219843
  27 C :    0.068746
  28 N :   -0.029061
  29 C :   -0.254807
  30 S :    0.384447
  31 S :    0.379980
  32 C :   -0.259080
  33 N :   -0.026872
  34 C :    0.063565
  35 O :   -0.173287
  36 C :    0.037633
  37 S :   -0.030054
  38 S :   -0.038806
  39 C :    0.039354
  40 O :   -0.180657
  41 H :    0.016219
  42 H :    0.015336
  43 H :    0.025290
  44 H :    0.026209
  45 H :    0.019099
  46 H :    0.015921
  47 H :    0.020652
  48 H :    0.031112
  49 H :    0.028098
  50 H :    0.029322
  51 H :    0.046687
  52 H :    0.041633
  53 H :    0.036014
  54 H :    0.030973
  55 H :    0.032978
  56 H :    0.029946
  57 H :    0.032556
  58 H :    0.034441

  Mayer bond orders larger than 0.100000
B(  0-C ,  1-C ) :   1.4025 B(  0-C ,  5-C ) :   1.1382 B(  0-C , 13-C ) :   1.1215
B(  1-C ,  2-C ) :   1.1544 B(  1-C ,  9-O ) :   1.1008 B(  2-C ,  3-C ) :   1.3947
B(  2-C , 10-O ) :   1.1311 B(  3-C ,  4-C ) :   1.1359 B(  3-C , 14-C ) :   1.1417
B(  4-C ,  5-C ) :   1.1166 B(  4-C ,  6-N ) :   1.5310 B(  5-C ,  8-N ) :   1.5279
B(  6-N ,  7-S ) :   1.2243 B(  6-N ,  8-N ) :   0.1474 B(  7-S ,  8-N ) :   1.2188
B(  9-O , 12-C ) :   0.9028 B( 10-O , 11-C ) :   0.9019 B( 11-C , 41-H ) :   0.9635
B( 11-C , 42-H ) :   0.9651 B( 11-C , 43-H ) :   0.9792 B( 12-C , 44-H ) :   0.9810
B( 12-C , 45-H ) :   0.9643 B( 12-C , 46-H ) :   0.9682 B( 13-C , 15-S ) :   1.1503
B( 13-C , 18-C ) :   1.4197 B( 14-C , 19-C ) :   1.3935 B( 14-C , 22-S ) :   1.1245
B( 15-S , 16-C ) :   1.0877 B( 16-C , 17-C ) :   1.4100 B( 16-C , 23-C ) :   1.1448
B( 17-C , 18-C ) :   1.2984 B( 17-C , 47-H ) :   0.9794 B( 18-C , 48-H ) :   0.9891
B( 19-C , 20-C ) :   1.3057 B( 19-C , 49-H ) :   0.9921 B( 20-C , 21-C ) :   1.3549
B( 20-C , 50-H ) :   0.9938 B( 21-C , 22-S ) :   1.0928 B( 21-C , 25-C ) :   1.2408
B( 23-C , 24-C ) :   1.6969 B( 23-C , 51-H ) :   0.9404 B( 24-C , 27-C ) :   0.9659
B( 24-C , 30-S ) :   1.0283 B( 25-C , 26-C ) :   1.6224 B( 25-C , 52-H ) :   0.9405
B( 26-C , 31-S ) :   1.0402 B( 26-C , 34-C ) :   0.9793 B( 27-C , 28-N ) :   1.0309
B( 27-C , 35-O ) :   2.1087 B( 28-N , 29-C ) :   1.1548 B( 28-N , 36-C ) :   0.9440
B( 29-C , 30-S ) :   1.0337 B( 29-C , 37-S ) :   1.6725 B( 31-S , 32-C ) :   1.0535
B( 31-S , 38-S ) :   0.1085 B( 32-C , 33-N ) :   1.1442 B( 32-C , 38-S ) :   1.6599
B( 33-N , 34-C ) :   1.0495 B( 33-N , 39-C ) :   0.9474 B( 34-C , 40-O ) :   2.0600
B( 36-C , 53-H ) :   0.9540 B( 36-C , 54-H ) :   0.9652 B( 36-C , 55-H ) :   0.9710
B( 39-C , 56-H ) :   0.9620 B( 39-C , 57-H ) :   0.9723 B( 39-C , 58-H ) :   0.9539

Dispersion correction           -0.173923721
FINAL SINGLE POINT ENERGY     -4307.117434929388

DIPOLE MOMENT
-------------
                                X             Y             Z
Electronic contribution:    -15.55513      -8.97870       5.06927
Nuclear contribution   :     17.38693       8.74446      -5.21860
                        -----------------------------------------
Total Dipole Moment    :      1.83179      -0.23424      -0.14933
                        -----------------------------------------
Magnitude (a.u.)       :      1.85274
Magnitude (Debye)      :      4.70929

Rotational constants in cm-1:     0.005786     0.000582     0.000533
Rotational constants in MHz :   173.466094    17.458311    15.993391

                             ****ORCA TERMINATED NORMALLY****
TOTAL RUN TIME: 0 days 10 hours 29 minutes 39 seconds 10 msec
