                         Program Version 4.2.0 -  RELEASE  -
|  1> # ORCA input file
|  2> # SCF done       -190.529751262591          0.001690542694
|  3> ! B3LYP/G D3BJ Opt RIJCOSX def2-SVP def2/J
|  4> * xyz 0 1
|  5>    C        4.59755         2.87582         1.07531
|  6>    O        5.39216         2.17327         0.47468
|  7>    C        3.70908         3.89109         0.47533
|  8>    C        3.57391         4.24185        -0.85146
|  9>    C        2.65686         5.23304        -1.17927
| 10>   Cl        2.45262         5.69513        -2.82056
| 11>    C        1.89983         5.85060        -0.17863
| 12>   Cl        0.76836         7.07316        -0.59686
| 13>    C        2.04216         5.49383         1.15868
| 14>    C        2.95403         4.50559         1.48910
| 15>    C        3.32675         3.91708         2.77592
| 16>    C        2.81722         4.29679         3.99167
| 17>    C        3.17848         3.75788         5.24374
| 18>    N        3.41935         3.37722         6.30065
| 19>    C        1.84848         5.30859         4.16098
| 20>    N        1.06269         6.11838         4.37028
| 21>    C        4.32407         2.89989         2.51232
| 22>    C        4.89662         2.08581         3.46291
| 23>    C        5.85528         1.07743         3.35102
| 24>    S        6.64672         0.59327         1.84821
| 25>    C        7.55677        -0.59572         2.69830
| 26>    C        7.25364        -0.61134         4.07257
| 27>    C        6.30487         0.32547         4.45375
| 28>    C        5.80635         0.44801         5.85623
| 29>    C        4.51547        -0.35366         6.04658
| 30>    S        8.16234        -1.80782         4.97886
| 31>    C        8.94473        -2.27724         3.51058
| 32>    C        8.51866        -1.55889         2.38639
| 33>    N        9.18295        -1.99302         1.26783
| 34>    C        9.25690        -1.08742         0.14040
| 35>    C       10.32448        -0.01948         0.37118
| 36>    C       10.05313        -2.99516         1.66276
| 37>    C        9.93366        -3.16783         3.07427
| 38>    C       10.78167        -4.03687         3.79696
| 39>    N       10.80824        -4.26982         5.09957
| 40>    S       12.02585        -5.28821         5.41430
| 41>    N       12.56456        -5.47434         3.89922
| 42>    C       11.80900        -4.74598         3.09287
| 43>    C       11.85534        -4.65523         1.68347
| 44>    C       10.93519        -3.84765         0.94858
| 45>    N       11.11326        -4.10315        -0.39544
| 46>    C       10.26531        -3.81843        -1.53109
| 47>    C       10.89990        -2.80332        -2.48147
| 48>    C       12.13337        -5.00696        -0.52327
| 49>    C       12.62224        -5.35378         0.74401
| 50>    S       13.89334        -6.52471         0.70787
| 51>    C       13.75331        -6.57256        -1.04016
| 52>    C       12.76574        -5.70966        -1.55142
| 53>    S       12.64999        -5.80778        -3.26731
| 54>    C       13.93458        -7.01849        -3.29756
| 55>    C       14.42280        -7.30557        -2.00811
| 56>    C       15.47662        -8.31102        -1.67821
| 57>    C       14.88224        -9.71959        -1.59515
| 58>    C       14.41487        -7.64877        -4.44653
| 59>    C       14.04588        -7.52682        -5.76689
| 60>    C       14.61400        -8.28159        -6.86519
| 61>    C       15.59903        -9.23478        -6.80723
| 62>    C       16.09489        -9.92891        -7.93125
| 63>    N       16.54393       -10.53038        -8.79976
| 64>    C       16.26241        -9.66956        -5.64105
| 65>    N       16.85021       -10.08304        -4.74414
| 66>    C       13.93655        -7.84849        -8.08767
| 67>    C       14.07945        -8.24240        -9.40734
| 68>    C       13.27999        -7.64018       -10.37388
| 69>   Cl       13.45007        -8.12485       -12.01281
| 70>    C       12.34786        -6.65460       -10.03384
| 71>   Cl       11.37889        -5.93065       -11.25306
| 72>    C       12.20061        -6.25763        -8.71036
| 73>    C       12.99416        -6.85965        -7.75654
| 74>    C       13.02672        -6.62287        -6.29955
| 75>    O       12.33835        -5.82482        -5.68684
| 76>    H        4.16377         3.75625        -1.61305
| 77>    H        1.43979         5.99214         1.90004
| 78>    H        4.55070         2.23375         4.47666
| 79>    H        5.62745         1.49104         6.12094
| 80>    H        6.57235         0.05162         6.52560
| 81>    H        3.73149         0.01539         5.38949
| 82>    H        4.17499        -0.26244         7.07390
| 83>    H        4.68703        -1.40478         5.82679
| 84>    H        8.27621        -0.61324         0.04796
| 85>    H        9.46774        -1.62151        -0.77782
| 86>    H       11.30499        -0.47782         0.48434
| 87>    H       10.10342         0.55103         1.26974
| 88>    H       10.34946         0.66323        -0.47331
| 89>    H        9.28710        -3.49825        -1.16954
| 90>    H       10.12182        -4.75750        -2.07672
| 91>    H       10.18202        -2.51410        -3.24377
| 92>    H       11.75837        -3.24763        -2.97719
| 93>    H       11.23539        -1.91422        -1.95302
| 94>    H       15.90489        -8.04890        -0.70893
| 95>    H       16.27616        -8.29871        -2.42000
| 96>    H       14.10754        -9.75906        -0.83336
| 97>    H       15.66143       -10.43148        -1.33926
| 98>    H       14.44899       -10.01306        -2.54805
| 99>    H       15.20483        -8.35875        -4.24397
|100>    H       14.78632        -8.99739        -9.70938
|101>    H       11.48517        -5.49955        -8.43370
|102> *
|103>
|104>                          ****END OF INPUT****
 Total Charge           Charge          ....    0
 Multiplicity           Mult            ....    1
 Number of Electrons    NEL             ....  558
Dispersion correction           -0.313095068
FINAL SINGLE POINT ENERGY     -6414.646438256924
Dispersion correction            ... done
Dispersion correction           -0.312323131
FINAL SINGLE POINT ENERGY     -6414.664671052029
Dispersion correction            ... done
Dispersion correction           -0.310066496
FINAL SINGLE POINT ENERGY     -6414.670334315840
Dispersion correction            ... done
FINAL SINGLE POINT ENERGY     -6414.670695195923
FINAL SINGLE POINT ENERGY     -6414.669690401876
FINAL SINGLE POINT ENERGY     -6414.671858940761
FINAL SINGLE POINT ENERGY     -6414.670413031628
FINAL SINGLE POINT ENERGY     -6414.671139155955
FINAL SINGLE POINT ENERGY     -6414.671448245400
FINAL SINGLE POINT ENERGY     -6414.672005426576
FINAL SINGLE POINT ENERGY     -6414.671117547739
FINAL SINGLE POINT ENERGY     -6414.670719496281
FINAL SINGLE POINT ENERGY     -6414.671082169406
FINAL SINGLE POINT ENERGY     -6414.671228214103
FINAL SINGLE POINT ENERGY     -6414.671165857457
FINAL SINGLE POINT ENERGY     -6414.671174226509
FINAL SINGLE POINT ENERGY     -6414.671205839724
Dispersion correction            ... done
Dispersion correction           -0.311577936
FINAL SINGLE POINT ENERGY     -6414.671259065212
Dispersion correction            ... done
Dispersion correction           -0.311581725
FINAL SINGLE POINT ENERGY     -6414.671249738454
Dispersion correction            ... done
                    ***********************HURRAY********************

CARTESIAN COORDINATES (ANGSTROEM)
---------------------------------
  C      4.426035    2.786425    0.991981
  O      5.185292    2.059166    0.372934
  C      3.458175    3.726347    0.383385
  C      3.226159    3.944788   -0.964651
  C      2.256674    4.885252   -1.326197
  Cl     1.942164    5.181042   -3.002801
  C      1.548138    5.579531   -0.321656
  Cl     0.343604    6.746471   -0.748914
  C      1.794049    5.348546    1.038265
  C      2.761989    4.407995    1.398335
  C      3.249133    3.927020    2.717212
  C      2.773288    4.384425    3.936108
  C      3.236692    3.899406    5.197468
  N      3.598978    3.509007    6.231161
  C      1.760318    5.387275    4.042727
  N      0.936974    6.201750    4.142586
  C      4.275932    2.915614    2.459201
  C      4.964450    2.178946    3.408227
  C      5.941397    1.162257    3.337891
  S      6.724477    0.547722    1.861358
  C      7.676067   -0.535032    2.804694
  C      7.388017   -0.458738    4.185491
  C      6.415876    0.500154    4.507396
  C      5.894496    0.745069    5.899203
  C      4.488012    0.171677    6.137346
  S      8.331942   -1.610963    5.147260
  C      9.100096   -2.177767    3.682120
  C      8.641802   -1.520652    2.531676
  N      9.282129   -2.010190    1.401080
  C      9.583832   -1.054068    0.320932
  C     10.968842   -0.435491    0.482518
  C     10.142769   -3.026049    1.837603
  C     10.073412   -3.117675    3.260220
  C     10.950795   -3.995376    3.977544
  N     11.041679   -4.128215    5.293018
  S     12.259383   -5.211505    5.584713
  N     12.696783   -5.533919    4.019373
  C     11.909258   -4.805354    3.240001
  C     11.893030   -4.779868    1.805555
  C     10.985351   -3.921733    1.104224
  N     11.091933   -4.182079   -0.258454
  C     10.186174   -3.814508   -1.346660
  C     10.808848   -2.859306   -2.360896
  C     12.061729   -5.152529   -0.427122
  C     12.577927   -5.531560    0.825267
  S     13.791856   -6.784696    0.716019
  C     13.590561   -6.796156   -1.042811
  C     12.623308   -5.874985   -1.500125
  S     12.451884   -5.901479   -3.220319
  C     13.711413   -7.156570   -3.343627
  C     14.219284   -7.522836   -2.064441
  C     15.248220   -8.585489   -1.787887
  C     14.612147   -9.941445   -1.436859
  C     14.208195   -7.731512   -4.535931
  C     13.940588   -7.549977   -5.883912
  C     14.605216   -8.231519   -6.997280
  C     15.598102   -9.196435   -6.944848
  C     16.175133   -9.780147   -8.114478
  N     16.655672  -10.264537   -9.055002
  C     16.145883   -9.701452   -5.726487
  N     16.602482  -10.122141   -4.743550
  C     14.024427   -7.696401   -8.256554
  C     14.281928   -7.974915   -9.602440
  C     13.558713   -7.284908  -10.585514
  Cl    13.885396   -7.632697  -12.250897
  C     12.583354   -6.324228  -10.239665
  Cl    11.702539   -5.482059  -11.468477
  C     12.324348   -6.047968   -8.892926
  C     13.047183   -6.736786   -7.931270
  C     12.948865   -6.609783   -6.456914
  O     12.189786   -5.862369   -5.862693
  H      3.786442    3.395074   -1.721962
  H      1.216361    5.913310    1.764522
  H      4.705129    2.400995    4.440257
  H      5.882782    1.825370    6.116332
  H      6.598831    0.296940    6.616649
  H      3.747713    0.640309    5.474327
  H      4.168714    0.366541    7.171787
  H      4.465487   -0.914432    5.956717
  H      8.811443   -0.274827    0.367343
  H      9.470009   -1.530717   -0.655491
  H     11.755576   -1.204609    0.439625
  H     11.050635    0.082029    1.450384
  H     11.160684    0.295249   -0.317345
  H      9.274955   -3.405237   -0.895155
  H      9.881865   -4.746509   -1.850407
  H     10.063675   -2.576247   -3.119348
  H     11.651297   -3.332595   -2.884734
  H     11.184338   -1.945865   -1.879956
  H     15.872470   -8.242356   -0.945844
  H     15.929712   -8.719034   -2.639463
  H     13.925206   -9.850431   -0.581319
  H     15.392013  -10.672606   -1.179048
  H     14.043530  -10.338897   -2.290883
  H     14.981039   -8.463178   -4.313677
  H     15.021456   -8.703321   -9.925062
  H     11.574062   -5.310201   -8.606238

 Multiplicity           Mult            ....    1
 Number of Electrons    NEL             ....  558
 Basis Dimension        Dim             .... 1160

ORBITAL ENERGIES
----------------

  NO   OCC          E(Eh)            E(eV)
   0   2.0000    -101.531498     -2762.8125
   1   2.0000    -101.530942     -2762.7974
   2   2.0000    -101.529150     -2762.7486
   3   2.0000    -101.528266     -2762.7246
   4   2.0000     -88.939941     -2420.1788
   5   2.0000     -88.904738     -2419.2209
   6   2.0000     -88.903932     -2419.1990
   7   2.0000     -88.903690     -2419.1924
   8   2.0000     -88.903259     -2419.1807
   9   2.0000     -19.150680      -521.1165
  10   2.0000     -19.150234      -521.1044
  11   2.0000     -14.423763      -392.4905
  12   2.0000     -14.416731      -392.2992
  13   2.0000     -14.371301      -391.0630
  14   2.0000     -14.370650      -391.0453
  15   2.0000     -14.352321      -390.5465
  16   2.0000     -14.352087      -390.5402
  17   2.0000     -14.345825      -390.3697
  18   2.0000     -14.345565      -390.3627
  19   2.0000     -10.296901      -280.1929
  20   2.0000     -10.295932      -280.1665
  21   2.0000     -10.284877      -279.8657
  22   2.0000     -10.284175      -279.8466
  23   2.0000     -10.284110      -279.8449
  24   2.0000     -10.283332      -279.8237
  25   2.0000     -10.279082      -279.7080
  26   2.0000     -10.276967      -279.6505
  27   2.0000     -10.275832      -279.6196
  28   2.0000     -10.275633      -279.6142
  29   2.0000     -10.272434      -279.5271
  30   2.0000     -10.272342      -279.5246
  31   2.0000     -10.272011      -279.5156
  32   2.0000     -10.268561      -279.4218
  33   2.0000     -10.263546      -279.2853
  34   2.0000     -10.261464      -279.2286
  35   2.0000     -10.261088      -279.2184
  36   2.0000     -10.261005      -279.2161
  37   2.0000     -10.256456      -279.0923
  38   2.0000     -10.255951      -279.0786
  39   2.0000     -10.255277      -279.0603
  40   2.0000     -10.254434      -279.0373
  41   2.0000     -10.252606      -278.9876
  42   2.0000     -10.252528      -278.9855
  43   2.0000     -10.249651      -278.9072
  44   2.0000     -10.249513      -278.9034
  45   2.0000     -10.249401      -278.9004
  46   2.0000     -10.249324      -278.8983
  47   2.0000     -10.248612      -278.8789
  48   2.0000     -10.248321      -278.8710
  49   2.0000     -10.246718      -278.8274
  50   2.0000     -10.246128      -278.8113
  51   2.0000     -10.245001      -278.7807
  52   2.0000     -10.244821      -278.7758
  53   2.0000     -10.244736      -278.7734
  54   2.0000     -10.243687      -278.7449
  55   2.0000     -10.238482      -278.6033
  56   2.0000     -10.237590      -278.5790
  57   2.0000     -10.237472      -278.5758
  58   2.0000     -10.237255      -278.5699
  59   2.0000     -10.235778      -278.5297
  60   2.0000     -10.235223      -278.5146
  61   2.0000     -10.230687      -278.3911
  62   2.0000     -10.229580      -278.3610
  63   2.0000     -10.228455      -278.3304
  64   2.0000     -10.227164      -278.2953
  65   2.0000     -10.220275      -278.1078
  66   2.0000     -10.220171      -278.1050
  67   2.0000     -10.217563      -278.0340
  68   2.0000     -10.216715      -278.0109
  69   2.0000     -10.198839      -277.5245
  70   2.0000     -10.197489      -277.4878
  71   2.0000      -9.485536      -258.1145
  72   2.0000      -9.485230      -258.1062
  73   2.0000      -9.483208      -258.0512
  74   2.0000      -9.482449      -258.0306
  75   2.0000      -8.031329      -218.5436
  76   2.0000      -7.996910      -217.6070
  77   2.0000      -7.996822      -217.6046
  78   2.0000      -7.996694      -217.6011
  79   2.0000      -7.995428      -217.5667
  80   2.0000      -7.254835      -197.4141
  81   2.0000      -7.254447      -197.4035
  82   2.0000      -7.252528      -197.3513
  83   2.0000      -7.251756      -197.3303
  84   2.0000      -7.244885      -197.1434
  85   2.0000      -7.244595      -197.1355
  86   2.0000      -7.244049      -197.1206
  87   2.0000      -7.243749      -197.1124
  88   2.0000      -7.242520      -197.0790
  89   2.0000      -7.241784      -197.0590
  90   2.0000      -7.241724      -197.0573
  91   2.0000      -7.240925      -197.0356
  92   2.0000      -6.001717      -163.3150
  93   2.0000      -5.994427      -163.1166
  94   2.0000      -5.991633      -163.0406
  95   2.0000      -5.965588      -162.3319
  96   2.0000      -5.965389      -162.3265
  97   2.0000      -5.965349      -162.3254
  98   2.0000      -5.963911      -162.2863
  99   2.0000      -5.961904      -162.2317
 100   2.0000      -5.961675      -162.2254
 101   2.0000      -5.961187      -162.2121
 102   2.0000      -5.959826      -162.1751
 103   2.0000      -5.957497      -162.1117
 104   2.0000      -5.956885      -162.0951
 105   2.0000      -5.956678      -162.0895
 106   2.0000      -5.956104      -162.0738
 107   2.0000      -1.054859       -28.7042
 108   2.0000      -1.054607       -28.6973
 109   2.0000      -1.035047       -28.1651
 110   2.0000      -1.024945       -27.8902
 111   2.0000      -1.020597       -27.7719
 112   2.0000      -0.940808       -25.6007
 113   2.0000      -0.940525       -25.5930
 114   2.0000      -0.931476       -25.3468
 115   2.0000      -0.930743       -25.3268
 116   2.0000      -0.929728       -25.2992
 117   2.0000      -0.928569       -25.2677
 118   2.0000      -0.914675       -24.8896
 119   2.0000      -0.914304       -24.8795
 120   2.0000      -0.902603       -24.5611
 121   2.0000      -0.902376       -24.5549
 122   2.0000      -0.900470       -24.5030
 123   2.0000      -0.885114       -24.0852
 124   2.0000      -0.878492       -23.9050
 125   2.0000      -0.878418       -23.9030
 126   2.0000      -0.875396       -23.8207
 127   2.0000      -0.866359       -23.5748
 128   2.0000      -0.848248       -23.0820
 129   2.0000      -0.846866       -23.0444
 130   2.0000      -0.831813       -22.6348
 131   2.0000      -0.818931       -22.2842
 132   2.0000      -0.817901       -22.2562
 133   2.0000      -0.816505       -22.2182
 134   2.0000      -0.813087       -22.1252
 135   2.0000      -0.809142       -22.0179
 136   2.0000      -0.789765       -21.4906
 137   2.0000      -0.786969       -21.4145
 138   2.0000      -0.780787       -21.2463
 139   2.0000      -0.777588       -21.1593
 140   2.0000      -0.777204       -21.1488
 141   2.0000      -0.770382       -20.9632
 142   2.0000      -0.755521       -20.5588
 143   2.0000      -0.753725       -20.5099
 144   2.0000      -0.741286       -20.1714
 145   2.0000      -0.727931       -19.8080
 146   2.0000      -0.727170       -19.7873
 147   2.0000      -0.724098       -19.7037
 148   2.0000      -0.707156       -19.2427
 149   2.0000      -0.687947       -18.7200
 150   2.0000      -0.685976       -18.6664
 151   2.0000      -0.682379       -18.5685
 152   2.0000      -0.680660       -18.5217
 153   2.0000      -0.678479       -18.4624
 154   2.0000      -0.660717       -17.9790
 155   2.0000      -0.653745       -17.7893
 156   2.0000      -0.648759       -17.6536
 157   2.0000      -0.642792       -17.4913
 158   2.0000      -0.636711       -17.3258
 159   2.0000      -0.626333       -17.0434
 160   2.0000      -0.622890       -16.9497
 161   2.0000      -0.619181       -16.8488
 162   2.0000      -0.618594       -16.8328
 163   2.0000      -0.613454       -16.6929
 164   2.0000      -0.599679       -16.3181
 165   2.0000      -0.593119       -16.1396
 166   2.0000      -0.591620       -16.0988
 167   2.0000      -0.584619       -15.9083
 168   2.0000      -0.574851       -15.6425
 169   2.0000      -0.565357       -15.3841
 170   2.0000      -0.562993       -15.3198
 171   2.0000      -0.553123       -15.0512
 172   2.0000      -0.549453       -14.9514
 173   2.0000      -0.545326       -14.8391
 174   2.0000      -0.544691       -14.8218
 175   2.0000      -0.541761       -14.7421
 176   2.0000      -0.533658       -14.5216
 177   2.0000      -0.530058       -14.4236
 178   2.0000      -0.521880       -14.2011
 179   2.0000      -0.517130       -14.0718
 180   2.0000      -0.515169       -14.0185
 181   2.0000      -0.507674       -13.8145
 182   2.0000      -0.507137       -13.7999
 183   2.0000      -0.502237       -13.6666
 184   2.0000      -0.498488       -13.5646
 185   2.0000      -0.492178       -13.3928
 186   2.0000      -0.488325       -13.2880
 187   2.0000      -0.483544       -13.1579
 188   2.0000      -0.482524       -13.1302
 189   2.0000      -0.479862       -13.0577
 190   2.0000      -0.479352       -13.0438
 191   2.0000      -0.478702       -13.0261
 192   2.0000      -0.473142       -12.8749
 193   2.0000      -0.470963       -12.8155
 194   2.0000      -0.469529       -12.7765
 195   2.0000      -0.469321       -12.7709
 196   2.0000      -0.466425       -12.6921
 197   2.0000      -0.464952       -12.6520
 198   2.0000      -0.464064       -12.6278
 199   2.0000      -0.461083       -12.5467
 200   2.0000      -0.459199       -12.4954
 201   2.0000      -0.455297       -12.3893
 202   2.0000      -0.447701       -12.1826
 203   2.0000      -0.445927       -12.1343
 204   2.0000      -0.445271       -12.1164
 205   2.0000      -0.443874       -12.0784
 206   2.0000      -0.442613       -12.0441
 207   2.0000      -0.437021       -11.8919
 208   2.0000      -0.434161       -11.8141
 209   2.0000      -0.433865       -11.8061
 210   2.0000      -0.430992       -11.7279
 211   2.0000      -0.430139       -11.7047
 212   2.0000      -0.425693       -11.5837
 213   2.0000      -0.425197       -11.5702
 214   2.0000      -0.424849       -11.5607
 215   2.0000      -0.422760       -11.5039
 216   2.0000      -0.420168       -11.4333
 217   2.0000      -0.419096       -11.4042
 218   2.0000      -0.417841       -11.3700
 219   2.0000      -0.415565       -11.3081
 220   2.0000      -0.413851       -11.2615
 221   2.0000      -0.411196       -11.1892
 222   2.0000      -0.406193       -11.0531
 223   2.0000      -0.404030       -10.9942
 224   2.0000      -0.403386       -10.9767
 225   2.0000      -0.399309       -10.8657
 226   2.0000      -0.398992       -10.8571
 227   2.0000      -0.393412       -10.7053
 228   2.0000      -0.392938       -10.6924
 229   2.0000      -0.389896       -10.6096
 230   2.0000      -0.387792       -10.5524
 231   2.0000      -0.386939       -10.5291
 232   2.0000      -0.383816       -10.4442
 233   2.0000      -0.379062       -10.3148
 234   2.0000      -0.378894       -10.3102
 235   2.0000      -0.373633       -10.1671
 236   2.0000      -0.373537       -10.1644
 237   2.0000      -0.372787       -10.1440
 238   2.0000      -0.370116       -10.0714
 239   2.0000      -0.368893       -10.0381
 240   2.0000      -0.367936       -10.0120
 241   2.0000      -0.366788        -9.9808
 242   2.0000      -0.366529        -9.9737
 243   2.0000      -0.364789        -9.9264
 244   2.0000      -0.364450        -9.9172
 245   2.0000      -0.363560        -9.8930
 246   2.0000      -0.362175        -9.8553
 247   2.0000      -0.360709        -9.8154
 248   2.0000      -0.356893        -9.7115
 249   2.0000      -0.354481        -9.6459
 250   2.0000      -0.353072        -9.6076
 251   2.0000      -0.351518        -9.5653
 252   2.0000      -0.347682        -9.4609
 253   2.0000      -0.347283        -9.4501
 254   2.0000      -0.344421        -9.3722
 255   2.0000      -0.344117        -9.3639
 256   2.0000      -0.343421        -9.3449
 257   2.0000      -0.340713        -9.2713
 258   2.0000      -0.335954        -9.1418
 259   2.0000      -0.334306        -9.0969
 260   2.0000      -0.322454        -8.7744
 261   2.0000      -0.322379        -8.7724
 262   2.0000      -0.313966        -8.5434
 263   2.0000      -0.311866        -8.4863
 264   2.0000      -0.309649        -8.4260
 265   2.0000      -0.297106        -8.0847
 266   2.0000      -0.289364        -7.8740
 267   2.0000      -0.287280        -7.8173
 268   2.0000      -0.285222        -7.7613
 269   2.0000      -0.280757        -7.6398
 270   2.0000      -0.280005        -7.6193
 271   2.0000      -0.270033        -7.3480
 272   2.0000      -0.268309        -7.3011
 273   2.0000      -0.264365        -7.1937
 274   2.0000      -0.261305        -7.1105
 275   2.0000      -0.247804        -6.7431
 276   2.0000      -0.239143        -6.5074
 277   2.0000      -0.239045        -6.5047
 278   2.0000      -0.211559        -5.7568
 279   0.0000      -0.137284        -3.7357
 280   0.0000      -0.127235        -3.4622
 281   0.0000      -0.112347        -3.0571
 282   0.0000      -0.109152        -2.9702
 283   0.0000      -0.093805        -2.5526

MULLIKEN ATOMIC CHARGES
-----------------------
   0 C :    0.139877
   1 O :   -0.188085
   2 C :   -0.008249
   3 C :   -0.023596
   4 C :    0.063921
   5 Cl:   -0.048786
   6 C :    0.034966
   7 Cl:   -0.038281
   8 C :   -0.004807
   9 C :    0.042498
  10 C :    0.265558
  11 C :   -0.315925
  12 C :   -0.138893
  13 N :    0.086895
  14 C :   -0.142057
  15 N :    0.103886
  16 C :   -0.067187
  17 C :   -0.041364
  18 C :   -0.076244
  19 S :    0.184448
  20 C :   -0.033858
  21 C :   -0.079221
  22 C :   -0.066201
  23 C :    0.060763
  24 C :    0.016272
  25 S :    0.195609
  26 C :   -0.087434
  27 C :    0.053244
  28 N :   -0.205739
  29 C :    0.107928
  30 C :   -0.009547
  31 C :    0.039397
  32 C :   -0.020196
  33 C :   -0.013136
  34 N :   -0.278547
  35 S :    0.453452
  36 N :   -0.277909
  37 C :   -0.000133
  38 C :   -0.029746
  39 C :    0.068773
  40 N :   -0.199942
  41 C :    0.099007
  42 C :    0.001236
  43 C :    0.052669
  44 C :   -0.094527
  45 S :    0.196629
  46 C :   -0.072458
  47 C :   -0.036429
  48 S :    0.187585
  49 C :   -0.080459
  50 C :   -0.072373
  51 C :    0.045567
  52 C :    0.022474
  53 C :   -0.040583
  54 C :   -0.058786
  55 C :    0.265001
  56 C :   -0.323365
  57 C :   -0.141299
  58 N :    0.106242
  59 C :   -0.129222
  60 N :    0.087753
  61 C :    0.041057
  62 C :   -0.015096
  63 C :    0.045606
  64 Cl:   -0.039146
  65 C :    0.059599
  66 Cl:   -0.045256
  67 C :   -0.032306
  68 C :   -0.002634
  69 C :    0.139775
  70 O :   -0.187075
  71 H :   -0.006758
  72 H :   -0.003366
  73 H :   -0.013911
  74 H :    0.040087
  75 H :    0.004997
  76 H :    0.013552
  77 H :    0.032782
  78 H :    0.020478
  79 H :    0.039046
  80 H :    0.007706
  81 H :    0.037349
  82 H :    0.035655
  83 H :    0.037860
  84 H :    0.033638
  85 H :    0.035363
  86 H :    0.035502
  87 H :    0.034748
  88 H :    0.022444
  89 H :    0.014134
  90 H :    0.038329
  91 H :    0.017799
  92 H :    0.034157
  93 H :    0.017005
  94 H :   -0.025374
  95 H :    0.000331
  96 H :   -0.005145
Sum of atomic charges:   -0.0000000

LOEWDIN ATOMIC CHARGES
----------------------
   0 C :    0.074807
   1 O :   -0.168032
   2 C :   -0.043015
   3 C :   -0.002231
   4 C :   -0.130914
   5 Cl:    0.152601
   6 C :   -0.127300
   7 Cl:    0.157330
   8 C :   -0.013114
   9 C :   -0.009765
  10 C :    0.067113
  11 C :   -0.140306
  12 C :   -0.009990
  13 N :   -0.066205
  14 C :   -0.014199
  15 N :   -0.060644
  16 C :   -0.104912
  17 C :    0.037513
  18 C :   -0.173294
  19 S :    0.467698
  20 C :   -0.198719
  21 C :   -0.186578
  22 C :   -0.012554
  23 C :   -0.030158
  24 C :   -0.042811
  25 S :    0.418938
  26 C :   -0.162755
  27 C :   -0.034294
  28 N :    0.016235
  29 C :    0.047362
  30 C :   -0.061061
  31 C :    0.011860
  32 C :   -0.065022
  33 C :   -0.053717
  34 N :   -0.276275
  35 S :    0.583395
  36 N :   -0.277741
  37 C :   -0.050819
  38 C :   -0.072651
  39 C :    0.015893
  40 N :    0.036753
  41 C :    0.045119
  42 C :   -0.064099
  43 C :   -0.033270
  44 C :   -0.163270
  45 S :    0.420336
  46 C :   -0.185459
  47 C :   -0.196950
  48 S :    0.467504
  49 C :   -0.172425
  50 C :   -0.012171
  51 C :   -0.031138
  52 C :   -0.042311
  53 C :    0.035561
  54 C :   -0.104348
  55 C :    0.067320
  56 C :   -0.140177
  57 C :   -0.014175
  58 N :   -0.060064
  59 C :   -0.007685
  60 N :   -0.067803
  61 C :   -0.009791
  62 C :   -0.014904
  63 C :   -0.126085
  64 Cl:    0.156486
  65 C :   -0.131130
  66 Cl:    0.153787
  67 C :   -0.003477
  68 C :   -0.042286
  69 C :    0.074872
  70 O :   -0.167679
  71 H :    0.043762
  72 H :    0.042846
  73 H :    0.046035
  74 H :    0.040147
  75 H :    0.030474
  76 H :    0.022205
  77 H :    0.034222
  78 H :    0.025561
  79 H :    0.027713
  80 H :    0.021757
  81 H :    0.028495
  82 H :    0.035787
  83 H :    0.036097
  84 H :    0.029221
  85 H :    0.032816
  86 H :    0.038595
  87 H :    0.023362
  88 H :    0.027023
  89 H :    0.033486
  90 H :    0.035386
  91 H :    0.022311
  92 H :    0.033716
  93 H :    0.026688
  94 H :    0.045872
  95 H :    0.043730
  96 H :    0.043983

  Mayer bond orders larger than 0.100000
B(  0-C ,  1-O ) :   2.1211 B(  0-C ,  2-C ) :   0.9579 B(  0-C , 16-C ) :   0.9789
B(  2-C ,  3-C ) :   1.3391 B(  2-C ,  9-C ) :   1.3161 B(  3-C ,  4-C ) :   1.3246
B(  3-C , 71-H ) :   1.0069 B(  4-C ,  5-Cl) :   1.0410 B(  4-C ,  6-C ) :   1.3906
B(  6-C ,  7-Cl) :   1.0751 B(  6-C ,  8-C ) :   1.3452 B(  8-C ,  9-C ) :   1.3275
B(  8-C , 72-H ) :   0.9805 B(  9-C , 10-C ) :   0.9941 B( 10-C , 11-C ) :   1.5592
B( 10-C , 16-C ) :   1.1222 B( 11-C , 12-C ) :   1.1587 B( 11-C , 14-C ) :   1.1456
B( 12-C , 13-N ) :   2.9069 B( 14-C , 15-N ) :   2.9266 B( 16-C , 17-C ) :   1.4385
B( 17-C , 18-C ) :   1.3281 B( 17-C , 73-H ) :   0.9189 B( 18-C , 19-S ) :   1.0364
B( 18-C , 22-C ) :   1.3311 B( 19-S , 20-C ) :   1.0384 B( 20-C , 21-C ) :   1.3583
B( 20-C , 27-C ) :   1.3083 B( 21-C , 22-C ) :   1.4221 B( 21-C , 25-S ) :   1.0234
B( 22-C , 23-C ) :   1.0870 B( 23-C , 24-C ) :   1.1078 B( 23-C , 74-H ) :   0.8973
B( 23-C , 75-H ) :   0.9162 B( 24-C , 76-H ) :   0.9662 B( 24-C , 77-H ) :   0.9627
B( 24-C , 78-H ) :   0.9651 B( 25-S , 26-C ) :   1.0306 B( 26-C , 27-C ) :   1.3879
B( 26-C , 32-C ) :   1.3285 B( 27-C , 28-N ) :   1.1291 B( 28-N , 29-C ) :   0.9473
B( 28-N , 31-C ) :   1.1390 B( 29-C , 30-C ) :   1.1244 B( 29-C , 79-H ) :   0.9337
B( 29-C , 80-H ) :   0.9364 B( 30-C , 81-H ) :   0.9544 B( 30-C , 82-H ) :   0.9593
B( 30-C , 83-H ) :   0.9588 B( 31-C , 32-C ) :   1.3749 B( 31-C , 39-C ) :   1.1552
B( 32-C , 33-C ) :   1.1139 B( 33-C , 34-N ) :   1.6150 B( 33-C , 37-C ) :   1.0938
B( 34-N , 35-S ) :   1.1981 B( 34-N , 36-N ) :   0.1356 B( 35-S , 36-N ) :   1.1958
B( 36-N , 37-C ) :   1.6130 B( 37-C , 38-C ) :   1.1215 B( 38-C , 39-C ) :   1.3266
B( 38-C , 44-C ) :   1.3563 B( 39-C , 40-N ) :   1.1697 B( 40-N , 41-C ) :   0.9344
B( 40-N , 43-C ) :   1.1383 B( 41-C , 42-C ) :   1.1092 B( 41-C , 84-H ) :   0.9464
B( 41-C , 85-H ) :   0.9370 B( 42-C , 86-H ) :   0.9586 B( 42-C , 87-H ) :   0.9510
B( 42-C , 88-H ) :   0.9577 B( 43-C , 44-C ) :   1.3702 B( 43-C , 47-C ) :   1.3095
B( 44-C , 45-S ) :   1.0290 B( 45-S , 46-C ) :   1.0256 B( 46-C , 47-C ) :   1.3616
B( 46-C , 50-C ) :   1.4105 B( 47-C , 48-S ) :   1.0340 B( 48-S , 49-C ) :   1.0371
B( 49-C , 50-C ) :   1.3345 B( 49-C , 53-C ) :   1.3279 B( 50-C , 51-C ) :   1.0915
B( 51-C , 52-C ) :   1.1057 B( 51-C , 89-H ) :   0.9113 B( 51-C , 90-H ) :   0.8976
B( 52-C , 91-H ) :   0.9686 B( 52-C , 92-H ) :   0.9630 B( 52-C , 93-H ) :   0.9656
B( 53-C , 54-C ) :   1.4463 B( 53-C , 94-H ) :   0.9202 B( 54-C , 55-C ) :   1.1190
B( 54-C , 69-C ) :   0.9703 B( 55-C , 56-C ) :   1.5623 B( 55-C , 61-C ) :   0.9926
B( 56-C , 57-C ) :   1.1423 B( 56-C , 59-C ) :   1.1602 B( 57-C , 58-N ) :   2.9314
B( 59-C , 60-N ) :   2.9133 B( 61-C , 62-C ) :   1.3321 B( 61-C , 68-C ) :   1.3235
B( 62-C , 63-C ) :   1.3423 B( 62-C , 95-H ) :   0.9812 B( 63-C , 64-Cl) :   1.0709
B( 63-C , 65-C ) :   1.3914 B( 65-C , 66-Cl) :   1.0442 B( 65-C , 67-C ) :   1.3274
B( 67-C , 68-C ) :   1.3254 B( 67-C , 96-H ) :   1.0112 B( 68-C , 69-C ) :   0.9596
B( 69-C , 70-O ) :   2.1283

Dispersion correction           -0.311576690
FINAL SINGLE POINT ENERGY     -6414.671256760550

DIPOLE MOMENT
-------------
                                X             Y             Z
Electronic contribution:    -22.85230      19.98479     -52.78106
Nuclear contribution   :     23.04379     -19.79550      52.73780
                        -----------------------------------------
Total Dipole Moment    :      0.19149       0.18929      -0.04325
                        -----------------------------------------
Magnitude (a.u.)       :      0.27270
Magnitude (Debye)      :      0.69316

Rotational constants in cm-1:     0.000960     0.000268     0.000211
Rotational constants in MHz :    28.768077     8.045107     6.324483

                             ****ORCA TERMINATED NORMALLY****
TOTAL RUN TIME: 0 days 21 hours 16 minutes 56 seconds 913 msec
