                         Program Version 4.2.0 -  RELEASE  -
|  1> # ORCA input file
|  2> # SCF done       -178.227475266823          0.000860535557
|  3> ! B3LYP/G D3BJ Opt RIJCOSX def2-SVP def2/J
|  4> * xyz 0 1
|  5>    C       -1.09716         4.47660         1.38562
|  6>    C       -2.18496         3.65483         1.64420
|  7>    C       -2.05078         2.27049         1.74858
|  8>    C       -0.81211         1.66834         1.59500
|  9>    C        0.26841         2.48690         1.33515
| 10>    C        0.14474         3.88220         1.22844
| 11>    C        1.67915         2.10418         1.11656
| 12>    C        2.39745         3.34921         0.84506
| 13>    C        1.46340         4.45108         0.93903
| 14>    C        3.72814         3.44919         0.50542
| 15>    C        4.69399         2.45909         0.31509
| 16>    C        5.98593         2.76845        -0.15161
| 17>    C        6.76186         1.65591        -0.36094
| 18>    C        6.08335         0.47228        -0.00399
| 19>    S        4.48482         0.72625         0.54035
| 20>    C        8.14677         1.34800        -0.88293
| 21>    C        8.14947        -0.15900        -0.76978
| 22>    C        6.93867        -0.61979        -0.24759
| 23>    C        9.01083        -1.18812        -1.11959
| 24>    C        8.47220        -2.43802        -0.85013
| 25>    S        6.87519        -2.33159        -0.13529
| 26>    C        9.01658        -3.70440        -1.17351
| 27>    S       10.36777        -3.82253        -2.28386
| 28>    C       10.24566        -5.53557        -2.24913
| 29>    C        9.24062        -5.98732        -1.39014
| 30>    C        8.54238        -4.95029        -0.79002
| 31>    C       10.83078        -6.64057        -2.89570
| 32>    C       10.20403        -7.81760        -2.44406
| 33>    C        9.14472        -7.49455        -1.41681
| 34>    S       12.01626        -6.93310        -4.08476
| 35>    C       11.65968        -8.66664        -4.02373
| 36>    C       10.68672        -8.94997        -3.06272
| 37>    C       12.35016        -9.46810        -4.94065
| 38>    C       12.17788       -10.78152        -5.31333
| 39>    C       12.98334       -11.43001        -6.33249
| 40>    C       12.35635       -12.71419        -6.64614
| 41>    C       11.25208       -12.89033        -5.79876
| 42>    C       11.11123       -11.71632        -4.90843
| 43>    C       12.67060       -13.68933        -7.57999
| 44>    C       11.86625       -14.81793        -7.63848
| 45>    C       10.77294       -14.98517        -6.78833
| 46>    C       10.45324       -14.01516        -5.85249
| 47>    F       10.02430       -16.09137        -6.87998
| 48>    F       12.14869       -15.76758        -8.53756
| 49>    O       10.26290       -11.59420        -4.04762
| 50>    C       14.14973       -10.97508        -6.89081
| 51>    C       14.87002       -11.66838        -7.88729
| 52>    C       14.82733        -9.78365        -6.55333
| 53>    C        9.47718        -8.11217        -0.04726
| 54>    C        7.72729        -7.88304        -1.89154
| 55>    C        7.47302        -9.37767        -2.03319
| 56>    C       10.80124        -7.61416         0.52075
| 57>    C        9.24136         1.99215        -0.01614
| 58>    C        8.30753         1.71316        -2.37514
| 59>    C        8.18099         3.19506        -2.69978
| 60>    C        9.19749         1.52159         1.43303
| 61>    O        2.12990         0.97345         1.16130
| 62>    F       -3.39299         4.20978         1.79386
| 63>    F       -3.12859         1.51605         1.99611
| 64>    C        1.72567         5.78886         0.79020
| 65>    C        0.75026         6.80287         0.89908
| 66>    C        2.98681         6.35687         0.51389
| 67>    N        3.97523         6.89825         0.28990
| 68>    N        0.00935         7.67644         0.97235
| 69>    N       15.50067       -12.17298        -8.70260
| 70>    N       15.45671        -8.84815        -6.33431
| 71>    H       -1.25682         5.53975         1.31331
| 72>    H       -0.70286         0.59838         1.67307
| 73>    H        4.10231         4.44736         0.31332
| 74>    H        6.28746         3.78719        -0.31866
| 75>    H        9.98650        -1.06740        -1.55532
| 76>    H        7.71929        -5.06277        -0.10738
| 77>    H       10.37300        -9.95684        -2.86339
| 78>    H       13.11476        -8.92558        -5.48424
| 79>    H       13.50108       -13.60928        -8.26161
| 80>    H        9.60850       -14.13774        -5.19357
| 81>    H        9.52477        -9.19524        -0.15944
| 82>    H        8.66928        -7.87206         0.64660
| 83>    H        7.55212        -7.39882        -2.85567
| 84>    H        7.01484        -7.46436        -1.17720
| 85>    H        8.14776        -9.82744        -2.75486
| 86>    H        6.45453        -9.53323        -2.38179
| 87>    H        7.58296        -9.88973        -1.08154
| 88>    H       11.62176        -7.84215        -0.15595
| 89>    H       11.00065        -8.09848         1.47341
| 90>    H       10.77751        -6.53879         0.68270
| 91>    H        9.11383         3.07452        -0.04142
| 92>    H       10.21429         1.75125        -0.44886
| 93>    H        7.55154         1.16169        -2.93993
| 94>    H        9.28771         1.35621        -2.69833
| 95>    H        7.19186         3.56531        -2.44702
| 96>    H        8.33341         3.34216        -3.76649
| 97>    H        8.92483         3.78301        -2.16983
| 98>    H        8.23193         1.74460         1.88160
| 99>    H        9.96781         2.02680         2.01041
|100>    H        9.36793         0.44940         1.49946
|101> *
|102>
|103>                          ****END OF INPUT****
 Total Charge           Charge          ....    0
 Multiplicity           Mult            ....    1
 Number of Electrons    NEL             ....  486
Dispersion correction           -0.279182953
FINAL SINGLE POINT ENERGY     -4358.841243199575
Dispersion correction            ... done
Dispersion correction           -0.276259264
FINAL SINGLE POINT ENERGY     -4358.854828917015
Dispersion correction            ... done
Dispersion correction           -0.275206550
FINAL SINGLE POINT ENERGY     -4358.859652976402
Dispersion correction            ... done
FINAL SINGLE POINT ENERGY     -4358.861133394634
FINAL SINGLE POINT ENERGY     -4358.861948202501
FINAL SINGLE POINT ENERGY     -4358.860498145422
FINAL SINGLE POINT ENERGY     -4358.861991529443
FINAL SINGLE POINT ENERGY     -4358.862031357797
FINAL SINGLE POINT ENERGY     -4358.861403258489
FINAL SINGLE POINT ENERGY     -4358.862264794686
FINAL SINGLE POINT ENERGY     -4358.862416350522
FINAL SINGLE POINT ENERGY     -4358.862644875224
FINAL SINGLE POINT ENERGY     -4358.862572261695
FINAL SINGLE POINT ENERGY     -4358.862526943065
FINAL SINGLE POINT ENERGY     -4358.862475412711
FINAL SINGLE POINT ENERGY     -4358.862444181799
FINAL SINGLE POINT ENERGY     -4358.862459041173
Dispersion correction            ... done
Dispersion correction           -0.275843975
FINAL SINGLE POINT ENERGY     -4358.862506456502
Dispersion correction            ... done
Dispersion correction           -0.275824496
FINAL SINGLE POINT ENERGY     -4358.862573502805
Dispersion correction            ... done
                    ***********************HURRAY********************

CARTESIAN COORDINATES (ANGSTROEM)
---------------------------------
  C     -0.998979    5.031506    1.955278
  C     -2.150009    4.296189    2.226769
  C     -2.139206    2.890165    2.269387
  C     -0.958853    2.187588    2.050907
  C      0.188265    2.924876    1.781888
  C      0.193382    4.332248    1.724407
  C      1.552371    2.412867    1.497322
  C      2.399219    3.598812    1.238007
  C      1.566972    4.793209    1.392865
  C      3.728026    3.563599    0.855431
  C      4.640532    2.524293    0.561507
  C      5.931462    2.821443    0.053998
  C      6.668940    1.693308   -0.288818
  C      5.954675    0.509787   -0.005057
  S      4.387283    0.767443    0.646651
  C      8.021328    1.369975   -0.933510
  C      7.955093   -0.156552   -0.937674
  C      6.748154   -0.608891   -0.396290
  C      8.766614   -1.206267   -1.401558
  C      8.177528   -2.461010   -1.215604
  S      6.595509   -2.326852   -0.447835
  C      8.661222   -3.753311   -1.609265
  S     10.097266   -3.899197   -2.623229
  C      9.911142   -5.617123   -2.670699
  C      8.803406   -6.055134   -1.939849
  C      8.096842   -5.002729   -1.336801
  C     10.543635   -6.744925   -3.276611
  C      9.839094   -7.916476   -2.918043
  C      8.644547   -7.568648   -2.027871
  S     11.869961   -7.056389   -4.307506
  C     11.519542   -8.805164   -4.275221
  C     10.399582   -9.072557   -3.458777
  C     12.363369   -9.599472   -5.086920
  C     12.435463  -10.957993   -5.344093
  C     13.374676  -11.585571   -6.280569
  C     13.164820  -13.053097   -6.206147
  C     12.139201  -13.314614   -5.278812
  C     11.626290  -12.038188   -4.718000
  C     13.788541  -14.124014   -6.861895
  C     13.366288  -15.414549   -6.555202
  C     12.341512  -15.658092   -5.621190
  C     11.711456  -14.601432   -4.972003
  F     11.985691  -16.915171   -5.371165
  F     13.944080  -16.454499   -7.152032
  O     10.721994  -11.950066   -3.903507
  C     14.297139  -10.974310   -7.115203
  C     15.153934  -11.712295   -7.990596
  C     14.489241   -9.560050   -7.202911
  C      8.735261   -8.217339   -0.625162
  C      7.289795   -7.890834   -2.723411
  C      7.049894   -9.356598   -3.077885
  C     10.058177   -7.974879    0.100383
  C      9.228547    1.897307   -0.120906
  C      8.092131    1.864007   -2.407628
  C      8.038181    3.375199   -2.620371
  C      9.310856    1.399974    1.319570
  O      1.887761    1.239576    1.482317
  F     -3.299513    4.928313    2.452374
  F     -3.276714    2.247941    2.521534
  C      1.936464    6.121152    1.248626
  C      1.014468    7.204275    1.392454
  C      3.266932    6.540373    0.933565
  N      4.345568    6.890610    0.675956
  N      0.280112    8.098861    1.500663
  N     15.854436  -12.297535   -8.710159
  N     14.669098   -8.414555   -7.290633
  H     -1.079425    6.116495    1.930875
  H     -0.939683    1.096840    2.087501
  H      4.197846    4.533079    0.694908
  H      6.260544    3.855279   -0.056415
  H      9.744908   -1.080841   -1.867281
  H      7.198576   -5.120036   -0.729520
  H     10.059819  -10.095088   -3.308692
  H     13.096825   -8.995592   -5.620314
  H     14.586663  -14.007654   -7.591715
  H     10.913348  -14.780895   -4.249651
  H      8.560436   -9.300166   -0.727785
  H      7.896557   -7.826532   -0.023481
  H      7.230146   -7.280758   -3.639006
  H      6.485175   -7.527858   -2.060545
  H      7.799865   -9.729211   -3.789807
  H      6.063267   -9.474852   -3.552820
  H      7.070858  -10.011487   -2.194055
  H     10.905453   -8.382988   -0.471453
  H     10.054803   -8.464124    1.085423
  H     10.245842   -6.900982    0.257205
  H      9.192439    2.998106   -0.128732
  H     10.144607    1.616764   -0.670084
  H      7.270631    1.386203   -2.965083
  H      9.026204    1.465110   -2.838680
  H      7.064158    3.793403   -2.325464
  H      8.187251    3.613382   -3.684818
  H      8.817126    3.909224   -2.057763
  H      8.397127    1.651465    1.881203
  H     10.158790    1.866860    1.842735
  H      9.445414    0.308043    1.366493

 Multiplicity           Mult            ....    1
 Number of Electrons    NEL             ....  486
 Basis Dimension        Dim             .... 1090

ORBITAL ENERGIES
----------------

  NO   OCC          E(Eh)            E(eV)
   0   2.0000     -88.914777     -2419.4941
   1   2.0000     -88.913582     -2419.4616
   2   2.0000     -88.909061     -2419.3385
   3   2.0000     -88.906395     -2419.2660
   4   2.0000     -24.731157      -672.9690
   5   2.0000     -24.730736      -672.9575
   6   2.0000     -24.728959      -672.9092
   7   2.0000     -24.728224      -672.8892
   8   2.0000     -19.148172      -521.0483
   9   2.0000     -19.147253      -521.0232
  10   2.0000     -14.348798      -390.4506
  11   2.0000     -14.347671      -390.4200
  12   2.0000     -14.344426      -390.3317
  13   2.0000     -14.343914      -390.3177
  14   2.0000     -10.311966      -280.6029
  15   2.0000     -10.311703      -280.5957
  16   2.0000     -10.311121      -280.5799
  17   2.0000     -10.310752      -280.5698
  18   2.0000     -10.296166      -280.1729
  19   2.0000     -10.294482      -280.1271
  20   2.0000     -10.274229      -279.5760
  21   2.0000     -10.274187      -279.5748
  22   2.0000     -10.270541      -279.4756
  23   2.0000     -10.270326      -279.4698
  24   2.0000     -10.266478      -279.3651
  25   2.0000     -10.266043      -279.3532
  26   2.0000     -10.261468      -279.2287
  27   2.0000     -10.255061      -279.0544
  28   2.0000     -10.254401      -279.0364
  29   2.0000     -10.253132      -279.0019
  30   2.0000     -10.252939      -278.9967
  31   2.0000     -10.252680      -278.9896
  32   2.0000     -10.252654      -278.9889
  33   2.0000     -10.251401      -278.9548
  34   2.0000     -10.248149      -278.8663
  35   2.0000     -10.248093      -278.8648
  36   2.0000     -10.247940      -278.8606
  37   2.0000     -10.247016      -278.8355
  38   2.0000     -10.244463      -278.7660
  39   2.0000     -10.243879      -278.7501
  40   2.0000     -10.242571      -278.7145
  41   2.0000     -10.240918      -278.6696
  42   2.0000     -10.236210      -278.5414
  43   2.0000     -10.235517      -278.5226
  44   2.0000     -10.234846      -278.5043
  45   2.0000     -10.234224      -278.4874
  46   2.0000     -10.233994      -278.4811
  47   2.0000     -10.233961      -278.4802
  48   2.0000     -10.233580      -278.4699
  49   2.0000     -10.231347      -278.4091
  50   2.0000     -10.231186      -278.4047
  51   2.0000     -10.229837      -278.3680
  52   2.0000     -10.228396      -278.3288
  53   2.0000     -10.227792      -278.3124
  54   2.0000     -10.227525      -278.3051
  55   2.0000     -10.226492      -278.2770
  56   2.0000     -10.225569      -278.2519
  57   2.0000     -10.225443      -278.2484
  58   2.0000     -10.215317      -277.9729
  59   2.0000     -10.214530      -277.9515
  60   2.0000     -10.214273      -277.9445
  61   2.0000     -10.213591      -277.9259
  62   2.0000     -10.200079      -277.5583
  63   2.0000     -10.197663      -277.4925
  64   2.0000     -10.197165      -277.4790
  65   2.0000     -10.195882      -277.4441
  66   2.0000      -8.008849      -217.9319
  67   2.0000      -8.007791      -217.9031
  68   2.0000      -8.003480      -217.7858
  69   2.0000      -7.999142      -217.6677
  70   2.0000      -5.977127      -162.6459
  71   2.0000      -5.976065      -162.6170
  72   2.0000      -5.973248      -162.5403
  73   2.0000      -5.972143      -162.5103
  74   2.0000      -5.971460      -162.4917
  75   2.0000      -5.969700      -162.4438
  76   2.0000      -5.968664      -162.4156
  77   2.0000      -5.967717      -162.3898
  78   2.0000      -5.967405      -162.3813
  79   2.0000      -5.964673      -162.3070
  80   2.0000      -5.963202      -162.2670
  81   2.0000      -5.960284      -162.1876
  82   2.0000      -1.249886       -34.0111
  83   2.0000      -1.249553       -34.0021
  84   2.0000      -1.234732       -33.5988
  85   2.0000      -1.234521       -33.5930
  86   2.0000      -1.051724       -28.6189
  87   2.0000      -1.051064       -28.6009
  88   2.0000      -0.946881       -25.7659
  89   2.0000      -0.941365       -25.6158
  90   2.0000      -0.931229       -25.3400
  91   2.0000      -0.930977       -25.3332
  92   2.0000      -0.915042       -24.8996
  93   2.0000      -0.914504       -24.8849
  94   2.0000      -0.913372       -24.8541
  95   2.0000      -0.910829       -24.7849
  96   2.0000      -0.910390       -24.7730
  97   2.0000      -0.900024       -24.4909
  98   2.0000      -0.870825       -23.6963
  99   2.0000      -0.868454       -23.6318
 100   2.0000      -0.861564       -23.4443
 101   2.0000      -0.853108       -23.2142
 102   2.0000      -0.822128       -22.3712
 103   2.0000      -0.820240       -22.3199
 104   2.0000      -0.814532       -22.1645
 105   2.0000      -0.810265       -22.0484
 106   2.0000      -0.795407       -21.6441
 107   2.0000      -0.789424       -21.4813
 108   2.0000      -0.788985       -21.4694
 109   2.0000      -0.779970       -21.2241
 110   2.0000      -0.777633       -21.1605
 111   2.0000      -0.769161       -20.9299
 112   2.0000      -0.768308       -20.9067
 113   2.0000      -0.767659       -20.8891
 114   2.0000      -0.766773       -20.8650
 115   2.0000      -0.763713       -20.7817
 116   2.0000      -0.747124       -20.3303
 117   2.0000      -0.730806       -19.8862
 118   2.0000      -0.713093       -19.4043
 119   2.0000      -0.697812       -18.9884
 120   2.0000      -0.694363       -18.8946
 121   2.0000      -0.691531       -18.8175
 122   2.0000      -0.691129       -18.8066
 123   2.0000      -0.683026       -18.5861
 124   2.0000      -0.667065       -18.1518
 125   2.0000      -0.647101       -17.6085
 126   2.0000      -0.633121       -17.2281
 127   2.0000      -0.632549       -17.2125
 128   2.0000      -0.631282       -17.1781
 129   2.0000      -0.630031       -17.1440
 130   2.0000      -0.626939       -17.0599
 131   2.0000      -0.622409       -16.9366
 132   2.0000      -0.618055       -16.8181
 133   2.0000      -0.614281       -16.7154
 134   2.0000      -0.605863       -16.4864
 135   2.0000      -0.594079       -16.1657
 136   2.0000      -0.590358       -16.0645
 137   2.0000      -0.580314       -15.7911
 138   2.0000      -0.574904       -15.6439
 139   2.0000      -0.573033       -15.5930
 140   2.0000      -0.571177       -15.5425
 141   2.0000      -0.569455       -15.4957
 142   2.0000      -0.567707       -15.4481
 143   2.0000      -0.564589       -15.3632
 144   2.0000      -0.558965       -15.2102
 145   2.0000      -0.552703       -15.0398
 146   2.0000      -0.544313       -14.8115
 147   2.0000      -0.540966       -14.7204
 148   2.0000      -0.529602       -14.4112
 149   2.0000      -0.522515       -14.2184
 150   2.0000      -0.520627       -14.1670
 151   2.0000      -0.518088       -14.0979
 152   2.0000      -0.517753       -14.0888
 153   2.0000      -0.517258       -14.0753
 154   2.0000      -0.505862       -13.7652
 155   2.0000      -0.499656       -13.5963
 156   2.0000      -0.497464       -13.5367
 157   2.0000      -0.486499       -13.2383
 158   2.0000      -0.485514       -13.2115
 159   2.0000      -0.484494       -13.1837
 160   2.0000      -0.481389       -13.0993
 161   2.0000      -0.481151       -13.0928
 162   2.0000      -0.480946       -13.0872
 163   2.0000      -0.480613       -13.0782
 164   2.0000      -0.477725       -12.9996
 165   2.0000      -0.472448       -12.8560
 166   2.0000      -0.471025       -12.8172
 167   2.0000      -0.466917       -12.7055
 168   2.0000      -0.466025       -12.6812
 169   2.0000      -0.461840       -12.5673
 170   2.0000      -0.461171       -12.5491
 171   2.0000      -0.460543       -12.5320
 172   2.0000      -0.458142       -12.4667
 173   2.0000      -0.456797       -12.4301
 174   2.0000      -0.454496       -12.3675
 175   2.0000      -0.447286       -12.1713
 176   2.0000      -0.445548       -12.1240
 177   2.0000      -0.444787       -12.1033
 178   2.0000      -0.442676       -12.0458
 179   2.0000      -0.431972       -11.7546
 180   2.0000      -0.430538       -11.7155
 181   2.0000      -0.428474       -11.6594
 182   2.0000      -0.428396       -11.6573
 183   2.0000      -0.425379       -11.5751
 184   2.0000      -0.424841       -11.5605
 185   2.0000      -0.423194       -11.5157
 186   2.0000      -0.422375       -11.4934
 187   2.0000      -0.422332       -11.4922
 188   2.0000      -0.420101       -11.4315
 189   2.0000      -0.417849       -11.3702
 190   2.0000      -0.416807       -11.3419
 191   2.0000      -0.412672       -11.2294
 192   2.0000      -0.410078       -11.1588
 193   2.0000      -0.406243       -11.0544
 194   2.0000      -0.403379       -10.9765
 195   2.0000      -0.398972       -10.8566
 196   2.0000      -0.397329       -10.8119
 197   2.0000      -0.394009       -10.7215
 198   2.0000      -0.390290       -10.6203
 199   2.0000      -0.389992       -10.6122
 200   2.0000      -0.387831       -10.5534
 201   2.0000      -0.386050       -10.5049
 202   2.0000      -0.385130       -10.4799
 203   2.0000      -0.384663       -10.4672
 204   2.0000      -0.384247       -10.4559
 205   2.0000      -0.382699       -10.4138
 206   2.0000      -0.381822       -10.3899
 207   2.0000      -0.379183       -10.3181
 208   2.0000      -0.377739       -10.2788
 209   2.0000      -0.375306       -10.2126
 210   2.0000      -0.373326       -10.1587
 211   2.0000      -0.368959       -10.0399
 212   2.0000      -0.367692       -10.0054
 213   2.0000      -0.363225        -9.8839
 214   2.0000      -0.361953        -9.8492
 215   2.0000      -0.361100        -9.8260
 216   2.0000      -0.357290        -9.7224
 217   2.0000      -0.357030        -9.7153
 218   2.0000      -0.356748        -9.7076
 219   2.0000      -0.353384        -9.6161
 220   2.0000      -0.352604        -9.5948
 221   2.0000      -0.349534        -9.5113
 222   2.0000      -0.348988        -9.4965
 223   2.0000      -0.346016        -9.4156
 224   2.0000      -0.345246        -9.3946
 225   2.0000      -0.343750        -9.3539
 226   2.0000      -0.343103        -9.3363
 227   2.0000      -0.335749        -9.1362
 228   2.0000      -0.321301        -8.7431
 229   2.0000      -0.301622        -8.2076
 230   2.0000      -0.295264        -8.0345
 231   2.0000      -0.294274        -8.0076
 232   2.0000      -0.291198        -7.9239
 233   2.0000      -0.287687        -7.8284
 234   2.0000      -0.285467        -7.7680
 235   2.0000      -0.283969        -7.7272
 236   2.0000      -0.279604        -7.6084
 237   2.0000      -0.278868        -7.5884
 238   2.0000      -0.272700        -7.4205
 239   2.0000      -0.265552        -7.2260
 240   2.0000      -0.261307        -7.1105
 241   2.0000      -0.236999        -6.4491
 242   2.0000      -0.209642        -5.7047
 243   0.0000      -0.139241        -3.7889
 244   0.0000      -0.124611        -3.3908
 245   0.0000      -0.110409        -3.0044
 246   0.0000      -0.105968        -2.8835
 247   0.0000      -0.084250        -2.2925

MULLIKEN ATOMIC CHARGES
-----------------------
   0 C :   -0.103828
   1 C :    0.238351
   2 C :    0.240897
   3 C :   -0.112059
   4 C :   -0.004023
   5 C :    0.055502
   6 C :    0.143530
   7 C :   -0.064258
   8 C :    0.272140
   9 C :   -0.038052
  10 C :   -0.054640
  11 C :   -0.070234
  12 C :    0.048066
  13 C :   -0.063059
  14 S :    0.213419
  15 C :   -0.090889
  16 C :    0.020740
  17 C :   -0.078176
  18 C :   -0.041564
  19 C :   -0.060747
  20 S :    0.152540
  21 C :   -0.052425
  22 S :    0.155748
  23 C :   -0.076751
  24 C :    0.028569
  25 C :   -0.055930
  26 C :   -0.055552
  27 C :    0.008297
  28 C :   -0.101749
  29 S :    0.164013
  30 C :   -0.117439
  31 C :   -0.020676
  32 C :    0.041687
  33 C :   -0.074511
  34 C :    0.261489
  35 C :    0.050118
  36 C :    0.000991
  37 C :    0.153225
  38 C :   -0.093774
  39 C :    0.242249
  40 C :    0.239499
  41 C :   -0.111820
  42 F :   -0.166238
  43 F :   -0.164508
  44 O :   -0.185704
  45 C :   -0.329259
  46 C :   -0.135279
  47 C :   -0.136600
  48 C :    0.045454
  49 C :    0.071055
  50 C :    0.021123
  51 C :    0.025491
  52 C :    0.045585
  53 C :    0.067403
  54 C :    0.026853
  55 C :    0.018667
  56 O :   -0.186952
  57 F :   -0.163306
  58 F :   -0.166057
  59 C :   -0.321584
  60 C :   -0.141679
  61 C :   -0.137691
  62 N :    0.084504
  63 N :    0.101664
  64 N :    0.099532
  65 N :    0.090428
  66 H :    0.017066
  67 H :    0.010695
  68 H :    0.002031
  69 H :    0.013413
  70 H :   -0.008104
  71 H :   -0.002991
  72 H :    0.018942
  73 H :   -0.002590
  74 H :    0.014565
  75 H :    0.008036
  76 H :    0.018814
  77 H :    0.001150
  78 H :    0.006467
  79 H :   -0.000403
  80 H :    0.028329
  81 H :    0.014921
  82 H :    0.014390
  83 H :    0.022994
  84 H :    0.014305
  85 H :    0.020088
  86 H :    0.019951
  87 H :   -0.001919
  88 H :    0.009303
  89 H :   -0.001615
  90 H :    0.016653
  91 H :    0.018669
  92 H :    0.013667
  93 H :    0.022622
  94 H :    0.016069
  95 H :    0.022665
Sum of atomic charges:   -0.0000000

LOEWDIN ATOMIC CHARGES
----------------------
   0 C :   -0.024294
   1 C :    0.069703
   2 C :    0.066350
   3 C :   -0.012904
   4 C :   -0.042911
   5 C :   -0.009963
   6 C :    0.075424
   7 C :   -0.104936
   8 C :    0.067221
   9 C :    0.034232
  10 C :   -0.169409
  11 C :   -0.015989
  12 C :   -0.038019
  13 C :   -0.170146
  14 S :    0.489991
  15 C :   -0.025774
  16 C :   -0.013825
  17 C :   -0.194422
  18 C :   -0.056700
  19 C :   -0.166800
  20 S :    0.443692
  21 C :   -0.166566
  22 S :    0.441234
  23 C :   -0.195741
  24 C :   -0.012519
  25 C :   -0.059050
  26 C :   -0.168149
  27 C :   -0.032414
  28 C :   -0.027288
  29 S :    0.460062
  30 C :   -0.161680
  31 C :   -0.015019
  32 C :    0.025847
  33 C :   -0.098331
  34 C :    0.066635
  35 C :   -0.010908
  36 C :   -0.042623
  37 C :    0.082255
  38 C :   -0.023631
  39 C :    0.069863
  40 C :    0.066511
  41 C :   -0.013173
  42 F :   -0.037356
  43 F :   -0.036788
  44 O :   -0.156368
  45 C :   -0.138738
  46 C :   -0.012572
  47 C :   -0.014807
  48 C :   -0.013211
  49 C :   -0.008085
  50 C :   -0.055883
  51 C :   -0.054683
  52 C :   -0.014252
  53 C :   -0.008232
  54 C :   -0.054860
  55 C :   -0.055915
  56 O :   -0.167443
  57 F :   -0.036654
  58 F :   -0.037423
  59 C :   -0.139465
  60 C :   -0.014244
  61 C :   -0.010723
  62 N :   -0.068909
  63 N :   -0.062107
  64 N :   -0.062102
  65 N :   -0.063376
  66 H :    0.050591
  67 H :    0.050872
  68 H :    0.048858
  69 H :    0.039972
  70 H :    0.030929
  71 H :    0.030835
  72 H :    0.036209
  73 H :    0.039778
  74 H :    0.050104
  75 H :    0.049960
  76 H :    0.025598
  77 H :    0.022408
  78 H :    0.026998
  79 H :    0.021254
  80 H :    0.027915
  81 H :    0.030372
  82 H :    0.023127
  83 H :    0.026327
  84 H :    0.028084
  85 H :    0.024118
  86 H :    0.025110
  87 H :    0.022130
  88 H :    0.027444
  89 H :    0.021009
  90 H :    0.024486
  91 H :    0.031602
  92 H :    0.022913
  93 H :    0.026222
  94 H :    0.028389
  95 H :    0.024743

  Mayer bond orders larger than 0.100000
B(  0-C ,  1-C ) :   1.3321 B(  0-C ,  3-C ) :   0.1034 B(  0-C ,  5-C ) :   1.2921
B(  0-C , 66-H ) :   0.9894 B(  1-C ,  2-C ) :   1.2689 B(  1-C , 57-F ) :   1.1348
B(  2-C ,  3-C ) :   1.3054 B(  2-C , 58-F ) :   1.1222 B(  3-C ,  4-C ) :   1.3048
B(  3-C , 67-H ) :   1.0146 B(  4-C ,  5-C ) :   1.3341 B(  4-C ,  6-C ) :   0.9627
B(  5-C ,  8-C ) :   1.0087 B(  6-C ,  7-C ) :   0.9823 B(  6-C , 56-O ) :   2.1305
B(  7-C ,  8-C ) :   1.1203 B(  7-C ,  9-C ) :   1.4230 B(  8-C , 59-C ) :   1.5603
B(  9-C , 10-C ) :   1.3207 B(  9-C , 68-H ) :   0.9274 B( 10-C , 11-C ) :   1.2779
B( 10-C , 14-S ) :   1.0634 B( 11-C , 12-C ) :   1.3659 B( 11-C , 69-H ) :   1.0072
B( 12-C , 13-C ) :   1.3917 B( 12-C , 15-C ) :   0.9225 B( 13-C , 14-S ) :   1.0894
B( 13-C , 17-C ) :   1.2253 B( 15-C , 16-C ) :   0.9319 B( 15-C , 52-C ) :   1.0178
B( 15-C , 53-C ) :   1.0162 B( 16-C , 17-C ) :   1.4630 B( 16-C , 18-C ) :   1.3333
B( 17-C , 20-S ) :   1.0727 B( 18-C , 19-C ) :   1.4040 B( 18-C , 70-H ) :   0.9867
B( 19-C , 20-S ) :   1.1121 B( 19-C , 21-C ) :   1.1946 B( 21-C , 22-S ) :   1.1109
B( 21-C , 25-C ) :   1.4008 B( 22-S , 23-C ) :   1.0699 B( 23-C , 24-C ) :   1.4661
B( 23-C , 26-C ) :   1.2129 B( 24-C , 25-C ) :   1.3295 B( 24-C , 28-C ) :   0.9357
B( 25-C , 71-H ) :   0.9893 B( 26-C , 27-C ) :   1.4031 B( 26-C , 29-S ) :   1.1299
B( 27-C , 28-C ) :   0.9296 B( 27-C , 31-C ) :   1.3476 B( 28-C , 48-C ) :   1.0176
B( 28-C , 49-C ) :   1.0173 B( 29-S , 30-C ) :   1.0685 B( 30-C , 31-C ) :   1.3332
B( 30-C , 32-C ) :   1.2847 B( 31-C , 72-H ) :   0.9740 B( 32-C , 33-C ) :   1.4991
B( 32-C , 73-H ) :   0.8971 B( 33-C , 34-C ) :   1.1182 B( 33-C , 37-C ) :   0.9625
B( 34-C , 35-C ) :   1.0098 B( 34-C , 45-C ) :   1.5624 B( 35-C , 36-C ) :   1.3395
B( 35-C , 38-C ) :   1.2881 B( 36-C , 37-C ) :   0.9697 B( 36-C , 41-C ) :   1.3017
B( 37-C , 44-O ) :   2.1012 B( 38-C , 39-C ) :   1.3318 B( 38-C , 41-C ) :   0.1034
B( 38-C , 74-H ) :   0.9887 B( 39-C , 40-C ) :   1.2663 B( 39-C , 43-F ) :   1.1333
B( 40-C , 41-C ) :   1.3041 B( 40-C , 42-F ) :   1.1208 B( 41-C , 75-H ) :   1.0161
B( 45-C , 46-C ) :   1.1452 B( 45-C , 47-C ) :   1.1504 B( 46-C , 64-N ) :   2.9270
B( 47-C , 65-N ) :   2.9060 B( 48-C , 51-C ) :   1.1096 B( 48-C , 76-H ) :   0.9361
B( 48-C , 77-H ) :   0.9372 B( 49-C , 50-C ) :   1.1168 B( 49-C , 78-H ) :   0.9353
B( 49-C , 79-H ) :   0.9341 B( 50-C , 80-H ) :   0.9610 B( 50-C , 81-H ) :   0.9557
B( 50-C , 82-H ) :   0.9607 B( 51-C , 83-H ) :   0.9608 B( 51-C , 84-H ) :   0.9602
B( 51-C , 85-H ) :   0.9657 B( 52-C , 55-C ) :   1.1060 B( 52-C , 86-H ) :   0.9384
B( 52-C , 87-H ) :   0.9368 B( 53-C , 54-C ) :   1.1159 B( 53-C , 88-H ) :   0.9372
B( 53-C , 89-H ) :   0.9332 B( 54-C , 90-H ) :   0.9625 B( 54-C , 91-H ) :   0.9575
B( 54-C , 92-H ) :   0.9616 B( 55-C , 93-H ) :   0.9645 B( 55-C , 94-H ) :   0.9615
B( 55-C , 95-H ) :   0.9635 B( 59-C , 60-C ) :   1.1441 B( 59-C , 61-C ) :   1.1520
B( 60-C , 63-N ) :   2.9329 B( 61-C , 62-N ) :   2.9131

Dispersion correction           -0.275832795
FINAL SINGLE POINT ENERGY     -4358.862569098334

DIPOLE MOMENT
-------------
                                X             Y             Z
Electronic contribution:    -27.28973     -21.20317     -11.26847
Nuclear contribution   :     26.90996      20.13230      12.66124
                        -----------------------------------------
Total Dipole Moment    :     -0.37977      -1.07087       1.39277
                        -----------------------------------------
Magnitude (a.u.)       :      1.79744
Magnitude (Debye)      :      4.56872

Rotational constants in cm-1:     0.002686     0.000227     0.000214
Rotational constants in MHz :    80.525227     6.810972     6.423055

                             ****ORCA TERMINATED NORMALLY****
TOTAL RUN TIME: 0 days 14 hours 54 minutes 35 seconds 596 msec
