                         Program Version 4.2.0 -  RELEASE  -
|  1> # ORCA input file
|  2> # SCF done       -180.280617834711          0.000897481892
|  3> ! B3LYP/G D3BJ Opt RIJCOSX def2-SVP def2/J
|  4> * xyz 0 1
|  5>    C       -5.56249         0.76389        -1.29998
|  6>    O       -6.65600         0.75873        -1.81845
|  7>    C       -4.64148         1.90694        -1.12495
|  8>    C       -4.77459         3.20816        -1.56857
|  9>    C       -3.74879         4.10281        -1.29612
| 10>    C       -2.61970         3.69283        -0.60133
| 11>    C       -2.48402         2.38825        -0.14482
| 12>    C       -3.50566         1.49043        -0.40540
| 13>    C       -3.68186         0.09032        -0.02522
| 14>    C       -3.07092        -0.52512         1.03592
| 15>    C       -3.50674        -1.75807         1.56420
| 16>    N       -3.86836        -2.73292         2.05093
| 17>    C       -2.01414         0.04358         1.77331
| 18>    N       -1.13840         0.45243         2.39295
| 19>    C       -4.82901        -0.40777        -0.75177
| 20>    C        5.54010       -17.04120        -0.42773
| 21>    O        4.32673       -17.00041        -0.36031
| 22>    C        6.35683       -18.26331        -0.29685
| 23>    C        5.93047       -19.55768        -0.07309
| 24>    C        6.88896       -20.55668         0.01699
| 25>    C        8.23570       -20.25018        -0.11396
| 26>    C        8.66670       -18.94934        -0.33953
| 27>    C        7.71694       -17.94367        -0.43363
| 28>    C        7.83793       -16.50516        -0.66768
| 29>    C        9.02149       -15.85396        -0.90307
| 30>    C        9.19291       -14.48078        -1.17986
| 31>    N        9.44197       -13.38602        -1.42456
| 32>    C       10.28384       -16.48543        -0.91946
| 33>    N       11.34657       -16.91960        -0.94662
| 34>    C        6.50029       -15.93598        -0.63620
| 35>    C       -1.84615        -5.70385        -0.97815
| 36>    C       -2.57082        -6.91703        -0.87603
| 37>    C       -1.88132        -8.10877        -0.82886
| 38>    C       -0.48963        -8.06582        -0.85470
| 39>    C        0.22131        -6.85292        -0.92799
| 40>    C       -0.45600        -5.65750        -1.01606
| 41>    C        1.70991        -7.10888        -0.91947
| 42>    C        2.40748        -6.51085        -2.15070
| 43>    C        1.85960        -7.07261        -3.45776
| 44>    C        2.37081        -6.63496         0.39717
| 45>    C        2.27943        -5.14354         0.69043
| 46>    C        1.75682        -8.62104        -0.91938
| 47>    C        0.45863        -9.15854        -0.84807
| 48>    C        0.23490       -10.53193        -0.79427
| 49>    C        1.33014       -11.36587        -0.83137
| 50>    C        2.63289       -10.81501        -0.87623
| 51>    C        2.86031        -9.44268        -0.92370
| 52>    C       -5.24016        -1.67029        -1.05419
| 53>    C        6.25309       -14.58981        -0.73738
| 54>    C        3.54995       -11.90705        -0.82794
| 55>    C        2.86935       -13.12148        -0.75217
| 56>    C        1.37958       -12.88545        -0.77787
| 57>    S        5.24387       -12.09417        -0.83878
| 58>    C        5.05962       -13.85099        -0.75165
| 59>    C        3.71540       -14.21559        -0.72672
| 60>    C       -4.06948        -6.65540        -0.86189
| 61>    C       -4.09204        -5.14828        -0.95656
| 62>    C       -2.80201        -4.64499        -1.01395
| 63>    C       -5.06132        -4.15667        -0.98290
| 64>    C       -4.51385        -2.88024        -1.00822
| 65>    S       -2.75767        -2.93620        -1.07186
| 66>    C        0.82847       -13.53803        -2.06415
| 67>    C        0.68762       -13.36612         0.51245
| 68>    C       -4.77254        -7.05305         0.45923
| 69>    C       -4.77692        -7.19915        -2.12395
| 70>    C       -4.30314        -8.33593         1.13422
| 71>    C       -4.93106        -8.70945        -2.23395
| 72>    C       -0.66118       -13.34985        -2.31824
| 73>    C        0.68304       -14.87459         0.72298
| 74>    H       -5.65882         3.50817        -2.10959
| 75>    H       -3.82778         5.12680        -1.62903
| 76>    H       -1.82826         4.40147        -0.40827
| 77>    H       -1.59580         2.08871         0.38829
| 78>    H        4.87694       -19.76993         0.02605
| 79>    H        6.58722       -21.57875         0.19005
| 80>    H        8.96980       -21.03845        -0.03939
| 81>    H        9.72012       -18.74471        -0.43422
| 82>    H       -2.38392        -9.05959        -0.76747
| 83>    H        0.04783        -4.70925        -1.12000
| 84>    H        3.47712        -6.71960        -2.08513
| 85>    H        2.27439        -5.42855        -2.14611
| 86>    H        2.00251        -8.14995        -3.50477
| 87>    H        2.37225        -6.62077        -4.30365
| 88>    H        0.79559        -6.86412        -3.54863
| 89>    H        3.42271        -6.92671         0.36046
| 90>    H        1.90564        -7.18281         1.22112
| 91>    H        2.70608        -4.55223        -0.11538
| 92>    H        2.83601        -4.92342         1.59880
| 93>    H        1.24854        -4.83863         0.84780
| 94>    H       -0.76973       -10.91606        -0.71333
| 95>    H        3.86834        -9.05813        -0.95889
| 96>    H       -6.24716        -1.74460        -1.45492
| 97>    H        7.13150       -13.95995        -0.81437
| 98>    H        3.41569       -15.24610        -0.69564
| 99>    H       -6.12326        -4.31986        -0.94209
|100>    H        1.05590       -14.60404        -2.01837
|101>    H        1.38426       -13.12241        -2.90927
|102>    H       -0.34027       -12.99974         0.50854
|103>    H        1.19745       -12.89000         1.35452
|104>    H       -5.84392        -7.11837         0.25793
|105>    H       -4.62408        -6.23598         1.16985
|106>    H       -4.22166        -6.83721        -2.99404
|107>    H       -5.77094        -6.74623        -2.15861
|108>    H       -4.42233        -9.20384         0.49303
|109>    H       -4.89565        -8.49678         2.03272
|110>    H       -3.25984        -8.25731         1.42873
|111>    H       -3.96506        -9.20457        -2.25381
|112>    H       -5.44657        -8.94644        -3.16273
|113>    H       -5.52220        -9.10566        -1.41346
|114>    H       -1.25592       -13.71379        -1.48483
|115>    H       -0.94675       -13.91026        -3.20599
|116>    H       -0.89717       -12.30376        -2.49291
|117>    H        0.19354       -15.10375         1.66728
|118>    H        1.69379       -15.26895         0.76361
|119>    H        0.14112       -15.38413        -0.06887
|120> *
|121>
|122>                          ****END OF INPUT****
 Total Charge           Charge          ....    0
 Multiplicity           Mult            ....    1
 Number of Electrons    NEL             ....  488
Dispersion correction           -0.326490708
FINAL SINGLE POINT ENERGY     -3516.080644353108
Dispersion correction            ... done
Dispersion correction           -0.322007700
FINAL SINGLE POINT ENERGY     -3516.098103942867
Dispersion correction            ... done
Dispersion correction           -0.322239323
FINAL SINGLE POINT ENERGY     -3516.096224778319
Dispersion correction            ... done
FINAL SINGLE POINT ENERGY     -3516.098987612702
FINAL SINGLE POINT ENERGY     -3516.098624883834
FINAL SINGLE POINT ENERGY     -3516.099278691209
FINAL SINGLE POINT ENERGY     -3516.099300105152
FINAL SINGLE POINT ENERGY     -3516.099259209798
FINAL SINGLE POINT ENERGY     -3516.099391508854
FINAL SINGLE POINT ENERGY     -3516.099303979820
FINAL SINGLE POINT ENERGY     -3516.098909485641
FINAL SINGLE POINT ENERGY     -3516.098913588766
FINAL SINGLE POINT ENERGY     -3516.098866607944
FINAL SINGLE POINT ENERGY     -3516.098830454089
FINAL SINGLE POINT ENERGY     -3516.098822756013
FINAL SINGLE POINT ENERGY     -3516.098839740660
FINAL SINGLE POINT ENERGY     -3516.098879433262
Dispersion correction            ... done
Dispersion correction           -0.320000385
FINAL SINGLE POINT ENERGY     -3516.098868217578
Dispersion correction            ... done
Dispersion correction           -0.320009770
FINAL SINGLE POINT ENERGY     -3516.098846787067
Dispersion correction            ... done
                    ***********************HURRAY********************

CARTESIAN COORDINATES (ANGSTROEM)
---------------------------------
  C     -6.018832    0.632686   -1.118428
  O     -7.141911    0.327332   -1.464601
  C     -5.395583    1.980023   -1.163206
  C     -5.941604    3.161192   -1.649703
  C     -5.156855    4.317784   -1.607751
  C     -3.857160    4.267006   -1.084881
  C     -3.311607    3.077696   -0.584781
  C     -4.092609    1.916184   -0.622853
  C     -3.853487    0.534634   -0.124811
  C     -2.915081    0.183357    0.831009
  C     -3.004026   -1.032158    1.576722
  N     -3.091284   -1.991067    2.227560
  C     -1.883127    1.075711    1.257981
  N     -1.032278    1.791189    1.597438
  C     -4.949448   -0.291740   -0.608087
  C      5.493777  -17.254251   -0.552501
  O      4.279367  -17.138843   -0.516390
  C      6.205141  -18.552579   -0.497445
  C      5.639686  -19.817802   -0.398114
  C      6.497699  -20.920359   -0.371342
  C      7.885038  -20.730660   -0.438702
  C      8.449194  -19.452847   -0.539089
  C      7.594067  -18.342886   -0.573883
  C      7.846478  -16.883892   -0.699157
  C      9.103759  -16.325355   -0.862454
  C      9.347617  -14.927724   -1.041536
  N      9.579629  -13.798600   -1.193508
  C     10.303666  -17.103917   -0.895734
  N     11.295934  -17.708487   -0.927277
  C      6.545163  -16.200290   -0.654511
  C     -1.633128   -5.638176   -0.928064
  C     -2.366430   -6.864905   -0.897047
  C     -1.676345   -8.069825   -0.882948
  C     -0.273865   -8.039409   -0.852832
  C      0.450310   -6.822823   -0.840874
  C     -0.228629   -5.610341   -0.910893
  C      1.949871   -7.097884   -0.712947
  C      2.794000   -6.426645   -1.816459
  C      2.428642   -6.825854   -3.245065
  C      2.465355   -6.697297    0.706124
  C      2.410814   -5.217968    1.076821
  C      1.984344   -8.625171   -0.788557
  C      0.670683   -9.148978   -0.823240
  C      0.426883  -10.530062   -0.814965
  C      1.515599  -11.390400   -0.797670
  C      2.840948  -10.861570   -0.763607
  C      3.082091   -9.477048   -0.756726
  C     -5.162379   -1.636400   -0.784965
  C      6.359959  -14.827553   -0.678081
  C      3.737035  -11.996339   -0.708720
  C      3.013020  -13.194040   -0.684471
  C      1.520468  -12.922469   -0.754963
  S      5.433077  -12.254570   -0.694976
  C      5.192436  -14.022416   -0.667890
  C      3.820307  -14.330812   -0.669385
  C     -3.880538   -6.608677   -0.867385
  C     -3.901501   -5.089474   -0.901030
  C     -2.608630   -4.569407   -0.930993
  C     -4.885549   -4.100309   -0.856020
  C     -4.351976   -2.801096   -0.808999
  S     -2.584675   -2.849209   -0.892157
  C      0.974291  -13.563845   -2.062725
  C      0.774618  -13.403129    0.519880
  C     -4.542064   -7.045000    0.477764
  C     -4.615375   -7.124236   -2.139250
  C     -4.304009   -8.463623    0.997405
  C     -4.830126   -8.626112   -2.312723
  C     -0.514556  -13.390581   -2.349057
  C      0.699542  -14.913843    0.719758
  H     -6.956298    3.163819   -2.052114
  H     -5.554351    5.261381   -1.988261
  H     -3.251754    5.175968   -1.061318
  H     -2.300811    3.075647   -0.182727
  H      4.553685  -19.922483   -0.344981
  H      6.088992  -21.930705   -0.295063
  H      8.547152  -21.598802   -0.413642
  H      9.530303  -19.349263   -0.590565
  H     -2.199196   -9.025510   -0.881381
  H      0.301439   -4.657166   -0.942240
  H      3.855191   -6.663327   -1.622040
  H      2.707230   -5.332741   -1.708365
  H      2.574693   -7.904319   -3.412434
  H      3.056083   -6.286748   -3.969942
  H      1.377556   -6.586436   -3.470757
  H      3.506966   -7.053514    0.782309
  H      1.891145   -7.278352    1.445261
  H      2.945661   -4.584200    0.353575
  H      2.887524   -5.061426    2.056769
  H      1.377296   -4.849797    1.154467
  H     -0.595805  -10.908909   -0.809521
  H      4.103905   -9.092605   -0.714253
  H     -6.206657   -1.842341   -1.057814
  H      7.275072  -14.236243   -0.718028
  H      3.491151  -15.366158   -0.667073
  H     -5.962481   -4.275466   -0.831962
  H      1.215125  -14.638492   -2.025293
  H      1.561306  -13.157263   -2.902354
  H     -0.245038  -12.985164    0.498500
  H      1.269163  -12.937408    1.387793
  H     -5.626425   -6.864355    0.372434
  H     -4.198050   -6.338691    1.250215
  H     -4.064133   -6.732106   -3.009941
  H     -5.599985   -6.627580   -2.161381
  H     -4.600186   -9.240418    0.280542
  H     -4.895616   -8.621634    1.912347
  H     -3.248655   -8.626222    1.261407
  H     -3.888211   -9.190998   -2.278766
  H     -5.293751   -8.821238   -3.292752
  H     -5.505163   -9.039719   -1.550944
  H     -1.142801  -13.743290   -1.516744
  H     -0.797940  -13.975693   -3.237286
  H     -0.777372  -12.342012   -2.552445
  H      0.164123  -15.144975    1.653785
  H      1.696210  -15.372830    0.789089
  H      0.157312  -15.413787   -0.096625

 Multiplicity           Mult            ....    1
 Number of Electrons    NEL             ....  488
 Basis Dimension        Dim             .... 1204

ORBITAL ENERGIES
----------------

  NO   OCC          E(Eh)            E(eV)
   0   2.0000     -88.900950     -2419.1178
   1   2.0000     -88.898095     -2419.0401
   2   2.0000     -19.139574      -520.8143
   3   2.0000     -19.136215      -520.7229
   4   2.0000     -14.341252      -390.2453
   5   2.0000     -14.339575      -390.1997
   6   2.0000     -14.337555      -390.1447
   7   2.0000     -14.337427      -390.1412
   8   2.0000     -10.287746      -279.9438
   9   2.0000     -10.283920      -279.8397
  10   2.0000     -10.268608      -279.4230
  11   2.0000     -10.267213      -279.3851
  12   2.0000     -10.263203      -279.2760
  13   2.0000     -10.262468      -279.2560
  14   2.0000     -10.246231      -278.8141
  15   2.0000     -10.244771      -278.7744
  16   2.0000     -10.243537      -278.7408
  17   2.0000     -10.242971      -278.7254
  18   2.0000     -10.242556      -278.7141
  19   2.0000     -10.242364      -278.7089
  20   2.0000     -10.241749      -278.6922
  21   2.0000     -10.241733      -278.6917
  22   2.0000     -10.241195      -278.6771
  23   2.0000     -10.240144      -278.6485
  24   2.0000     -10.231804      -278.4215
  25   2.0000     -10.230154      -278.3767
  26   2.0000     -10.229377      -278.3555
  27   2.0000     -10.226177      -278.2684
  28   2.0000     -10.225800      -278.2582
  29   2.0000     -10.225428      -278.2481
  30   2.0000     -10.225072      -278.2384
  31   2.0000     -10.223679      -278.2004
  32   2.0000     -10.222563      -278.1701
  33   2.0000     -10.220618      -278.1171
  34   2.0000     -10.220101      -278.1031
  35   2.0000     -10.219941      -278.0987
  36   2.0000     -10.219861      -278.0965
  37   2.0000     -10.219228      -278.0793
  38   2.0000     -10.219188      -278.0782
  39   2.0000     -10.219089      -278.0755
  40   2.0000     -10.218595      -278.0621
  41   2.0000     -10.218543      -278.0607
  42   2.0000     -10.218289      -278.0538
  43   2.0000     -10.217023      -278.0193
  44   2.0000     -10.216706      -278.0107
  45   2.0000     -10.216145      -277.9954
  46   2.0000     -10.215316      -277.9729
  47   2.0000     -10.214961      -277.9632
  48   2.0000     -10.214946      -277.9628
  49   2.0000     -10.213720      -277.9295
  50   2.0000     -10.213463      -277.9224
  51   2.0000     -10.213193      -277.9151
  52   2.0000     -10.212940      -277.9082
  53   2.0000     -10.212577      -277.8984
  54   2.0000     -10.212357      -277.8924
  55   2.0000     -10.212267      -277.8899
  56   2.0000     -10.210845      -277.8512
  57   2.0000     -10.207915      -277.7715
  58   2.0000     -10.206377      -277.7296
  59   2.0000     -10.204058      -277.6665
  60   2.0000     -10.203419      -277.6491
  61   2.0000     -10.202767      -277.6314
  62   2.0000     -10.202755      -277.6311
  63   2.0000     -10.196830      -277.4698
  64   2.0000     -10.194624      -277.4098
  65   2.0000     -10.192987      -277.3653
  66   2.0000     -10.189412      -277.2680
  67   2.0000     -10.189240      -277.2633
  68   2.0000     -10.187717      -277.2219
  69   2.0000      -7.994754      -217.5483
  70   2.0000      -7.992326      -217.4822
  71   2.0000      -5.962870      -162.2580
  72   2.0000      -5.960285      -162.1876
  73   2.0000      -5.959048      -162.1539
  74   2.0000      -5.956636      -162.0883
  75   2.0000      -5.955915      -162.0687
  76   2.0000      -5.953557      -162.0045
  77   2.0000      -1.044153       -28.4128
  78   2.0000      -1.041039       -28.3281
  79   2.0000      -0.926828       -25.2203
  80   2.0000      -0.924013       -25.1437
  81   2.0000      -0.922373       -25.0990
  82   2.0000      -0.920902       -25.0590
  83   2.0000      -0.905302       -24.6345
  84   2.0000      -0.904219       -24.6050
  85   2.0000      -0.902614       -24.5614
  86   2.0000      -0.900468       -24.5030
  87   2.0000      -0.899851       -24.4862
  88   2.0000      -0.875663       -23.8280
  89   2.0000      -0.864644       -23.5282
  90   2.0000      -0.853354       -23.2209
  91   2.0000      -0.851932       -23.1822
  92   2.0000      -0.833830       -22.6897
  93   2.0000      -0.821287       -22.3484
  94   2.0000      -0.814619       -22.1669
  95   2.0000      -0.811907       -22.0931
  96   2.0000      -0.806220       -21.9384
  97   2.0000      -0.799242       -21.7485
  98   2.0000      -0.788426       -21.4542
  99   2.0000      -0.771656       -20.9978
 100   2.0000      -0.769707       -20.9448
 101   2.0000      -0.768637       -20.9157
 102   2.0000      -0.763335       -20.7714
 103   2.0000      -0.761675       -20.7262
 104   2.0000      -0.760093       -20.6832
 105   2.0000      -0.758779       -20.6474
 106   2.0000      -0.758541       -20.6409
 107   2.0000      -0.757513       -20.6130
 108   2.0000      -0.755188       -20.5497
 109   2.0000      -0.743599       -20.2344
 110   2.0000      -0.720726       -19.6119
 111   2.0000      -0.712345       -19.3839
 112   2.0000      -0.695879       -18.9358
 113   2.0000      -0.694422       -18.8962
 114   2.0000      -0.680703       -18.5229
 115   2.0000      -0.679162       -18.4809
 116   2.0000      -0.677732       -18.4420
 117   2.0000      -0.669837       -18.2272
 118   2.0000      -0.653016       -17.7695
 119   2.0000      -0.634549       -17.2670
 120   2.0000      -0.632422       -17.2091
 121   2.0000      -0.630822       -17.1655
 122   2.0000      -0.627879       -17.0855
 123   2.0000      -0.621205       -16.9038
 124   2.0000      -0.619756       -16.8644
 125   2.0000      -0.614544       -16.7226
 126   2.0000      -0.609305       -16.5800
 127   2.0000      -0.604960       -16.4618
 128   2.0000      -0.600419       -16.3382
 129   2.0000      -0.597895       -16.2696
 130   2.0000      -0.592692       -16.1280
 131   2.0000      -0.583451       -15.8765
 132   2.0000      -0.574355       -15.6290
 133   2.0000      -0.569995       -15.5104
 134   2.0000      -0.566530       -15.4161
 135   2.0000      -0.564459       -15.3597
 136   2.0000      -0.553454       -15.0602
 137   2.0000      -0.545527       -14.8445
 138   2.0000      -0.541864       -14.7449
 139   2.0000      -0.534889       -14.5551
 140   2.0000      -0.531849       -14.4723
 141   2.0000      -0.529782       -14.4161
 142   2.0000      -0.520095       -14.1525
 143   2.0000      -0.515390       -14.0245
 144   2.0000      -0.506217       -13.7749
 145   2.0000      -0.500192       -13.6109
 146   2.0000      -0.497889       -13.5482
 147   2.0000      -0.493914       -13.4401
 148   2.0000      -0.490890       -13.3578
 149   2.0000      -0.485432       -13.2093
 150   2.0000      -0.478002       -13.0071
 151   2.0000      -0.475897       -12.9498
 152   2.0000      -0.472867       -12.8674
 153   2.0000      -0.471829       -12.8391
 154   2.0000      -0.470768       -12.8103
 155   2.0000      -0.467598       -12.7240
 156   2.0000      -0.466660       -12.6985
 157   2.0000      -0.463558       -12.6141
 158   2.0000      -0.461493       -12.5579
 159   2.0000      -0.458583       -12.4787
 160   2.0000      -0.457754       -12.4561
 161   2.0000      -0.456244       -12.4150
 162   2.0000      -0.454333       -12.3630
 163   2.0000      -0.453329       -12.3357
 164   2.0000      -0.452695       -12.3185
 165   2.0000      -0.450789       -12.2666
 166   2.0000      -0.448336       -12.1998
 167   2.0000      -0.445923       -12.1342
 168   2.0000      -0.440080       -11.9752
 169   2.0000      -0.438422       -11.9301
 170   2.0000      -0.433496       -11.7960
 171   2.0000      -0.432544       -11.7701
 172   2.0000      -0.430464       -11.7135
 173   2.0000      -0.429545       -11.6885
 174   2.0000      -0.425133       -11.5685
 175   2.0000      -0.421509       -11.4698
 176   2.0000      -0.421168       -11.4606
 177   2.0000      -0.419872       -11.4253
 178   2.0000      -0.419562       -11.4169
 179   2.0000      -0.417287       -11.3549
 180   2.0000      -0.415979       -11.3194
 181   2.0000      -0.411903       -11.2084
 182   2.0000      -0.407368       -11.0850
 183   2.0000      -0.406806       -11.0697
 184   2.0000      -0.402896       -10.9634
 185   2.0000      -0.401442       -10.9238
 186   2.0000      -0.397163       -10.8074
 187   2.0000      -0.395786       -10.7699
 188   2.0000      -0.391671       -10.6579
 189   2.0000      -0.389070       -10.5871
 190   2.0000      -0.388741       -10.5782
 191   2.0000      -0.387466       -10.5435
 192   2.0000      -0.387017       -10.5313
 193   2.0000      -0.386333       -10.5127
 194   2.0000      -0.384633       -10.4664
 195   2.0000      -0.382834       -10.4174
 196   2.0000      -0.381433       -10.3793
 197   2.0000      -0.380077       -10.3424
 198   2.0000      -0.378375       -10.2961
 199   2.0000      -0.377823       -10.2811
 200   2.0000      -0.376380       -10.2418
 201   2.0000      -0.375422       -10.2157
 202   2.0000      -0.374842       -10.2000
 203   2.0000      -0.373469       -10.1626
 204   2.0000      -0.371031       -10.0963
 205   2.0000      -0.369731       -10.0609
 206   2.0000      -0.368181       -10.0187
 207   2.0000      -0.367061        -9.9882
 208   2.0000      -0.366152        -9.9635
 209   2.0000      -0.361921        -9.8484
 210   2.0000      -0.357499        -9.7280
 211   2.0000      -0.355168        -9.6646
 212   2.0000      -0.354869        -9.6565
 213   2.0000      -0.351915        -9.5761
 214   2.0000      -0.350320        -9.5327
 215   2.0000      -0.348653        -9.4873
 216   2.0000      -0.347085        -9.4446
 217   2.0000      -0.345472        -9.4008
 218   2.0000      -0.343751        -9.3539
 219   2.0000      -0.340940        -9.2774
 220   2.0000      -0.339696        -9.2436
 221   2.0000      -0.339519        -9.2388
 222   2.0000      -0.338654        -9.2153
 223   2.0000      -0.337755        -9.1908
 224   2.0000      -0.334895        -9.1129
 225   2.0000      -0.332649        -9.0518
 226   2.0000      -0.328819        -8.9476
 227   2.0000      -0.327658        -8.9160
 228   2.0000      -0.325042        -8.8449
 229   2.0000      -0.314635        -8.5616
 230   2.0000      -0.295508        -8.0412
 231   2.0000      -0.283555        -7.7159
 232   2.0000      -0.283092        -7.7033
 233   2.0000      -0.276804        -7.5322
 234   2.0000      -0.275971        -7.5096
 235   2.0000      -0.274408        -7.4670
 236   2.0000      -0.271372        -7.3844
 237   2.0000      -0.270170        -7.3517
 238   2.0000      -0.268329        -7.3016
 239   2.0000      -0.268191        -7.2978
 240   2.0000      -0.260504        -7.0887
 241   2.0000      -0.255162        -6.9433
 242   2.0000      -0.230469        -6.2714
 243   2.0000      -0.209735        -5.7072
 244   0.0000      -0.127759        -3.4765
 245   0.0000      -0.119406        -3.2492
 246   0.0000      -0.101086        -2.7507
 247   0.0000      -0.097287        -2.6473
 248   0.0000      -0.067606        -1.8396

MULLIKEN ATOMIC CHARGES
-----------------------
   0 C :    0.135250
   1 O :   -0.169141
   2 C :    0.003127
   3 C :   -0.016525
   4 C :    0.042125
   5 C :    0.034736
   6 C :   -0.018757
   7 C :    0.019546
   8 C :    0.224523
   9 C :   -0.301602
  10 C :   -0.162866
  11 N :    0.114852
  12 C :   -0.132248
  13 N :    0.091590
  14 C :   -0.114418
  15 C :    0.155223
  16 O :   -0.192403
  17 C :   -0.000122
  18 C :   -0.030362
  19 C :    0.043959
  20 C :    0.041742
  21 C :   -0.035998
  22 C :    0.033812
  23 C :    0.264119
  24 C :   -0.323359
  25 C :   -0.138237
  26 N :    0.088779
  27 C :   -0.138234
  28 N :    0.097367
  29 C :   -0.086139
  30 C :    0.057670
  31 C :    0.041383
  32 C :   -0.114535
  33 C :    0.090916
  34 C :    0.032725
  35 C :   -0.112512
  36 C :   -0.145434
  37 C :    0.024887
  38 C :    0.033806
  39 C :    0.076610
  40 C :    0.032452
  41 C :    0.018712
  42 C :    0.096705
  43 C :   -0.116087
  44 C :    0.046197
  45 C :    0.050513
  46 C :   -0.104249
  47 C :    0.004800
  48 C :    0.046314
  49 C :   -0.043143
  50 C :    0.047236
  51 C :   -0.132597
  52 S :    0.155708
  53 C :   -0.115991
  54 C :   -0.031648
  55 C :   -0.111216
  56 C :    0.051680
  57 C :   -0.047608
  58 C :   -0.047409
  59 C :   -0.043465
  60 S :    0.175187
  61 C :    0.057792
  62 C :    0.063384
  63 C :    0.045225
  64 C :    0.065240
  65 C :    0.033916
  66 C :    0.039588
  67 C :    0.028551
  68 C :    0.026650
  69 H :   -0.006930
  70 H :   -0.003721
  71 H :    0.001111
  72 H :    0.001476
  73 H :   -0.005186
  74 H :   -0.004987
  75 H :    0.000404
  76 H :    0.006751
  77 H :   -0.042435
  78 H :   -0.034000
  79 H :    0.002623
  80 H :    0.015623
  81 H :    0.018502
  82 H :    0.012104
  83 H :    0.015357
  84 H :   -0.002676
  85 H :    0.004570
  86 H :    0.007132
  87 H :    0.014276
  88 H :    0.020786
  89 H :   -0.036875
  90 H :   -0.032475
  91 H :    0.018835
  92 H :   -0.002223
  93 H :    0.025314
  94 H :   -0.002017
  95 H :    0.015688
  96 H :    0.003376
  97 H :   -0.001143
  98 H :    0.003127
  99 H :    0.001919
 100 H :    0.023052
 101 H :    0.005522
 102 H :   -0.005504
 103 H :   -0.004630
 104 H :    0.014432
 105 H :    0.022165
 106 H :    0.006338
 107 H :    0.010021
 108 H :    0.024380
 109 H :    0.008413
 110 H :    0.014734
 111 H :    0.011623
 112 H :    0.010736
 113 H :    0.023816
 114 H :    0.012308
Sum of atomic charges:    0.0000000

LOEWDIN ATOMIC CHARGES
----------------------
   0 C :    0.080286
   1 O :   -0.150238
   2 C :   -0.043737
   3 C :    0.011907
   4 C :   -0.004939
   5 C :   -0.000876
   6 C :   -0.002713
   7 C :   -0.006695
   8 C :    0.057272
   9 C :   -0.139194
  10 C :   -0.029968
  11 N :   -0.060717
  12 C :   -0.014136
  13 N :   -0.064901
  14 C :   -0.099207
  15 C :    0.084638
  16 O :   -0.155168
  17 C :   -0.040809
  18 C :    0.008150
  19 C :   -0.003544
  20 C :   -0.001410
  21 C :   -0.002403
  22 C :   -0.010316
  23 C :    0.068099
  24 C :   -0.138338
  25 C :   -0.015138
  26 N :   -0.064855
  27 C :   -0.012098
  28 N :   -0.065468
  29 C :   -0.096696
  30 C :   -0.028196
  31 C :    0.014581
  32 C :   -0.024370
  33 C :   -0.011304
  34 C :    0.009199
  35 C :   -0.021394
  36 C :   -0.030030
  37 C :   -0.019295
  38 C :   -0.055028
  39 C :   -0.008288
  40 C :   -0.056117
  41 C :    0.009306
  42 C :   -0.009631
  43 C :   -0.025000
  44 C :    0.017460
  45 C :   -0.031248
  46 C :   -0.020344
  47 C :    0.035780
  48 C :    0.031711
  49 C :   -0.150662
  50 C :   -0.035926
  51 C :   -0.029311
  52 S :    0.448635
  53 C :   -0.163793
  54 C :   -0.014248
  55 C :   -0.027982
  56 C :   -0.035700
  57 C :   -0.149726
  58 C :   -0.017799
  59 C :   -0.167919
  60 S :    0.466793
  61 C :   -0.012767
  62 C :   -0.013113
  63 C :   -0.013355
  64 C :   -0.011629
  65 C :   -0.057964
  66 C :   -0.055814
  67 C :   -0.057864
  68 C :   -0.055407
  69 H :    0.038972
  70 H :    0.033275
  71 H :    0.035433
  72 H :    0.038514
  73 H :    0.037839
  74 H :    0.032710
  75 H :    0.035514
  76 H :    0.039333
  77 H :    0.023617
  78 H :    0.027747
  79 H :    0.022015
  80 H :    0.021927
  81 H :    0.024088
  82 H :    0.026311
  83 H :    0.023943
  84 H :    0.020647
  85 H :    0.026564
  86 H :    0.020786
  87 H :    0.030510
  88 H :    0.024232
  89 H :    0.024427
  90 H :    0.028257
  91 H :    0.049644
  92 H :    0.040377
  93 H :    0.032201
  94 H :    0.036661
  95 H :    0.025147
  96 H :    0.027478
  97 H :    0.018046
  98 H :    0.027036
  99 H :    0.022323
 100 H :    0.033440
 101 H :    0.026610
 102 H :    0.021649
 103 H :    0.017450
 104 H :    0.030249
 105 H :    0.023892
 106 H :    0.019904
 107 H :    0.029013
 108 H :    0.022387
 109 H :    0.021305
 110 H :    0.029937
 111 H :    0.020889
 112 H :    0.028335
 113 H :    0.028239
 114 H :    0.022098

  Mayer bond orders larger than 0.100000
B(  0-C ,  1-O ) :   2.1793 B(  0-C ,  2-C ) :   0.9404 B(  0-C , 14-C ) :   0.9494
B(  2-C ,  3-C ) :   1.3855 B(  2-C ,  7-C ) :   1.3224 B(  3-C ,  4-C ) :   1.3402
B(  3-C , 69-H ) :   0.9942 B(  4-C ,  5-C ) :   1.3694 B(  4-C , 70-H ) :   0.9829
B(  5-C ,  6-C ) :   1.3634 B(  5-C , 71-H ) :   0.9801 B(  6-C ,  7-C ) :   1.3713
B(  6-C , 72-H ) :   0.9759 B(  7-C ,  8-C ) :   1.0060 B(  8-C ,  9-C ) :   1.5872
B(  8-C , 14-C ) :   1.0677 B(  9-C , 10-C ) :   1.1624 B(  9-C , 12-C ) :   1.1331
B( 10-C , 11-N ) :   2.9755 B( 12-C , 13-N ) :   2.9425 B( 14-C , 47-C ) :   1.5544
B( 15-C , 16-O ) :   2.0726 B( 15-C , 17-C ) :   0.9698 B( 15-C , 29-C ) :   0.9578
B( 16-O , 93-H ) :   0.1036 B( 17-C , 18-C ) :   1.3767 B( 17-C , 22-C ) :   1.3277
B( 18-C , 19-C ) :   1.3300 B( 18-C , 73-H ) :   0.9991 B( 19-C , 20-C ) :   1.3632
B( 19-C , 74-H ) :   0.9863 B( 20-C , 21-C ) :   1.3684 B( 20-C , 75-H ) :   0.9802
B( 21-C , 22-C ) :   1.3586 B( 21-C , 76-H ) :   0.9781 B( 22-C , 23-C ) :   0.9931
B( 23-C , 24-C ) :   1.5657 B( 23-C , 29-C ) :   1.1092 B( 24-C , 25-C ) :   1.1468
B( 24-C , 27-C ) :   1.1456 B( 25-C , 26-N ) :   2.9117 B( 27-C , 28-N ) :   2.9286
B( 29-C , 48-C ) :   1.5103 B( 30-C , 31-C ) :   1.3580 B( 30-C , 35-C ) :   1.2696
B( 30-C , 57-C ) :   1.0817 B( 31-C , 32-C ) :   1.3982 B( 31-C , 55-C ) :   0.9221
B( 32-C , 33-C ) :   1.2818 B( 32-C , 77-H ) :   0.9822 B( 33-C , 34-C ) :   1.3564
B( 33-C , 42-C ) :   1.0091 B( 34-C , 35-C ) :   1.3847 B( 34-C , 36-C ) :   0.9216
B( 35-C , 78-H ) :   0.9930 B( 36-C , 37-C ) :   1.0204 B( 36-C , 39-C ) :   1.0087
B( 36-C , 41-C ) :   0.9260 B( 37-C , 38-C ) :   1.1165 B( 37-C , 79-H ) :   0.9343
B( 37-C , 80-H ) :   0.9336 B( 38-C , 81-H ) :   0.9619 B( 38-C , 82-H ) :   0.9601
B( 38-C , 83-H ) :   0.9620 B( 39-C , 40-C ) :   1.1183 B( 39-C , 84-H ) :   0.9317
B( 39-C , 85-H ) :   0.9336 B( 40-C , 86-H ) :   0.9602 B( 40-C , 87-H ) :   0.9553
B( 40-C , 88-H ) :   0.9582 B( 41-C , 42-C ) :   1.3474 B( 41-C , 46-C ) :   1.3843
B( 42-C , 43-C ) :   1.2852 B( 43-C , 44-C ) :   1.4002 B( 43-C , 89-H ) :   0.9863
B( 44-C , 45-C ) :   1.3510 B( 44-C , 51-C ) :   0.9278 B( 45-C , 46-C ) :   1.2766
B( 45-C , 49-C ) :   1.0711 B( 46-C , 90-H ) :   0.9987 B( 47-C , 59-C ) :   1.2265
B( 47-C , 91-H ) :   0.9174 B( 48-C , 53-C ) :   1.2672 B( 48-C , 92-H ) :   0.9076
B( 49-C , 50-C ) :   1.4344 B( 49-C , 52-S ) :   1.1319 B( 50-C , 51-C ) :   0.9415
B( 50-C , 54-C ) :   1.3131 B( 51-C , 61-C ) :   1.0057 B( 51-C , 62-C ) :   1.0077
B( 52-S , 53-C ) :   1.0711 B( 53-C , 54-C ) :   1.3492 B( 54-C , 93-H ) :   0.9689
B( 55-C , 56-C ) :   0.9452 B( 55-C , 63-C ) :   0.9990 B( 55-C , 64-C ) :   1.0067
B( 56-C , 57-C ) :   1.4456 B( 56-C , 58-C ) :   1.3145 B( 57-C , 60-S ) :   1.1329
B( 58-C , 59-C ) :   1.3317 B( 58-C , 94-H ) :   1.0072 B( 59-C , 60-S ) :   1.0809
B( 61-C , 67-C ) :   1.1163 B( 61-C , 95-H ) :   0.9372 B( 61-C , 96-H ) :   0.9318
B( 62-C , 68-C ) :   1.1136 B( 62-C , 97-H ) :   0.9328 B( 62-C , 98-H ) :   0.9329
B( 63-C , 65-C ) :   1.1263 B( 63-C , 99-H ) :   0.9350 B( 63-C ,100-H ) :   0.9362
B( 64-C , 66-C ) :   1.1202 B( 64-C ,101-H ) :   0.9383 B( 64-C ,102-H ) :   0.9318
B( 65-C ,103-H ) :   0.9571 B( 65-C ,104-H ) :   0.9541 B( 65-C ,105-H ) :   0.9553
B( 66-C ,106-H ) :   0.9606 B( 66-C ,107-H ) :   0.9523 B( 66-C ,108-H ) :   0.9561
B( 67-C ,109-H ) :   0.9599 B( 67-C ,110-H ) :   0.9573 B( 67-C ,111-H ) :   0.9575
B( 68-C ,112-H ) :   0.9577 B( 68-C ,113-H ) :   0.9615 B( 68-C ,114-H ) :   0.9594

Dispersion correction           -0.320010520
FINAL SINGLE POINT ENERGY     -3516.098846176234

DIPOLE MOMENT
-------------
                                X             Y             Z
Electronic contribution:     38.27892      24.42694       5.86823
Nuclear contribution   :    -41.24549     -25.29493      -7.04161
                        -----------------------------------------
Total Dipole Moment    :     -2.96657      -0.86799      -1.17338
                        -----------------------------------------
Magnitude (a.u.)       :      3.30617
Magnitude (Debye)      :      8.40361

Rotational constants in cm-1:     0.003061     0.000274     0.000258
Rotational constants in MHz :    91.754266     8.212074     7.732196

                             ****ORCA TERMINATED NORMALLY****
TOTAL RUN TIME: 1 days 0 hours 6 minutes 34 seconds 539 msec
