                         Program Version 4.2.0 -  RELEASE  -
|  1> # ORCA input file
|  2> # SCF done       -180.278274500194          0.000282764342
|  3> ! B3LYP/G D3BJ Opt RIJCOSX def2-SVP def2/J
|  4> * xyz 0 1
|  5>    C        0.07759        -1.52869         0.93688
|  6>    O        0.48555        -1.65927         2.06911
|  7>    C        0.37228        -0.43876        -0.01512
|  8>    C        1.12046         0.70580         0.17670
|  9>    C        1.23074         1.60199        -0.87766
| 10>    C        0.59696         1.34976        -2.08554
| 11>    C       -0.15051         0.19610        -2.28561
| 12>    C       -0.25864        -0.70905        -1.24287
| 13>    C       -0.92348        -2.01126        -1.15458
| 14>    C       -1.27562        -2.77974        -2.23586
| 15>    C       -1.65469        -4.13344        -2.16044
| 16>    N       -1.94455        -5.24479        -2.16997
| 17>    C       -1.22616        -2.33334        -3.57183
| 18>    N       -1.23665        -2.02161        -4.67696
| 19>    C       -0.87739        -2.42213         0.22766
| 20>    C       -1.54716        -3.36406         0.95649
| 21>    C       -2.72105        -4.07795         0.65803
| 22>    C       -3.71448        -3.83011        -0.28565
| 23>    C       -4.72576        -4.77448        -0.24657
| 24>    C       -4.52112        -5.75173         0.71862
| 25>    S       -3.09798        -5.49733         1.62570
| 26>    C       -5.56603        -6.72237         0.67563
| 27>    C       -6.45030        -6.34224        -0.36392
| 28>    C       -5.97698        -5.06435        -1.04042
| 29>    C       -6.94934        -3.88386        -0.82271
| 30>    C       -8.26583        -3.93167        -1.58523
| 31>    C       -5.55249        -5.24516        -2.52023
| 32>    C       -6.37024        -6.21576        -3.36287
| 33>    C       -7.55397        -7.12449        -0.62586
| 34>    C       -7.75194        -8.26484         0.14853
| 35>    C       -6.87526        -8.62457         1.18974
| 36>    C       -5.76149        -7.85989         1.45313
| 37>    C       -7.33376        -9.90252         1.85141
| 38>    C       -6.23829       -10.97883         1.85679
| 39>    C       -5.76617       -11.33305         0.45126
| 40>    C       -7.88928        -9.64560         3.27302
| 41>    C       -6.90362        -9.05729         4.27362
| 42>    C       -8.51070       -10.28729         0.98196
| 43>    C       -8.76694        -9.28873         0.02484
| 44>    C       -9.82976        -9.38579        -0.86960
| 45>    C      -10.61623       -10.51469        -0.81565
| 46>    C      -10.35753       -11.50850         0.15765
| 47>    C       -9.30916       -11.40477         1.06680
| 48>    C      -11.35075       -12.51911        -0.00984
| 49>    C      -12.23553       -12.18502        -1.02663
| 50>    C      -11.82484       -10.88111        -1.66377
| 51>    C      -11.44206       -11.19661        -3.12673
| 52>    C      -10.90262       -10.02858        -3.94095
| 53>    C      -12.88910        -9.77728        -1.51570
| 54>    C      -14.20234       -10.03978        -2.24068
| 55>    C      -13.20314       -13.15835        -1.23287
| 56>    C      -13.04662       -14.25410        -0.39405
| 57>    S      -11.69216       -14.03511         0.70353
| 58>    C      -13.88910       -15.38654        -0.34416
| 59>    C      -13.63148       -16.62433         0.16211
| 60>    C      -12.39501       -17.28954         0.50915
| 61>    C      -11.18614       -17.11930        -0.11350
| 62>    C      -10.03256       -17.86849         0.19037
| 63>    N       -9.06100       -18.43832         0.41286
| 64>    C      -10.99470       -16.23986        -1.19945
| 65>    N      -10.81884       -15.57537        -2.11910
| 66>    C      -12.73586       -18.39332         1.40442
| 67>    C      -11.93971       -19.24179         2.15536
| 68>    C      -12.55546       -20.24799         2.88822
| 69>    C      -13.93287       -20.41543         2.87248
| 70>    C      -14.73962       -19.56572         2.12815
| 71>    C      -14.13369       -18.55796         1.40360
| 72>    C      -14.75357       -17.51596         0.55769
| 73>    O      -15.92350       -17.37849         0.27990
| 74>    H        1.60249         0.88447         1.12548
| 75>    H        1.81210         2.50372        -0.75752
| 76>    H        0.68559         2.06279        -2.89149
| 77>    H       -0.63788         0.02707        -3.23230
| 78>    H       -1.13090        -3.53640         1.94534
| 79>    H       -3.69909        -2.97210        -0.93372
| 80>    H       -6.41891        -2.97009        -1.10298
| 81>    H       -7.16279        -3.82362         0.24840
| 82>    H       -8.09758        -3.95390        -2.65802
| 83>    H       -8.84336        -3.03840        -1.35479
| 84>    H       -8.85695        -4.79517        -1.29592
| 85>    H       -4.51710        -5.59623        -2.52715
| 86>    H       -5.56088        -4.25943        -2.99072
| 87>    H       -6.30695        -7.22389        -2.96157
| 88>    H       -5.96461        -6.22904        -4.37245
| 89>    H       -7.41519        -5.92650        -3.42381
| 90>    H       -8.24689        -6.89094        -1.41685
| 91>    H       -5.04148        -8.12193         2.21262
| 92>    H       -6.62674       -11.87404         2.34659
| 93>    H       -5.38764       -10.62009         2.43727
| 94>    H       -6.58824       -11.72138        -0.14595
| 95>    H       -4.98815       -12.09115         0.49814
| 96>    H       -5.36213       -10.45621        -0.05017
| 97>    H       -8.26454       -10.59644         3.65777
| 98>    H       -8.74235        -8.96757         3.18174
| 99>    H       -6.02943        -9.69192         4.39030
|100>    H       -7.38721        -8.96986         5.24427
|101>    H       -6.58318        -8.06548         3.96672
|102>    H      -10.02149        -8.59201        -1.57412
|103>    H       -9.14120       -12.18128         1.79775
|104>    H      -12.32530       -11.60324        -3.62169
|105>    H      -10.69076       -11.98988        -3.10541
|106>    H      -11.60357        -9.19795        -3.96078
|107>    H      -10.73808       -10.35456        -4.96566
|108>    H       -9.95221        -9.68285        -3.54442
|109>    H      -12.46203        -8.83932        -1.87335
|110>    H      -13.09104        -9.65543        -0.44788
|111>    H      -14.87566        -9.19957        -2.08440
|112>    H      -14.68587       -10.93326        -1.85655
|113>    H      -14.04886       -10.15435        -3.31012
|114>    H      -13.97332       -13.13141        -1.98229
|115>    H      -14.90681       -15.23081        -0.69087
|116>    H      -10.86815       -19.12521         2.18626
|117>    H      -11.94602       -20.91372         3.48086
|118>    H      -14.37986       -21.21320         3.44640
|119>    H      -15.81256       -19.67911         2.10583
|120> *
|121>
|122>                          ****END OF INPUT****
 Total Charge           Charge          ....    0
 Multiplicity           Mult            ....    1
 Number of Electrons    NEL             ....  488
Dispersion correction           -0.331577284
FINAL SINGLE POINT ENERGY     -3516.073815074956
Dispersion correction            ... done
Dispersion correction           -0.326802714
FINAL SINGLE POINT ENERGY     -3516.091634838835
Dispersion correction            ... done
Dispersion correction           -0.327570412
FINAL SINGLE POINT ENERGY     -3516.087863839777
Dispersion correction            ... done
FINAL SINGLE POINT ENERGY     -3516.090657357421
FINAL SINGLE POINT ENERGY     -3516.090877334232
FINAL SINGLE POINT ENERGY     -3516.092000975045
FINAL SINGLE POINT ENERGY     -3516.091722427256
FINAL SINGLE POINT ENERGY     -3516.091355664064
FINAL SINGLE POINT ENERGY     -3516.091263318369
FINAL SINGLE POINT ENERGY     -3516.091715990020
FINAL SINGLE POINT ENERGY     -3516.092759602729
FINAL SINGLE POINT ENERGY     -3516.092677121186
FINAL SINGLE POINT ENERGY     -3516.092603966266
FINAL SINGLE POINT ENERGY     -3516.092644877732
FINAL SINGLE POINT ENERGY     -3516.092634994307
FINAL SINGLE POINT ENERGY     -3516.092612116390
FINAL SINGLE POINT ENERGY     -3516.092549483887
Dispersion correction            ... done
Dispersion correction           -0.323391704
FINAL SINGLE POINT ENERGY     -3516.092543052936
Dispersion correction            ... done
Dispersion correction           -0.323381187
FINAL SINGLE POINT ENERGY     -3516.092556782593
Dispersion correction            ... done
                    ***********************HURRAY********************

CARTESIAN COORDINATES (ANGSTROEM)
---------------------------------
  C      0.112924   -1.358799    0.975099
  O      0.666762   -1.748067    1.982445
  C      0.094856    0.026342    0.438750
  C      0.671591    1.165851    0.985250
  C      0.466500    2.385362    0.330838
  C     -0.301744    2.435562   -0.840646
  C     -0.862129    1.281457   -1.402560
  C     -0.657396    0.058028   -0.754543
  C     -1.069832   -1.329879   -1.095186
  C     -1.468909   -1.744507   -2.357582
  C     -1.538341   -3.117498   -2.739302
  N     -1.603435   -4.228727   -3.075372
  C     -1.763009   -0.824469   -3.412535
  N     -2.036639   -0.084024   -4.265954
  C     -0.764817   -2.162478    0.056781
  C     -1.209586   -3.377897    0.529687
  C     -2.325654   -4.175940    0.181214
  C     -3.426991   -3.897108   -0.644105
  C     -4.379072   -4.915879   -0.633370
  C     -4.041819   -5.977803    0.205351
  S     -2.527783   -5.746541    0.982407
  C     -5.084053   -6.977498    0.195721
  C     -6.098380   -6.515845   -0.700185
  C     -5.701111   -5.173222   -1.338613
  C     -6.648510   -3.988552   -0.994216
  C     -8.096439   -4.012478   -1.480483
  C     -5.376512   -5.318298   -2.857936
  C     -6.444520   -5.888557   -3.789478
  C     -7.230097   -7.298391   -0.906737
  C     -7.345606   -8.513284   -0.209394
  C     -6.348999   -8.947434    0.701195
  C     -5.200368   -8.189005    0.894773
  C     -6.730391  -10.291295    1.317748
  C     -5.656545  -11.375066    1.053701
  C     -5.365551  -11.640652   -0.422030
  C     -7.052337  -10.174267    2.835968
  C     -5.889625   -9.854763    3.769617
  C     -8.034359  -10.595255    0.588861
  C     -8.384565   -9.538871   -0.285431
  C     -9.546378   -9.596987   -1.074183
  C    -10.345463  -10.731391   -0.987507
  C    -10.006108  -11.770661   -0.071481
  C     -8.847967  -11.712913    0.717437
  C    -11.046413  -12.766697   -0.167312
  C    -12.005547  -12.398873   -1.114526
  C    -11.635447  -11.067074   -1.752163
  C    -11.355817  -11.314736   -3.262908
  C    -10.921925  -10.104497   -4.084867
  C    -12.695079   -9.964116   -1.497718
  C    -14.084233  -10.223561   -2.077018
  C    -13.007333  -13.364924   -1.258050
  C    -12.822285  -14.480274   -0.417993
  S    -11.367981  -14.283374    0.567168
  C    -13.772077  -15.525878   -0.289585
  C    -13.844662  -16.696252    0.429381
  C    -12.897365  -17.524144    1.160656
  C    -11.558159  -17.707882    0.860735
  C    -10.703050  -18.546246    1.641217
  N     -9.997788  -19.209807    2.283941
  C    -10.964926  -17.191636   -0.331101
  N    -10.475209  -16.817780   -1.316483
  C    -13.679075  -18.352359    2.116989
  C    -13.290526  -19.220582    3.144968
  C    -14.285340  -19.918860    3.841566
  C    -15.643483  -19.774858    3.523688
  C    -16.037788  -18.911740    2.495549
  C    -15.050766  -18.212136    1.813636
  C    -15.219493  -17.236924    0.705641
  O    -16.257582  -16.907134    0.169586
  H      1.255873    1.090277    1.904278
  H      0.901259    3.301802    0.735958
  H     -0.470810    3.394972   -1.334973
  H     -1.443656    1.355618   -2.318479
  H     -0.641757   -3.707169    1.410234
  H     -3.531083   -2.960999   -1.186886
  H     -6.158747   -3.077311   -1.379819
  H     -6.646134   -3.889199    0.103800
  H     -8.178793   -3.924780   -2.572678
  H     -8.645916   -3.164476   -1.043512
  H     -8.620798   -4.927068   -1.168350
  H     -4.476236   -5.947918   -2.937220
  H     -5.063777   -4.323061   -3.216145
  H     -6.718434   -6.918479   -3.516865
  H     -6.045200   -5.919913   -4.815600
  H     -7.364756   -5.291538   -3.813663
  H     -8.009986   -6.991973   -1.602909
  H     -4.399581   -8.518660    1.558708
  H     -5.984161  -12.305925    1.548993
  H     -4.726680  -11.072648    1.561676
  H     -6.261820  -11.996834   -0.952121
  H     -4.583699  -12.406703   -0.539184
  H     -5.015914  -10.728365   -0.929780
  H     -7.509654  -11.129270    3.146062
  H     -7.838704   -9.410772    2.955085
  H     -5.080620  -10.596919    3.697985
  H     -6.244113   -9.852210    4.812633
  H     -5.457670   -8.862708    3.568161
  H     -9.805447   -8.770009   -1.736782
  H     -8.598136  -12.527298    1.401446
  H    -12.265462  -11.751339   -3.706266
  H    -10.587127  -12.101649   -3.333278
  H    -11.657423   -9.286076   -4.047362
  H    -10.800630  -10.394638   -5.140170
  H     -9.955133   -9.704496   -3.745945
  H    -12.299320   -9.015717   -1.894986
  H    -12.774733   -9.822568   -0.407650
  H    -14.748861   -9.369398   -1.873048
  H    -14.551148  -11.109351   -1.621519
  H    -14.062722  -10.373032   -3.168241
  H    -13.859693  -13.302543   -1.935246
  H    -14.723181  -15.298244   -0.789618
  H    -12.246512  -19.359144    3.420007
  H    -13.990254  -20.589209    4.652329
  H    -16.392179  -20.338221    4.084360
  H    -17.084737  -18.775496    2.215184

 Multiplicity           Mult            ....    1
 Number of Electrons    NEL             ....  488
 Basis Dimension        Dim             .... 1204

ORBITAL ENERGIES
----------------

  NO   OCC          E(Eh)            E(eV)
   0   2.0000     -88.900470     -2419.1048
   1   2.0000     -88.899962     -2419.0909
   2   2.0000     -19.135846      -520.7129
   3   2.0000     -19.134938      -520.6881
   4   2.0000     -14.341445      -390.2506
   5   2.0000     -14.340869      -390.2349
   6   2.0000     -14.338588      -390.1728
   7   2.0000     -14.336466      -390.1151
   8   2.0000     -10.283845      -279.8377
   9   2.0000     -10.283186      -279.8197
  10   2.0000     -10.269168      -279.4383
  11   2.0000     -10.267434      -279.3911
  12   2.0000     -10.263842      -279.2933
  13   2.0000     -10.261959      -279.2421
  14   2.0000     -10.245989      -278.8075
  15   2.0000     -10.244976      -278.7800
  16   2.0000     -10.244752      -278.7739
  17   2.0000     -10.243111      -278.7292
  18   2.0000     -10.242273      -278.7064
  19   2.0000     -10.242087      -278.7014
  20   2.0000     -10.241712      -278.6912
  21   2.0000     -10.241441      -278.6838
  22   2.0000     -10.241422      -278.6833
  23   2.0000     -10.238899      -278.6146
  24   2.0000     -10.231401      -278.4106
  25   2.0000     -10.230694      -278.3913
  26   2.0000     -10.229368      -278.3552
  27   2.0000     -10.228152      -278.3222
  28   2.0000     -10.226695      -278.2825
  29   2.0000     -10.224899      -278.2337
  30   2.0000     -10.224664      -278.2272
  31   2.0000     -10.224364      -278.2191
  32   2.0000     -10.221129      -278.1311
  33   2.0000     -10.220541      -278.1150
  34   2.0000     -10.220202      -278.1058
  35   2.0000     -10.220136      -278.1040
  36   2.0000     -10.219858      -278.0965
  37   2.0000     -10.219500      -278.0867
  38   2.0000     -10.219461      -278.0857
  39   2.0000     -10.219246      -278.0798
  40   2.0000     -10.219239      -278.0796
  41   2.0000     -10.218947      -278.0717
  42   2.0000     -10.218762      -278.0667
  43   2.0000     -10.218625      -278.0629
  44   2.0000     -10.217916      -278.0436
  45   2.0000     -10.216391      -278.0021
  46   2.0000     -10.216240      -277.9980
  47   2.0000     -10.215786      -277.9857
  48   2.0000     -10.215610      -277.9809
  49   2.0000     -10.214743      -277.9573
  50   2.0000     -10.214679      -277.9555
  51   2.0000     -10.214309      -277.9455
  52   2.0000     -10.214095      -277.9397
  53   2.0000     -10.213714      -277.9293
  54   2.0000     -10.213013      -277.9102
  55   2.0000     -10.212870      -277.9063
  56   2.0000     -10.211541      -277.8702
  57   2.0000     -10.206423      -277.7309
  58   2.0000     -10.206275      -277.7269
  59   2.0000     -10.205006      -277.6923
  60   2.0000     -10.203675      -277.6561
  61   2.0000     -10.201476      -277.5963
  62   2.0000     -10.199949      -277.5547
  63   2.0000     -10.196589      -277.4633
  64   2.0000     -10.194593      -277.4090
  65   2.0000     -10.194273      -277.4003
  66   2.0000     -10.192543      -277.3532
  67   2.0000     -10.188458      -277.2420
  68   2.0000     -10.184939      -277.1463
  69   2.0000      -7.994467      -217.5405
  70   2.0000      -7.994258      -217.5348
  71   2.0000      -5.962523      -162.2485
  72   2.0000      -5.962340      -162.2435
  73   2.0000      -5.958648      -162.1430
  74   2.0000      -5.958534      -162.1400
  75   2.0000      -5.955729      -162.0636
  76   2.0000      -5.955422      -162.0553
  77   2.0000      -1.041092       -28.3296
  78   2.0000      -1.040120       -28.3031
  79   2.0000      -0.927478       -25.2380
  80   2.0000      -0.926011       -25.1980
  81   2.0000      -0.922506       -25.1027
  82   2.0000      -0.920342       -25.0438
  83   2.0000      -0.905962       -24.6525
  84   2.0000      -0.904214       -24.6049
  85   2.0000      -0.902083       -24.5469
  86   2.0000      -0.901211       -24.5232
  87   2.0000      -0.899512       -24.4770
  88   2.0000      -0.876364       -23.8471
  89   2.0000      -0.865281       -23.5455
  90   2.0000      -0.853467       -23.2240
  91   2.0000      -0.851768       -23.1778
  92   2.0000      -0.833959       -22.6932
  93   2.0000      -0.821373       -22.3507
  94   2.0000      -0.814857       -22.1734
  95   2.0000      -0.812733       -22.1156
  96   2.0000      -0.806465       -21.9450
  97   2.0000      -0.799094       -21.7445
  98   2.0000      -0.788196       -21.4479
  99   2.0000      -0.771545       -20.9948
 100   2.0000      -0.770034       -20.9537
 101   2.0000      -0.768819       -20.9206
 102   2.0000      -0.763435       -20.7741
 103   2.0000      -0.761899       -20.7323
 104   2.0000      -0.761531       -20.7223
 105   2.0000      -0.759880       -20.6774
 106   2.0000      -0.758310       -20.6347
 107   2.0000      -0.756565       -20.5872
 108   2.0000      -0.755988       -20.5715
 109   2.0000      -0.744236       -20.2517
 110   2.0000      -0.720486       -19.6054
 111   2.0000      -0.712447       -19.3867
 112   2.0000      -0.696852       -18.9623
 113   2.0000      -0.693661       -18.8755
 114   2.0000      -0.682246       -18.5649
 115   2.0000      -0.679684       -18.4951
 116   2.0000      -0.677079       -18.4243
 117   2.0000      -0.668577       -18.1929
 118   2.0000      -0.652616       -17.7586
 119   2.0000      -0.635977       -17.3058
 120   2.0000      -0.632919       -17.2226
 121   2.0000      -0.629838       -17.1388
 122   2.0000      -0.624299       -16.9881
 123   2.0000      -0.621909       -16.9230
 124   2.0000      -0.621174       -16.9030
 125   2.0000      -0.619302       -16.8521
 126   2.0000      -0.608907       -16.5692
 127   2.0000      -0.604818       -16.4579
 128   2.0000      -0.599222       -16.3057
 129   2.0000      -0.597297       -16.2533
 130   2.0000      -0.591240       -16.0885
 131   2.0000      -0.583381       -15.8746
 132   2.0000      -0.574010       -15.6196
 133   2.0000      -0.570250       -15.5173
 134   2.0000      -0.567051       -15.4302
 135   2.0000      -0.562950       -15.3187
 136   2.0000      -0.555186       -15.1074
 137   2.0000      -0.548604       -14.9283
 138   2.0000      -0.542380       -14.7589
 139   2.0000      -0.535992       -14.5851
 140   2.0000      -0.530500       -14.4356
 141   2.0000      -0.527087       -14.3428
 142   2.0000      -0.520437       -14.1618
 143   2.0000      -0.516213       -14.0469
 144   2.0000      -0.504467       -13.7272
 145   2.0000      -0.501569       -13.6484
 146   2.0000      -0.500776       -13.6268
 147   2.0000      -0.495104       -13.4725
 148   2.0000      -0.491149       -13.3649
 149   2.0000      -0.484744       -13.1906
 150   2.0000      -0.478162       -13.0115
 151   2.0000      -0.475805       -12.9473
 152   2.0000      -0.473103       -12.8738
 153   2.0000      -0.471424       -12.8281
 154   2.0000      -0.469894       -12.7865
 155   2.0000      -0.469138       -12.7659
 156   2.0000      -0.466965       -12.7068
 157   2.0000      -0.464510       -12.6400
 158   2.0000      -0.459749       -12.5104
 159   2.0000      -0.458795       -12.4844
 160   2.0000      -0.457749       -12.4560
 161   2.0000      -0.455837       -12.4040
 162   2.0000      -0.455445       -12.3933
 163   2.0000      -0.452302       -12.3078
 164   2.0000      -0.451158       -12.2766
 165   2.0000      -0.448555       -12.2058
 166   2.0000      -0.447671       -12.1817
 167   2.0000      -0.440589       -11.9890
 168   2.0000      -0.439531       -11.9602
 169   2.0000      -0.437076       -11.8934
 170   2.0000      -0.436115       -11.8673
 171   2.0000      -0.433083       -11.7848
 172   2.0000      -0.430425       -11.7125
 173   2.0000      -0.429327       -11.6826
 174   2.0000      -0.427785       -11.6406
 175   2.0000      -0.425194       -11.5701
 176   2.0000      -0.420937       -11.4543
 177   2.0000      -0.419840       -11.4244
 178   2.0000      -0.418124       -11.3777
 179   2.0000      -0.415407       -11.3038
 180   2.0000      -0.414107       -11.2684
 181   2.0000      -0.410824       -11.1791
 182   2.0000      -0.410209       -11.1624
 183   2.0000      -0.405738       -11.0407
 184   2.0000      -0.402092       -10.9415
 185   2.0000      -0.399719       -10.8769
 186   2.0000      -0.396179       -10.7806
 187   2.0000      -0.393639       -10.7115
 188   2.0000      -0.391366       -10.6496
 189   2.0000      -0.390583       -10.6283
 190   2.0000      -0.389106       -10.5881
 191   2.0000      -0.388087       -10.5604
 192   2.0000      -0.387775       -10.5519
 193   2.0000      -0.386695       -10.5225
 194   2.0000      -0.384170       -10.4538
 195   2.0000      -0.383750       -10.4424
 196   2.0000      -0.381202       -10.3730
 197   2.0000      -0.380687       -10.3590
 198   2.0000      -0.378340       -10.2952
 199   2.0000      -0.377900       -10.2832
 200   2.0000      -0.377161       -10.2631
 201   2.0000      -0.376202       -10.2370
 202   2.0000      -0.374671       -10.1953
 203   2.0000      -0.373940       -10.1754
 204   2.0000      -0.372303       -10.1309
 205   2.0000      -0.370697       -10.0872
 206   2.0000      -0.368329       -10.0227
 207   2.0000      -0.367838       -10.0094
 208   2.0000      -0.364512        -9.9189
 209   2.0000      -0.362863        -9.8740
 210   2.0000      -0.357665        -9.7326
 211   2.0000      -0.355631        -9.6772
 212   2.0000      -0.354255        -9.6398
 213   2.0000      -0.353054        -9.6071
 214   2.0000      -0.351381        -9.5616
 215   2.0000      -0.349140        -9.5006
 216   2.0000      -0.347016        -9.4428
 217   2.0000      -0.344782        -9.3820
 218   2.0000      -0.344708        -9.3800
 219   2.0000      -0.341838        -9.3019
 220   2.0000      -0.341155        -9.2833
 221   2.0000      -0.339964        -9.2509
 222   2.0000      -0.338309        -9.2059
 223   2.0000      -0.337489        -9.1836
 224   2.0000      -0.336017        -9.1435
 225   2.0000      -0.329447        -8.9647
 226   2.0000      -0.327674        -8.9165
 227   2.0000      -0.327047        -8.8994
 228   2.0000      -0.323839        -8.8121
 229   2.0000      -0.313555        -8.5323
 230   2.0000      -0.294987        -8.0270
 231   2.0000      -0.283577        -7.7165
 232   2.0000      -0.282728        -7.6934
 233   2.0000      -0.277254        -7.5445
 234   2.0000      -0.276492        -7.5237
 235   2.0000      -0.274223        -7.4620
 236   2.0000      -0.271224        -7.3804
 237   2.0000      -0.270330        -7.3561
 238   2.0000      -0.268702        -7.3118
 239   2.0000      -0.266697        -7.2572
 240   2.0000      -0.259483        -7.0609
 241   2.0000      -0.254979        -6.9383
 242   2.0000      -0.230198        -6.2640
 243   2.0000      -0.209249        -5.6940
 244   0.0000      -0.127802        -3.4777
 245   0.0000      -0.119672        -3.2565
 246   0.0000      -0.099940        -2.7195
 247   0.0000      -0.096355        -2.6219
 248   0.0000      -0.067491        -1.8365

MULLIKEN ATOMIC CHARGES
-----------------------
   0 C :    0.135986
   1 O :   -0.168549
   2 C :    0.003347
   3 C :   -0.023119
   4 C :    0.047122
   5 C :    0.035963
   6 C :   -0.026820
   7 C :    0.017890
   8 C :    0.238294
   9 C :   -0.326196
  10 C :   -0.157650
  11 N :    0.116318
  12 C :   -0.133381
  13 N :    0.092962
  14 C :   -0.130575
  15 C :    0.073438
  16 C :   -0.099172
  17 C :    0.029041
  18 C :   -0.009561
  19 C :   -0.035281
  20 S :    0.156379
  21 C :    0.058208
  22 C :    0.036545
  23 C :   -0.116134
  24 C :    0.060030
  25 C :    0.031285
  26 C :    0.083970
  27 C :    0.023636
  28 C :   -0.114956
  29 C :    0.094500
  30 C :    0.020313
  31 C :   -0.111949
  32 C :   -0.133879
  33 C :    0.055764
  34 C :    0.008603
  35 C :    0.077808
  36 C :    0.017067
  37 C :   -0.000221
  38 C :    0.103448
  39 C :   -0.104403
  40 C :    0.019897
  41 C :    0.066860
  42 C :   -0.100089
  43 C :   -0.054765
  44 C :    0.071754
  45 C :   -0.123162
  46 C :    0.062233
  47 C :    0.016647
  48 C :    0.071333
  49 C :    0.003985
  50 C :   -0.050818
  51 C :   -0.048961
  52 S :    0.177664
  53 C :    0.017427
  54 C :   -0.123267
  55 C :    0.225311
  56 C :   -0.307262
  57 C :   -0.129140
  58 N :    0.090484
  59 C :   -0.166022
  60 N :    0.119485
  61 C :    0.027724
  62 C :   -0.028824
  63 C :    0.032031
  64 C :    0.044723
  65 C :   -0.025103
  66 C :    0.005865
  67 C :    0.134711
  68 O :   -0.169064
  69 H :   -0.004339
  70 H :   -0.003236
  71 H :   -0.001502
  72 H :    0.001706
  73 H :    0.015790
  74 H :   -0.002679
  75 H :   -0.005357
  76 H :    0.008492
  77 H :    0.020619
  78 H :    0.009941
  79 H :    0.009189
  80 H :    0.019639
  81 H :   -0.002509
  82 H :    0.017204
  83 H :    0.018210
  84 H :    0.000553
  85 H :   -0.035465
  86 H :   -0.034013
  87 H :   -0.000667
  88 H :    0.006193
  89 H :    0.024225
  90 H :    0.018451
  91 H :    0.020834
  92 H :   -0.006895
  93 H :    0.003904
  94 H :    0.017142
  95 H :    0.015099
  96 H :    0.015044
  97 H :   -0.039118
  98 H :   -0.033461
  99 H :    0.002485
 100 H :    0.016054
 101 H :    0.014872
 102 H :    0.019458
 103 H :    0.014056
 104 H :   -0.001302
 105 H :    0.005870
 106 H :    0.020576
 107 H :    0.015550
 108 H :    0.016868
 109 H :   -0.000238
 110 H :    0.016867
 111 H :    0.002217
 112 H :    0.000602
 113 H :   -0.001105
 114 H :   -0.003557
Sum of atomic charges:   -0.0000000

LOEWDIN ATOMIC CHARGES
----------------------
   0 C :    0.079793
   1 O :   -0.148625
   2 C :   -0.043440
   3 C :    0.011078
   4 C :   -0.004277
   5 C :   -0.000716
   6 C :   -0.004281
   7 C :   -0.007870
   8 C :    0.058916
   9 C :   -0.145738
  10 C :   -0.016515
  11 N :   -0.056072
  12 C :   -0.015339
  13 N :   -0.067253
  14 C :   -0.095714
  15 C :    0.032937
  16 C :   -0.166787
  17 C :   -0.007333
  18 C :   -0.029685
  19 C :   -0.153039
  20 S :    0.448887
  21 C :   -0.029210
  22 C :    0.015517
  23 C :   -0.028482
  24 C :   -0.012725
  25 C :   -0.057469
  26 C :   -0.007490
  27 C :   -0.059182
  28 C :   -0.024579
  29 C :   -0.010375
  30 C :    0.008176
  31 C :   -0.022996
  32 C :   -0.031174
  33 C :   -0.013176
  34 C :   -0.057199
  35 C :   -0.009265
  36 C :   -0.058733
  37 C :    0.008918
  38 C :   -0.010160
  39 C :   -0.024345
  40 C :    0.015631
  41 C :   -0.029480
  42 C :   -0.020115
  43 C :   -0.149225
  44 C :   -0.036569
  45 C :   -0.027357
  46 C :   -0.012126
  47 C :   -0.059222
  48 C :   -0.013232
  49 C :   -0.059177
  50 C :   -0.017873
  51 C :   -0.170335
  52 S :    0.473706
  53 C :    0.036807
  54 C :   -0.100231
  55 C :    0.056279
  56 C :   -0.140749
  57 C :   -0.013232
  58 N :   -0.065801
  59 C :   -0.032285
  60 N :   -0.058778
  61 C :   -0.006426
  62 C :   -0.004135
  63 C :   -0.001397
  64 C :   -0.005113
  65 C :    0.010252
  66 C :   -0.043101
  67 C :    0.079859
  68 O :   -0.150479
  69 H :    0.039301
  70 H :    0.033304
  71 H :    0.034853
  72 H :    0.038033
  73 H :    0.043362
  74 H :    0.034242
  75 H :    0.021747
  76 H :    0.026598
  77 H :    0.021972
  78 H :    0.029015
  79 H :    0.021135
  80 H :    0.033364
  81 H :    0.023593
  82 H :    0.022204
  83 H :    0.031718
  84 H :    0.017882
  85 H :    0.024478
  86 H :    0.026883
  87 H :    0.021126
  88 H :    0.019952
  89 H :    0.025483
  90 H :    0.027848
  91 H :    0.024952
  92 H :    0.020157
  93 H :    0.025985
  94 H :    0.022908
  95 H :    0.029496
  96 H :    0.022489
  97 H :    0.024314
  98 H :    0.028033
  99 H :    0.021001
 100 H :    0.031446
 101 H :    0.021540
 102 H :    0.031347
 103 H :    0.022741
 104 H :    0.018659
 105 H :    0.027379
 106 H :    0.030680
 107 H :    0.023433
 108 H :    0.022960
 109 H :    0.035329
 110 H :    0.049523
 111 H :    0.038384
 112 H :    0.035253
 113 H :    0.033609
 114 H :    0.039212

  Mayer bond orders larger than 0.100000
B(  0-C ,  1-O ) :   2.1859 B(  0-C ,  2-C ) :   0.9376 B(  0-C , 14-C ) :   0.9484
B(  2-C ,  3-C ) :   1.3840 B(  2-C ,  7-C ) :   1.3215 B(  3-C ,  4-C ) :   1.3367
B(  3-C , 69-H ) :   0.9973 B(  4-C ,  5-C ) :   1.3690 B(  4-C , 70-H ) :   0.9838
B(  5-C ,  6-C ) :   1.3588 B(  5-C , 71-H ) :   0.9807 B(  6-C ,  7-C ) :   1.3740
B(  6-C , 72-H ) :   0.9787 B(  7-C ,  8-C ) :   1.0069 B(  8-C ,  9-C ) :   1.5656
B(  8-C , 14-C ) :   1.0784 B(  9-C , 10-C ) :   1.1746 B(  9-C , 12-C ) :   1.1309
B( 10-C , 11-N ) :   2.9441 B( 12-C , 13-N ) :   2.9395 B( 14-C , 15-C ) :   1.5812
B( 15-C , 16-C ) :   1.2130 B( 15-C , 73-H ) :   0.9123 B( 16-C , 17-C ) :   1.3423
B( 16-C , 20-S ) :   1.0799 B( 17-C , 18-C ) :   1.3838 B( 17-C , 74-H ) :   0.9759
B( 18-C , 19-C ) :   1.4489 B( 18-C , 23-C ) :   0.9395 B( 19-C , 20-S ) :   1.1222
B( 19-C , 21-C ) :   1.0729 B( 21-C , 22-C ) :   1.3625 B( 21-C , 31-C ) :   1.2669
B( 22-C , 23-C ) :   0.9190 B( 22-C , 28-C ) :   1.3969 B( 23-C , 24-C ) :   1.0079
B( 23-C , 26-C ) :   0.9986 B( 24-C , 25-C ) :   1.1205 B( 24-C , 75-H ) :   0.9321
B( 24-C , 76-H ) :   0.9397 B( 25-C , 77-H ) :   0.9607 B( 25-C , 78-H ) :   0.9518
B( 25-C , 79-H ) :   0.9597 B( 26-C , 27-C ) :   1.1271 B( 26-C , 80-H ) :   0.9338
B( 26-C , 81-H ) :   0.9311 B( 27-C , 82-H ) :   0.9535 B( 27-C , 83-H ) :   0.9544
B( 27-C , 84-H ) :   0.9590 B( 28-C , 29-C ) :   1.2840 B( 28-C , 85-H ) :   0.9804
B( 29-C , 30-C ) :   1.3560 B( 29-C , 38-C ) :   1.0054 B( 30-C , 31-C ) :   1.3884
B( 30-C , 32-C ) :   0.9191 B( 31-C , 86-H ) :   0.9932 B( 32-C , 33-C ) :   1.0213
B( 32-C , 35-C ) :   1.0113 B( 32-C , 37-C ) :   0.9215 B( 33-C , 34-C ) :   1.1082
B( 33-C , 87-H ) :   0.9357 B( 33-C , 88-H ) :   0.9333 B( 34-C , 89-H ) :   0.9618
B( 34-C , 90-H ) :   0.9627 B( 34-C , 91-H ) :   0.9629 B( 35-C , 36-C ) :   1.1142
B( 35-C , 92-H ) :   0.9313 B( 35-C , 93-H ) :   0.9352 B( 36-C , 94-H ) :   0.9622
B( 36-C , 95-H ) :   0.9575 B( 36-C , 96-H ) :   0.9595 B( 37-C , 38-C ) :   1.3537
B( 37-C , 42-C ) :   1.3914 B( 38-C , 39-C ) :   1.2788 B( 39-C , 40-C ) :   1.4068
B( 39-C , 97-H ) :   0.9843 B( 40-C , 41-C ) :   1.3528 B( 40-C , 45-C ) :   0.9209
B( 41-C , 42-C ) :   1.2720 B( 41-C , 43-C ) :   1.0811 B( 42-C , 98-H ) :   0.9942
B( 43-C , 44-C ) :   1.4427 B( 43-C , 52-S ) :   1.1403 B( 44-C , 45-C ) :   0.9407
B( 44-C , 50-C ) :   1.3219 B( 45-C , 46-C ) :   1.0020 B( 45-C , 48-C ) :   1.0119
B( 46-C , 47-C ) :   1.1166 B( 46-C , 99-H ) :   0.9339 B( 46-C ,100-H ) :   0.9341
B( 47-C ,101-H ) :   0.9616 B( 47-C ,102-H ) :   0.9562 B( 47-C ,103-H ) :   0.9573
B( 48-C , 49-C ) :   1.1136 B( 48-C ,104-H ) :   0.9328 B( 48-C ,105-H ) :   0.9341
B( 49-C ,106-H ) :   0.9592 B( 49-C ,107-H ) :   0.9597 B( 49-C ,108-H ) :   0.9619
B( 50-C , 51-C ) :   1.3261 B( 50-C ,109-H ) :   1.0014 B( 51-C , 52-S ) :   1.0790
B( 51-C , 53-C ) :   1.2442 B( 53-C , 54-C ) :   1.5504 B( 53-C ,110-H ) :   0.9174
B( 54-C , 55-C ) :   1.0691 B( 54-C , 67-C ) :   0.9514 B( 55-C , 56-C ) :   1.5855
B( 55-C , 61-C ) :   1.0128 B( 56-C , 57-C ) :   1.1311 B( 56-C , 59-C ) :   1.1630
B( 57-C , 58-N ) :   2.9431 B( 59-C , 60-N ) :   2.9766 B( 61-C , 62-C ) :   1.3675
B( 61-C , 66-C ) :   1.3200 B( 62-C , 63-C ) :   1.3629 B( 62-C ,111-H ) :   0.9809
B( 63-C , 64-C ) :   1.3695 B( 63-C ,112-H ) :   0.9810 B( 64-C , 65-C ) :   1.3347
B( 64-C ,113-H ) :   0.9841 B( 65-C , 66-C ) :   1.3845 B( 65-C ,114-H ) :   0.9984
B( 66-C , 67-C ) :   0.9393 B( 67-C , 68-O ) :   2.1810

Dispersion correction           -0.323381302
FINAL SINGLE POINT ENERGY     -3516.092564048575

DIPOLE MOMENT
-------------
                                X             Y             Z
Electronic contribution:     24.54394     -19.30629      18.42181
Nuclear contribution   :    -26.46712      21.08643     -16.85332
                        -----------------------------------------
Total Dipole Moment    :     -1.92318       1.78014       1.56849
                        -----------------------------------------
Magnitude (a.u.)       :      3.05413
Magnitude (Debye)      :      7.76297

Rotational constants in cm-1:     0.003091     0.000286     0.000272
Rotational constants in MHz :    92.668865     8.577574     8.161675

                             ****ORCA TERMINATED NORMALLY****
TOTAL RUN TIME: 1 days 2 hours 53 minutes 13 seconds 80 msec
