                         Program Version 4.2.0 -  RELEASE  -
|  1> # ORCA input file
|  2> # SCF done       -207.739111948345          0.000636426205
|  3> ! B3LYP/G D3BJ Opt RIJCOSX def2-SVP def2/J
|  4> * xyz 0 1
|  5>    C        1.75640        -1.75825        -1.75321
|  6>    O        2.27973        -1.32069        -2.75288
|  7>    C        2.38931        -2.06271        -0.45189
|  8>    C        3.71959        -1.98277        -0.08604
|  9>    C        4.07804        -2.35402         1.20040
| 10>    C        3.10716        -2.79808         2.09140
| 11>   Cl        3.57918        -3.27108         3.67900
| 12>    C        1.76213        -2.87260         1.74206
| 13>    C        1.40829        -2.49761         0.45868
| 14>    C        0.10028        -2.41408        -0.19024
| 15>    C       -1.10195        -2.29907         0.45867
| 16>    C       -2.27948        -1.87127        -0.18990
| 17>    N       -3.23661        -1.46832        -0.67944
| 18>    C       -1.28077        -2.50724         1.83971
| 19>    N       -1.49237        -2.70020         2.95154
| 20>    C        0.33599        -2.16105        -1.59249
| 21>    C       -0.46150        -2.31340        -2.68873
| 22>    C       -1.65158        -3.05611        -2.81961
| 23>    S       -2.02732        -4.39309        -1.73011
| 24>    C       -3.50031        -4.69919        -2.57272
| 25>    C       -3.66072        -3.81789        -3.65081
| 26>    C       -2.61516        -2.90522        -3.81098
| 27>    C       -2.60929        -1.82432        -4.83732
| 28>    C       -3.10663        -0.51143        -4.22694
| 29>    S       -5.14755        -4.07116        -4.53579
| 30>    C       -5.54631        -5.34904        -3.44398
| 31>    C       -4.58273        -5.57308        -2.45292
| 32>    N       -4.98471        -6.58627        -1.62714
| 33>    C       -4.02602        -7.18107        -0.72814
| 34>    C       -6.21935        -7.03254        -2.06799
| 35>    C       -6.57168        -6.27820        -3.22861
| 36>    C       -7.72743        -6.55448        -3.99103
| 37>    N       -8.15052        -5.96219        -5.09673
| 38>    S       -9.49780        -6.70971        -5.59386
| 39>    N       -9.59226        -7.81674        -4.41640
| 40>    C       -8.57176        -7.63879        -3.59217
| 41>    C       -8.27148        -8.32820        -2.39723
| 42>    C       -7.13573        -8.01034        -1.59171
| 43>    N       -7.20055        -8.77778        -0.44125
| 44>    C       -6.50077        -8.66452         0.81519
| 45>    C       -6.74062        -7.32395         1.53167
| 46>    C       -8.32228        -9.55667        -0.51481
| 47>    C       -8.99533        -9.31573        -1.71788
| 48>    S      -10.44926       -10.23017        -1.90272
| 49>    C      -10.16440       -10.95628        -0.33591
| 50>    C       -8.99648       -10.48722         0.28177
| 51>    S       -8.81177       -11.16875         1.85216
| 52>    C      -10.27746       -12.13011         1.63954
| 53>    C      -10.89608       -11.88294         0.41885
| 54>    C      -12.25083       -12.35682         0.00255
| 55>    C      -12.21484       -13.13914        -1.31027
| 56>    C      -10.69301       -12.88508         2.75843
| 57>    C      -11.34526       -14.08737         2.74110
| 58>    C      -11.98010       -14.73701         3.86570
| 59>    C      -12.27732       -14.16366         5.07483
| 60>    C      -12.00673       -12.82099         5.41278
| 61>    N      -11.83786       -11.73548         5.74708
| 62>    C      -12.91546       -14.83699         6.13705
| 63>    N      -13.42348       -15.33000         7.04063
| 64>    C      -12.33681       -16.09259         3.44854
| 65>    C      -12.96121       -17.12145         4.13262
| 66>    C      -13.18221       -18.31540         3.45251
| 67>   Cl      -13.96122       -19.60871         4.28239
| 68>    C      -12.79359       -18.49643         2.12984
| 69>    C      -12.16029       -17.46799         1.45044
| 70>    C      -11.94235       -16.27414         2.11135
| 71>    C      -11.28818       -15.04782         1.61346
| 72>    O      -10.71212       -14.91188         0.55543
| 73>    C       -3.54087        -8.56611        -1.19009
| 74>    C       -2.82537        -8.48528        -2.54992
| 75>    C       -2.61706        -9.15027        -0.11089
| 76>    C       -2.46007       -10.66156        -0.23061
| 77>    C       -3.73135        -8.78649        -3.73936
| 78>    C       -8.22130        -7.14138         1.90507
| 79>    C       -9.03510        -6.39432         0.85343
| 80>    C       -5.84768        -7.26555         2.78086
| 81>    C       -5.62945        -5.84146         3.27828
| 82>    H        4.45678        -1.63628        -0.79347
| 83>    H        5.10725        -2.30353         1.51874
| 84>    H        1.03498        -3.22228         2.45692
| 85>    H       -0.08221        -1.86056        -3.60012
| 86>    H       -3.26809        -2.11765        -5.65690
| 87>    H       -1.60099        -1.68393        -5.23213
| 88>    H       -4.11183        -0.63651        -3.83310
| 89>    H       -3.12071         0.26937        -4.98249
| 90>    H       -2.45829        -0.20149        -3.41088
| 91>    H       -4.43126        -7.22354         0.28163
| 92>    H       -3.16789        -6.50406        -0.69510
| 93>    H       -5.43663        -8.84621         0.66631
| 94>    H       -6.87320        -9.47074         1.45310
| 95>    H       -6.45554        -6.50763         0.85890
| 96>    H      -12.88189       -11.47191        -0.13133
| 97>    H      -12.68906       -12.97049         0.79005
| 98>    H      -11.84697       -12.51338        -2.11893
| 99>    H      -13.21621       -13.47933        -1.56134
|100>    H      -11.56374       -14.00260        -1.21071
|101>    H      -10.42223       -12.46304         3.71984
|102>    H      -13.27143       -17.02375         5.15984
|103>    H      -12.98758       -19.43894         1.64285
|104>    H      -11.84537       -17.58532         0.42516
|105>    H       -4.41024        -9.22398        -1.29910
|106>    H       -2.00629        -9.20559        -2.56137
|107>    H       -2.37997        -7.49532        -2.67056
|108>    H       -3.01868        -8.92315         0.88025
|109>    H       -1.63992        -8.66856        -0.18096
|110>    H       -3.42236       -11.15581        -0.11344
|111>    H       -1.78994       -11.03143         0.54122
|112>    H       -2.05002       -10.94051        -1.19765
|113>    H       -4.17293        -9.77604        -3.63973
|114>    H       -3.15410        -8.76425        -4.66076
|115>    H       -4.53615        -8.06273        -3.83187
|116>    H       -8.28004        -6.57575         2.83568
|117>    H       -8.67323        -8.11700         2.09593
|118>    H       -8.60059        -5.41526         0.66167
|119>    H      -10.05298        -6.24959         1.20783
|120>    H       -9.08346        -6.93495        -0.08749
|121>    H       -4.87151        -7.70586         2.55931
|122>    H       -6.30144        -7.86897         3.56918
|123>    H       -5.13866        -5.23925         2.51631
|124>    H       -5.00045        -5.84532         4.16456
|125>    H       -6.57165        -5.36437         3.53377
|126> *
|127>
|128>                          ****END OF INPUT****
 Total Charge           Charge          ....    0
 Multiplicity           Mult            ....    1
 Number of Electrons    NEL             ....  590
Dispersion correction           -0.370438844
FINAL SINGLE POINT ENERGY     -5810.028053778391
Dispersion correction            ... done
Dispersion correction           -0.367504437
FINAL SINGLE POINT ENERGY     -5810.047049533814
Dispersion correction            ... done
Dispersion correction           -0.367981756
FINAL SINGLE POINT ENERGY     -5810.046454711241
Dispersion correction            ... done
FINAL SINGLE POINT ENERGY     -5810.046873946123
FINAL SINGLE POINT ENERGY     -5810.047861979901
FINAL SINGLE POINT ENERGY     -5810.047444186003
FINAL SINGLE POINT ENERGY     -5810.046356397862
FINAL SINGLE POINT ENERGY     -5810.047660294295
FINAL SINGLE POINT ENERGY     -5810.048238021461
FINAL SINGLE POINT ENERGY     -5810.048162233447
FINAL SINGLE POINT ENERGY     -5810.048295604056
FINAL SINGLE POINT ENERGY     -5810.048313542466
FINAL SINGLE POINT ENERGY     -5810.048342403986
FINAL SINGLE POINT ENERGY     -5810.048366739270
FINAL SINGLE POINT ENERGY     -5810.048293692896
FINAL SINGLE POINT ENERGY     -5810.048277660878
FINAL SINGLE POINT ENERGY     -5810.048299301857
Dispersion correction            ... done
Dispersion correction           -0.365990758
FINAL SINGLE POINT ENERGY     -5810.048300437686
Dispersion correction            ... done
Dispersion correction           -0.365950004
FINAL SINGLE POINT ENERGY     -5810.048255551994
Dispersion correction            ... done
                    ***********************HURRAY********************

CARTESIAN COORDINATES (ANGSTROEM)
---------------------------------
  C      2.161976   -2.525131   -2.227158
  O      2.607507   -2.385107   -3.348330
  C      2.923802   -2.657512   -0.957967
  C      4.300878   -2.704808   -0.776416
  C      4.800653   -2.822132    0.522262
  C      3.908381   -2.877291    1.603398
  Cl     4.547768   -3.013744    3.216032
  C      2.518031   -2.825057    1.432921
  C      2.024703   -2.724084    0.129475
  C      0.638343   -2.593062   -0.392242
  C     -0.472444   -2.231940    0.353298
  C     -1.652365   -1.711339   -0.262077
  N     -2.586508   -1.232320   -0.760638
  C     -0.476490   -2.231353    1.780966
  N     -0.493237   -2.254784    2.943118
  C      0.720187   -2.648154   -1.841076
  C     -0.204006   -2.843737   -2.838430
  C     -1.509170   -3.392852   -2.836689
  S     -2.087209   -4.521071   -1.598126
  C     -3.607368   -4.680417   -2.415080
  C     -3.640500   -3.906642   -3.596610
  C     -2.463621   -3.178430   -3.846883
  C     -2.270348   -2.195424   -4.964911
  C     -2.306589   -0.739461   -4.472637
  S     -5.138897   -4.090598   -4.510428
  C     -5.705556   -5.214563   -3.305995
  C     -4.807999   -5.404066   -2.241998
  N     -5.336188   -6.316695   -1.346840
  C     -4.505680   -6.926862   -0.314530
  C     -6.575847   -6.733812   -1.838653
  C     -6.797737   -6.078507   -3.092679
  C     -7.868321   -6.467769   -3.960041
  N     -8.112345   -6.013592   -5.181219
  S     -9.383060   -6.894896   -5.776116
  N     -9.637978   -7.885600   -4.473354
  C     -8.744517   -7.547355   -3.553223
  C     -8.590940   -8.107009   -2.244242
  C     -7.553210   -7.674177   -1.358157
  N     -7.727103   -8.328617   -0.134484
  C     -7.179817   -8.003601    1.182658
  C     -7.327094   -6.541532    1.637949
  C     -8.794170   -9.202054   -0.268830
  C     -9.345139   -9.075849   -1.553317
  S    -10.664835  -10.168191   -1.861388
  C    -10.450874  -10.851511   -0.245283
  C     -9.434423  -10.207336    0.494733
  S     -9.255830  -10.921717    2.057990
  C    -10.496870  -12.141697    1.680909
  C    -11.067412  -11.942286    0.410329
  C    -12.280241  -12.649714   -0.134855
  C    -12.083861  -13.283648   -1.519936
  C    -10.799066  -13.067609    2.721967
  C    -11.174458  -14.389051    2.602971
  C    -11.681153  -15.266566    3.659232
  C    -12.050141  -14.912996    4.944752
  C    -11.982040  -13.575920    5.448197
  N    -11.935440  -12.505133    5.898198
  C    -12.529012  -15.857938    5.905696
  N    -12.912031  -16.606406    6.708172
  C    -11.778524  -16.637331    3.091959
  C    -12.238183  -17.841511    3.634970
  C    -12.221699  -18.978759    2.815757
  Cl   -12.809664  -20.483690    3.458750
  C    -11.753913  -18.947355    1.493387
  C    -11.287402  -17.745562    0.961288
  C    -11.314854  -16.610419    1.762724
  C    -10.897943  -15.236286    1.399702
  O    -10.361446  -14.910336    0.358884
  C     -4.151097   -8.403308   -0.544903
  C     -3.308618   -8.638450   -1.814386
  C     -3.432048   -8.929508    0.712489
  C     -3.408632  -10.451105    0.823544
  C     -4.066500   -8.649091   -3.144239
  C     -8.791721   -6.087827    1.784272
  C     -9.550147   -5.800304    0.486215
  C     -6.546258   -6.374723    2.960542
  C     -6.224445   -4.925828    3.328704
  H      4.965412   -2.645716   -1.640792
  H      5.873613   -2.867612    0.715044
  H      1.871557   -2.866894    2.306692
  H      0.186551   -2.589631   -3.832748
  H     -3.049337   -2.361981   -5.725833
  H     -1.307475   -2.392985   -5.466547
  H     -3.257512   -0.515615   -3.965642
  H     -2.180754   -0.044331   -5.316300
  H     -1.502565   -0.548475   -3.746697
  H     -4.982599   -6.791547    0.661699
  H     -3.578463   -6.340284   -0.273387
  H     -6.129493   -8.316737    1.227773
  H     -7.713787   -8.640737    1.900916
  H     -6.848726   -5.891919    0.884021
  H    -13.086176  -11.894682   -0.190151
  H    -12.622946  -13.405273    0.582629
  H    -11.831263  -12.530291   -2.280856
  H    -13.010758  -13.782842   -1.843714
  H    -11.277640  -14.026492   -1.494042
  H    -10.678953  -12.667090    3.732276
  H    -12.609001  -17.927594    4.652521
  H    -11.764648  -19.863422    0.901325
  H    -10.909516  -17.677930   -0.060368
  H     -5.095717   -8.965635   -0.651942
  H     -2.804468   -9.611415   -1.704224
  H     -2.497682   -7.888452   -1.847092
  H     -3.920580   -8.516877    1.612838
  H     -2.402435   -8.529527    0.728285
  H     -4.431602  -10.859794    0.868136
  H     -2.877166  -10.774371    1.731332
  H     -2.902707  -10.922692   -0.032309
  H     -4.942905   -9.315424   -3.097877
  H     -3.414781   -9.013626   -3.952974
  H     -4.425220   -7.654828   -3.441575
  H     -8.793729   -5.168330    2.390752
  H     -9.338089   -6.837847    2.384455
  H     -8.957925   -5.161394   -0.189126
  H    -10.489683   -5.269974    0.705972
  H     -9.816323   -6.711075   -0.067197
  H     -5.598374   -6.937029    2.893746
  H     -7.117004   -6.856604    3.774564
  H     -5.663604   -4.427968    2.520165
  H     -5.608838   -4.875936    4.239730
  H     -7.132445   -4.333484    3.516385

 Multiplicity           Mult            ....    1
 Number of Electrons    NEL             ....  590
 Basis Dimension        Dim             .... 1326

ORBITAL ENERGIES
----------------

  NO   OCC          E(Eh)            E(eV)
   0   2.0000    -101.523526     -2762.5956
   1   2.0000    -101.523324     -2762.5901
   2   2.0000     -88.935123     -2420.0477
   3   2.0000     -88.906322     -2419.2640
   4   2.0000     -88.903749     -2419.1940
   5   2.0000     -88.900063     -2419.0937
   6   2.0000     -88.899010     -2419.0650
   7   2.0000     -19.143198      -520.9129
   8   2.0000     -19.139797      -520.8203
   9   2.0000     -14.419654      -392.3787
  10   2.0000     -14.419563      -392.3763
  11   2.0000     -14.366430      -390.9304
  12   2.0000     -14.366289      -390.9266
  13   2.0000     -14.346074      -390.3765
  14   2.0000     -14.344466      -390.3328
  15   2.0000     -14.344190      -390.3253
  16   2.0000     -14.341930      -390.2638
  17   2.0000     -10.292284      -280.0673
  18   2.0000     -10.288596      -279.9669
  19   2.0000     -10.276065      -279.6259
  20   2.0000     -10.275460      -279.6095
  21   2.0000     -10.275359      -279.6067
  22   2.0000     -10.274767      -279.5906
  23   2.0000     -10.274705      -279.5889
  24   2.0000     -10.272867      -279.5389
  25   2.0000     -10.268727      -279.4263
  26   2.0000     -10.267686      -279.3979
  27   2.0000     -10.261913      -279.2408
  28   2.0000     -10.261253      -279.2229
  29   2.0000     -10.260831      -279.2114
  30   2.0000     -10.260650      -279.2065
  31   2.0000     -10.257146      -279.1111
  32   2.0000     -10.256462      -279.0925
  33   2.0000     -10.255467      -279.0654
  34   2.0000     -10.255192      -279.0580
  35   2.0000     -10.249278      -278.8970
  36   2.0000     -10.249203      -278.8950
  37   2.0000     -10.248970      -278.8886
  38   2.0000     -10.247726      -278.8548
  39   2.0000     -10.247625      -278.8521
  40   2.0000     -10.247472      -278.8479
  41   2.0000     -10.245233      -278.7870
  42   2.0000     -10.245199      -278.7860
  43   2.0000     -10.244257      -278.7604
  44   2.0000     -10.243332      -278.7352
  45   2.0000     -10.242071      -278.7009
  46   2.0000     -10.241729      -278.6916
  47   2.0000     -10.241619      -278.6886
  48   2.0000     -10.240362      -278.6544
  49   2.0000     -10.240361      -278.6544
  50   2.0000     -10.240263      -278.6517
  51   2.0000     -10.232050      -278.4282
  52   2.0000     -10.231157      -278.4039
  53   2.0000     -10.230420      -278.3839
  54   2.0000     -10.230283      -278.3802
  55   2.0000     -10.230183      -278.3774
  56   2.0000     -10.230095      -278.3750
  57   2.0000     -10.229507      -278.3590
  58   2.0000     -10.229226      -278.3514
  59   2.0000     -10.229134      -278.3489
  60   2.0000     -10.223258      -278.1890
  61   2.0000     -10.221599      -278.1439
  62   2.0000     -10.221551      -278.1425
  63   2.0000     -10.219311      -278.0816
  64   2.0000     -10.219219      -278.0791
  65   2.0000     -10.218961      -278.0721
  66   2.0000     -10.211868      -277.8790
  67   2.0000     -10.211217      -277.8614
  68   2.0000     -10.209390      -277.8116
  69   2.0000     -10.203895      -277.6621
  70   2.0000     -10.202434      -277.6223
  71   2.0000     -10.200049      -277.5575
  72   2.0000     -10.196492      -277.4606
  73   2.0000     -10.195063      -277.4218
  74   2.0000     -10.191343      -277.3205
  75   2.0000     -10.190273      -277.2914
  76   2.0000     -10.188398      -277.2404
  77   2.0000      -9.477553      -257.8973
  78   2.0000      -9.477465      -257.8949
  79   2.0000      -8.026575      -218.4142
  80   2.0000      -7.999517      -217.6779
  81   2.0000      -7.997585      -217.6254
  82   2.0000      -7.993311      -217.5090
  83   2.0000      -7.991976      -217.4727
  84   2.0000      -7.246652      -197.1914
  85   2.0000      -7.246549      -197.1886
  86   2.0000      -7.236889      -196.9258
  87   2.0000      -7.236808      -196.9236
  88   2.0000      -7.236340      -196.9108
  89   2.0000      -7.236218      -196.9075
  90   2.0000      -5.996930      -163.1848
  91   2.0000      -5.989740      -162.9891
  92   2.0000      -5.986817      -162.9096
  93   2.0000      -5.968071      -162.3995
  94   2.0000      -5.966027      -162.3438
  95   2.0000      -5.964118      -162.2919
  96   2.0000      -5.962221      -162.2403
  97   2.0000      -5.962007      -162.2345
  98   2.0000      -5.960660      -162.1978
  99   2.0000      -5.960007      -162.1800
 100   2.0000      -5.958171      -162.1301
 101   2.0000      -5.958070      -162.1273
 102   2.0000      -5.956836      -162.0938
 103   2.0000      -5.953354      -161.9990
 104   2.0000      -5.952053      -161.9636
 105   2.0000      -1.049237       -28.5512
 106   2.0000      -1.044841       -28.4316
 107   2.0000      -1.030420       -28.0391
 108   2.0000      -1.020348       -27.7651
 109   2.0000      -1.017434       -27.6858
 110   2.0000      -0.931746       -25.3541
 111   2.0000      -0.930452       -25.3189
 112   2.0000      -0.927345       -25.2343
 113   2.0000      -0.926397       -25.2085
 114   2.0000      -0.917251       -24.9597
 115   2.0000      -0.915550       -24.9134
 116   2.0000      -0.909920       -24.7602
 117   2.0000      -0.908077       -24.7100
 118   2.0000      -0.896174       -24.3861
 119   2.0000      -0.892336       -24.2817
 120   2.0000      -0.891572       -24.2609
 121   2.0000      -0.883854       -24.0509
 122   2.0000      -0.874050       -23.7841
 123   2.0000      -0.863269       -23.4908
 124   2.0000      -0.848147       -23.0792
 125   2.0000      -0.845750       -23.0140
 126   2.0000      -0.841253       -22.8917
 127   2.0000      -0.838208       -22.8088
 128   2.0000      -0.820351       -22.3229
 129   2.0000      -0.815879       -22.2012
 130   2.0000      -0.812454       -22.1080
 131   2.0000      -0.810901       -22.0657
 132   2.0000      -0.805183       -21.9101
 133   2.0000      -0.793410       -21.5898
 134   2.0000      -0.788049       -21.4439
 135   2.0000      -0.782398       -21.2901
 136   2.0000      -0.777727       -21.1630
 137   2.0000      -0.774110       -21.0646
 138   2.0000      -0.773726       -21.0541
 139   2.0000      -0.763745       -20.7825
 140   2.0000      -0.761568       -20.7233
 141   2.0000      -0.757467       -20.6117
 142   2.0000      -0.740905       -20.1611
 143   2.0000      -0.739871       -20.1329
 144   2.0000      -0.734925       -19.9983
 145   2.0000      -0.725367       -19.7382
 146   2.0000      -0.719777       -19.5861
 147   2.0000      -0.718060       -19.5394
 148   2.0000      -0.707344       -19.2478
 149   2.0000      -0.689439       -18.7606
 150   2.0000      -0.680265       -18.5110
 151   2.0000      -0.679664       -18.4946
 152   2.0000      -0.676607       -18.4114
 153   2.0000      -0.672876       -18.3099
 154   2.0000      -0.654336       -17.8054
 155   2.0000      -0.650111       -17.6904
 156   2.0000      -0.644265       -17.5313
 157   2.0000      -0.640454       -17.4276
 158   2.0000      -0.633750       -17.2452
 159   2.0000      -0.629717       -17.1355
 160   2.0000      -0.627137       -17.0653
 161   2.0000      -0.623637       -16.9700
 162   2.0000      -0.621586       -16.9142
 163   2.0000      -0.613008       -16.6808
 164   2.0000      -0.611098       -16.6288
 165   2.0000      -0.604977       -16.4623
 166   2.0000      -0.595217       -16.1967
 167   2.0000      -0.594931       -16.1889
 168   2.0000      -0.590781       -16.0760
 169   2.0000      -0.587175       -15.9778
 170   2.0000      -0.586603       -15.9623
 171   2.0000      -0.574586       -15.6353
 172   2.0000      -0.571138       -15.5414
 173   2.0000      -0.569349       -15.4928
 174   2.0000      -0.558926       -15.2092
 175   2.0000      -0.552057       -15.0222
 176   2.0000      -0.544909       -14.8277
 177   2.0000      -0.540858       -14.7175
 178   2.0000      -0.539076       -14.6690
 179   2.0000      -0.533155       -14.5079
 180   2.0000      -0.529810       -14.4169
 181   2.0000      -0.525370       -14.2960
 182   2.0000      -0.520249       -14.1567
 183   2.0000      -0.514973       -14.0131
 184   2.0000      -0.512415       -13.9435
 185   2.0000      -0.508231       -13.8297
 186   2.0000      -0.502910       -13.6849
 187   2.0000      -0.501388       -13.6435
 188   2.0000      -0.498812       -13.5734
 189   2.0000      -0.489392       -13.3170
 190   2.0000      -0.484510       -13.1842
 191   2.0000      -0.482923       -13.1410
 192   2.0000      -0.479702       -13.0533
 193   2.0000      -0.477054       -12.9813
 194   2.0000      -0.475054       -12.9269
 195   2.0000      -0.473017       -12.8715
 196   2.0000      -0.470939       -12.8149
 197   2.0000      -0.469840       -12.7850
 198   2.0000      -0.468527       -12.7493
 199   2.0000      -0.465493       -12.6667
 200   2.0000      -0.463255       -12.6058
 201   2.0000      -0.460478       -12.5302
 202   2.0000      -0.458698       -12.4818
 203   2.0000      -0.458171       -12.4675
 204   2.0000      -0.455463       -12.3938
 205   2.0000      -0.453221       -12.3328
 206   2.0000      -0.451811       -12.2944
 207   2.0000      -0.451029       -12.2731
 208   2.0000      -0.448502       -12.2043
 209   2.0000      -0.446433       -12.1480
 210   2.0000      -0.445520       -12.1232
 211   2.0000      -0.444081       -12.0841
 212   2.0000      -0.441374       -12.0104
 213   2.0000      -0.438006       -11.9187
 214   2.0000      -0.436762       -11.8849
 215   2.0000      -0.434667       -11.8279
 216   2.0000      -0.433837       -11.8053
 217   2.0000      -0.431175       -11.7329
 218   2.0000      -0.427007       -11.6195
 219   2.0000      -0.426010       -11.5923
 220   2.0000      -0.422896       -11.5076
 221   2.0000      -0.421430       -11.4677
 222   2.0000      -0.420303       -11.4370
 223   2.0000      -0.418539       -11.3890
 224   2.0000      -0.416645       -11.3375
 225   2.0000      -0.414624       -11.2825
 226   2.0000      -0.411913       -11.2087
 227   2.0000      -0.411373       -11.1940
 228   2.0000      -0.408525       -11.1165
 229   2.0000      -0.404911       -11.0182
 230   2.0000      -0.402494       -10.9524
 231   2.0000      -0.401939       -10.9373
 232   2.0000      -0.400131       -10.8881
 233   2.0000      -0.397108       -10.8059
 234   2.0000      -0.395540       -10.7632
 235   2.0000      -0.394100       -10.7240
 236   2.0000      -0.393167       -10.6986
 237   2.0000      -0.392950       -10.6927
 238   2.0000      -0.391957       -10.6657
 239   2.0000      -0.390790       -10.6339
 240   2.0000      -0.384839       -10.4720
 241   2.0000      -0.381192       -10.3728
 242   2.0000      -0.380647       -10.3579
 243   2.0000      -0.378512       -10.2998
 244   2.0000      -0.375840       -10.2271
 245   2.0000      -0.373955       -10.1758
 246   2.0000      -0.372369       -10.1327
 247   2.0000      -0.372013       -10.1230
 248   2.0000      -0.370785       -10.0896
 249   2.0000      -0.369430       -10.0527
 250   2.0000      -0.368164       -10.0183
 251   2.0000      -0.367038        -9.9876
 252   2.0000      -0.365467        -9.9448
 253   2.0000      -0.362493        -9.8639
 254   2.0000      -0.361640        -9.8407
 255   2.0000      -0.360752        -9.8166
 256   2.0000      -0.360075        -9.7981
 257   2.0000      -0.358763        -9.7624
 258   2.0000      -0.357980        -9.7411
 259   2.0000      -0.357652        -9.7322
 260   2.0000      -0.355155        -9.6643
 261   2.0000      -0.353306        -9.6139
 262   2.0000      -0.352640        -9.5958
 263   2.0000      -0.351138        -9.5549
 264   2.0000      -0.350544        -9.5388
 265   2.0000      -0.349662        -9.5148
 266   2.0000      -0.347985        -9.4692
 267   2.0000      -0.346296        -9.4232
 268   2.0000      -0.343603        -9.3499
 269   2.0000      -0.342776        -9.3274
 270   2.0000      -0.341048        -9.2804
 271   2.0000      -0.336939        -9.1686
 272   2.0000      -0.335417        -9.1272
 273   2.0000      -0.334478        -9.1016
 274   2.0000      -0.332942        -9.0598
 275   2.0000      -0.328365        -8.9353
 276   2.0000      -0.328045        -8.9266
 277   2.0000      -0.327871        -8.9218
 278   2.0000      -0.310170        -8.4401
 279   2.0000      -0.309478        -8.4213
 280   2.0000      -0.307139        -8.3577
 281   2.0000      -0.295354        -8.0370
 282   2.0000      -0.285807        -7.7772
 283   2.0000      -0.283850        -7.7240
 284   2.0000      -0.280583        -7.6350
 285   2.0000      -0.277023        -7.5382
 286   2.0000      -0.273324        -7.4375
 287   2.0000      -0.268864        -7.3161
 288   2.0000      -0.267008        -7.2657
 289   2.0000      -0.264383        -7.1942
 290   2.0000      -0.257190        -6.9985
 291   2.0000      -0.243879        -6.6363
 292   2.0000      -0.235226        -6.4008
 293   2.0000      -0.233110        -6.3432
 294   2.0000      -0.206411        -5.6167
 295   0.0000      -0.133753        -3.6396
 296   0.0000      -0.125863        -3.4249
 297   0.0000      -0.107420        -2.9231
 298   0.0000      -0.102962        -2.8017
 299   0.0000      -0.089208        -2.4275

MULLIKEN ATOMIC CHARGES
-----------------------
   0 C :    0.138447
   1 O :   -0.166353
   2 C :    0.006922
   3 C :   -0.024913
   4 C :    0.041993
   5 C :    0.052113
   6 Cl:   -0.072057
   7 C :   -0.000210
   8 C :    0.023313
   9 C :    0.223898
  10 C :   -0.303126
  11 C :   -0.154375
  12 N :    0.107538
  13 C :   -0.132148
  14 N :    0.089010
  15 C :   -0.118894
  16 C :   -0.012240
  17 C :   -0.105804
  18 S :    0.157877
  19 C :   -0.033709
  20 C :   -0.094301
  21 C :   -0.020471
  22 C :    0.056908
  23 C :    0.017648
  24 S :    0.199298
  25 C :   -0.092972
  26 C :    0.036239
  27 N :   -0.206042
  28 C :    0.235466
  29 C :    0.052015
  30 C :   -0.035639
  31 C :    0.003266
  32 N :   -0.284288
  33 S :    0.451371
  34 N :   -0.284630
  35 C :    0.012843
  36 C :   -0.034385
  37 C :    0.068635
  38 N :   -0.208092
  39 C :    0.228007
  40 C :   -0.144674
  41 C :    0.052567
  42 C :   -0.097626
  43 S :    0.187258
  44 C :   -0.109381
  45 C :   -0.039427
  46 S :    0.136590
  47 C :   -0.126813
  48 C :    0.016340
  49 C :    0.064649
  50 C :   -0.021744
  51 C :   -0.017626
  52 C :   -0.085762
  53 C :    0.252706
  54 C :   -0.312060
  55 C :   -0.150266
  56 N :    0.100273
  57 C :   -0.138204
  58 N :    0.101730
  59 C :    0.032646
  60 C :    0.009043
  61 C :    0.047154
  62 Cl:   -0.066711
  63 C :    0.046483
  64 C :   -0.015888
  65 C :   -0.017013
  66 C :    0.143659
  67 O :   -0.170807
  68 C :   -0.145536
  69 C :    0.006816
  70 C :    0.011918
  71 C :    0.030715
  72 C :    0.031698
  73 C :    0.014469
  74 C :    0.026803
  75 C :   -0.000816
  76 C :    0.022362
  77 H :    0.002933
  78 H :    0.000056
  79 H :   -0.001042
  80 H :    0.020502
  81 H :    0.009881
  82 H :    0.022082
  83 H :    0.032758
  84 H :    0.021931
  85 H :    0.027317
  86 H :   -0.002194
  87 H :    0.009445
  88 H :   -0.000951
  89 H :    0.007137
  90 H :    0.006379
  91 H :    0.026226
  92 H :    0.007135
  93 H :    0.017793
  94 H :    0.011750
  95 H :    0.051929
  96 H :    0.032307
  97 H :   -0.002535
  98 H :   -0.001315
  99 H :   -0.003481
 100 H :    0.003621
 101 H :   -0.002006
 102 H :   -0.000352
 103 H :   -0.005807
 104 H :    0.000674
 105 H :    0.009442
 106 H :    0.016236
 107 H :    0.018040
 108 H :    0.009860
 109 H :    0.014249
 110 H :    0.028416
 111 H :    0.001782
 112 H :   -0.000788
 113 H :    0.013429
 114 H :    0.014683
 115 H :    0.027770
 116 H :   -0.001202
 117 H :    0.004156
 118 H :    0.014967
 119 H :    0.022103
 120 H :    0.021004
Sum of atomic charges:    0.0000000

LOEWDIN ATOMIC CHARGES
----------------------
   0 C :    0.077598
   1 O :   -0.150638
   2 C :   -0.048277
   3 C :    0.017439
   4 C :   -0.024905
   5 C :   -0.097498
   6 Cl:    0.136250
   7 C :   -0.023906
   8 C :   -0.001142
   9 C :    0.053154
  10 C :   -0.140142
  11 C :   -0.024994
  12 N :   -0.062678
  13 C :   -0.015978
  14 N :   -0.064622
  15 C :   -0.101741
  16 C :    0.035995
  17 C :   -0.174593
  18 S :    0.435486
  19 C :   -0.188712
  20 C :   -0.184254
  21 C :   -0.012863
  22 C :   -0.027745
  23 C :   -0.041959
  24 S :    0.429172
  25 C :   -0.169499
  26 C :   -0.033185
  27 N :    0.041040
  28 C :    0.052319
  29 C :    0.013625
  30 C :   -0.072725
  31 C :   -0.051750
  32 N :   -0.279718
  33 S :    0.579637
  34 N :   -0.279418
  35 C :   -0.051828
  36 C :   -0.071311
  37 C :    0.012075
  38 N :    0.037544
  39 C :    0.052053
  40 C :   -0.041730
  41 C :   -0.034307
  42 C :   -0.172872
  43 S :    0.434798
  44 C :   -0.180117
  45 C :   -0.197428
  46 S :    0.420340
  47 C :   -0.164480
  48 C :   -0.009313
  49 C :   -0.026754
  50 C :   -0.054667
  51 C :    0.032091
  52 C :   -0.096707
  53 C :    0.062395
  54 C :   -0.132678
  55 C :   -0.016710
  56 N :   -0.059681
  57 C :   -0.013985
  58 N :   -0.058538
  59 C :   -0.003604
  60 C :   -0.019469
  61 C :   -0.098679
  62 Cl:    0.139081
  63 C :   -0.023221
  64 C :    0.017811
  65 C :   -0.048311
  66 C :    0.075064
  67 O :   -0.142527
  68 C :   -0.040777
  69 C :   -0.031794
  70 C :   -0.030263
  71 C :   -0.050565
  72 C :   -0.057503
  73 C :   -0.029608
  74 C :   -0.059841
  75 C :   -0.030601
  76 C :   -0.052120
  77 H :    0.042964
  78 H :    0.037643
  79 H :    0.040977
  80 H :    0.047081
  81 H :    0.029130
  82 H :    0.036635
  83 H :    0.032703
  84 H :    0.027990
  85 H :    0.027283
  86 H :    0.022506
  87 H :    0.023818
  88 H :    0.020323
  89 H :    0.024821
  90 H :    0.017960
  91 H :    0.038043
  92 H :    0.029901
  93 H :    0.011578
  94 H :    0.026554
  95 H :    0.030085
  96 H :    0.042767
  97 H :    0.041360
  98 H :    0.037463
  99 H :    0.041347
 100 H :    0.017757
 101 H :    0.023310
 102 H :    0.018811
 103 H :    0.014801
 104 H :    0.023673
 105 H :    0.022268
 106 H :    0.028398
 107 H :    0.023009
 108 H :    0.023173
 109 H :    0.027927
 110 H :    0.024472
 111 H :    0.024914
 112 H :    0.021222
 113 H :    0.023927
 114 H :    0.028605
 115 H :    0.024203
 116 H :    0.015736
 117 H :    0.024340
 118 H :    0.024144
 119 H :    0.030586
 120 H :    0.023757

  Mayer bond orders larger than 0.100000
B(  0-C ,  1-O ) :   2.1891 B(  0-C ,  2-C ) :   0.9376 B(  0-C , 15-C ) :   0.9497
B(  2-C ,  3-C ) :   1.3713 B(  2-C ,  8-C ) :   1.3152 B(  3-C ,  4-C ) :   1.3327
B(  3-C , 77-H ) :   0.9978 B(  4-C ,  5-C ) :   1.3727 B(  4-C , 78-H ) :   0.9868
B(  5-C ,  6-Cl) :   1.0011 B(  5-C ,  7-C ) :   1.3397 B(  7-C ,  8-C ) :   1.3499
B(  7-C , 79-H ) :   0.9812 B(  8-C ,  9-C ) :   1.0099 B(  9-C , 10-C ) :   1.5776
B(  9-C , 15-C ) :   1.0853 B( 10-C , 11-C ) :   1.1696 B( 10-C , 13-C ) :   1.1304
B( 11-C , 12-N ) :   2.9546 B( 13-C , 14-N ) :   2.9342 B( 15-C , 16-C ) :   1.5533
B( 16-C , 17-C ) :   1.2329 B( 16-C , 80-H ) :   0.9121 B( 17-C , 18-S ) :   1.0423
B( 17-C , 21-C ) :   1.3798 B( 18-S , 19-C ) :   1.0748 B( 19-C , 20-C ) :   1.3941
B( 19-C , 26-C ) :   1.3085 B( 20-C , 21-C ) :   1.3885 B( 20-C , 24-S ) :   1.0287
B( 21-C , 22-C ) :   1.0974 B( 22-C , 23-C ) :   1.1052 B( 22-C , 81-H ) :   0.9187
B( 22-C , 82-H ) :   0.8978 B( 23-C , 83-H ) :   0.9659 B( 23-C , 84-H ) :   0.9614
B( 23-C , 85-H ) :   0.9660 B( 24-S , 25-C ) :   1.0317 B( 25-C , 26-C ) :   1.3601
B( 25-C , 30-C ) :   1.3555 B( 26-C , 27-N ) :   1.1416 B( 27-N , 28-C ) :   0.9538
B( 27-N , 29-C ) :   1.1491 B( 28-C , 68-C ) :   1.0476 B( 28-C , 86-H ) :   0.9262
B( 28-C , 87-H ) :   0.9140 B( 29-C , 30-C ) :   1.3523 B( 29-C , 37-C ) :   1.1434
B( 30-C , 31-C ) :   1.1143 B( 31-C , 32-N ) :   1.6077 B( 31-C , 35-C ) :   1.1057
B( 32-N , 33-S ) :   1.1956 B( 32-N , 34-N ) :   0.1362 B( 33-S , 34-N ) :   1.1947
B( 34-N , 35-C ) :   1.6053 B( 35-C , 36-C ) :   1.1092 B( 36-C , 37-C ) :   1.3577
B( 36-C , 42-C ) :   1.3609 B( 37-C , 38-N ) :   1.1426 B( 38-N , 39-C ) :   0.9461
B( 38-N , 41-C ) :   1.1404 B( 39-C , 40-C ) :   1.0476 B( 39-C , 88-H ) :   0.9283
B( 39-C , 89-H ) :   0.9160 B( 40-C , 73-C ) :   1.0378 B( 40-C , 75-C ) :   1.0465
B( 40-C , 90-H ) :   0.9105 B( 41-C , 42-C ) :   1.3668 B( 41-C , 45-C ) :   1.2884
B( 42-C , 43-S ) :   1.0267 B( 43-S , 44-C ) :   1.0364 B( 44-C , 45-C ) :   1.3970
B( 44-C , 48-C ) :   1.3498 B( 45-C , 46-S ) :   1.0739 B( 46-S , 47-C ) :   1.0349
B( 47-C , 48-C ) :   1.4306 B( 47-C , 51-C ) :   1.1997 B( 48-C , 49-C ) :   1.0849
B( 49-C , 50-C ) :   1.0970 B( 49-C , 91-H ) :   0.9193 B( 49-C , 92-H ) :   0.9107
B( 50-C , 93-H ) :   0.9609 B( 50-C , 94-H ) :   0.9585 B( 50-C , 95-H ) :   0.9613
B( 51-C , 52-C ) :   1.5333 B( 51-C , 96-H ) :   0.9227 B( 52-C , 53-C ) :   1.1065
B( 52-C , 66-C ) :   0.9592 B( 53-C , 54-C ) :   1.5851 B( 53-C , 59-C ) :   0.9934
B( 54-C , 55-C ) :   1.1455 B( 54-C , 57-C ) :   1.1412 B( 55-C , 56-N ) :   2.9327
B( 57-C , 58-N ) :   2.9263 B( 59-C , 60-C ) :   1.3462 B( 59-C , 65-C ) :   1.3216
B( 60-C , 61-C ) :   1.3407 B( 60-C , 97-H ) :   0.9742 B( 61-C , 62-Cl) :   1.0087
B( 61-C , 63-C ) :   1.3712 B( 63-C , 64-C ) :   1.3308 B( 63-C , 98-H ) :   0.9855
B( 64-C , 65-C ) :   1.3678 B( 64-C , 99-H ) :   0.9934 B( 65-C , 66-C ) :   0.9507
B( 66-C , 67-O ) :   2.1223 B( 68-C , 69-C ) :   1.0362 B( 68-C , 70-C ) :   1.0473
B( 68-C ,100-H ) :   0.9106 B( 69-C , 72-C ) :   1.1207 B( 69-C ,101-H ) :   0.9369
B( 69-C ,102-H ) :   0.9328 B( 70-C , 71-C ) :   1.1074 B( 70-C ,103-H ) :   0.9338
B( 70-C ,104-H ) :   0.9321 B( 71-C ,105-H ) :   0.9658 B( 71-C ,106-H ) :   0.9609
B( 71-C ,107-H ) :   0.9638 B( 72-C ,108-H ) :   0.9602 B( 72-C ,109-H ) :   0.9580
B( 72-C ,110-H ) :   0.9626 B( 73-C , 74-C ) :   1.1189 B( 73-C ,111-H ) :   0.9376
B( 73-C ,112-H ) :   0.9351 B( 74-C ,113-H ) :   0.9603 B( 74-C ,114-H ) :   0.9555
B( 74-C ,115-H ) :   0.9622 B( 75-C , 76-C ) :   1.1114 B( 75-C ,116-H ) :   0.9360
B( 75-C ,117-H ) :   0.9335 B( 76-C ,118-H ) :   0.9651 B( 76-C ,119-H ) :   0.9594
B( 76-C ,120-H ) :   0.9623

Dispersion correction           -0.365950827
FINAL SINGLE POINT ENERGY     -5810.048251074257

DIPOLE MOMENT
-------------
                                X             Y             Z
Electronic contribution:     -6.73526     -26.58176       6.82110
Nuclear contribution   :      8.02762      25.95342      -9.09480
                        -----------------------------------------
Total Dipole Moment    :      1.29235      -0.62834      -2.27370
                        -----------------------------------------
Magnitude (a.u.)       :      2.68974
Magnitude (Debye)      :      6.83678

Rotational constants in cm-1:     0.001274     0.000273     0.000245
Rotational constants in MHz :    38.203686     8.176733     7.346980

                             ****ORCA TERMINATED NORMALLY****
TOTAL RUN TIME: 1 days 14 hours 8 minutes 24 seconds 301 msec
