                         Program Version 4.2.0 -  RELEASE  -
|  1> # ORCA input file
|  2> # SCF done       -150.570571488674          0.000440374964
|  3> ! B3LYP/G D3BJ Opt RIJCOSX def2-SVP def2/J
|  4> * xyz 0 1
|  5>    C        2.88652         1.02659        -0.08700
|  6>    C        2.83118        -0.38114        -0.23083
|  7>    C        1.61277        -1.02068        -0.21882
|  8>    C        0.46945        -0.22943        -0.12969
|  9>    C        0.52501         1.18369        -0.03973
| 10>    C        1.74388         1.81817         0.01433
| 11>    C       -0.90866        -0.59764        -0.07326
| 12>    C       -1.71299         0.53344         0.04841
| 13>    C       -0.86804         1.78008         0.02930
| 14>    C        4.26573         1.38863        -0.05776
| 15>    C        5.07584         0.26095        -0.18322
| 16>    C        4.22668        -0.97767        -0.32318
| 17>    S       -1.81135        -2.04477        -0.10141
| 18>    C       -3.31494        -1.12372         0.04327
| 19>    C       -3.06386         0.24412         0.11096
| 20>    S        5.15732         2.83704         0.06519
| 21>    C        6.66755         1.92889        -0.06935
| 22>    C        6.42600         0.56437        -0.20584
| 23>    C       -1.07359         2.63495         1.28901
| 24>    C       -1.23448         2.55801        -1.25702
| 25>    C       -0.38346         3.78448        -1.55617
| 26>    C       -0.85488         1.84330         2.57332
| 27>    C        4.51144        -1.58692        -1.71319
| 28>    C        4.43366        -1.96230         0.84451
| 29>    C        3.70239        -2.82597        -2.07238
| 30>    C        5.80714        -2.61813         0.89981
| 31>    C        7.84450         2.69675        -0.04753
| 32>    C       -4.49522        -1.88667         0.06658
| 33>    C       -5.81797        -1.53133         0.12786
| 34>    C        9.16969         2.34844        -0.09703
| 35>    C        9.77421         0.99716        -0.09216
| 36>    C       11.23315         1.21074        -0.04539
| 37>    C       11.51369         2.58655        -0.04546
| 38>    C       10.25128         3.32172        -0.10333
| 39>    C       -6.41477        -0.17656         0.15125
| 40>    C       -7.87553        -0.38114         0.13369
| 41>    C       -8.16442        -1.75501         0.12284
| 42>    C       -6.90542        -2.49851         0.13882
| 43>    C       12.23602         0.26187        -0.00458
| 44>    C       13.55147         0.70058         0.03816
| 45>    C       13.83844         2.05806         0.04168
| 46>    C       12.83195         3.01402         0.00018
| 47>    C       -8.87259         0.57466         0.12623
| 48>    C      -10.19148         0.14498         0.10614
| 49>    C      -10.48713        -1.21065         0.09319
| 50>    C       -9.48631        -2.17340         0.10152
| 51>    O        9.22436        -0.08656        -0.11004
| 52>    O       -5.85965         0.90410         0.17539
| 53>    C       -6.81175        -3.86555         0.17815
| 54>    C       10.14898         4.68602        -0.18855
| 55>    C        8.96121         5.44015        -0.30184
| 56>    C       11.25408         5.56468        -0.19620
| 57>    C       -5.62882        -4.63393         0.22841
| 58>    C       -7.92326        -4.73621         0.18701
| 59>    N        8.05874         6.14357        -0.40815
| 60>    N       12.09718         6.34392        -0.20563
| 61>    N       -8.77025        -5.51116         0.19419
| 62>    N       -4.73134        -5.34981         0.27798
| 63>    H        1.51920        -2.09430        -0.26153
| 64>    H        1.83750         2.88468         0.14608
| 65>    H       -3.85495         0.96452         0.20418
| 66>    H        7.22959        -0.13852        -0.32027
| 67>    H       -2.09011         3.03236         1.27554
| 68>    H       -0.37878         3.47488         1.26659
| 69>    H       -2.28042         2.85886        -1.16749
| 70>    H       -1.16075         1.86619        -2.10041
| 71>    H       -0.41704         4.50100        -0.74021
| 72>    H       -0.76600         4.27462        -2.44868
| 73>    H        0.65020         3.50661        -1.74275
| 74>    H       -1.56771         1.02546         2.65019
| 75>    H       -0.98463         2.49102         3.43687
| 76>    H        0.15022         1.42736         2.60328
| 77>    H        5.57537        -1.82366        -1.75892
| 78>    H        4.31806        -0.81123        -2.45937
| 79>    H        3.66633        -2.73539         0.78279
| 80>    H        4.26415        -1.41059         1.77335
| 81>    H        3.83323        -3.61422        -1.33632
| 82>    H        4.03817        -3.20541        -3.03508
| 83>    H        2.64481        -2.59221        -2.15603
| 84>    H        5.85552        -3.27662         1.76444
| 85>    H        6.59380        -1.87597         0.99731
| 86>    H        5.99790        -3.21458         0.01217
| 87>    H        7.64416         3.75932         0.02440
| 88>    H       -4.30031        -2.95133         0.01483
| 89>    H       11.98680        -0.78820        -0.00659
| 90>    H       14.35774        -0.01668         0.06972
| 91>    H       14.86728         2.38362         0.07722
| 92>    H       13.08856         4.06028         0.00623
| 93>    H       -8.61608         1.62287         0.13628
| 94>    H      -10.99353         0.86762         0.10027
| 95>    H      -11.51859        -1.52928         0.07606
| 96>    H       -9.75026        -3.21772         0.08928
| 97> *
| 98>
| 99>                          ****END OF INPUT****
 Total Charge           Charge          ....    0
 Multiplicity           Mult            ....    1
 Number of Electrons    NEL             ....  410
Dispersion correction           -0.258748377
FINAL SINGLE POINT ENERGY     -3089.916520825377
Dispersion correction            ... done
Dispersion correction           -0.256311845
FINAL SINGLE POINT ENERGY     -3089.931334709830
Dispersion correction            ... done
Dispersion correction           -0.255610707
FINAL SINGLE POINT ENERGY     -3089.931823040222
Dispersion correction            ... done
FINAL SINGLE POINT ENERGY     -3089.931280984035
FINAL SINGLE POINT ENERGY     -3089.931041442855
FINAL SINGLE POINT ENERGY     -3089.931646861406
FINAL SINGLE POINT ENERGY     -3089.930372308285
FINAL SINGLE POINT ENERGY     -3089.931092758525
FINAL SINGLE POINT ENERGY     -3089.930903332534
FINAL SINGLE POINT ENERGY     -3089.930833385802
FINAL SINGLE POINT ENERGY     -3089.930949986969
FINAL SINGLE POINT ENERGY     -3089.930979708916
FINAL SINGLE POINT ENERGY     -3089.930940391107
FINAL SINGLE POINT ENERGY     -3089.930948408119
FINAL SINGLE POINT ENERGY     -3089.930968263306
Dispersion correction            ... done
Dispersion correction           -0.256053980
FINAL SINGLE POINT ENERGY     -3089.930955202208
Dispersion correction            ... done
Dispersion correction           -0.256056261
FINAL SINGLE POINT ENERGY     -3089.930969882447
Dispersion correction            ... done
                    ***********************HURRAY********************

CARTESIAN COORDINATES (ANGSTROEM)
---------------------------------
  C      2.881912    1.084537   -0.599909
  C      2.820371   -0.334517   -0.736661
  C      1.584606   -0.964817   -0.759788
  C      0.432704   -0.163930   -0.693105
  C      0.492597    1.259818   -0.625964
  C      1.728393    1.887622   -0.558964
  C     -0.958974   -0.525977   -0.592483
  C     -1.766452    0.611857   -0.501403
  C     -0.916504    1.872046   -0.566448
  C      4.276252    1.425713   -0.462150
  C      5.079775    0.281069   -0.531389
  C      4.224505   -0.958611   -0.745310
  S     -1.839434   -1.981131   -0.426684
  C     -3.352388   -1.068304   -0.212082
  C     -3.118385    0.316143   -0.301606
  S      5.175473    2.855465   -0.189560
  C      6.692007    1.924929   -0.171573
  C      6.442256    0.559330   -0.389210
  C     -1.124118    2.755935    0.687610
  C     -1.262518    2.648079   -1.873110
  C     -0.544830    3.976956   -2.100972
  C     -0.988241    2.023543    2.021489
  C      4.573528   -1.583985   -2.129672
  C      4.357696   -1.965439    0.429063
  C      3.869621   -2.890592   -2.489120
  C      5.746142   -2.571115    0.635879
  C      7.867840    2.672122    0.092469
  C     -4.490362   -1.862730    0.083921
  C     -5.813564   -1.562328    0.330926
  C      9.199730    2.323009    0.198774
  C      9.809864    0.977620   -0.011824
  C     11.275858    1.165725    0.116523
  C     11.564056    2.513166    0.407469
  C     10.286593    3.259578    0.517716
  C     -6.476876   -0.229702    0.233960
  C     -7.925802   -0.477623    0.440945
  C     -8.150228   -1.848235    0.676626
  C     -6.844249   -2.550250    0.679369
  C     12.267845    0.202812   -0.019954
  C     13.598845    0.605620    0.125750
  C     13.903118    1.946443    0.398685
  C     12.900095    2.911631    0.544321
  C     -8.958312    0.451368    0.409530
  C    -10.264736   -0.009428    0.601219
  C    -10.505889   -1.373205    0.817364
  C     -9.461883   -2.304289    0.862199
  O      9.264410   -0.089044   -0.246969
  O     -5.977472    0.862568    0.017653
  C     -6.667756   -3.880539    1.018968
  C     10.184371    4.584814    0.905436
  C      8.948561    5.284372    1.082735
  C     11.316252    5.403961    1.212931
  C     -5.395881   -4.529811    1.112754
  C     -7.748035   -4.753233    1.363226
  N      7.969368    5.892769    1.235903
  N     12.196270    6.114992    1.478826
  N     -8.587882   -5.503379    1.650765
  N     -4.386611   -5.099708    1.206535
  H      1.495894   -2.052083   -0.795443
  H      1.815647    2.969115   -0.437556
  H     -3.937589    1.023666   -0.188349
  H      7.268067   -0.146150   -0.425178
  H     -2.125236    3.214839    0.614246
  H     -0.406810    3.591767    0.650491
  H     -2.351540    2.824792   -1.863449
  H     -1.067457    1.972439   -2.722093
  H     -0.740871    4.698568   -1.293198
  H     -0.900774    4.436807   -3.036236
  H      0.544900    3.851413   -2.191623
  H     -1.752174    1.239802    2.135770
  H     -1.105087    2.726466    2.860437
  H     -0.002892    1.540510    2.118951
  H      5.664057   -1.742222   -2.159327
  H      4.357557   -0.823157   -2.897469
  H      3.626172   -2.773842    0.268186
  H      4.039046   -1.448379    1.349355
  H      4.092438   -3.692093   -1.768314
  H      4.210220   -3.240409   -3.476121
  H      2.776531   -2.774387   -2.543062
  H      5.719694   -3.324746    1.438295
  H      6.484680   -1.811253    0.926987
  H      6.120979   -3.072910   -0.269492
  H      7.653595    3.728126    0.256241
  H     -4.241812   -2.922953    0.142177
  H     11.991118   -0.830003   -0.241886
  H     14.406554   -0.122112    0.021198
  H     14.946811    2.251961    0.504624
  H     13.176079    3.939974    0.764597
  H     -8.731468    1.504633    0.230642
  H    -11.102599    0.690765    0.579305
  H    -11.530388   -1.724516    0.960652
  H     -9.688096   -3.352940    1.041081

 Multiplicity           Mult            ....    1
 Number of Electrons    NEL             ....  410
 Basis Dimension        Dim             ....  990

ORBITAL ENERGIES
----------------

  NO   OCC          E(Eh)            E(eV)
   0   2.0000     -88.902511     -2419.1603
   1   2.0000     -88.902479     -2419.1594
   2   2.0000     -19.144028      -520.9355
   3   2.0000     -19.143534      -520.9220
   4   2.0000     -14.344627      -390.3372
   5   2.0000     -14.344363      -390.3300
   6   2.0000     -14.340761      -390.2319
   7   2.0000     -14.340641      -390.2287
   8   2.0000     -10.291965      -280.0586
   9   2.0000     -10.291535      -280.0469
  10   2.0000     -10.271209      -279.4938
  11   2.0000     -10.271200      -279.4936
  12   2.0000     -10.265644      -279.3424
  13   2.0000     -10.265438      -279.3368
  14   2.0000     -10.249368      -278.8995
  15   2.0000     -10.248363      -278.8721
  16   2.0000     -10.248256      -278.8692
  17   2.0000     -10.247903      -278.8596
  18   2.0000     -10.246343      -278.8172
  19   2.0000     -10.246316      -278.8164
  20   2.0000     -10.246037      -278.8088
  21   2.0000     -10.245362      -278.7905
  22   2.0000     -10.244482      -278.7665
  23   2.0000     -10.244397      -278.7642
  24   2.0000     -10.232912      -278.4517
  25   2.0000     -10.232883      -278.4509
  26   2.0000     -10.232252      -278.4337
  27   2.0000     -10.232015      -278.4273
  28   2.0000     -10.231773      -278.4207
  29   2.0000     -10.231761      -278.4204
  30   2.0000     -10.227530      -278.3052
  31   2.0000     -10.227180      -278.2957
  32   2.0000     -10.225223      -278.2425
  33   2.0000     -10.225020      -278.2369
  34   2.0000     -10.223949      -278.2078
  35   2.0000     -10.223439      -278.1939
  36   2.0000     -10.223241      -278.1885
  37   2.0000     -10.223171      -278.1866
  38   2.0000     -10.222460      -278.1673
  39   2.0000     -10.222415      -278.1660
  40   2.0000     -10.222031      -278.1556
  41   2.0000     -10.221887      -278.1517
  42   2.0000     -10.221554      -278.1426
  43   2.0000     -10.221424      -278.1391
  44   2.0000     -10.220330      -278.1093
  45   2.0000     -10.218463      -278.0585
  46   2.0000     -10.217542      -278.0335
  47   2.0000     -10.217526      -278.0330
  48   2.0000     -10.216718      -278.0110
  49   2.0000     -10.216537      -278.0061
  50   2.0000     -10.208004      -277.7739
  51   2.0000     -10.207785      -277.7679
  52   2.0000     -10.206714      -277.7388
  53   2.0000     -10.206712      -277.7387
  54   2.0000     -10.196527      -277.4616
  55   2.0000     -10.195923      -277.4452
  56   2.0000     -10.191926      -277.3364
  57   2.0000     -10.190318      -277.2926
  58   2.0000      -7.997056      -217.6110
  59   2.0000      -7.996985      -217.6090
  60   2.0000      -5.964999      -162.3159
  61   2.0000      -5.964901      -162.3132
  62   2.0000      -5.961250      -162.2139
  63   2.0000      -5.961237      -162.2135
  64   2.0000      -5.958344      -162.1348
  65   2.0000      -5.958244      -162.1321
  66   2.0000      -1.047195       -28.4956
  67   2.0000      -1.046690       -28.4819
  68   2.0000      -0.933141       -25.3920
  69   2.0000      -0.926852       -25.2209
  70   2.0000      -0.926199       -25.2032
  71   2.0000      -0.923844       -25.1391
  72   2.0000      -0.908314       -24.7165
  73   2.0000      -0.908134       -24.7116
  74   2.0000      -0.903872       -24.5956
  75   2.0000      -0.903677       -24.5903
  76   2.0000      -0.886800       -24.1311
  77   2.0000      -0.866554       -23.5801
  78   2.0000      -0.857000       -23.3201
  79   2.0000      -0.854780       -23.2598
  80   2.0000      -0.830948       -22.6112
  81   2.0000      -0.818808       -22.2809
  82   2.0000      -0.814421       -22.1615
  83   2.0000      -0.808754       -22.0073
  84   2.0000      -0.800314       -21.7777
  85   2.0000      -0.786202       -21.3936
  86   2.0000      -0.772549       -21.0221
  87   2.0000      -0.772379       -21.0175
  88   2.0000      -0.768631       -20.9155
  89   2.0000      -0.765537       -20.8313
  90   2.0000      -0.763037       -20.7633
  91   2.0000      -0.760044       -20.6818
  92   2.0000      -0.757937       -20.6245
  93   2.0000      -0.753909       -20.5149
  94   2.0000      -0.727139       -19.7865
  95   2.0000      -0.715561       -19.4714
  96   2.0000      -0.696096       -18.9417
  97   2.0000      -0.688289       -18.7293
  98   2.0000      -0.682883       -18.5822
  99   2.0000      -0.681900       -18.5555
 100   2.0000      -0.673283       -18.3210
 101   2.0000      -0.650968       -17.7137
 102   2.0000      -0.637227       -17.3398
 103   2.0000      -0.630201       -17.1486
 104   2.0000      -0.627973       -17.0880
 105   2.0000      -0.624790       -17.0014
 106   2.0000      -0.615696       -16.7539
 107   2.0000      -0.614956       -16.7338
 108   2.0000      -0.609805       -16.5936
 109   2.0000      -0.603843       -16.4314
 110   2.0000      -0.599826       -16.3221
 111   2.0000      -0.589036       -16.0285
 112   2.0000      -0.578247       -15.7349
 113   2.0000      -0.575220       -15.6525
 114   2.0000      -0.572667       -15.5831
 115   2.0000      -0.562048       -15.2941
 116   2.0000      -0.552136       -15.0244
 117   2.0000      -0.541366       -14.7313
 118   2.0000      -0.537094       -14.6151
 119   2.0000      -0.536209       -14.5910
 120   2.0000      -0.535026       -14.5588
 121   2.0000      -0.525871       -14.3097
 122   2.0000      -0.506571       -13.7845
 123   2.0000      -0.504866       -13.7381
 124   2.0000      -0.503496       -13.7008
 125   2.0000      -0.494671       -13.4607
 126   2.0000      -0.489826       -13.3288
 127   2.0000      -0.482261       -13.1230
 128   2.0000      -0.479336       -13.0434
 129   2.0000      -0.477986       -13.0066
 130   2.0000      -0.474634       -12.9155
 131   2.0000      -0.470998       -12.8165
 132   2.0000      -0.469346       -12.7716
 133   2.0000      -0.466203       -12.6860
 134   2.0000      -0.463360       -12.6087
 135   2.0000      -0.461300       -12.5526
 136   2.0000      -0.460171       -12.5219
 137   2.0000      -0.457690       -12.4544
 138   2.0000      -0.457427       -12.4472
 139   2.0000      -0.456537       -12.4230
 140   2.0000      -0.455367       -12.3912
 141   2.0000      -0.449877       -12.2418
 142   2.0000      -0.447626       -12.1805
 143   2.0000      -0.444974       -12.1084
 144   2.0000      -0.436062       -11.8659
 145   2.0000      -0.432190       -11.7605
 146   2.0000      -0.430487       -11.7141
 147   2.0000      -0.428393       -11.6572
 148   2.0000      -0.424109       -11.5406
 149   2.0000      -0.421836       -11.4787
 150   2.0000      -0.420736       -11.4488
 151   2.0000      -0.419521       -11.4157
 152   2.0000      -0.418821       -11.3967
 153   2.0000      -0.414658       -11.2834
 154   2.0000      -0.411357       -11.1936
 155   2.0000      -0.405554       -11.0357
 156   2.0000      -0.401545       -10.9266
 157   2.0000      -0.397543       -10.8177
 158   2.0000      -0.391846       -10.6627
 159   2.0000      -0.391712       -10.6590
 160   2.0000      -0.390712       -10.6318
 161   2.0000      -0.389745       -10.6055
 162   2.0000      -0.388569       -10.5735
 163   2.0000      -0.386538       -10.5182
 164   2.0000      -0.384897       -10.4736
 165   2.0000      -0.383858       -10.4453
 166   2.0000      -0.381859       -10.3909
 167   2.0000      -0.381345       -10.3769
 168   2.0000      -0.379469       -10.3259
 169   2.0000      -0.379183       -10.3181
 170   2.0000      -0.378367       -10.2959
 171   2.0000      -0.376683       -10.2501
 172   2.0000      -0.373811       -10.1719
 173   2.0000      -0.372420       -10.1341
 174   2.0000      -0.372055       -10.1241
 175   2.0000      -0.366219        -9.9653
 176   2.0000      -0.361693        -9.8422
 177   2.0000      -0.358608        -9.7582
 178   2.0000      -0.357764        -9.7352
 179   2.0000      -0.357107        -9.7174
 180   2.0000      -0.352788        -9.5999
 181   2.0000      -0.352700        -9.5975
 182   2.0000      -0.350497        -9.5375
 183   2.0000      -0.349403        -9.5078
 184   2.0000      -0.346864        -9.4386
 185   2.0000      -0.343946        -9.3592
 186   2.0000      -0.341491        -9.2924
 187   2.0000      -0.341120        -9.2823
 188   2.0000      -0.339365        -9.2346
 189   2.0000      -0.338091        -9.1999
 190   2.0000      -0.332476        -9.0471
 191   2.0000      -0.331529        -9.0214
 192   2.0000      -0.313954        -8.5431
 193   2.0000      -0.291051        -7.9199
 194   2.0000      -0.286772        -7.8035
 195   2.0000      -0.286249        -7.7892
 196   2.0000      -0.282252        -7.6805
 197   2.0000      -0.279505        -7.6057
 198   2.0000      -0.276473        -7.5232
 199   2.0000      -0.274758        -7.4766
 200   2.0000      -0.274613        -7.4726
 201   2.0000      -0.268013        -7.2930
 202   2.0000      -0.262974        -7.1559
 203   2.0000      -0.243428        -6.6240
 204   2.0000      -0.216773        -5.8987
 205   0.0000      -0.134559        -3.6615
 206   0.0000      -0.119291        -3.2461
 207   0.0000      -0.105487        -2.8704
 208   0.0000      -0.101027        -2.7491
 209   0.0000      -0.066124        -1.7993

MULLIKEN ATOMIC CHARGES
-----------------------
   0 C :    0.060373
   1 C :    0.024851
   2 C :   -0.109414
   3 C :    0.070417
   4 C :    0.016169
   5 C :   -0.104426
   6 C :   -0.040227
   7 C :    0.031512
   8 C :   -0.120279
   9 C :   -0.047693
  10 C :    0.039799
  11 C :   -0.107937
  12 S :    0.154880
  13 C :   -0.112206
  14 C :   -0.020580
  15 S :    0.158157
  16 C :   -0.109990
  17 C :   -0.035867
  18 C :    0.038683
  19 C :    0.072244
  20 C :    0.016482
  21 C :    0.025154
  22 C :    0.050868
  23 C :    0.050234
  24 C :    0.025957
  25 C :    0.012689
  26 C :    0.046295
  27 C :    0.035498
  28 C :   -0.077092
  29 C :   -0.081149
  30 C :    0.154838
  31 C :   -0.008197
  32 C :    0.032558
  33 C :    0.266048
  34 C :    0.154731
  35 C :   -0.010865
  36 C :    0.033084
  37 C :    0.262901
  38 C :   -0.023707
  39 C :    0.043380
  40 C :    0.036617
  41 C :   -0.021536
  42 C :   -0.025007
  43 C :    0.044420
  44 C :    0.037024
  45 C :   -0.024173
  46 O :   -0.183716
  47 O :   -0.180867
  48 C :   -0.319251
  49 C :   -0.322766
  50 C :   -0.137201
  51 C :   -0.135783
  52 C :   -0.143655
  53 C :   -0.135405
  54 N :    0.086155
  55 N :    0.096134
  56 N :    0.096771
  57 N :    0.089777
  58 H :   -0.021656
  59 H :   -0.023630
  60 H :    0.015501
  61 H :    0.025873
  62 H :    0.006527
  63 H :    0.013510
  64 H :    0.010579
  65 H :    0.003282
  66 H :    0.018836
  67 H :    0.015258
  68 H :    0.017980
  69 H :    0.024917
  70 H :    0.016883
  71 H :    0.013206
  72 H :    0.016747
  73 H :    0.006652
  74 H :    0.007465
  75 H :    0.005639
  76 H :    0.016181
  77 H :    0.013988
  78 H :    0.014450
  79 H :    0.020553
  80 H :    0.027527
  81 H :    0.011582
  82 H :   -0.003679
  83 H :    0.003968
  84 H :   -0.007032
  85 H :    0.002440
  86 H :   -0.000106
  87 H :    0.001562
  88 H :   -0.004924
  89 H :    0.002035
  90 H :   -0.001410
  91 H :    0.003581
Sum of atomic charges:    0.0000000

LOEWDIN ATOMIC CHARGES
----------------------
   0 C :   -0.026148
   1 C :    0.018648
   2 C :   -0.022535
   3 C :   -0.025888
   4 C :    0.016501
   5 C :   -0.022871
   6 C :   -0.157432
   7 C :   -0.032496
   8 C :   -0.028546
   9 C :   -0.155722
  10 C :   -0.033074
  11 C :   -0.027094
  12 S :    0.457473
  13 C :   -0.159074
  14 C :   -0.012124
  15 S :    0.455826
  16 C :   -0.161374
  17 C :   -0.013922
  18 C :   -0.014983
  19 C :   -0.009236
  20 C :   -0.059452
  21 C :   -0.055475
  22 C :   -0.013358
  23 C :   -0.013247
  24 C :   -0.057784
  25 C :   -0.057286
  26 C :    0.030418
  27 C :    0.028492
  28 C :   -0.092728
  29 C :   -0.093638
  30 C :    0.084752
  31 C :   -0.041152
  32 C :   -0.010345
  33 C :    0.067289
  34 C :    0.083669
  35 C :   -0.041173
  36 C :   -0.010269
  37 C :    0.067145
  38 C :    0.010071
  39 C :   -0.003178
  40 C :   -0.000635
  41 C :    0.000247
  42 C :    0.009527
  43 C :   -0.002997
  44 C :   -0.000237
  45 C :   -0.000354
  46 O :   -0.154470
  47 O :   -0.153719
  48 C :   -0.135660
  49 C :   -0.136106
  50 C :   -0.015630
  51 C :   -0.013407
  52 C :   -0.016803
  53 C :   -0.013243
  54 N :   -0.063163
  55 N :   -0.062928
  56 N :   -0.062917
  57 N :   -0.062896
  58 H :    0.029479
  59 H :    0.029810
  60 H :    0.036487
  61 H :    0.034365
  62 H :    0.025300
  63 H :    0.021776
  64 H :    0.026121
  65 H :    0.025753
  66 H :    0.023910
  67 H :    0.030441
  68 H :    0.022891
  69 H :    0.025751
  70 H :    0.028187
  71 H :    0.023666
  72 H :    0.025671
  73 H :    0.027380
  74 H :    0.020238
  75 H :    0.026925
  76 H :    0.023210
  77 H :    0.030572
  78 H :    0.022295
  79 H :    0.030755
  80 H :    0.028403
  81 H :    0.022915
  82 H :    0.039664
  83 H :    0.039607
  84 H :    0.038086
  85 H :    0.034582
  86 H :    0.035621
  87 H :    0.039089
  88 H :    0.038480
  89 H :    0.034489
  90 H :    0.035412
  91 H :    0.039382

  Mayer bond orders larger than 0.100000
B(  0-C ,  1-C ) :   1.3496 B(  0-C ,  5-C ) :   1.2641 B(  0-C ,  9-C ) :   1.0841
B(  1-C ,  2-C ) :   1.4111 B(  1-C , 11-C ) :   0.9217 B(  2-C ,  3-C ) :   1.2673
B(  2-C , 58-H ) :   0.9922 B(  3-C ,  4-C ) :   1.3444 B(  3-C ,  6-C ) :   1.0811
B(  4-C ,  5-C ) :   1.4141 B(  4-C ,  8-C ) :   0.9088 B(  5-C , 59-H ) :   0.9942
B(  6-C ,  7-C ) :   1.4242 B(  6-C , 12-S ) :   1.1334 B(  7-C ,  8-C ) :   0.9412
B(  7-C , 14-C ) :   1.3054 B(  8-C , 18-C ) :   1.0290 B(  8-C , 19-C ) :   1.0055
B(  9-C , 10-C ) :   1.4334 B(  9-C , 15-S ) :   1.1313 B( 10-C , 11-C ) :   0.9406
B( 10-C , 17-C ) :   1.3074 B( 11-C , 22-C ) :   0.9947 B( 11-C , 23-C ) :   1.0137
B( 12-S , 13-C ) :   1.0799 B( 13-C , 14-C ) :   1.3567 B( 13-C , 27-C ) :   1.2527
B( 14-C , 60-H ) :   0.9820 B( 15-S , 16-C ) :   1.0772 B( 16-C , 17-C ) :   1.3551
B( 16-C , 26-C ) :   1.2605 B( 17-C , 61-H ) :   0.9710 B( 18-C , 21-C ) :   1.1110
B( 18-C , 62-H ) :   0.9343 B( 18-C , 63-H ) :   0.9322 B( 19-C , 20-C ) :   1.1162
B( 19-C , 64-H ) :   0.9342 B( 19-C , 65-H ) :   0.9366 B( 20-C , 66-H ) :   0.9607
B( 20-C , 67-H ) :   0.9565 B( 20-C , 68-H ) :   0.9599 B( 21-C , 69-H ) :   0.9610
B( 21-C , 70-H ) :   0.9618 B( 21-C , 71-H ) :   0.9631 B( 22-C , 24-C ) :   1.1204
B( 22-C , 72-H ) :   0.9356 B( 22-C , 73-H ) :   0.9347 B( 23-C , 25-C ) :   1.1168
B( 23-C , 74-H ) :   0.9315 B( 23-C , 75-H ) :   0.9348 B( 24-C , 76-H ) :   0.9583
B( 24-C , 77-H ) :   0.9556 B( 24-C , 78-H ) :   0.9589 B( 25-C , 79-H ) :   0.9581
B( 25-C , 80-H ) :   0.9589 B( 25-C , 81-H ) :   0.9607 B( 26-C , 29-C ) :   1.5244
B( 26-C , 82-H ) :   0.8989 B( 27-C , 28-C ) :   1.5270 B( 27-C , 83-H ) :   0.9039
B( 28-C , 34-C ) :   0.9522 B( 28-C , 37-C ) :   1.1047 B( 29-C , 30-C ) :   0.9521
B( 29-C , 33-C ) :   1.1064 B( 30-C , 31-C ) :   0.9681 B( 30-C , 46-O ) :   2.0934
B( 31-C , 32-C ) :   1.3201 B( 31-C , 38-C ) :   1.3789 B( 32-C , 33-C ) :   0.9934
B( 32-C , 41-C ) :   1.3604 B( 33-C , 49-C ) :   1.5652 B( 34-C , 35-C ) :   0.9651
B( 34-C , 47-O ) :   2.1071 B( 35-C , 36-C ) :   1.3209 B( 35-C , 42-C ) :   1.3775
B( 36-C , 37-C ) :   0.9946 B( 36-C , 45-C ) :   1.3616 B( 37-C , 48-C ) :   1.5683
B( 38-C , 39-C ) :   1.3342 B( 38-C , 84-H ) :   0.9964 B( 39-C , 40-C ) :   1.3629
B( 39-C , 85-H ) :   0.9844 B( 40-C , 41-C ) :   1.3679 B( 40-C , 86-H ) :   0.9816
B( 41-C , 87-H ) :   0.9780 B( 42-C , 43-C ) :   1.3343 B( 42-C , 88-H ) :   0.9971
B( 43-C , 44-C ) :   1.3627 B( 43-C , 89-H ) :   0.9851 B( 44-C , 45-C ) :   1.3675
B( 44-C , 90-H ) :   0.9814 B( 45-C , 91-H ) :   0.9783 B( 46-O , 61-H ) :   0.1011
B( 48-C , 52-C ) :   1.1428 B( 48-C , 53-C ) :   1.1469 B( 49-C , 50-C ) :   1.1434
B( 49-C , 51-C ) :   1.1491 B( 50-C , 54-N ) :   2.9081 B( 51-C , 55-N ) :   2.9260
B( 52-C , 57-N ) :   2.9183 B( 53-C , 56-N ) :   2.9282

Dispersion correction           -0.256055821
FINAL SINGLE POINT ENERGY     -3089.930974587684

DIPOLE MOMENT
-------------
                                X             Y             Z
Electronic contribution:     -2.34159       2.15611       9.65261
Nuclear contribution   :      2.25678      -2.16732     -11.09935
                        -----------------------------------------
Total Dipole Moment    :     -0.08481      -0.01121      -1.44673
                        -----------------------------------------
Magnitude (a.u.)       :      1.44926
Magnitude (Debye)      :      3.68373

Rotational constants in cm-1:     0.003992     0.000404     0.000378
Rotational constants in MHz :   119.676598    12.121100    11.343178

                             ****ORCA TERMINATED NORMALLY****
TOTAL RUN TIME: 0 days 9 hours 44 minutes 48 seconds 238 msec
