                         Program Version 4.2.0 -  RELEASE  -
|  1> # ORCA input file
|  2> # SCF done       -155.150310582096          0.000661512639
|  3> ! B3LYP/G D3BJ Opt RIJCOSX def2-SVP def2/J
|  4> * xyz 0 1
|  5>    C        2.71923         1.14877        -0.08754
|  6>    C        2.83688        -0.25690        -0.20035
|  7>    C        1.70485        -1.03952        -0.19162
|  8>    C        0.47277        -0.39111        -0.13449
|  9>    C        0.35719         1.01954        -0.07735
| 10>    C        1.48848         1.79859        -0.02208
| 11>    C       -0.85233        -0.91999        -0.07908
| 12>    C       -1.78665         0.10687         0.01016
| 13>    C       -1.09804         1.44606        -0.03681
| 14>    C        4.04276         1.67603        -0.03931
| 15>    C        4.98741         0.65686        -0.11920
| 16>    C        4.29767        -0.68000        -0.25107
| 17>    S       -1.57474        -2.46992        -0.07184
| 18>    C       -3.16751        -1.74028         0.04754
| 19>    C       -3.09228        -0.35039         0.07676
| 20>    S        4.74171         3.23096         0.06699
| 21>    C        6.34518         2.52323        -0.01367
| 22>    C        6.28915         1.13603        -0.11892
| 23>    C       -1.41522         2.30570         1.19612
| 24>    C       -1.53504         2.14093        -1.34845
| 25>    C       -0.81825         3.44253        -1.68000
| 26>    C       -1.11921         1.58162         2.50456
| 27>    C        4.68473        -1.27455        -1.62265
| 28>    C        4.58583        -1.61459         0.93990
| 29>    C        4.02301        -2.59789        -1.98245
| 30>    C        6.02741        -2.09110         1.05688
| 31>    C        7.45338         3.39482         0.02678
| 32>    C       -4.29443        -2.58748         0.09642
| 33>    C        8.76270         3.01923        -0.01009
| 34>    C        9.85236         3.91385         0.02444
| 35>    C       11.28537         3.42528         0.00727
| 36>    O       12.07344         4.62101         0.05169
| 37>    C       11.27334         5.69659         0.09145
| 38>    C        9.88866         5.29105         0.07600
| 39>    C       11.62554         2.67681        -1.28407
| 40>    C       11.62017         2.58592         1.24308
| 41>    C        8.80711         6.18142         0.10460
| 42>    C       11.78891         6.96475         0.13815
| 43>    C       10.99236         8.12291         0.18081
| 44>    C       13.18323         7.17152         0.14549
| 45>    N       10.39537         9.10194         0.21674
| 46>    N       14.31703         7.34436         0.15227
| 47>    N        7.89854         6.88269         0.12330
| 48>    C       -5.58700        -2.16234         0.17381
| 49>    C       -6.71573        -3.00547         0.22155
| 50>    C       -8.12098        -2.44549         0.28963
| 51>    O       -8.96670        -3.60126         0.32471
| 52>    C       -8.22226        -4.71610         0.28347
| 53>    C       -6.82047        -4.37993         0.21883
| 54>    C       -5.78270        -5.31978         0.16684
| 55>    C       -8.80090        -5.95743         0.30486
| 56>    C       -8.06425        -7.15459         0.26369
| 57>    C      -10.20245        -6.09273         0.37126
| 58>    C       -8.47556        -1.63075        -0.95720
| 59>    C       -8.35981        -1.63888         1.56865
| 60>    N      -11.34248        -6.20614         0.42579
| 61>    N       -7.51660        -8.16225         0.23188
| 62>    N       -4.90615        -6.05978         0.12327
| 63>    H        1.74185        -2.11723        -0.21130
| 64>    H        1.45137         2.87104         0.08662
| 65>    H       -3.95883         0.28077         0.15078
| 66>    H        7.17228         0.52974        -0.20243
| 67>    H       -2.47018         2.58589         1.16461
| 68>    H       -0.82179         3.21913         1.15426
| 69>    H       -2.60829         2.33153        -1.27609
| 70>    H       -1.37928         1.43608        -2.16941
| 71>    H       -0.93375         4.17456        -0.88553
| 72>    H       -1.24387         3.86310        -2.58833
| 73>    H        0.24023         3.27065        -1.85341
| 74>    H       -1.72479         0.68280         2.59711
| 75>    H       -1.33931         2.23109         3.34821
| 76>    H       -0.07105         1.29501         2.55553
| 77>    H        5.76890        -1.39760        -1.63950
| 78>    H        4.43012        -0.53422        -2.38594
| 79>    H        3.92652        -2.47995         0.86435
| 80>    H        4.31396        -1.07762         1.85262
| 81>    H        4.21715        -3.35831        -1.23119
| 82>    H        4.42261        -2.95155        -2.93041
| 83>    H        2.94948        -2.47876        -2.09618
| 84>    H        6.33130        -2.65618         0.18001
| 85>    H        6.12248        -2.73978         1.92485
| 86>    H        6.70499        -1.25235         1.18925
| 87>    H        7.21563         4.44692         0.09331
| 88>    H       -4.09057        -3.64821         0.06554
| 89>    H        9.00971         1.96848        -0.06800
| 90>    H       11.38004         3.29052        -2.14839
| 91>    H       11.06964         1.74579        -1.34140
| 92>    H       12.69029         2.46055        -1.30181
| 93>    H       11.37624         3.13858         2.14811
| 94>    H       12.68374         2.36337         1.24717
| 95>    H       11.05893         1.65634         1.23409
| 96>    H       -5.78857        -1.10072         0.19991
| 97>    H       -8.30707        -2.22499        -1.85300
| 98>    H       -7.86776        -0.73237        -1.00937
| 99>    H       -9.52511        -1.35231        -0.91642
|100>    H       -8.09987        -2.23454         2.44132
|101>    H       -9.41090        -1.37033         1.63086
|102>    H       -7.75851        -0.73466         1.56540
|103> *
|104>
|105>                          ****END OF INPUT****
 Total Charge           Charge          ....    0
 Multiplicity           Mult            ....    1
 Number of Electrons    NEL             ....  418
Dispersion correction           -0.256730602
FINAL SINGLE POINT ENERGY     -3126.716057761654
Dispersion correction            ... done
Dispersion correction           -0.253903141
FINAL SINGLE POINT ENERGY     -3126.731821950285
Dispersion correction            ... done
Dispersion correction           -0.253493339
FINAL SINGLE POINT ENERGY     -3126.732346820619
Dispersion correction            ... done
FINAL SINGLE POINT ENERGY     -3126.731504838745
FINAL SINGLE POINT ENERGY     -3126.730057009526
FINAL SINGLE POINT ENERGY     -3126.728439464791
FINAL SINGLE POINT ENERGY     -3126.729670929397
FINAL SINGLE POINT ENERGY     -3126.728692599321
FINAL SINGLE POINT ENERGY     -3126.729561287841
FINAL SINGLE POINT ENERGY     -3126.730133383497
FINAL SINGLE POINT ENERGY     -3126.729860939973
FINAL SINGLE POINT ENERGY     -3126.729770605485
Dispersion correction            ... done
Dispersion correction           -0.253620562
FINAL SINGLE POINT ENERGY     -3126.729723899336
Dispersion correction            ... done
Dispersion correction           -0.253625668
FINAL SINGLE POINT ENERGY     -3126.729779920780
Dispersion correction            ... done
                    ***********************HURRAY********************

CARTESIAN COORDINATES (ANGSTROEM)
---------------------------------
  C      2.648533    1.221069   -0.531696
  C      2.826417   -0.194181   -0.549168
  C      1.718286   -1.027504   -0.639893
  C      0.450518   -0.434238   -0.757263
  C      0.280393    0.982547   -0.784651
  C      1.381166    1.815192   -0.651052
  C     -0.874323   -1.012307   -0.795899
  C     -1.844536   -0.012350   -0.845811
  C     -1.199682    1.359369   -0.930462
  C      3.954869    1.805000   -0.348633
  C      4.935541    0.813617   -0.268327
  C      4.309191   -0.568828   -0.394069
  S     -1.557811   -2.587017   -0.672486
  C     -3.185173   -1.901486   -0.623665
  C     -3.150780   -0.508422   -0.750891
  S      4.598834    3.392969   -0.216571
  C      6.232884    2.743766   -0.073517
  C      6.225425    1.342802   -0.133057
  C     -1.693294    2.295116    0.198255
  C     -1.491765    1.954093   -2.342984
  C     -0.982083    3.368676   -2.611567
  C     -1.664764    1.675827    1.594923
  C      4.880867   -1.261219   -1.665889
  C      4.505133   -1.412491    0.896138
  C      4.384608   -2.674191   -1.970983
  C      5.946475   -1.798636    1.226264
  C      7.339132    3.629938    0.087749
  C     -4.306015   -2.751601   -0.369981
  C      8.644694    3.211440    0.136817
  C      9.805565    4.011535    0.322798
  C     11.181438    3.370239    0.289127
  O     12.082893    4.486123    0.507654
  C     11.402031    5.625932    0.671818
  C      9.978382    5.362038    0.565196
  C     11.506608    2.767478   -1.077136
  C     11.380743    2.382843    1.439171
  C      8.927050    6.306209    0.694699
  C     12.082117    6.804967    0.898287
  C     11.409281    8.050506    1.074303
  C     13.509306    6.792175    0.955406
  N     10.889159    9.079217    1.221217
  N     14.670208    6.785559    1.002316
  N      7.997386    6.997838    0.782103
  C     -5.504443   -2.293107    0.112258
  C     -6.639559   -3.081130    0.462508
  C     -7.766375   -2.496930    1.300195
  O     -8.692777   -3.607457    1.439671
  C     -8.228318   -4.700157    0.825330
  C     -6.949848   -4.402073    0.204020
  C     -6.155108   -5.295389   -0.561664
  C     -8.957527   -5.870818    0.851629
  C     -8.498076   -7.067078    0.224469
  C    -10.209917   -5.904204    1.536980
  C     -8.513813   -1.363189    0.601298
  C     -7.295508   -2.105990    2.703708
  N    -11.228705   -5.935552    2.094203
  N     -8.147536   -8.054864   -0.276887
  N     -5.444734   -5.959080   -1.197907
  H      1.813842   -2.113757   -0.596962
  H      1.274752    2.900906   -0.615038
  H     -4.055176    0.099696   -0.767155
  H      7.138587    0.753849   -0.072372
  H     -2.720061    2.617083   -0.049705
  H     -1.082961    3.211829    0.187175
  H     -2.586116    1.931797   -2.483755
  H     -1.074489    1.259795   -3.089942
  H     -1.399043    4.099329   -1.902736
  H     -1.282506    3.690983   -3.620704
  H      0.115875    3.430977   -2.560847
  H     -2.359418    0.826298    1.677168
  H     -1.952526    2.417181    2.355712
  H     -0.660210    1.300676    1.848618
  H      5.978044   -1.281096   -1.563921
  H      4.672406   -0.601882   -2.524102
  H      3.895993   -2.325656    0.803875
  H      4.071003   -0.844237    1.734886
  H      4.545607   -3.363981   -1.128125
  H      4.929896   -3.085413   -2.834186
  H      3.315016   -2.691720   -2.225887
  H      6.417011   -2.379847    0.418216
  H      5.979595   -2.418507    2.135472
  H      6.571545   -0.913860    1.416351
  H      7.110938    4.694331    0.180268
  H     -4.159557   -3.824140   -0.518956
  H      8.839940    2.143794    0.010727
  H     11.396428    3.527101   -1.864058
  H     10.826208    1.933292   -1.297684
  H     12.539316    2.389837   -1.086522
  H     11.137984    2.861863    2.399065
  H     12.426745    2.045515    1.464813
  H     10.733759    1.503426    1.309701
  H     -5.589520   -1.225937    0.332601
  H     -8.878783   -1.689459   -0.382773
  H     -7.854709   -0.493556    0.467044
  H     -9.375175   -1.057427    1.212405
  H     -6.807289   -2.958252    3.197606
  H     -8.156780   -1.787306    3.308509
  H     -6.576845   -1.274626    2.650015

 Multiplicity           Mult            ....    1
 Number of Electrons    NEL             ....  418
 Basis Dimension        Dim             .... 1020

ORBITAL ENERGIES
----------------

  NO   OCC          E(Eh)            E(eV)
   0   2.0000     -88.917669     -2419.5728
   1   2.0000     -88.917541     -2419.5693
   2   2.0000     -19.215613      -522.8834
   3   2.0000     -19.213767      -522.8332
   4   2.0000     -14.350556      -390.4985
   5   2.0000     -14.349124      -390.4595
   6   2.0000     -14.325972      -389.8295
   7   2.0000     -14.324904      -389.8005
   8   2.0000     -14.324566      -389.7913
   9   2.0000     -14.323273      -389.7561
  10   2.0000     -10.316796      -280.7343
  11   2.0000     -10.315037      -280.6864
  12   2.0000     -10.303874      -280.3827
  13   2.0000     -10.301397      -280.3153
  14   2.0000     -10.266873      -279.3758
  15   2.0000     -10.265335      -279.3340
  16   2.0000     -10.264570      -279.3132
  17   2.0000     -10.263021      -279.2710
  18   2.0000     -10.262305      -279.2515
  19   2.0000     -10.261636      -279.2333
  20   2.0000     -10.257704      -279.1263
  21   2.0000     -10.256484      -279.0931
  22   2.0000     -10.256228      -279.0862
  23   2.0000     -10.255726      -279.0725
  24   2.0000     -10.255634      -279.0700
  25   2.0000     -10.255105      -279.0556
  26   2.0000     -10.251609      -278.9605
  27   2.0000     -10.250479      -278.9297
  28   2.0000     -10.246639      -278.8252
  29   2.0000     -10.244454      -278.7658
  30   2.0000     -10.243368      -278.7362
  31   2.0000     -10.242826      -278.7215
  32   2.0000     -10.242165      -278.7035
  33   2.0000     -10.241083      -278.6740
  34   2.0000     -10.240348      -278.6540
  35   2.0000     -10.239995      -278.6444
  36   2.0000     -10.236084      -278.5380
  37   2.0000     -10.235313      -278.5170
  38   2.0000     -10.234185      -278.4863
  39   2.0000     -10.233909      -278.4788
  40   2.0000     -10.232943      -278.4525
  41   2.0000     -10.231663      -278.4177
  42   2.0000     -10.230512      -278.3864
  43   2.0000     -10.230067      -278.3743
  44   2.0000     -10.229182      -278.3502
  45   2.0000     -10.228508      -278.3318
  46   2.0000     -10.225812      -278.2585
  47   2.0000     -10.225444      -278.2485
  48   2.0000     -10.224392      -278.2198
  49   2.0000     -10.223864      -278.2055
  50   2.0000     -10.222206      -278.1604
  51   2.0000     -10.222142      -278.1586
  52   2.0000     -10.221747      -278.1479
  53   2.0000     -10.221691      -278.1464
  54   2.0000     -10.211399      -277.8663
  55   2.0000     -10.209340      -277.8103
  56   2.0000     -10.207963      -277.7728
  57   2.0000     -10.205962      -277.7183
  58   2.0000      -8.012056      -218.0191
  59   2.0000      -8.011946      -218.0161
  60   2.0000      -5.980065      -162.7258
  61   2.0000      -5.980017      -162.7245
  62   2.0000      -5.976313      -162.6237
  63   2.0000      -5.976198      -162.6206
  64   2.0000      -5.973270      -162.5409
  65   2.0000      -5.973097      -162.5362
  66   2.0000      -1.126660       -30.6580
  67   2.0000      -1.125011       -30.6131
  68   2.0000      -0.945852       -25.7379
  69   2.0000      -0.938344       -25.5336
  70   2.0000      -0.922862       -25.1124
  71   2.0000      -0.921563       -25.0770
  72   2.0000      -0.904907       -24.6238
  73   2.0000      -0.903357       -24.5816
  74   2.0000      -0.901295       -24.5255
  75   2.0000      -0.889944       -24.2166
  76   2.0000      -0.888403       -24.1747
  77   2.0000      -0.885366       -24.0920
  78   2.0000      -0.879872       -23.9425
  79   2.0000      -0.874008       -23.7830
  80   2.0000      -0.854932       -23.2639
  81   2.0000      -0.853010       -23.2116
  82   2.0000      -0.844398       -22.9772
  83   2.0000      -0.832655       -22.6577
  84   2.0000      -0.825612       -22.4660
  85   2.0000      -0.806876       -21.9562
  86   2.0000      -0.798560       -21.7299
  87   2.0000      -0.796599       -21.6766
  88   2.0000      -0.781992       -21.2791
  89   2.0000      -0.779786       -21.2191
  90   2.0000      -0.777832       -21.1659
  91   2.0000      -0.775042       -21.0900
  92   2.0000      -0.773431       -21.0461
  93   2.0000      -0.768170       -20.9030
  94   2.0000      -0.736406       -20.0386
  95   2.0000      -0.731128       -19.8950
  96   2.0000      -0.730454       -19.8767
  97   2.0000      -0.724970       -19.7274
  98   2.0000      -0.708973       -19.2921
  99   2.0000      -0.701160       -19.0795
 100   2.0000      -0.690786       -18.7973
 101   2.0000      -0.680944       -18.5294
 102   2.0000      -0.676261       -18.4020
 103   2.0000      -0.668372       -18.1873
 104   2.0000      -0.655023       -17.8241
 105   2.0000      -0.651284       -17.7223
 106   2.0000      -0.643771       -17.5179
 107   2.0000      -0.639514       -17.4021
 108   2.0000      -0.628341       -17.0980
 109   2.0000      -0.622161       -16.9299
 110   2.0000      -0.618006       -16.8168
 111   2.0000      -0.603863       -16.4319
 112   2.0000      -0.592517       -16.1232
 113   2.0000      -0.588916       -16.0252
 114   2.0000      -0.584630       -15.9086
 115   2.0000      -0.578457       -15.7406
 116   2.0000      -0.575106       -15.6494
 117   2.0000      -0.570881       -15.5345
 118   2.0000      -0.570273       -15.5179
 119   2.0000      -0.555953       -15.1283
 120   2.0000      -0.551423       -15.0050
 121   2.0000      -0.543652       -14.7935
 122   2.0000      -0.537271       -14.6199
 123   2.0000      -0.532849       -14.4996
 124   2.0000      -0.514870       -14.0103
 125   2.0000      -0.513649       -13.9771
 126   2.0000      -0.512860       -13.9556
 127   2.0000      -0.506581       -13.7848
 128   2.0000      -0.505757       -13.7623
 129   2.0000      -0.496389       -13.5074
 130   2.0000      -0.495862       -13.4931
 131   2.0000      -0.489980       -13.3330
 132   2.0000      -0.489370       -13.3164
 133   2.0000      -0.488206       -13.2848
 134   2.0000      -0.485672       -13.2158
 135   2.0000      -0.481608       -13.1052
 136   2.0000      -0.479383       -13.0447
 137   2.0000      -0.473686       -12.8897
 138   2.0000      -0.469540       -12.7768
 139   2.0000      -0.460327       -12.5261
 140   2.0000      -0.456514       -12.4224
 141   2.0000      -0.449243       -12.2245
 142   2.0000      -0.444671       -12.1001
 143   2.0000      -0.443068       -12.0565
 144   2.0000      -0.441411       -12.0114
 145   2.0000      -0.440792       -11.9945
 146   2.0000      -0.440436       -11.9849
 147   2.0000      -0.438484       -11.9318
 148   2.0000      -0.436917       -11.8891
 149   2.0000      -0.435519       -11.8511
 150   2.0000      -0.434623       -11.8267
 151   2.0000      -0.433204       -11.7881
 152   2.0000      -0.431459       -11.7406
 153   2.0000      -0.427618       -11.6361
 154   2.0000      -0.423854       -11.5336
 155   2.0000      -0.421728       -11.4758
 156   2.0000      -0.416555       -11.3350
 157   2.0000      -0.414470       -11.2783
 158   2.0000      -0.413299       -11.2464
 159   2.0000      -0.411002       -11.1839
 160   2.0000      -0.406751       -11.0683
 161   2.0000      -0.404161       -10.9978
 162   2.0000      -0.403275       -10.9737
 163   2.0000      -0.402873       -10.9627
 164   2.0000      -0.402055       -10.9405
 165   2.0000      -0.399952       -10.8832
 166   2.0000      -0.399826       -10.8798
 167   2.0000      -0.398230       -10.8364
 168   2.0000      -0.395685       -10.7671
 169   2.0000      -0.392937       -10.6923
 170   2.0000      -0.392844       -10.6898
 171   2.0000      -0.390657       -10.6303
 172   2.0000      -0.387125       -10.5342
 173   2.0000      -0.382266       -10.4020
 174   2.0000      -0.379368       -10.3231
 175   2.0000      -0.378027       -10.2866
 176   2.0000      -0.376581       -10.2473
 177   2.0000      -0.373863       -10.1733
 178   2.0000      -0.372733       -10.1426
 179   2.0000      -0.368991       -10.0408
 180   2.0000      -0.364375        -9.9151
 181   2.0000      -0.362632        -9.8677
 182   2.0000      -0.360957        -9.8221
 183   2.0000      -0.360398        -9.8069
 184   2.0000      -0.358949        -9.7675
 185   2.0000      -0.357722        -9.7341
 186   2.0000      -0.357193        -9.7197
 187   2.0000      -0.356928        -9.7125
 188   2.0000      -0.356385        -9.6977
 189   2.0000      -0.355773        -9.6811
 190   2.0000      -0.354366        -9.6428
 191   2.0000      -0.352836        -9.6012
 192   2.0000      -0.345158        -9.3922
 193   2.0000      -0.341430        -9.2908
 194   2.0000      -0.339910        -9.2494
 195   2.0000      -0.338636        -9.2148
 196   2.0000      -0.337184        -9.1752
 197   2.0000      -0.335097        -9.1184
 198   2.0000      -0.328660        -8.9433
 199   2.0000      -0.327462        -8.9107
 200   2.0000      -0.315367        -8.5816
 201   2.0000      -0.298727        -8.1288
 202   2.0000      -0.295590        -8.0434
 203   2.0000      -0.294841        -8.0230
 204   2.0000      -0.288773        -7.8579
 205   2.0000      -0.268448        -7.3048
 206   2.0000      -0.252912        -6.8821
 207   2.0000      -0.238940        -6.5019
 208   2.0000      -0.221290        -6.0216
 209   0.0000      -0.143715        -3.9107
 210   0.0000      -0.129071        -3.5122
 211   0.0000      -0.081884        -2.2282
 212   0.0000      -0.057973        -1.5775
 213   0.0000      -0.053367        -1.4522

MULLIKEN ATOMIC CHARGES
-----------------------
   0 C :    0.061382
   1 C :    0.020110
   2 C :   -0.108544
   3 C :    0.076084
   4 C :    0.007807
   5 C :   -0.104109
   6 C :   -0.059473
   7 C :    0.026310
   8 C :   -0.114112
   9 C :   -0.062865
  10 C :    0.044558
  11 C :   -0.116739
  12 S :    0.170412
  13 C :   -0.100503
  14 C :   -0.022114
  15 S :    0.175403
  16 C :   -0.094293
  17 C :   -0.035812
  18 C :    0.045435
  19 C :    0.067742
  20 C :    0.027084
  21 C :    0.026776
  22 C :    0.052993
  23 C :    0.066130
  24 C :    0.018650
  25 C :    0.009271
  26 C :    0.078019
  27 C :    0.075227
  28 C :   -0.072979
  29 C :    0.097373
  30 C :   -0.067713
  31 O :   -0.265350
  32 C :    0.334506
  33 C :   -0.151600
  34 C :    0.113505
  35 C :    0.116011
  36 C :   -0.188702
  37 C :   -0.394961
  38 C :   -0.158305
  39 C :   -0.122889
  40 N :    0.128745
  41 N :    0.106269
  42 N :    0.140256
  43 C :   -0.075540
  44 C :    0.097702
  45 C :   -0.074589
  46 O :   -0.264370
  47 C :    0.333730
  48 C :   -0.150021
  49 C :   -0.196163
  50 C :   -0.398675
  51 C :   -0.157845
  52 C :   -0.120203
  53 C :    0.116666
  54 C :    0.110367
  55 N :    0.107925
  56 N :    0.131723
  57 N :    0.150363
  58 H :   -0.024793
  59 H :   -0.024546
  60 H :   -0.011168
  61 H :   -0.008349
  62 H :   -0.002564
  63 H :    0.012648
  64 H :    0.004395
  65 H :    0.007186
  66 H :    0.013655
  67 H :    0.017598
  68 H :    0.017434
  69 H :    0.014230
  70 H :    0.018325
  71 H :    0.018376
  72 H :    0.007328
  73 H :    0.008365
  74 H :    0.006660
  75 H :    0.007594
  76 H :    0.016068
  77 H :    0.019506
  78 H :    0.019160
  79 H :    0.016302
  80 H :    0.023133
  81 H :    0.011282
  82 H :    0.016353
  83 H :    0.024067
  84 H :   -0.015724
  85 H :    0.032118
  86 H :    0.014173
  87 H :    0.037656
  88 H :    0.029542
  89 H :    0.038007
  90 H :    0.014088
  91 H :   -0.008397
  92 H :    0.027632
  93 H :    0.014634
  94 H :    0.040613
  95 H :    0.031207
  96 H :    0.040848
  97 H :    0.019293
Sum of atomic charges:    0.0000000

LOEWDIN ATOMIC CHARGES
----------------------
   0 C :   -0.027201
   1 C :    0.014939
   2 C :   -0.025353
   3 C :   -0.024888
   4 C :    0.013513
   5 C :   -0.025171
   6 C :   -0.165663
   7 C :   -0.027999
   8 C :   -0.028599
   9 C :   -0.162386
  10 C :   -0.028893
  11 C :   -0.026948
  12 S :    0.454637
  13 C :   -0.167169
  14 C :   -0.036568
  15 S :    0.459483
  16 C :   -0.170570
  17 C :   -0.034937
  18 C :   -0.015097
  19 C :   -0.008959
  20 C :   -0.057456
  21 C :   -0.055773
  22 C :   -0.013462
  23 C :   -0.011962
  24 C :   -0.058747
  25 C :   -0.058488
  26 C :    0.019475
  27 C :    0.019036
  28 C :   -0.057116
  29 C :    0.038321
  30 C :    0.062683
  31 O :   -0.050569
  32 C :    0.122466
  33 C :   -0.107026
  34 C :   -0.033390
  35 C :   -0.032445
  36 C :   -0.023745
  37 C :   -0.178720
  38 C :   -0.030009
  39 C :   -0.019808
  40 N :   -0.055269
  41 N :   -0.064758
  42 N :   -0.044809
  43 C :   -0.054818
  44 C :    0.038438
  45 C :    0.063677
  46 O :   -0.050219
  47 C :    0.121804
  48 C :   -0.103708
  49 C :   -0.026286
  50 C :   -0.177630
  51 C :   -0.030146
  52 C :   -0.019565
  53 C :   -0.032557
  54 C :   -0.034422
  55 N :   -0.063349
  56 N :   -0.053643
  57 N :   -0.040421
  58 H :    0.029037
  59 H :    0.029160
  60 H :    0.032229
  61 H :    0.029307
  62 H :    0.021454
  63 H :    0.022681
  64 H :    0.022731
  65 H :    0.027703
  66 H :    0.023205
  67 H :    0.031488
  68 H :    0.023311
  69 H :    0.022296
  70 H :    0.028225
  71 H :    0.026141
  72 H :    0.021197
  73 H :    0.028328
  74 H :    0.021247
  75 H :    0.028140
  76 H :    0.023092
  77 H :    0.032121
  78 H :    0.024219
  79 H :    0.022811
  80 H :    0.032522
  81 H :    0.021763
  82 H :    0.042979
  83 H :    0.043581
  84 H :    0.025776
  85 H :    0.036928
  86 H :    0.030003
  87 H :    0.038842
  88 H :    0.036068
  89 H :    0.039266
  90 H :    0.029614
  91 H :    0.027226
  92 H :    0.035911
  93 H :    0.029780
  94 H :    0.040157
  95 H :    0.036553
  96 H :    0.039498
  97 H :    0.031657

  Mayer bond orders larger than 0.100000
B(  0-C ,  1-C ) :   1.3603 B(  0-C ,  5-C ) :   1.2672 B(  0-C ,  9-C ) :   1.0859
B(  1-C ,  2-C ) :   1.4060 B(  1-C , 11-C ) :   0.9212 B(  2-C ,  3-C ) :   1.2729
B(  2-C , 58-H ) :   0.9917 B(  3-C ,  4-C ) :   1.3469 B(  3-C ,  6-C ) :   1.0799
B(  4-C ,  5-C ) :   1.4160 B(  4-C ,  8-C ) :   0.9103 B(  5-C , 59-H ) :   0.9906
B(  6-C ,  7-C ) :   1.4592 B(  6-C , 12-S ) :   1.1132 B(  7-C ,  8-C ) :   0.9393
B(  7-C , 14-C ) :   1.3276 B(  8-C , 18-C ) :   1.0305 B(  8-C , 19-C ) :   1.0048
B(  9-C , 10-C ) :   1.4618 B(  9-C , 15-S ) :   1.1174 B( 10-C , 11-C ) :   0.9393
B( 10-C , 17-C ) :   1.3338 B( 11-C , 22-C ) :   1.0016 B( 11-C , 23-C ) :   1.0099
B( 12-S , 13-C ) :   1.0966 B( 13-C , 14-C ) :   1.3793 B( 13-C , 27-C ) :   1.1780
B( 14-C , 60-H ) :   0.9992 B( 15-S , 16-C ) :   1.0927 B( 16-C , 17-C ) :   1.3708
B( 16-C , 26-C ) :   1.1910 B( 17-C , 61-H ) :   0.9894 B( 18-C , 21-C ) :   1.1146
B( 18-C , 62-H ) :   0.9323 B( 18-C , 63-H ) :   0.9307 B( 19-C , 20-C ) :   1.1182
B( 19-C , 64-H ) :   0.9349 B( 19-C , 65-H ) :   0.9349 B( 20-C , 66-H ) :   0.9591
B( 20-C , 67-H ) :   0.9568 B( 20-C , 68-H ) :   0.9598 B( 21-C , 69-H ) :   0.9580
B( 21-C , 70-H ) :   0.9617 B( 21-C , 71-H ) :   0.9636 B( 22-C , 24-C ) :   1.1188
B( 22-C , 72-H ) :   0.9353 B( 22-C , 73-H ) :   0.9345 B( 23-C , 25-C ) :   1.1152
B( 23-C , 74-H ) :   0.9310 B( 23-C , 75-H ) :   0.9353 B( 24-C , 76-H ) :   0.9607
B( 24-C , 77-H ) :   0.9558 B( 24-C , 78-H ) :   0.9580 B( 25-C , 79-H ) :   0.9604
B( 25-C , 80-H ) :   0.9575 B( 25-C , 81-H ) :   0.9592 B( 26-C , 28-C ) :   1.5535
B( 26-C , 82-H ) :   0.9494 B( 27-C , 43-C ) :   1.5716 B( 27-C , 83-H ) :   0.9481
B( 28-C , 29-C ) :   1.2303 B( 28-C , 84-H ) :   0.9507 B( 29-C , 30-C ) :   0.9572
B( 29-C , 33-C ) :   1.5425 B( 30-C , 31-O ) :   0.8936 B( 30-C , 34-C ) :   1.0484
B( 30-C , 35-C ) :   1.0493 B( 31-O , 32-C ) :   1.2290 B( 32-C , 33-C ) :   1.0617
B( 32-C , 37-C ) :   1.5515 B( 33-C , 36-C ) :   1.1694 B( 34-C , 85-H ) :   0.9515
B( 34-C , 86-H ) :   0.9533 B( 34-C , 87-H ) :   0.9538 B( 35-C , 88-H ) :   0.9524
B( 35-C , 89-H ) :   0.9537 B( 35-C , 90-H ) :   0.9530 B( 36-C , 42-N ) :   2.9170
B( 37-C , 38-C ) :   1.1934 B( 37-C , 39-C ) :   1.1186 B( 38-C , 40-N ) :   2.9766
B( 39-C , 41-N ) :   3.0087 B( 43-C , 44-C ) :   1.2166 B( 43-C , 91-H ) :   0.9512
B( 44-C , 45-C ) :   0.9568 B( 44-C , 48-C ) :   1.5567 B( 45-C , 46-O ) :   0.8913
B( 45-C , 53-C ) :   1.0506 B( 45-C , 54-C ) :   1.0540 B( 46-O , 47-C ) :   1.2304
B( 47-C , 48-C ) :   1.0599 B( 47-C , 50-C ) :   1.5556 B( 48-C , 49-C ) :   1.1653
B( 49-C , 57-N ) :   2.9315 B( 50-C , 51-C ) :   1.1929 B( 50-C , 52-C ) :   1.1196
B( 51-C , 56-N ) :   2.9784 B( 52-C , 55-N ) :   3.0074 B( 53-C , 92-H ) :   0.9505
B( 53-C , 93-H ) :   0.9537 B( 53-C , 94-H ) :   0.9531 B( 54-C , 95-H ) :   0.9498
B( 54-C , 96-H ) :   0.9537 B( 54-C , 97-H ) :   0.9516

Dispersion correction           -0.253625229
FINAL SINGLE POINT ENERGY     -3126.729739581407

DIPOLE MOMENT
-------------
                                X             Y             Z
Electronic contribution:     -5.17243       2.73958       3.64706
Nuclear contribution   :      5.30127      -3.00059      -4.40022
                        -----------------------------------------
Total Dipole Moment    :      0.12885      -0.26101      -0.75316
                        -----------------------------------------
Magnitude (a.u.)       :      0.80745
Magnitude (Debye)      :      2.05238

Rotational constants in cm-1:     0.004318     0.000325     0.000312
Rotational constants in MHz :   129.463222     9.738264     9.360711

                             ****ORCA TERMINATED NORMALLY****
TOTAL RUN TIME: 0 days 8 hours 31 minutes 5 seconds 400 msec
