                         Program Version 4.2.0 -  RELEASE  -
|  1> # ORCA input file
|  2> # SCF done       -169.472675766992          0.000336186715
|  3> ! B3LYP/G D3BJ Opt RIJCOSX def2-SVP def2/J
|  4> * xyz 0 1
|  5>    C        0.30559        -2.43478         1.23997
|  6>    C        0.71540        -2.31512        -0.12843
|  7>    C        1.48289        -1.06491        -0.28305
|  8>    C        1.27037        -0.33412         0.98111
|  9>    C        0.64873        -1.21707         1.92221
| 10>    C       -0.17297        -0.73013         2.93128
| 11>    C       -0.44010         0.67684         3.00241
| 12>    C        0.12795         1.52917         2.06123
| 13>    C        0.99600         1.01620         1.03496
| 14>    C        0.73618         1.77347        -0.18283
| 15>    C        0.76051         1.15709        -1.41614
| 16>    C        1.20016        -0.23852        -1.61125
| 17>    C        0.20131        -0.82253        -2.52668
| 18>    C       -0.35453        -2.07191        -2.33862
| 19>    C       -0.09312        -2.83049        -1.12074
| 20>    C       -1.30351        -3.52650        -0.77324
| 21>    C       -2.30619        -3.21484        -1.75864
| 22>    C       -1.72053        -2.31606        -2.71909
| 23>    C       -2.49439        -1.30163        -3.27224
| 24>    C       -1.92703         0.00438        -3.44170
| 25>    C       -0.61337         0.23359        -3.05111
| 26>    C       -0.26870         1.45095        -2.36876
| 27>    C       -1.24999         2.39752        -2.10052
| 28>    C       -1.26012         3.05771        -0.82771
| 29>    C       -0.28838         2.73906         0.11516
| 30>    C       -0.66187         2.59368         1.49841
| 31>    C       -1.98266         2.76578         1.88837
| 32>    C       -2.57182         1.87291         2.85528
| 33>    C       -1.81343         0.84782         3.40282
| 34>    C       -2.39323        -0.46138         3.57902
| 35>    C       -3.70740        -0.69635         3.19812
| 36>    C       -4.49377         0.36971         2.63089
| 37>    C       -3.93650         1.63060         2.46445
| 38>    C       -4.19465         2.37962         1.25918
| 39>    C       -2.98926         3.08414         0.90626
| 40>    C       -2.63363         3.22839        -0.42732
| 41>    C       -3.47226         2.67029        -1.45991
| 42>    C       -2.61481         2.15656        -2.49760
| 43>    C       -2.94728         0.98206        -3.15624
| 44>    C       -4.15095         0.27232        -2.80498
| 45>    C       -3.87053        -1.14083        -2.87777
| 46>    C       -4.43023        -2.00678        -1.94886
| 47>    C       -3.63395        -3.06717        -1.38267
| 48>    C       -4.01292        -3.21826         0.00025
| 49>    C       -5.03356        -2.24485         0.29110
| 50>    C       -5.29168        -1.49576        -0.91419
| 51>    C       -5.55922        -0.13516        -0.84202
| 52>    C       -4.97776         0.76576        -1.80482
| 53>    C       -4.63206         1.98712        -1.11980
| 54>    C       -5.00039         1.83968         0.26556
| 55>    C       -5.57495         0.52895         0.43718
| 56>    C       -5.32645        -0.19192         1.59708
| 57>    C       -5.05260        -1.60516         1.52333
| 58>    C       -4.05295        -1.91777         2.51311
| 59>    C       -3.07172        -2.85946         2.23411
| 60>    C       -3.05018        -3.52160         0.95266
| 61>    C       -1.67412        -3.68308         0.55808
| 62>    C       -0.84965        -3.12326         1.58920
| 63>    C       -1.70817        -2.61400         2.62945
| 64>    C       -1.37601        -1.43947         3.28828
| 65>    C        2.56334        -0.78185        -1.28512
| 66>    C        3.09186        -1.94100        -2.11065
| 67>    C        3.60142         0.21917        -0.88996
| 68>    C        4.23428         0.13767         0.34323
| 69>    C        5.20855         1.05749         0.68737
| 70>    C        5.55728         2.06446        -0.19624
| 71>    C        4.92939         2.14943        -1.42741
| 72>    C        3.95542         1.23052        -1.77355
| 73>    H        5.69644         0.98645         1.64797
| 74>    H        6.31818         2.78150         0.07347
| 75>    H        3.96257        -0.64680         1.03420
| 76>    H        3.46059         1.29742        -2.73213
| 77>    H        5.19873         2.93333        -2.11976
| 78>    C        3.94725        -2.88121        -1.26451
| 79>    H        3.68924        -1.53750        -2.93234
| 80>    H        2.25721        -2.49711        -2.54039
| 81>    H        3.35872        -3.25844        -0.42603
| 82>    C        4.45478        -4.06045        -2.08596
| 83>    H        4.79917        -2.33820        -0.85204
| 84>    H        5.04791        -3.71976        -2.93705
| 85>    H        3.62006        -4.64307        -2.48300
| 86>    C        5.31281        -4.98892        -1.25710
| 87>    O        5.51344        -4.89199        -0.07686
| 88>    O        5.83538        -5.95738        -2.02162
| 89>    C        6.66155        -6.90533        -1.35822
| 90>    H        7.04757        -7.56491        -2.13081
| 91>    H        6.07877        -7.47014        -0.62794
| 92>    H        7.47817        -6.39897        -0.84003
| 93> *
| 94>
| 95>                          ****END OF INPUT****
 Total Charge           Charge          ....    0
 Multiplicity           Mult            ....    1
 Number of Electrons    NEL             ....  462
Dispersion correction           -0.388824317
FINAL SINGLE POINT ENERGY     -2900.626483593527
Dispersion correction            ... done
Dispersion correction           -0.389789545
FINAL SINGLE POINT ENERGY     -2900.642862457328
Dispersion correction            ... done
Dispersion correction           -0.389912076
FINAL SINGLE POINT ENERGY     -2900.643176424358
Dispersion correction            ... done
FINAL SINGLE POINT ENERGY     -2900.642663918456
FINAL SINGLE POINT ENERGY     -2900.643130106412
FINAL SINGLE POINT ENERGY     -2900.643181481634
Dispersion correction            ... done
Dispersion correction           -0.389957249
FINAL SINGLE POINT ENERGY     -2900.643211492440
Dispersion correction            ... done
Dispersion correction           -0.389957521
FINAL SINGLE POINT ENERGY     -2900.643236546704
Dispersion correction            ... done
                    ***********************HURRAY********************

CARTESIAN COORDINATES (ANGSTROEM)
---------------------------------
  C      0.367709   -2.430925    1.238681
  C      0.778038   -2.296881   -0.141406
  C      1.532821   -1.015169   -0.284375
  C      1.303751   -0.287985    0.997951
  C      0.692553   -1.198591    1.936635
  C     -0.140426   -0.729736    2.959068
  C     -0.432913    0.685209    3.041270
  C      0.123581    1.561283    2.099209
  C      1.007697    1.065183    1.060481
  C      0.733284    1.835979   -0.169229
  C      0.767329    1.224749   -1.414082
  C      1.233312   -0.178856   -1.624037
  C      0.234053   -0.782042   -2.553381
  C     -0.302389   -2.049673   -2.373770
  C     -0.024880   -2.821818   -1.144673
  C     -1.235533   -3.546243   -0.798982
  C     -2.252260   -3.239785   -1.793737
  C     -1.677201   -2.316626   -2.759505
  C     -2.471807   -1.302444   -3.310014
  C     -1.920484    0.026161   -3.471355
  C     -0.602180    0.276002   -3.073011
  C     -0.274300    1.507598   -2.374251
  C     -1.276756    2.445953   -2.100310
  C     -1.298253    3.104644   -0.812248
  C     -0.316097    2.792314    0.138133
  C     -0.690726    2.627198    1.535044
  C     -2.023771    2.774825    1.927872
  C     -2.603477    1.855853    2.898177
  C     -1.823695    0.832338    3.443560
  C     -2.388349   -0.500966    3.612761
  C     -3.707750   -0.756450    3.226452
  C     -4.517979    0.311513    2.659947
  C     -3.976757    1.591051    2.500463
  C     -4.248863    2.351829    1.287225
  C     -3.044478    3.086170    0.936043
  C     -2.688874    3.249590   -0.406035
  C     -3.526294    2.677152   -1.452676
  C     -2.651498    2.179255   -2.503126
  C     -2.966542    0.996133   -3.175101
  C     -4.170941    0.257383   -2.826575
  C     -3.864025   -1.165370   -2.909381
  C     -4.413021   -2.053297   -1.979902
  C     -3.592071   -3.116013   -1.414458
  C     -3.972513   -3.285497   -0.018091
  C     -5.018463   -2.320343    0.281635
  C     -5.290315   -1.559003   -0.931353
  C     -5.582303   -0.193933   -0.849291
  C     -5.010955    0.732866   -1.815300
  C     -4.683229    1.967822   -1.115297
  C     -5.051687    1.802437    0.282921
  C     -5.609184    0.467540    0.447216
  C     -5.348783   -0.262185    1.610503
  C     -5.049594   -1.684711    1.526930
  C     -4.035752   -1.991075    2.525343
  C     -3.032071   -2.922206    2.239135
  C     -2.998548   -3.582084    0.940004
  C     -1.605242   -3.721555    0.541570
  C     -0.783623   -3.147107    1.585353
  C     -1.658942   -2.652718    2.639426
  C     -1.344515   -1.469624    3.311809
  C      2.608372   -0.712189   -1.297259
  C      3.139683   -1.885716   -2.116973
  C      3.651922    0.305746   -0.915205
  C      4.343708    0.218016    0.299673
  C      5.335344    1.149130    0.620024
  C      5.648640    2.176372   -0.274097
  C      4.965080    2.268875   -1.490864
  C      3.973314    1.338233   -1.807443
  H      5.862543    1.072810    1.573397
  H      6.421133    2.906301   -0.020418
  H      4.097062   -0.577753    1.004941
  H      3.429023    1.418397   -2.751564
  H      5.202007    3.070140   -2.194830
  C      3.943431   -2.871697   -1.272072
  H      3.759706   -1.476478   -2.932137
  H      2.305839   -2.415399   -2.599547
  H      3.311550   -3.261335   -0.458533
  C      4.474182   -4.045971   -2.084826
  H      4.783103   -2.358184   -0.777557
  H      5.183791   -3.724047   -2.865225
  H      3.657128   -4.557076   -2.626041
  C      5.158881   -5.084143   -1.223377
  O      5.154017   -5.104183   -0.016545
  O      5.779115   -6.011881   -1.974922
  C      6.451411   -7.048779   -1.261385
  H      6.951157   -7.668885   -2.016100
  H      5.735658   -7.653972   -0.683307
  H      7.188999   -6.626543   -0.562564

 Multiplicity           Mult            ....    1
 Number of Electrons    NEL             ....  462
 Basis Dimension        Dim             .... 1106

ORBITAL ENERGIES
----------------

  NO   OCC          E(Eh)            E(eV)
   0   2.0000     -19.181470      -521.9543
   1   2.0000     -19.126321      -520.4537
   2   2.0000     -10.315940      -280.7110
   3   2.0000     -10.249302      -278.8977
   4   2.0000     -10.247678      -278.8535
   5   2.0000     -10.247022      -278.8356
   6   2.0000     -10.242415      -278.7103
   7   2.0000     -10.234605      -278.4978
   8   2.0000     -10.233841      -278.4770
   9   2.0000     -10.232623      -278.4438
  10   2.0000     -10.232282      -278.4345
  11   2.0000     -10.231204      -278.4052
  12   2.0000     -10.231135      -278.4033
  13   2.0000     -10.230958      -278.3985
  14   2.0000     -10.230895      -278.3968
  15   2.0000     -10.230595      -278.3886
  16   2.0000     -10.230453      -278.3848
  17   2.0000     -10.230220      -278.3784
  18   2.0000     -10.230143      -278.3763
  19   2.0000     -10.230040      -278.3735
  20   2.0000     -10.230010      -278.3727
  21   2.0000     -10.229995      -278.3723
  22   2.0000     -10.229980      -278.3719
  23   2.0000     -10.229941      -278.3708
  24   2.0000     -10.229901      -278.3698
  25   2.0000     -10.229891      -278.3695
  26   2.0000     -10.229822      -278.3676
  27   2.0000     -10.229733      -278.3652
  28   2.0000     -10.229700      -278.3643
  29   2.0000     -10.229638      -278.3626
  30   2.0000     -10.229576      -278.3609
  31   2.0000     -10.229562      -278.3605
  32   2.0000     -10.229547      -278.3601
  33   2.0000     -10.229502      -278.3589
  34   2.0000     -10.229469      -278.3580
  35   2.0000     -10.229450      -278.3575
  36   2.0000     -10.229409      -278.3564
  37   2.0000     -10.229353      -278.3548
  38   2.0000     -10.229331      -278.3543
  39   2.0000     -10.229283      -278.3530
  40   2.0000     -10.229265      -278.3524
  41   2.0000     -10.229236      -278.3517
  42   2.0000     -10.229205      -278.3508
  43   2.0000     -10.229176      -278.3500
  44   2.0000     -10.229163      -278.3497
  45   2.0000     -10.229101      -278.3480
  46   2.0000     -10.229095      -278.3478
  47   2.0000     -10.229074      -278.3472
  48   2.0000     -10.229019      -278.3457
  49   2.0000     -10.228932      -278.3434
  50   2.0000     -10.228905      -278.3427
  51   2.0000     -10.228861      -278.3415
  52   2.0000     -10.228844      -278.3410
  53   2.0000     -10.228803      -278.3399
  54   2.0000     -10.228526      -278.3323
  55   2.0000     -10.227944      -278.3165
  56   2.0000     -10.227816      -278.3130
  57   2.0000     -10.227578      -278.3065
  58   2.0000     -10.227419      -278.3022
  59   2.0000     -10.227293      -278.2988
  60   2.0000     -10.227224      -278.2969
  61   2.0000     -10.226835      -278.2863
  62   2.0000     -10.226609      -278.2802
  63   2.0000     -10.226557      -278.2788
  64   2.0000     -10.226178      -278.2685
  65   2.0000     -10.211557      -277.8706
  66   2.0000     -10.207333      -277.7557
  67   2.0000     -10.206852      -277.7426
  68   2.0000     -10.202647      -277.6281
  69   2.0000     -10.202086      -277.6129
  70   2.0000     -10.202006      -277.6107
  71   2.0000     -10.201553      -277.5984
  72   2.0000     -10.201156      -277.5876
  73   2.0000     -10.195634      -277.4373
  74   2.0000      -1.100865       -29.9561
  75   2.0000      -1.010378       -27.4938
  76   2.0000      -0.965494       -26.2724
  77   2.0000      -0.950152       -25.8550
  78   2.0000      -0.943984       -25.6871
  79   2.0000      -0.943222       -25.6664
  80   2.0000      -0.919290       -25.0152
  81   2.0000      -0.907144       -24.6846
  82   2.0000      -0.906058       -24.6551
  83   2.0000      -0.905689       -24.6451
  84   2.0000      -0.905353       -24.6359
  85   2.0000      -0.879546       -23.9337
  86   2.0000      -0.867675       -23.6106
  87   2.0000      -0.866283       -23.5728
  88   2.0000      -0.862977       -23.4828
  89   2.0000      -0.851056       -23.1584
  90   2.0000      -0.835874       -22.7453
  91   2.0000      -0.834201       -22.6998
  92   2.0000      -0.834045       -22.6955
  93   2.0000      -0.817694       -22.2506
  94   2.0000      -0.802708       -21.8428
  95   2.0000      -0.785977       -21.3875
  96   2.0000      -0.785888       -21.3851
  97   2.0000      -0.785014       -21.3613
  98   2.0000      -0.784378       -21.3440
  99   2.0000      -0.777728       -21.1631
 100   2.0000      -0.768116       -20.9015
 101   2.0000      -0.768011       -20.8987
 102   2.0000      -0.767195       -20.8764
 103   2.0000      -0.762280       -20.7427
 104   2.0000      -0.749655       -20.3992
 105   2.0000      -0.746982       -20.3264
 106   2.0000      -0.731698       -19.9105
 107   2.0000      -0.712882       -19.3985
 108   2.0000      -0.712539       -19.3892
 109   2.0000      -0.710223       -19.3262
 110   2.0000      -0.710065       -19.3218
 111   2.0000      -0.704313       -19.1653
 112   2.0000      -0.702150       -19.1065
 113   2.0000      -0.700697       -19.0669
 114   2.0000      -0.698978       -19.0202
 115   2.0000      -0.671274       -18.2663
 116   2.0000      -0.660715       -17.9790
 117   2.0000      -0.658512       -17.9190
 118   2.0000      -0.647298       -17.6139
 119   2.0000      -0.627777       -17.0827
 120   2.0000      -0.623331       -16.9617
 121   2.0000      -0.622493       -16.9389
 122   2.0000      -0.621956       -16.9243
 123   2.0000      -0.621010       -16.8986
 124   2.0000      -0.619989       -16.8708
 125   2.0000      -0.616971       -16.7886
 126   2.0000      -0.616709       -16.7815
 127   2.0000      -0.612301       -16.6615
 128   2.0000      -0.607702       -16.5364
 129   2.0000      -0.600538       -16.3415
 130   2.0000      -0.566171       -15.4063
 131   2.0000      -0.563008       -15.3202
 132   2.0000      -0.558347       -15.1934
 133   2.0000      -0.555245       -15.1090
 134   2.0000      -0.554676       -15.0935
 135   2.0000      -0.553491       -15.0613
 136   2.0000      -0.538550       -14.6547
 137   2.0000      -0.536082       -14.5875
 138   2.0000      -0.530383       -14.4325
 139   2.0000      -0.529453       -14.4072
 140   2.0000      -0.528749       -14.3880
 141   2.0000      -0.521804       -14.1990
 142   2.0000      -0.518641       -14.1129
 143   2.0000      -0.518185       -14.1005
 144   2.0000      -0.514605       -14.0031
 145   2.0000      -0.504810       -13.7366
 146   2.0000      -0.503719       -13.7069
 147   2.0000      -0.494440       -13.4544
 148   2.0000      -0.492923       -13.4131
 149   2.0000      -0.489358       -13.3161
 150   2.0000      -0.485288       -13.2054
 151   2.0000      -0.480899       -13.0859
 152   2.0000      -0.477399       -12.9907
 153   2.0000      -0.474502       -12.9118
 154   2.0000      -0.470143       -12.7932
 155   2.0000      -0.468848       -12.7580
 156   2.0000      -0.466841       -12.7034
 157   2.0000      -0.464728       -12.6459
 158   2.0000      -0.462497       -12.5852
 159   2.0000      -0.460259       -12.5243
 160   2.0000      -0.459648       -12.5077
 161   2.0000      -0.456753       -12.4289
 162   2.0000      -0.454932       -12.3793
 163   2.0000      -0.450916       -12.2700
 164   2.0000      -0.449675       -12.2363
 165   2.0000      -0.449450       -12.2302
 166   2.0000      -0.448154       -12.1949
 167   2.0000      -0.440296       -11.9811
 168   2.0000      -0.439199       -11.9512
 169   2.0000      -0.437698       -11.9104
 170   2.0000      -0.435551       -11.8519
 171   2.0000      -0.432825       -11.7778
 172   2.0000      -0.431483       -11.7412
 173   2.0000      -0.428285       -11.6542
 174   2.0000      -0.425996       -11.5919
 175   2.0000      -0.424852       -11.5608
 176   2.0000      -0.424357       -11.5473
 177   2.0000      -0.418602       -11.3907
 178   2.0000      -0.415932       -11.3181
 179   2.0000      -0.415868       -11.3164
 180   2.0000      -0.415288       -11.3006
 181   2.0000      -0.414077       -11.2676
 182   2.0000      -0.411312       -11.1924
 183   2.0000      -0.407727       -11.0948
 184   2.0000      -0.407361       -11.0849
 185   2.0000      -0.406085       -11.0501
 186   2.0000      -0.405773       -11.0416
 187   2.0000      -0.393799       -10.7158
 188   2.0000      -0.382155       -10.3990
 189   2.0000      -0.379112       -10.3161
 190   2.0000      -0.376525       -10.2458
 191   2.0000      -0.370659       -10.0861
 192   2.0000      -0.369188       -10.0461
 193   2.0000      -0.368244       -10.0204
 194   2.0000      -0.365516        -9.9462
 195   2.0000      -0.364040        -9.9060
 196   2.0000      -0.363900        -9.9022
 197   2.0000      -0.361511        -9.8372
 198   2.0000      -0.361146        -9.8273
 199   2.0000      -0.359928        -9.7941
 200   2.0000      -0.357660        -9.7324
 201   2.0000      -0.357274        -9.7219
 202   2.0000      -0.356104        -9.6901
 203   2.0000      -0.356070        -9.6892
 204   2.0000      -0.353736        -9.6256
 205   2.0000      -0.352870        -9.6021
 206   2.0000      -0.347177        -9.4472
 207   2.0000      -0.343936        -9.3590
 208   2.0000      -0.342317        -9.3149
 209   2.0000      -0.341889        -9.3033
 210   2.0000      -0.340342        -9.2612
 211   2.0000      -0.336779        -9.1642
 212   2.0000      -0.325764        -8.8645
 213   2.0000      -0.310595        -8.4517
 214   2.0000      -0.288856        -7.8602
 215   2.0000      -0.282580        -7.6894
 216   2.0000      -0.278570        -7.5803
 217   2.0000      -0.275844        -7.5061
 218   2.0000      -0.275073        -7.4851
 219   2.0000      -0.274790        -7.4774
 220   2.0000      -0.274763        -7.4767
 221   2.0000      -0.274380        -7.4662
 222   2.0000      -0.273917        -7.4537
 223   2.0000      -0.266456        -7.2506
 224   2.0000      -0.260221        -7.0810
 225   2.0000      -0.258372        -7.0307
 226   2.0000      -0.233859        -6.3636
 227   2.0000      -0.226948        -6.1756
 228   2.0000      -0.225154        -6.1267
 229   2.0000      -0.224946        -6.1211
 230   2.0000      -0.219305        -5.9676
 231   0.0000      -0.126044        -3.4298
 232   0.0000      -0.123900        -3.3715
 233   0.0000      -0.115343        -3.1386
 234   0.0000      -0.082500        -2.2449
 235   0.0000      -0.080278        -2.1845

MULLIKEN ATOMIC CHARGES
-----------------------
   0 C :    0.018406
   1 C :    0.055010
   2 C :   -0.162567
   3 C :    0.033111
   4 C :    0.016031
   5 C :   -0.015363
   6 C :   -0.003591
   7 C :    0.000074
   8 C :    0.010239
   9 C :    0.010226
  10 C :    0.041085
  11 C :   -0.139120
  12 C :    0.048440
  13 C :   -0.017136
  14 C :   -0.023576
  15 C :    0.014343
  16 C :   -0.003855
  17 C :    0.008529
  18 C :   -0.011996
  19 C :   -0.005314
  20 C :   -0.000472
  21 C :    0.009856
  22 C :   -0.006740
  23 C :   -0.007745
  24 C :    0.007476
  25 C :   -0.010204
  26 C :    0.003649
  27 C :   -0.000609
  28 C :   -0.006900
  29 C :    0.007637
  30 C :   -0.005953
  31 C :    0.004343
  32 C :   -0.005043
  33 C :   -0.001505
  34 C :    0.001128
  35 C :   -0.009627
  36 C :   -0.001471
  37 C :   -0.002578
  38 C :   -0.004926
  39 C :   -0.003242
  40 C :    0.001340
  41 C :   -0.006910
  42 C :   -0.005242
  43 C :   -0.001849
  44 C :   -0.001713
  45 C :   -0.003196
  46 C :    0.003327
  47 C :    0.000874
  48 C :    0.000395
  49 C :   -0.001104
  50 C :   -0.000672
  51 C :   -0.005404
  52 C :   -0.001227
  53 C :   -0.000037
  54 C :    0.004872
  55 C :   -0.000794
  56 C :   -0.017349
  57 C :   -0.012250
  58 C :   -0.000926
  59 C :   -0.005479
  60 C :   -0.030628
  61 C :    0.215464
  62 C :    0.001709
  63 C :    0.023263
  64 C :    0.017546
  65 C :    0.029583
  66 C :    0.013092
  67 C :    0.023755
  68 H :   -0.014905
  69 H :   -0.011311
  70 H :   -0.007195
  71 H :   -0.021637
  72 H :   -0.013790
  73 C :   -0.030823
  74 H :   -0.006096
  75 H :   -0.008468
  76 H :    0.025002
  77 C :    0.051284
  78 H :    0.012368
  79 H :    0.027746
  80 H :    0.025801
  81 C :    0.151799
  82 O :   -0.231848
  83 O :   -0.308000
  84 C :    0.188617
  85 H :    0.030251
  86 H :    0.029806
  87 H :    0.030905
Sum of atomic charges:   -0.0000000

LOEWDIN ATOMIC CHARGES
----------------------
   0 C :    0.001160
   1 C :    0.009361
   2 C :    0.001698
   3 C :    0.010682
   4 C :   -0.000476
   5 C :   -0.006171
   6 C :   -0.006157
   7 C :   -0.002268
   8 C :   -0.006470
   9 C :   -0.004899
  10 C :    0.010459
  11 C :    0.003756
  12 C :    0.006690
  13 C :   -0.016451
  14 C :   -0.017479
  15 C :   -0.002353
  16 C :    0.001705
  17 C :   -0.003816
  18 C :   -0.006306
  19 C :   -0.005749
  20 C :   -0.000847
  21 C :   -0.001392
  22 C :   -0.006532
  23 C :   -0.005951
  24 C :   -0.002154
  25 C :    0.002794
  26 C :   -0.001011
  27 C :   -0.002736
  28 C :   -0.000504
  29 C :   -0.000738
  30 C :   -0.000585
  31 C :   -0.000931
  32 C :   -0.000675
  33 C :   -0.001306
  34 C :   -0.001635
  35 C :   -0.001493
  36 C :   -0.001148
  37 C :   -0.000088
  38 C :   -0.001081
  39 C :   -0.001935
  40 C :   -0.000216
  41 C :   -0.002552
  42 C :   -0.000855
  43 C :   -0.002754
  44 C :   -0.000857
  45 C :   -0.001251
  46 C :   -0.000745
  47 C :    0.000180
  48 C :   -0.000469
  49 C :   -0.001113
  50 C :   -0.001019
  51 C :   -0.001272
  52 C :   -0.000870
  53 C :    0.000286
  54 C :   -0.001275
  55 C :    0.000287
  56 C :   -0.006815
  57 C :   -0.004508
  58 C :   -0.000214
  59 C :    0.000077
  60 C :   -0.003844
  61 C :   -0.006160
  62 C :   -0.018322
  63 C :   -0.016253
  64 C :   -0.020962
  65 C :   -0.021887
  66 C :   -0.022357
  67 C :   -0.015302
  68 H :    0.029722
  69 H :    0.028879
  70 H :    0.029817
  71 H :    0.027236
  72 H :    0.029139
  73 C :   -0.026569
  74 H :    0.028948
  75 H :    0.024921
  76 H :    0.027980
  77 C :   -0.053964
  78 H :    0.027145
  79 H :    0.039341
  80 H :    0.043119
  81 C :    0.087221
  82 O :   -0.177831
  83 O :   -0.101859
  84 C :    0.083649
  85 H :    0.024190
  86 H :    0.021666
  87 H :    0.021326

  Mayer bond orders larger than 0.100000
B(  0-C ,  1-C ) :   1.2227 B(  0-C ,  4-C ) :   1.1920 B(  0-C , 57-C ) :   1.3976
B(  1-C ,  2-C ) :   1.0491 B(  1-C , 14-C ) :   1.4962 B(  2-C ,  3-C ) :   1.0641
B(  2-C , 11-C ) :   0.7457 B(  2-C , 60-C ) :   0.8355 B(  3-C ,  4-C ) :   1.2218
B(  3-C ,  8-C ) :   1.4886 B(  4-C ,  5-C ) :   1.3963 B(  5-C ,  6-C ) :   1.2205
B(  5-C , 59-C ) :   1.1802 B(  6-C ,  7-C ) :   1.4150 B(  6-C , 28-C ) :   1.1893
B(  7-C ,  8-C ) :   1.2099 B(  7-C , 25-C ) :   1.1859 B(  8-C ,  9-C ) :   1.1226
B(  9-C , 10-C ) :   1.4953 B(  9-C , 24-C ) :   1.2077 B( 10-C , 11-C ) :   1.0669
B( 10-C , 21-C ) :   1.2199 B( 11-C , 12-C ) :   1.0543 B( 11-C , 60-C ) :   0.8317
B( 12-C , 13-C ) :   1.4857 B( 12-C , 20-C ) :   1.2313 B( 13-C , 14-C ) :   1.1129
B( 13-C , 17-C ) :   1.2165 B( 14-C , 15-C ) :   1.2088 B( 15-C , 16-C ) :   1.1855
B( 15-C , 56-C ) :   1.4208 B( 16-C , 17-C ) :   1.1813 B( 16-C , 42-C ) :   1.4386
B( 17-C , 18-C ) :   1.4189 B( 18-C , 19-C ) :   1.2105 B( 18-C , 40-C ) :   1.1897
B( 19-C , 20-C ) :   1.3957 B( 19-C , 38-C ) :   1.1907 B( 20-C , 21-C ) :   1.1868
B( 21-C , 22-C ) :   1.3974 B( 22-C , 23-C ) :   1.2134 B( 22-C , 37-C ) :   1.1821
B( 23-C , 24-C ) :   1.4162 B( 23-C , 35-C ) :   1.1937 B( 24-C , 25-C ) :   1.1807
B( 25-C , 26-C ) :   1.4403 B( 26-C , 27-C ) :   1.1812 B( 26-C , 34-C ) :   1.1849
B( 27-C , 28-C ) :   1.4345 B( 27-C , 32-C ) :   1.2011 B( 28-C , 29-C ) :   1.1854
B( 29-C , 30-C ) :   1.4343 B( 29-C , 59-C ) :   1.1945 B( 30-C , 31-C ) :   1.1914
B( 30-C , 53-C ) :   1.1870 B( 31-C , 32-C ) :   1.4327 B( 31-C , 51-C ) :   1.1883
B( 32-C , 33-C ) :   1.1803 B( 33-C , 34-C ) :   1.1922 B( 33-C , 49-C ) :   1.4366
B( 34-C , 35-C ) :   1.4356 B( 35-C , 36-C ) :   1.1853 B( 36-C , 37-C ) :   1.1946
B( 36-C , 48-C ) :   1.4350 B( 37-C , 38-C ) :   1.4397 B( 38-C , 39-C ) :   1.1845
B( 39-C , 40-C ) :   1.1929 B( 39-C , 47-C ) :   1.4369 B( 40-C , 41-C ) :   1.4328
B( 41-C , 42-C ) :   1.1891 B( 41-C , 45-C ) :   1.1941 B( 42-C , 43-C ) :   1.1825
B( 43-C , 44-C ) :   1.1945 B( 43-C , 55-C ) :   1.4332 B( 44-C , 45-C ) :   1.1843
B( 44-C , 52-C ) :   1.4333 B( 45-C , 46-C ) :   1.4300 B( 46-C , 47-C ) :   1.1877
B( 46-C , 50-C ) :   1.1897 B( 47-C , 48-C ) :   1.1908 B( 48-C , 49-C ) :   1.1884
B( 49-C , 50-C ) :   1.1887 B( 50-C , 51-C ) :   1.4339 B( 51-C , 52-C ) :   1.1889
B( 52-C , 53-C ) :   1.1880 B( 53-C , 54-C ) :   1.4366 B( 54-C , 55-C ) :   1.1864
B( 54-C , 58-C ) :   1.1857 B( 55-C , 56-C ) :   1.1948 B( 56-C , 57-C ) :   1.2093
B( 57-C , 58-C ) :   1.1906 B( 58-C , 59-C ) :   1.4393 B( 60-C , 61-C ) :   1.0856
B( 60-C , 62-C ) :   1.0022 B( 61-C , 73-C ) :   1.1007 B( 61-C , 74-H ) :   0.8997
B( 61-C , 75-H ) :   0.8861 B( 62-C , 63-C ) :   1.3990 B( 62-C , 67-C ) :   1.3935
B( 63-C , 64-C ) :   1.3646 B( 63-C , 70-H ) :   0.9747 B( 64-C , 65-C ) :   1.3851
B( 64-C , 68-H ) :   0.9819 B( 65-C , 66-C ) :   1.3757 B( 65-C , 69-H ) :   0.9874
B( 66-C , 67-C ) :   1.3718 B( 66-C , 72-H ) :   0.9827 B( 67-C , 71-H ) :   0.9800
B( 73-C , 76-H ) :   0.9309 B( 73-C , 77-C ) :   1.0741 B( 73-C , 78-H ) :   0.9313
B( 77-C , 79-H ) :   0.9226 B( 77-C , 80-H ) :   0.9121 B( 77-C , 81-C ) :   0.9778
B( 81-C , 82-O ) :   2.0586 B( 81-C , 83-O ) :   1.1918 B( 83-O , 84-C ) :   0.9231
B( 84-C , 85-H ) :   0.9792 B( 84-C , 86-H ) :   0.9753 B( 84-C , 87-H ) :   0.9732

Dispersion correction           -0.389948068
FINAL SINGLE POINT ENERGY     -2900.643248526580

DIPOLE MOMENT
-------------
                                X             Y             Z
Electronic contribution:    -71.85561      21.80274      13.78721
Nuclear contribution   :     73.30838     -22.06831     -14.55025
                        -----------------------------------------
Total Dipole Moment    :      1.45277      -0.26557      -0.76303
                        -----------------------------------------
Magnitude (a.u.)       :      1.66232
Magnitude (Debye)      :      4.22527

Rotational constants in cm-1:     0.002147     0.001169     0.001064
Rotational constants in MHz :    64.362230    35.060479    31.902275

                             ****ORCA TERMINATED NORMALLY****
TOTAL RUN TIME: 0 days 9 hours 7 minutes 37 seconds 529 msec
