                         Program Version 4.2.0 -  RELEASE  -
|  1> # ORCA input file
|  2> # SCF done       -164.031515929867          0.000855962811
|  3> ! B3LYP/G D3BJ Opt RIJCOSX def2-SVP def2/J
|  4> * xyz 0 1
|  5>    C        4.48978         1.94151        -0.72963
|  6>    O        5.42205         2.62976        -1.07605
|  7>    C        3.06089         2.28321        -0.67749
|  8>    C        2.27182         3.34007        -0.99445
|  9>    S        0.61747         2.99500        -0.64613
| 10>    C        0.99212         1.41719        -0.05621
| 11>    C        2.32774         1.17535        -0.13773
| 12>    C        3.25754         0.11769         0.21433
| 13>    C        2.96746        -0.90630         1.08128
| 14>    C        1.65805        -1.11452         1.55719
| 15>    N        0.59053        -1.30372         1.93416
| 16>    C        3.92564        -1.76931         1.64160
| 17>    N        4.68217        -2.46816         2.14916
| 18>    C        4.55050         0.51233        -0.30160
| 19>    C        5.70758        -0.18270        -0.50877
| 20>    C        5.90786        -1.57483        -0.57834
| 21>    S        7.54361        -2.19985        -0.41220
| 22>    C        6.99016        -3.81111        -0.65983
| 23>    C        5.60365        -3.83893        -0.90029
| 24>    C        5.00220        -2.58958        -0.84450
| 25>    S        4.97882        -5.44590        -1.17726
| 26>    C        6.57533        -6.07516        -0.94480
| 27>    C        7.54027        -5.09438        -0.68535
| 28>    N        8.75788        -5.68086        -0.47960
| 29>    C        9.85090        -4.85763        -0.01737
| 30>    C       10.50215        -4.08025        -1.16170
| 31>    C        8.60574        -7.05272        -0.61170
| 32>    C        7.22603        -7.31034        -0.88640
| 33>    C        6.72608        -8.62435        -0.98067
| 34>    N        5.50803        -9.11465        -1.21624
| 35>    N        5.66792       -10.41210        -1.13494
| 36>    C        4.56892       -11.31838        -1.30395
| 37>    C        3.62931       -11.25160        -0.10455
| 38>    N        6.87694       -10.83803        -0.86644
| 39>    C        7.59723        -9.71960        -0.75974
| 40>    C        8.96875        -9.48139        -0.53981
| 41>    C        9.50337        -8.15305        -0.51997
| 42>    N       10.87955        -8.25699        -0.40571
| 43>    C       11.94877        -7.29353        -0.53033
| 44>    C       12.59477        -6.97590         0.81864
| 45>    C       11.20320        -9.58310        -0.32042
| 46>    C       10.04180       -10.36283        -0.39144
| 47>    S       10.33785       -12.06859        -0.31718
| 48>    C       12.05341       -11.73221        -0.20803
| 49>    C       12.36263       -10.35541        -0.22676
| 50>    S       14.06133       -10.07172        -0.13746
| 51>    C       14.36180       -11.80450        -0.06438
| 52>    C       13.17108       -12.53574        -0.11286
| 53>    C       15.61191       -12.42655         0.02896
| 54>    C       16.87705       -11.89252         0.07214
| 55>    C       18.10217       -12.66637         0.16299
| 56>    C       18.25960       -14.02602         0.25232
| 57>    C       19.54223       -14.60579         0.33538
| 58>    N       20.57948       -15.09277         0.40179
| 59>    C       17.22976       -14.98506         0.27728
| 60>    N       16.44091       -15.82030         0.30291
| 61>    C       19.20069       -11.71835         0.14935
| 62>    C       20.56028       -11.73828         0.19244
| 63>    S       21.20100       -10.13704         0.12997
| 64>    C       19.62925        -9.43048         0.04427
| 65>    C       18.67078       -10.39032         0.06417
| 66>    C       17.20642       -10.45924         0.01957
| 67>    O       16.42847        -9.52280        -0.04726
| 68>    H        2.54814         4.29094        -1.40371
| 69>    H        0.20295         0.78362         0.29614
| 70>    H        6.57591         0.43497        -0.71893
| 71>    H        3.95883        -2.41648        -1.03533
| 72>    H       10.56996        -5.47272         0.51450
| 73>    H        9.43692        -4.13952         0.69900
| 74>    H       11.38266        -3.55846        -0.79778
| 75>    H        9.80722        -3.34502        -1.55851
| 76>    H       10.79385        -4.73845        -1.97769
| 77>    H        4.99731       -12.31585        -1.41368
| 78>    H        4.03363       -11.03893        -2.21508
| 79>    H        4.15168       -11.54494         0.80278
| 80>    H        2.78790       -11.92134        -0.25653
| 81>    H        3.25686       -10.23745         0.01573
| 82>    H       11.57624        -6.40060        -1.02344
| 83>    H       12.71158        -7.73693        -1.17949
| 84>    H       11.85188        -6.70526         1.56642
| 85>    H       13.29809        -6.15605         0.70467
| 86>    H       13.13908        -7.84186         1.18465
| 87>    H       13.15345       -13.61009        -0.08042
| 88>    H       15.54313       -13.50735         0.06785
| 89>    H       21.23168       -12.57087         0.25564
| 90>    H       19.51990        -8.36621        -0.01419
| 91> *
| 92>
| 93>                          ****END OF INPUT****
 Total Charge           Charge          ....    0
 Multiplicity           Mult            ....    1
 Number of Electrons    NEL             ....  474
Dispersion correction           -0.267944850
FINAL SINGLE POINT ENERGY     -4796.780949725530
Dispersion correction            ... done
Dispersion correction           -0.264701947
FINAL SINGLE POINT ENERGY     -4796.797542454422
Dispersion correction            ... done
Dispersion correction           -0.265338789
FINAL SINGLE POINT ENERGY     -4796.800107125808
Dispersion correction            ... done
FINAL SINGLE POINT ENERGY     -4796.799991782861
FINAL SINGLE POINT ENERGY     -4796.801184457309
FINAL SINGLE POINT ENERGY     -4796.801554058424
FINAL SINGLE POINT ENERGY     -4796.802042685539
FINAL SINGLE POINT ENERGY     -4796.801968585084
FINAL SINGLE POINT ENERGY     -4796.801920628982
FINAL SINGLE POINT ENERGY     -4796.801958152469
FINAL SINGLE POINT ENERGY     -4796.801639829143
FINAL SINGLE POINT ENERGY     -4796.801571509652
FINAL SINGLE POINT ENERGY     -4796.801580981641
FINAL SINGLE POINT ENERGY     -4796.801555133402
FINAL SINGLE POINT ENERGY     -4796.801584698236
FINAL SINGLE POINT ENERGY     -4796.801565406314
FINAL SINGLE POINT ENERGY     -4796.801565216054
Dispersion correction            ... done
Dispersion correction           -0.264033893
FINAL SINGLE POINT ENERGY     -4796.801549076689
Dispersion correction            ... done
Dispersion correction           -0.264035307
FINAL SINGLE POINT ENERGY     -4796.801550075434
Dispersion correction            ... done
                    ***********************HURRAY********************

CARTESIAN COORDINATES (ANGSTROEM)
---------------------------------
  C      4.824016    1.986555   -0.926457
  O      5.931568    2.445277   -1.113453
  C      3.504242    2.601846   -1.200985
  C      3.038987    3.776395   -1.724524
  S      1.304013    3.787658   -1.714731
  C      1.205425    2.210483   -0.996844
  C      2.465958    1.699539   -0.786091
  C      3.073107    0.496847   -0.188809
  C      2.375569   -0.426363    0.576871
  C      0.949064   -0.389126    0.633060
  N     -0.212771   -0.347314    0.640761
  C      3.016851   -1.367523    1.430360
  N      3.546098   -2.117014    2.144535
  C      4.508558    0.601839   -0.401759
  C      5.572510   -0.270148   -0.335216
  C      5.692569   -1.680661   -0.296034
  S      7.323937   -2.325006   -0.021063
  C      6.771730   -3.941676   -0.272353
  C      5.384972   -3.974125   -0.564912
  C      4.781866   -2.709620   -0.570002
  S      4.783208   -5.608250   -0.853646
  C      6.394617   -6.230780   -0.583607
  C      7.334229   -5.233625   -0.287714
  N      8.574177   -5.799737   -0.067371
  C      9.625169   -4.980289    0.529954
  C     10.387426   -4.120555   -0.476468
  C      8.455330   -7.187606   -0.249485
  C      7.073502   -7.465160   -0.549869
  C      6.626919   -8.807266   -0.718274
  N      5.400194   -9.314559   -0.918950
  N      5.615679  -10.625110   -0.961633
  C      4.511776  -11.576071   -1.002984
  C      4.064141  -11.989588    0.398373
  N      6.870035  -11.030080   -0.794918
  C      7.547992   -9.882135   -0.639647
  C      8.934209   -9.624797   -0.432599
  C      9.403741   -8.274507   -0.232853
  N     10.799705   -8.332209   -0.119547
  C     11.807124   -7.306296    0.115511
  C     12.194920   -7.174224    1.588613
  C     11.189427   -9.651498   -0.227723
  C     10.063739  -10.465890   -0.422245
  S     10.460423  -12.155217   -0.640938
  C     12.172793  -11.750945   -0.466306
  C     12.403992  -10.370428   -0.246533
  S     14.093208   -9.997816   -0.094815
  C     14.511998  -11.709081   -0.341143
  C     13.353166  -12.493823   -0.515595
  C     15.796690  -12.304856   -0.403059
  C     17.085659  -11.823239   -0.287157
  C     18.312038  -12.625045   -0.384347
  C     18.465980  -13.968052   -0.684699
  C     19.765621  -14.559096   -0.729844
  N     20.828031  -15.029318   -0.764379
  C     17.392379  -14.857924   -0.990690
  N     16.538540  -15.604098   -1.248407
  C     19.436204  -11.712946   -0.122909
  C     20.808394  -11.779106   -0.026661
  S     21.467995  -10.206853    0.300833
  C     19.905287   -9.452922    0.313914
  C     18.933496  -10.385280    0.078468
  C     17.457201  -10.402778   -0.019483
  O     16.698220   -9.455168    0.095847
  H      3.605687    4.624859   -2.104148
  H      0.235920    1.771027   -0.774533
  H      6.526342    0.265757   -0.438341
  H      3.739000   -2.522980   -0.817252
  H     10.290751   -5.626526    1.105576
  H      9.137276   -4.328677    1.272614
  H     11.151066   -3.523254    0.046034
  H      9.712491   -3.423986   -0.995877
  H     10.884875   -4.728610   -1.246603
  H      4.864027  -12.441508   -1.581003
  H      3.701257  -11.084041   -1.557171
  H      4.897055  -12.455287    0.946562
  H      3.240092  -12.716647    0.335775
  H      3.711312  -11.115934    0.966961
  H     11.458453   -6.365786   -0.313110
  H     12.691580   -7.584685   -0.477613
  H     11.315892   -6.984638    2.223414
  H     12.911331   -6.350634    1.730529
  H     12.670788   -8.098493    1.947709
  H     13.415227  -13.568951   -0.690664
  H     15.710963  -13.376850   -0.588495
  H     21.469398  -12.636045   -0.132277
  H     19.793907   -8.386302    0.501499

 Multiplicity           Mult            ....    1
 Number of Electrons    NEL             ....  474
 Basis Dimension        Dim             .... 1021

ORBITAL ENERGIES
----------------

  NO   OCC          E(Eh)            E(eV)
   0   2.0000     -88.909460     -2419.3494
   1   2.0000     -88.908174     -2419.3144
   2   2.0000     -88.906190     -2419.2604
   3   2.0000     -88.902446     -2419.1585
   4   2.0000     -88.897822     -2419.0327
   5   2.0000     -88.896451     -2418.9954
   6   2.0000     -19.143019      -520.9080
   7   2.0000     -19.137350      -520.7538
   8   2.0000     -14.453483      -393.2993
   9   2.0000     -14.414992      -392.2519
  10   2.0000     -14.414817      -392.2471
  11   2.0000     -14.369819      -391.0226
  12   2.0000     -14.369515      -391.0144
  13   2.0000     -14.341758      -390.2591
  14   2.0000     -14.340688      -390.2300
  15   2.0000     -14.340227      -390.2174
  16   2.0000     -14.338507      -390.1706
  17   2.0000     -10.293783      -280.1081
  18   2.0000     -10.290250      -280.0119
  19   2.0000     -10.273452      -279.5548
  20   2.0000     -10.273157      -279.5468
  21   2.0000     -10.268310      -279.4149
  22   2.0000     -10.267530      -279.3937
  23   2.0000     -10.266513      -279.3660
  24   2.0000     -10.266281      -279.3597
  25   2.0000     -10.265870      -279.3485
  26   2.0000     -10.265028      -279.3256
  27   2.0000     -10.257201      -279.1126
  28   2.0000     -10.256440      -279.0919
  29   2.0000     -10.255761      -279.0735
  30   2.0000     -10.252350      -278.9806
  31   2.0000     -10.251977      -278.9705
  32   2.0000     -10.250968      -278.9430
  33   2.0000     -10.250719      -278.9362
  34   2.0000     -10.248244      -278.8689
  35   2.0000     -10.247308      -278.8434
  36   2.0000     -10.247275      -278.8425
  37   2.0000     -10.246423      -278.8193
  38   2.0000     -10.245646      -278.7982
  39   2.0000     -10.245360      -278.7904
  40   2.0000     -10.245228      -278.7868
  41   2.0000     -10.244608      -278.7700
  42   2.0000     -10.244370      -278.7635
  43   2.0000     -10.244079      -278.7556
  44   2.0000     -10.242251      -278.7058
  45   2.0000     -10.241924      -278.6969
  46   2.0000     -10.239168      -278.6219
  47   2.0000     -10.238542      -278.6049
  48   2.0000     -10.238133      -278.5938
  49   2.0000     -10.236013      -278.5361
  50   2.0000     -10.233405      -278.4651
  51   2.0000     -10.232925      -278.4520
  52   2.0000     -10.230316      -278.3811
  53   2.0000     -10.229860      -278.3686
  54   2.0000     -10.227957      -278.3168
  55   2.0000     -10.227462      -278.3034
  56   2.0000     -10.226058      -278.2652
  57   2.0000     -10.224893      -278.2335
  58   2.0000     -10.221463      -278.1401
  59   2.0000     -10.219205      -278.0787
  60   2.0000     -10.217603      -278.0351
  61   2.0000     -10.217453      -278.0310
  62   2.0000     -10.203760      -277.6584
  63   2.0000      -8.004173      -217.8046
  64   2.0000      -8.003032      -217.7736
  65   2.0000      -8.000129      -217.6946
  66   2.0000      -7.994517      -217.5419
  67   2.0000      -7.991161      -217.4505
  68   2.0000      -7.989839      -217.4146
  69   2.0000      -5.972227      -162.5126
  70   2.0000      -5.971058      -162.4808
  71   2.0000      -5.968496      -162.4110
  72   2.0000      -5.967811      -162.3924
  73   2.0000      -5.966646      -162.3607
  74   2.0000      -5.965947      -162.3417
  75   2.0000      -5.964819      -162.3110
  76   2.0000      -5.964642      -162.3062
  77   2.0000      -5.963104      -162.2643
  78   2.0000      -5.960794      -162.2014
  79   2.0000      -5.959927      -162.1779
  80   2.0000      -5.958892      -162.1497
  81   2.0000      -5.958637      -162.1428
  82   2.0000      -5.956170      -162.0756
  83   2.0000      -5.955142      -162.0476
  84   2.0000      -5.954899      -162.0410
  85   2.0000      -5.950986      -161.9346
  86   2.0000      -5.949558      -161.8957
  87   2.0000      -1.116042       -30.3690
  88   2.0000      -1.047355       -28.5000
  89   2.0000      -1.043334       -28.3906
  90   2.0000      -1.024581       -27.8803
  91   2.0000      -1.014121       -27.5956
  92   2.0000      -0.929734       -25.2994
  93   2.0000      -0.928760       -25.2728
  94   2.0000      -0.926110       -25.2007
  95   2.0000      -0.923043       -25.1173
  96   2.0000      -0.915361       -24.9082
  97   2.0000      -0.914195       -24.8765
  98   2.0000      -0.905246       -24.6330
  99   2.0000      -0.905209       -24.6320
 100   2.0000      -0.902627       -24.5617
 101   2.0000      -0.892148       -24.2766
 102   2.0000      -0.875261       -23.8171
 103   2.0000      -0.873512       -23.7695
 104   2.0000      -0.865964       -23.5641
 105   2.0000      -0.864549       -23.5256
 106   2.0000      -0.845769       -23.0145
 107   2.0000      -0.827772       -22.5248
 108   2.0000      -0.811988       -22.0953
 109   2.0000      -0.810490       -22.0546
 110   2.0000      -0.803053       -21.8522
 111   2.0000      -0.796497       -21.6738
 112   2.0000      -0.794962       -21.6320
 113   2.0000      -0.783916       -21.3314
 114   2.0000      -0.776618       -21.1328
 115   2.0000      -0.767563       -20.8865
 116   2.0000      -0.754275       -20.5249
 117   2.0000      -0.753596       -20.5064
 118   2.0000      -0.753226       -20.4963
 119   2.0000      -0.745339       -20.2817
 120   2.0000      -0.732812       -19.9408
 121   2.0000      -0.727782       -19.8040
 122   2.0000      -0.721786       -19.6408
 123   2.0000      -0.700820       -19.0703
 124   2.0000      -0.692674       -18.8486
 125   2.0000      -0.686955       -18.6930
 126   2.0000      -0.678388       -18.4599
 127   2.0000      -0.669806       -18.2263
 128   2.0000      -0.664902       -18.0929
 129   2.0000      -0.656159       -17.8550
 130   2.0000      -0.642742       -17.4899
 131   2.0000      -0.640732       -17.4352
 132   2.0000      -0.625065       -17.0089
 133   2.0000      -0.622348       -16.9349
 134   2.0000      -0.610241       -16.6055
 135   2.0000      -0.603232       -16.4148
 136   2.0000      -0.593922       -16.1614
 137   2.0000      -0.588996       -16.0274
 138   2.0000      -0.587012       -15.9734
 139   2.0000      -0.585084       -15.9209
 140   2.0000      -0.578816       -15.7504
 141   2.0000      -0.576971       -15.7002
 142   2.0000      -0.567359       -15.4386
 143   2.0000      -0.563765       -15.3408
 144   2.0000      -0.563228       -15.3262
 145   2.0000      -0.556583       -15.1454
 146   2.0000      -0.547397       -14.8954
 147   2.0000      -0.543600       -14.7921
 148   2.0000      -0.533895       -14.5280
 149   2.0000      -0.526992       -14.3402
 150   2.0000      -0.525063       -14.2877
 151   2.0000      -0.523734       -14.2515
 152   2.0000      -0.521516       -14.1912
 153   2.0000      -0.513869       -13.9831
 154   2.0000      -0.503231       -13.6936
 155   2.0000      -0.499816       -13.6007
 156   2.0000      -0.494290       -13.4503
 157   2.0000      -0.489211       -13.3121
 158   2.0000      -0.483186       -13.1482
 159   2.0000      -0.479550       -13.0492
 160   2.0000      -0.473652       -12.8887
 161   2.0000      -0.472356       -12.8535
 162   2.0000      -0.466757       -12.7011
 163   2.0000      -0.463825       -12.6213
 164   2.0000      -0.461010       -12.5447
 165   2.0000      -0.459921       -12.5151
 166   2.0000      -0.457660       -12.4536
 167   2.0000      -0.457418       -12.4470
 168   2.0000      -0.454713       -12.3734
 169   2.0000      -0.452375       -12.3098
 170   2.0000      -0.450378       -12.2554
 171   2.0000      -0.446852       -12.1595
 172   2.0000      -0.442410       -12.0386
 173   2.0000      -0.440943       -11.9987
 174   2.0000      -0.438839       -11.9414
 175   2.0000      -0.435852       -11.8601
 176   2.0000      -0.432510       -11.7692
 177   2.0000      -0.431136       -11.7318
 178   2.0000      -0.428266       -11.6537
 179   2.0000      -0.423639       -11.5278
 180   2.0000      -0.421666       -11.4741
 181   2.0000      -0.418012       -11.3747
 182   2.0000      -0.417614       -11.3639
 183   2.0000      -0.416273       -11.3274
 184   2.0000      -0.414033       -11.2664
 185   2.0000      -0.412321       -11.2198
 186   2.0000      -0.409943       -11.1551
 187   2.0000      -0.408961       -11.1284
 188   2.0000      -0.406242       -11.0544
 189   2.0000      -0.403867       -10.9898
 190   2.0000      -0.402549       -10.9539
 191   2.0000      -0.398413       -10.8414
 192   2.0000      -0.397272       -10.8103
 193   2.0000      -0.395524       -10.7628
 194   2.0000      -0.394647       -10.7389
 195   2.0000      -0.388187       -10.5631
 196   2.0000      -0.386887       -10.5277
 197   2.0000      -0.379395       -10.3239
 198   2.0000      -0.378910       -10.3107
 199   2.0000      -0.377701       -10.2778
 200   2.0000      -0.377227       -10.2649
 201   2.0000      -0.376762       -10.2522
 202   2.0000      -0.375779       -10.2255
 203   2.0000      -0.370922       -10.0933
 204   2.0000      -0.370552       -10.0832
 205   2.0000      -0.367783       -10.0079
 206   2.0000      -0.365046        -9.9334
 207   2.0000      -0.362366        -9.8605
 208   2.0000      -0.357828        -9.7370
 209   2.0000      -0.356087        -9.6896
 210   2.0000      -0.355889        -9.6842
 211   2.0000      -0.353803        -9.6275
 212   2.0000      -0.350564        -9.5393
 213   2.0000      -0.345197        -9.3933
 214   2.0000      -0.344056        -9.3623
 215   2.0000      -0.342531        -9.3207
 216   2.0000      -0.342043        -9.3075
 217   2.0000      -0.337505        -9.1840
 218   2.0000      -0.332826        -9.0567
 219   2.0000      -0.330582        -8.9956
 220   2.0000      -0.310957        -8.4616
 221   2.0000      -0.310336        -8.4447
 222   2.0000      -0.309185        -8.4134
 223   2.0000      -0.296783        -8.0759
 224   2.0000      -0.287013        -7.8100
 225   2.0000      -0.279276        -7.5995
 226   2.0000      -0.278536        -7.5793
 227   2.0000      -0.274182        -7.4609
 228   2.0000      -0.272221        -7.4075
 229   2.0000      -0.269047        -7.3212
 230   2.0000      -0.266197        -7.2436
 231   2.0000      -0.259648        -7.0654
 232   2.0000      -0.253865        -6.9080
 233   2.0000      -0.242232        -6.5915
 234   2.0000      -0.235358        -6.4044
 235   2.0000      -0.227020        -6.1775
 236   2.0000      -0.203772        -5.5449
 237   0.0000      -0.131773        -3.5857
 238   0.0000      -0.121436        -3.3044
 239   0.0000      -0.091445        -2.4883
 240   0.0000      -0.088985        -2.4214
 241   0.0000      -0.070216        -1.9107

MULLIKEN ATOMIC CHARGES
-----------------------
   0 C :    0.150066
   1 O :   -0.168426
   2 C :    0.050515
   3 C :   -0.131309
   4 S :    0.145891
   5 C :   -0.132276
   6 C :    0.017508
   7 C :    0.249346
   8 C :   -0.314572
   9 C :   -0.136820
  10 N :    0.088851
  11 C :   -0.166011
  12 N :    0.116196
  13 C :   -0.148006
  14 C :    0.071184
  15 C :   -0.092757
  16 S :    0.146173
  17 C :   -0.040650
  18 C :   -0.067847
  19 C :    0.036198
  20 S :    0.202465
  21 C :   -0.095876
  22 C :    0.056726
  23 N :   -0.217817
  24 C :    0.102937
  25 C :    0.011474
  26 C :    0.070521
  27 C :   -0.076825
  28 C :   -0.017271
  29 N :   -0.059415
  30 N :   -0.116632
  31 C :    0.156124
  32 C :   -0.021302
  33 N :   -0.060250
  34 C :   -0.013126
  35 C :   -0.074220
  36 C :    0.074814
  37 N :   -0.207088
  38 C :    0.105542
  39 C :    0.003217
  40 C :    0.055624
  41 C :   -0.094198
  42 S :    0.192996
  43 C :   -0.008584
  44 C :   -0.058842
  45 S :    0.193399
  46 C :   -0.043710
  47 C :   -0.052260
  48 C :   -0.037262
  49 C :   -0.084416
  50 C :    0.266578
  51 C :   -0.312945
  52 C :   -0.142253
  53 N :    0.090507
  54 C :   -0.140288
  55 N :    0.083592
  56 C :    0.031129
  57 C :   -0.130788
  58 S :    0.144717
  59 C :   -0.134911
  60 C :    0.029768
  61 C :    0.168275
  62 O :   -0.188609
  63 H :    0.042089
  64 H :    0.051982
  65 H :    0.018611
  66 H :    0.006175
  67 H :    0.002599
  68 H :    0.032428
  69 H :    0.031435
  70 H :    0.025771
  71 H :    0.036280
  72 H :    0.031693
  73 H :    0.033082
  74 H :    0.035497
  75 H :    0.033011
  76 H :    0.033623
  77 H :   -0.000144
  78 H :    0.033361
  79 H :    0.041082
  80 H :    0.035953
  81 H :    0.032570
  82 H :    0.016686
  83 H :    0.006716
  84 H :    0.055087
  85 H :    0.039648
Sum of atomic charges:    0.0000000

LOEWDIN ATOMIC CHARGES
----------------------
   0 C :    0.079856
   1 O :   -0.150606
   2 C :   -0.088688
   3 C :   -0.146738
   4 S :    0.478579
   5 C :   -0.159908
   6 C :   -0.055435
   7 C :    0.056187
   8 C :   -0.147459
   9 C :   -0.012495
  10 N :   -0.069679
  11 C :   -0.020031
  12 N :   -0.056495
  13 C :   -0.092423
  14 C :    0.026643
  15 C :   -0.165751
  16 S :    0.435240
  17 C :   -0.195420
  18 C :   -0.177942
  19 C :   -0.012956
  20 S :    0.424831
  21 C :   -0.169735
  22 C :   -0.031598
  23 N :    0.025280
  24 C :    0.039023
  25 C :   -0.061234
  26 C :    0.013273
  27 C :   -0.062873
  28 C :   -0.057924
  29 N :   -0.092697
  30 N :    0.134964
  31 C :    0.043167
  32 C :   -0.057781
  33 N :   -0.094007
  34 C :   -0.056657
  35 C :   -0.065102
  36 C :    0.014330
  37 N :    0.032189
  38 C :    0.038856
  39 C :   -0.061941
  40 C :   -0.033483
  41 C :   -0.169217
  42 S :    0.414794
  43 C :   -0.185543
  44 C :   -0.198739
  45 S :    0.462902
  46 C :   -0.168648
  47 C :   -0.021715
  48 C :    0.035562
  49 C :   -0.099511
  50 C :    0.065931
  51 C :   -0.143877
  52 C :   -0.010370
  53 N :   -0.070164
  54 C :   -0.016612
  55 N :   -0.069430
  56 C :   -0.056403
  57 C :   -0.156075
  58 S :    0.478137
  59 C :   -0.149167
  60 C :   -0.087577
  61 C :    0.076334
  62 O :   -0.171710
  63 H :    0.038709
  64 H :    0.037516
  65 H :    0.042148
  66 H :    0.041762
  67 H :    0.028064
  68 H :    0.031278
  69 H :    0.036394
  70 H :    0.023153
  71 H :    0.026114
  72 H :    0.034925
  73 H :    0.035440
  74 H :    0.032088
  75 H :    0.034227
  76 H :    0.032084
  77 H :    0.025950
  78 H :    0.029845
  79 H :    0.026536
  80 H :    0.036670
  81 H :    0.031572
  82 H :    0.045309
  83 H :    0.050034
  84 H :    0.038361
  85 H :    0.037562

  Mayer bond orders larger than 0.100000
B(  0-C ,  1-O ) :   2.1805 B(  0-C ,  2-C ) :   0.9445 B(  0-C , 13-C ) :   0.9433
B(  2-C ,  3-C ) :   1.5195 B(  2-C ,  6-C ) :   1.2255 B(  3-C ,  4-S ) :   1.1752
B(  3-C , 63-H ) :   0.9649 B(  4-S ,  5-C ) :   1.1664 B(  5-C ,  6-C ) :   1.5075
B(  5-C , 64-H ) :   0.9532 B(  6-C ,  7-C ) :   1.0229 B(  7-C ,  8-C ) :   1.5639
B(  7-C , 13-C ) :   1.0879 B(  8-C ,  9-C ) :   1.1337 B(  8-C , 11-C ) :   1.1714
B(  9-C , 10-N ) :   2.9452 B( 11-C , 12-N ) :   2.9521 B( 13-C , 14-C ) :   1.5911
B( 14-C , 15-C ) :   1.2033 B( 14-C , 65-H ) :   0.9032 B( 15-C , 16-S ) :   1.0521
B( 15-C , 19-C ) :   1.3873 B( 16-S , 17-C ) :   1.0757 B( 17-C , 18-C ) :   1.3523
B( 17-C , 22-C ) :   1.3007 B( 18-C , 19-C ) :   1.3693 B( 18-C , 20-S ) :   1.0411
B( 19-C , 66-H ) :   0.9802 B( 20-S , 21-C ) :   1.0243 B( 21-C , 22-C ) :   1.3681
B( 21-C , 27-C ) :   1.3840 B( 22-C , 23-N ) :   1.1462 B( 23-N , 24-C ) :   0.9405
B( 23-N , 26-C ) :   1.1370 B( 24-C , 25-C ) :   1.1066 B( 24-C , 67-H ) :   0.9404
B( 24-C , 68-H ) :   0.9338 B( 25-C , 69-H ) :   0.9625 B( 25-C , 70-H ) :   0.9479
B( 25-C , 71-H ) :   0.9524 B( 26-C , 27-C ) :   1.3431 B( 26-C , 36-C ) :   1.1605
B( 27-C , 28-C ) :   1.1028 B( 28-C , 29-N ) :   1.5225 B( 28-C , 34-C ) :   1.2103
B( 29-N , 30-N ) :   1.1974 B( 29-N , 33-N ) :   0.1520 B( 30-N , 31-C ) :   0.9348
B( 30-N , 33-N ) :   1.1956 B( 31-C , 32-C ) :   1.1192 B( 31-C , 72-H ) :   0.9415
B( 31-C , 73-H ) :   0.9419 B( 32-C , 74-H ) :   0.9661 B( 32-C , 75-H ) :   0.9650
B( 32-C , 76-H ) :   0.9653 B( 33-N , 34-C ) :   1.5246 B( 34-C , 35-C ) :   1.0962
B( 35-C , 36-C ) :   1.3345 B( 35-C , 41-C ) :   1.3916 B( 36-C , 37-N ) :   1.1476
B( 37-N , 38-C ) :   0.9542 B( 37-N , 40-C ) :   1.1432 B( 38-C , 39-C ) :   1.1045
B( 38-C , 77-H ) :   0.9374 B( 38-C , 78-H ) :   0.9309 B( 39-C , 79-H ) :   0.9513
B( 39-C , 80-H ) :   0.9638 B( 39-C , 81-H ) :   0.9494 B( 40-C , 41-C ) :   1.3622
B( 40-C , 44-C ) :   1.3139 B( 41-C , 42-S ) :   1.0185 B( 42-S , 43-C ) :   1.0351
B( 43-C , 44-C ) :   1.3341 B( 43-C , 47-C ) :   1.3374 B( 44-C , 45-S ) :   1.0306
B( 45-S , 46-C ) :   1.0466 B( 46-C , 47-C ) :   1.3307 B( 46-C , 48-C ) :   1.3049
B( 47-C , 82-H ) :   1.0029 B( 48-C , 49-C ) :   1.4538 B( 48-C , 83-H ) :   0.9277
B( 49-C , 50-C ) :   1.1155 B( 49-C , 61-C ) :   0.9647 B( 50-C , 51-C ) :   1.5667
B( 50-C , 56-C ) :   1.0074 B( 51-C , 52-C ) :   1.1487 B( 51-C , 54-C ) :   1.1483
B( 52-C , 53-N ) :   2.9390 B( 54-C , 55-N ) :   2.9153 B( 56-C , 57-C ) :   1.5076
B( 56-C , 60-C ) :   1.2258 B( 57-C , 58-S ) :   1.1684 B( 57-C , 84-H ) :   0.9512
B( 58-S , 59-C ) :   1.1748 B( 59-C , 60-C ) :   1.5134 B( 59-C , 85-H ) :   0.9656
B( 60-C , 61-C ) :   0.9653 B( 61-C , 62-O ) :   2.1294

Dispersion correction           -0.264036704
FINAL SINGLE POINT ENERGY     -4796.801549626616

DIPOLE MOMENT
-------------
                                X             Y             Z
Electronic contribution:      5.31176       6.39649      -6.89584
Nuclear contribution   :     -5.24028      -4.47982       6.58181
                        -----------------------------------------
Total Dipole Moment    :      0.07148       1.91667      -0.31403
                        -----------------------------------------
Magnitude (a.u.)       :      1.94354
Magnitude (Debye)      :      4.94010

Rotational constants in cm-1:     0.002161     0.000311     0.000276
Rotational constants in MHz :    64.784685     9.310306     8.260350

                             ****ORCA TERMINATED NORMALLY****
TOTAL RUN TIME: 0 days 17 hours 29 minutes 37 seconds 464 msec
