                         Program Version 4.2.0 -  RELEASE  -
|  1> # ORCA input file
|  2> # SCF done       -174.240706092727          0.003505958266
|  3> ! B3LYP/G D3BJ Opt RIJCOSX def2-SVP def2/J
|  4> * xyz 0 1
|  5>    C       -2.26755        -0.67117        -0.92230
|  6>    O       -2.36677         0.21267        -1.74273
|  7>    C       -1.05402        -1.12817        -0.21215
|  8>    C        0.25526        -0.71948        -0.37373
|  9>    C        1.23371        -1.33134         0.39820
| 10>    C        0.89908        -2.32770         1.30426
| 11>    C       -0.41690        -2.73669         1.47788
| 12>    C       -1.39987        -2.13036         0.71410
| 13>    C       -2.84916        -2.31324         0.68382
| 14>    C       -3.61346        -2.82844         1.69803
| 15>    C       -5.01659        -2.68941         1.73604
| 16>    N       -6.15300        -2.54425         1.81247
| 17>    C       -3.08627        -3.46046         2.84047
| 18>    N       -2.71041        -4.00600         3.77806
| 19>    C       -3.34602        -1.58535        -0.46082
| 20>    C       -4.49525        -1.69241        -1.18425
| 21>    C       -5.41757        -2.75662        -1.24857
| 22>    S       -4.99126        -4.38335        -0.71423
| 23>    C       -6.50057        -4.99280        -1.27866
| 24>    C       -7.27718        -3.97663        -1.85268
| 25>    C       -6.67259        -2.71649        -1.84685
| 26>    C       -7.33883        -1.47331        -2.32985
| 27>    C       -7.88817        -0.67132        -1.14808
| 28>    S       -8.80175        -4.54709        -2.49164
| 29>    C       -8.38202        -6.14585        -1.98883
| 30>    C       -7.14460        -6.23135        -1.33830
| 31>    N       -6.90043        -7.52278        -0.95134
| 32>    C       -5.52989        -7.91900        -0.70307
| 33>    C       -4.85966        -8.40579        -1.98552
| 34>    C       -7.97454        -8.29251        -1.37788
| 35>    C       -8.89647        -7.44797        -2.06024
| 36>    C      -10.02008        -7.96243        -2.74894
| 37>    N      -10.92381        -7.31027        -3.46365
| 38>    S      -11.93343        -8.38905        -4.11834
| 39>    N      -11.25049        -9.73033        -3.53151
| 40>    C      -10.21811        -9.37965        -2.78288
| 41>    C       -9.39578       -10.19561        -1.97278
| 42>    C       -8.31357        -9.66137        -1.20859
| 43>    N       -7.85065       -10.64486        -0.36892
| 44>    C       -6.98938       -10.52683         0.78486
| 45>    C       -5.61646       -11.15215         0.54571
| 46>    C       -8.59743       -11.77946        -0.58214
| 47>    C       -9.54367       -11.52748        -1.58380
| 48>    S      -10.63460       -12.81975        -1.89267
| 49>    C       -9.92241       -13.72038        -0.45541
| 50>    C       -8.71194       -13.02774         0.04699
| 51>    S       -7.84528       -13.63990         1.31844
| 52>    C      -10.79381       -14.31161         0.66189
| 53>    C      -10.27266       -15.14628        -0.21386
| 54>    C      -10.15937       -16.46887        -0.81558
| 55>    C      -10.81897       -17.53749         0.05031
| 56>    C      -11.08412       -13.85601         1.95671
| 57>    C      -11.15011       -12.53374         2.26618
| 58>    C      -11.35123       -11.41543         1.36658
| 59>    C      -12.24038       -11.40695         0.32863
| 60>    C      -12.54330       -10.25686        -0.42615
| 61>    N      -12.81793        -9.32834        -1.04213
| 62>    C      -13.00456       -12.55023         0.00390
| 63>    N      -13.64688       -13.47060        -0.23383
| 64>    C      -10.62133       -10.28510         1.92203
| 65>    C      -10.29388        -9.05602         1.37338
| 66>    C       -9.51927        -8.18702         2.12823
| 67>    C       -9.09426        -8.52523         3.40575
| 68>    C       -9.43534        -9.74758         3.97067
| 69>    C      -10.19612       -10.62313         3.22141
| 70>    C      -10.65398       -11.99330         3.56341
| 71>    O      -10.57947       -12.56420         4.62206
| 72>    H        0.49728         0.05578        -1.08429
| 73>    H        2.26542        -1.03165         0.29185
| 74>    H        1.67632        -2.79732         1.88846
| 75>    H       -0.65573        -3.51721         2.18284
| 76>    H       -4.66403        -0.88627        -1.89256
| 77>    H       -8.15787        -1.75126        -2.99534
| 78>    H       -6.63090        -0.85838        -2.88881
| 79>    H       -8.61407        -1.26318        -0.59726
| 80>    H       -8.37292         0.23414        -1.50337
| 81>    H       -7.08588        -0.39673        -0.46686
| 82>    H       -5.47345        -8.68538         0.06312
| 83>    H       -5.01095        -7.03263        -0.32892
| 84>    H       -5.38446        -9.27077        -2.38615
| 85>    H       -3.82911        -8.68199        -1.78086
| 86>    H       -4.86577        -7.62143        -2.73867
| 87>    H       -7.47053       -11.06429         1.60921
| 88>    H       -6.93436        -9.47467         1.06896
| 89>    H       -5.71614       -12.23359         0.50550
| 90>    H       -4.94979       -10.90328         1.36695
| 91>    H       -5.17694       -10.81480        -0.38916
| 92>    H       -9.09696       -16.68682        -0.96566
| 93>    H      -10.62342       -16.43801        -1.80780
| 94>    H      -10.34459       -17.57903         1.02859
| 95>    H      -10.72555       -18.51096        -0.42333
| 96>    H      -11.87496       -17.31360         0.18592
| 97>    H      -11.02261       -14.58018         2.76117
| 98>    H      -10.61806        -8.78110         0.38187
| 99>    H       -9.24207        -7.22940         1.70983
|100>    H       -8.49531        -7.82665         3.96726
|101>    H       -9.11602       -10.01957         4.96442
|102> *
|103>
|104>                          ****END OF INPUT****
 Total Charge           Charge          ....    0
 Multiplicity           Mult            ....    1
 Number of Electrons    NEL             ....  494
Dispersion correction           -0.330407241
FINAL SINGLE POINT ENERGY     -4576.691350971516
Dispersion correction            ... done
Dispersion correction           -0.328425934
FINAL SINGLE POINT ENERGY     -4576.708350264154
Dispersion correction            ... done
Dispersion correction           -0.327008334
FINAL SINGLE POINT ENERGY     -4576.709568441997
Dispersion correction            ... done
FINAL SINGLE POINT ENERGY     -4576.711580628641
FINAL SINGLE POINT ENERGY     -4576.711834319442
FINAL SINGLE POINT ENERGY     -4576.713062473265
FINAL SINGLE POINT ENERGY     -4576.713284108906
FINAL SINGLE POINT ENERGY     -4576.714000353746
FINAL SINGLE POINT ENERGY     -4576.713208996351
FINAL SINGLE POINT ENERGY     -4576.714525037809
FINAL SINGLE POINT ENERGY     -4576.713545765453
FINAL SINGLE POINT ENERGY     -4576.713526359065
FINAL SINGLE POINT ENERGY     -4576.713516719888
FINAL SINGLE POINT ENERGY     -4576.713454800888
FINAL SINGLE POINT ENERGY     -4576.713521071281
FINAL SINGLE POINT ENERGY     -4576.713545001634
FINAL SINGLE POINT ENERGY     -4576.713552805521
Dispersion correction            ... done
Dispersion correction           -0.329828266
FINAL SINGLE POINT ENERGY     -4576.713585158682
Dispersion correction            ... done
Dispersion correction           -0.329813660
FINAL SINGLE POINT ENERGY     -4576.713582932579
Dispersion correction            ... done
                    ***********************HURRAY********************

CARTESIAN COORDINATES (ANGSTROEM)
---------------------------------
  C     -2.236094   -0.794489   -0.541799
  O     -2.097326    0.075020   -1.376880
  C     -1.293951   -1.171004    0.548753
  C     -0.038193   -0.643659    0.828223
  C      0.673807   -1.175115    1.909098
  C      0.127946   -2.215182    2.675957
  C     -1.141593   -2.737535    2.402648
  C     -1.861624   -2.205571    1.326741
  C     -3.230279   -2.480214    0.827977
  C     -4.238017   -3.087841    1.555586
  C     -5.617383   -2.981696    1.193989
  N     -6.747966   -2.862277    0.953383
  C     -4.004229   -3.788433    2.778344
  N     -3.842219   -4.390559    3.759618
  C     -3.378863   -1.759846   -0.433696
  C     -4.267930   -1.869713   -1.471956
  C     -5.161612   -2.936911   -1.775734
  S     -4.786161   -4.607479   -1.317364
  C     -6.354273   -5.124857   -1.835143
  C     -7.102935   -4.053028   -2.360565
  C     -6.423248   -2.815733   -2.372943
  C     -7.036989   -1.519988   -2.819413
  C     -7.736842   -0.769747   -1.674827
  S     -8.744756   -4.502698   -2.814664
  C     -8.405978   -6.137793   -2.317471
  C     -7.105439   -6.320646   -1.820292
  N     -6.916614   -7.645122   -1.458628
  C     -5.565315   -8.217493   -1.500756
  C     -5.268229   -8.878129   -2.843986
  C     -8.113558   -8.323605   -1.739597
  C     -9.045252   -7.394521   -2.292751
  C    -10.327921   -7.811298   -2.777562
  N    -11.268828   -7.044722   -3.307180
  S    -12.499335   -8.052155   -3.762310
  N    -11.835198   -9.495426   -3.301012
  C    -10.655216   -9.220008   -2.766999
  C     -9.762376  -10.129350   -2.110607
  C     -8.513775   -9.690118   -1.553157
  N     -7.967849  -10.727950   -0.815518
  C     -6.940184  -10.631085    0.228707
  C     -5.614733  -11.301318   -0.113650
  C     -8.850795  -11.807155   -0.879185
  C     -9.953852  -11.450951   -1.678838
  S    -11.236098  -12.609210   -1.739186
  C    -10.354209  -13.587462   -0.423848
  C     -8.941995  -13.054780   -0.220601
  S     -7.860535  -13.842575    0.771126
  C    -11.020094  -14.062364    0.842296
  C    -10.719828  -14.975192   -0.053386
  C    -10.481759  -16.374656   -0.449471
  C    -10.467071  -17.342345    0.733705
  C    -10.952823  -13.615695    2.200318
  C    -10.761604  -12.309637    2.526844
  C    -10.978497  -11.113222    1.713443
  C    -12.066466  -10.906270    0.896633
  C    -12.275800   -9.665353    0.218285
  N    -12.429565   -8.649762   -0.323377
  C    -13.107244  -11.880414    0.762854
  N    -13.966593  -12.656610    0.676497
  C     -9.963403  -10.121739    2.122061
  C     -9.582368   -8.898337    1.558131
  C     -8.548736   -8.178185    2.168465
  C     -7.913487   -8.650931    3.327796
  C     -8.300460   -9.866432    3.903528
  C     -9.318064  -10.590326    3.290273
  C     -9.875620  -11.920398    3.683543
  O     -9.608106  -12.578155    4.662068
  H      0.362848    0.162682    0.210444
  H      1.659918   -0.779929    2.162728
  H      0.703223   -2.628790    3.507177
  H     -1.541632   -3.541206    3.018412
  H     -4.238923   -1.032693   -2.182662
  H     -7.763120   -1.738859   -3.618853
  H     -6.262594   -0.876885   -3.268732
  H     -8.479503   -1.410009   -1.177076
  H     -8.246610    0.126250   -2.060798
  H     -7.011803   -0.460971   -0.908390
  H     -5.425384   -8.919688   -0.675636
  H     -4.868404   -7.390038   -1.309533
  H     -5.967837   -9.705086   -3.035142
  H     -4.246559   -9.287455   -2.856909
  H     -5.365704   -8.150733   -3.664221
  H     -7.357978  -11.106646    1.126672
  H     -6.826357   -9.568432    0.468233
  H     -5.738938  -12.392814   -0.117684
  H     -4.869336  -11.047749    0.656851
  H     -5.227201  -10.984321   -1.091434
  H     -9.518267  -16.391350   -0.986318
  H    -11.243512  -16.663619   -1.196750
  H     -9.687846  -17.049202    1.453248
  H    -10.252582  -18.364850    0.387449
  H    -11.434827  -17.351513    1.258984
  H    -10.767078  -14.364464    2.977021
  H    -10.057347   -8.511994    0.659530
  H     -8.226401   -7.232689    1.726948
  H     -7.115210   -8.060404    3.783328
  H     -7.823675  -10.255234    4.805050

 Multiplicity           Mult            ....    1
 Number of Electrons    NEL             ....  494
 Basis Dimension        Dim             .... 1108

ORBITAL ENERGIES
----------------

  NO   OCC          E(Eh)            E(eV)
   0   2.0000     -88.927203     -2419.8322
   1   2.0000     -88.904643     -2419.2183
   2   2.0000     -88.898553     -2419.0526
   3   2.0000     -88.876208     -2418.4446
   4   2.0000     -88.815036     -2416.7800
   5   2.0000     -19.145133      -520.9655
   6   2.0000     -19.141833      -520.8758
   7   2.0000     -14.415156      -392.2563
   8   2.0000     -14.413715      -392.2171
   9   2.0000     -14.359017      -390.7287
  10   2.0000     -14.356836      -390.6694
  11   2.0000     -14.347535      -390.4163
  12   2.0000     -14.346649      -390.3922
  13   2.0000     -14.343970      -390.3193
  14   2.0000     -14.338904      -390.1814
  15   2.0000     -10.296306      -280.1767
  16   2.0000     -10.290369      -280.0152
  17   2.0000     -10.277778      -279.6725
  18   2.0000     -10.275415      -279.6083
  19   2.0000     -10.274174      -279.5745
  20   2.0000     -10.269893      -279.4580
  21   2.0000     -10.268344      -279.4159
  22   2.0000     -10.265584      -279.3407
  23   2.0000     -10.264315      -279.3062
  24   2.0000     -10.263238      -279.2769
  25   2.0000     -10.259742      -279.1818
  26   2.0000     -10.258335      -279.1435
  27   2.0000     -10.253339      -279.0075
  28   2.0000     -10.251010      -278.9442
  29   2.0000     -10.251004      -278.9440
  30   2.0000     -10.250198      -278.9221
  31   2.0000     -10.249990      -278.9164
  32   2.0000     -10.249757      -278.9101
  33   2.0000     -10.248475      -278.8752
  34   2.0000     -10.248042      -278.8634
  35   2.0000     -10.247985      -278.8619
  36   2.0000     -10.247651      -278.8528
  37   2.0000     -10.247581      -278.8509
  38   2.0000     -10.246655      -278.8257
  39   2.0000     -10.244018      -278.7539
  40   2.0000     -10.242493      -278.7124
  41   2.0000     -10.241937      -278.6973
  42   2.0000     -10.241787      -278.6932
  43   2.0000     -10.240074      -278.6466
  44   2.0000     -10.239991      -278.6443
  45   2.0000     -10.239296      -278.6254
  46   2.0000     -10.237321      -278.5717
  47   2.0000     -10.233393      -278.4648
  48   2.0000     -10.230189      -278.3776
  49   2.0000     -10.228141      -278.3219
  50   2.0000     -10.227863      -278.3143
  51   2.0000     -10.227517      -278.3049
  52   2.0000     -10.226962      -278.2898
  53   2.0000     -10.226418      -278.2750
  54   2.0000     -10.226349      -278.2731
  55   2.0000     -10.225938      -278.2619
  56   2.0000     -10.225676      -278.2548
  57   2.0000     -10.225555      -278.2515
  58   2.0000     -10.225472      -278.2493
  59   2.0000     -10.225443      -278.2484
  60   2.0000     -10.222612      -278.1714
  61   2.0000     -10.221572      -278.1431
  62   2.0000     -10.216780      -278.0127
  63   2.0000     -10.215278      -277.9718
  64   2.0000     -10.200248      -277.5629
  65   2.0000     -10.198974      -277.5282
  66   2.0000     -10.192285      -277.3462
  67   2.0000      -8.018511      -218.1948
  68   2.0000      -7.997879      -217.6334
  69   2.0000      -7.991674      -217.4645
  70   2.0000      -7.969776      -216.8686
  71   2.0000      -7.909515      -215.2289
  72   2.0000      -5.988902      -162.9663
  73   2.0000      -5.981609      -162.7679
  74   2.0000      -5.978797      -162.6913
  75   2.0000      -5.966384      -162.3536
  76   2.0000      -5.962544      -162.2491
  77   2.0000      -5.960308      -162.1882
  78   2.0000      -5.958394      -162.1361
  79   2.0000      -5.956573      -162.0866
  80   2.0000      -5.951772      -161.9560
  81   2.0000      -5.938493      -161.5946
  82   2.0000      -5.934971      -161.4988
  83   2.0000      -5.929311      -161.3447
  84   2.0000      -5.877887      -159.9454
  85   2.0000      -5.875384      -159.8773
  86   2.0000      -5.868953      -159.7023
  87   2.0000      -1.051251       -28.6060
  88   2.0000      -1.046557       -28.4783
  89   2.0000      -1.025944       -27.9173
  90   2.0000      -1.013646       -27.5827
  91   2.0000      -1.011594       -27.5269
  92   2.0000      -0.940802       -25.6005
  93   2.0000      -0.931892       -25.3581
  94   2.0000      -0.927499       -25.2385
  95   2.0000      -0.925394       -25.1812
  96   2.0000      -0.910256       -24.7693
  97   2.0000      -0.910030       -24.7632
  98   2.0000      -0.907107       -24.6836
  99   2.0000      -0.905674       -24.6447
 100   2.0000      -0.889250       -24.1977
 101   2.0000      -0.878701       -23.9107
 102   2.0000      -0.868027       -23.6202
 103   2.0000      -0.863087       -23.4858
 104   2.0000      -0.860797       -23.4235
 105   2.0000      -0.855654       -23.2835
 106   2.0000      -0.823715       -22.4144
 107   2.0000      -0.817793       -22.2533
 108   2.0000      -0.815964       -22.2035
 109   2.0000      -0.813489       -22.1362
 110   2.0000      -0.800611       -21.7857
 111   2.0000      -0.797967       -21.7138
 112   2.0000      -0.793813       -21.6007
 113   2.0000      -0.786110       -21.3911
 114   2.0000      -0.783143       -21.3104
 115   2.0000      -0.777906       -21.1679
 116   2.0000      -0.775867       -21.1124
 117   2.0000      -0.769755       -20.9461
 118   2.0000      -0.757339       -20.6082
 119   2.0000      -0.744508       -20.2591
 120   2.0000      -0.736895       -20.0519
 121   2.0000      -0.724484       -19.7142
 122   2.0000      -0.719065       -19.5668
 123   2.0000      -0.713553       -19.4168
 124   2.0000      -0.694030       -18.8855
 125   2.0000      -0.684420       -18.6240
 126   2.0000      -0.682529       -18.5725
 127   2.0000      -0.675115       -18.3708
 128   2.0000      -0.665362       -18.1054
 129   2.0000      -0.661977       -18.0133
 130   2.0000      -0.659185       -17.9373
 131   2.0000      -0.642967       -17.4960
 132   2.0000      -0.638689       -17.3796
 133   2.0000      -0.636543       -17.3212
 134   2.0000      -0.629491       -17.1293
 135   2.0000      -0.624139       -16.9837
 136   2.0000      -0.619743       -16.8641
 137   2.0000      -0.618257       -16.8236
 138   2.0000      -0.605391       -16.4735
 139   2.0000      -0.604253       -16.4426
 140   2.0000      -0.594673       -16.1819
 141   2.0000      -0.586898       -15.9703
 142   2.0000      -0.576537       -15.6884
 143   2.0000      -0.572897       -15.5893
 144   2.0000      -0.566205       -15.4072
 145   2.0000      -0.561799       -15.2873
 146   2.0000      -0.552424       -15.0322
 147   2.0000      -0.548332       -14.9209
 148   2.0000      -0.544255       -14.8099
 149   2.0000      -0.538551       -14.6547
 150   2.0000      -0.532744       -14.4967
 151   2.0000      -0.528641       -14.3851
 152   2.0000      -0.525254       -14.2929
 153   2.0000      -0.520921       -14.1750
 154   2.0000      -0.514605       -14.0031
 155   2.0000      -0.507401       -13.8071
 156   2.0000      -0.505130       -13.7453
 157   2.0000      -0.500941       -13.6313
 158   2.0000      -0.496521       -13.5110
 159   2.0000      -0.492213       -13.3938
 160   2.0000      -0.484854       -13.1935
 161   2.0000      -0.484214       -13.1761
 162   2.0000      -0.479996       -13.0614
 163   2.0000      -0.477301       -12.9880
 164   2.0000      -0.473303       -12.8792
 165   2.0000      -0.472620       -12.8606
 166   2.0000      -0.467434       -12.7195
 167   2.0000      -0.465420       -12.6647
 168   2.0000      -0.464530       -12.6405
 169   2.0000      -0.463149       -12.6029
 170   2.0000      -0.461090       -12.5469
 171   2.0000      -0.459238       -12.4965
 172   2.0000      -0.458303       -12.4711
 173   2.0000      -0.456906       -12.4330
 174   2.0000      -0.455284       -12.3889
 175   2.0000      -0.453381       -12.3371
 176   2.0000      -0.451828       -12.2949
 177   2.0000      -0.447097       -12.1661
 178   2.0000      -0.444961       -12.1080
 179   2.0000      -0.441739       -12.0203
 180   2.0000      -0.436351       -11.8737
 181   2.0000      -0.435635       -11.8542
 182   2.0000      -0.433773       -11.8036
 183   2.0000      -0.429474       -11.6866
 184   2.0000      -0.424373       -11.5478
 185   2.0000      -0.423208       -11.5161
 186   2.0000      -0.420361       -11.4386
 187   2.0000      -0.415594       -11.3089
 188   2.0000      -0.412772       -11.2321
 189   2.0000      -0.409230       -11.1357
 190   2.0000      -0.407674       -11.0934
 191   2.0000      -0.403399       -10.9770
 192   2.0000      -0.401767       -10.9326
 193   2.0000      -0.398487       -10.8434
 194   2.0000      -0.396170       -10.7803
 195   2.0000      -0.395295       -10.7565
 196   2.0000      -0.392720       -10.6864
 197   2.0000      -0.391864       -10.6632
 198   2.0000      -0.389984       -10.6120
 199   2.0000      -0.387966       -10.5571
 200   2.0000      -0.387110       -10.5338
 201   2.0000      -0.385800       -10.4982
 202   2.0000      -0.384185       -10.4542
 203   2.0000      -0.383459       -10.4345
 204   2.0000      -0.382408       -10.4059
 205   2.0000      -0.381334       -10.3766
 206   2.0000      -0.380650       -10.3580
 207   2.0000      -0.376146       -10.2354
 208   2.0000      -0.375473       -10.2171
 209   2.0000      -0.372840       -10.1455
 210   2.0000      -0.372198       -10.1280
 211   2.0000      -0.369455       -10.0534
 212   2.0000      -0.367914       -10.0115
 213   2.0000      -0.366041        -9.9605
 214   2.0000      -0.364579        -9.9207
 215   2.0000      -0.362645        -9.8681
 216   2.0000      -0.360963        -9.8223
 217   2.0000      -0.356866        -9.7108
 218   2.0000      -0.356051        -9.6887
 219   2.0000      -0.355485        -9.6732
 220   2.0000      -0.352934        -9.6038
 221   2.0000      -0.351817        -9.5734
 222   2.0000      -0.345540        -9.4026
 223   2.0000      -0.345216        -9.3938
 224   2.0000      -0.341426        -9.2907
 225   2.0000      -0.333879        -9.0853
 226   2.0000      -0.329091        -8.9550
 227   2.0000      -0.328520        -8.9395
 228   2.0000      -0.316654        -8.6166
 229   2.0000      -0.311722        -8.4824
 230   2.0000      -0.305269        -8.3068
 231   2.0000      -0.301938        -8.2161
 232   2.0000      -0.299538        -8.1508
 233   2.0000      -0.291322        -7.9273
 234   2.0000      -0.289734        -7.8841
 235   2.0000      -0.283694        -7.7197
 236   2.0000      -0.278104        -7.5676
 237   2.0000      -0.276944        -7.5360
 238   2.0000      -0.270533        -7.3616
 239   2.0000      -0.270080        -7.3492
 240   2.0000      -0.259785        -7.0691
 241   2.0000      -0.254383        -6.9221
 242   2.0000      -0.250920        -6.8279
 243   2.0000      -0.236745        -6.4422
 244   2.0000      -0.228700        -6.2232
 245   2.0000      -0.222405        -6.0519
 246   2.0000      -0.208787        -5.6814
 247   0.0000      -0.131178        -3.5695
 248   0.0000      -0.125936        -3.4269
 249   0.0000      -0.106288        -2.8923
 250   0.0000      -0.103744        -2.8230
 251   0.0000      -0.097021        -2.6401

MULLIKEN ATOMIC CHARGES
-----------------------
   0 C :    0.139030
   1 O :   -0.163144
   2 C :    0.004036
   3 C :   -0.024568
   4 C :    0.045494
   5 C :    0.036603
   6 C :   -0.031311
   7 C :    0.025577
   8 C :    0.223809
   9 C :   -0.311117
  10 C :   -0.138725
  11 N :    0.106032
  12 C :   -0.137082
  13 N :    0.092097
  14 C :   -0.123355
  15 C :    0.017170
  16 C :   -0.156829
  17 S :    0.147846
  18 C :   -0.042865
  19 C :   -0.088137
  20 C :    0.003700
  21 C :    0.047338
  22 C :    0.031411
  23 S :    0.207212
  24 C :   -0.102251
  25 C :    0.056659
  26 N :   -0.206490
  27 C :    0.109070
  28 C :    0.004766
  29 C :    0.053368
  30 C :   -0.029676
  31 C :    0.018345
  32 N :   -0.279368
  33 S :    0.465603
  34 N :   -0.279353
  35 C :    0.001563
  36 C :   -0.010860
  37 C :    0.045424
  38 N :   -0.209165
  39 C :    0.101376
  40 C :    0.018006
  41 C :    0.102401
  42 C :   -0.090321
  43 S :    0.152774
  44 C :   -0.129326
  45 C :   -0.008767
  46 S :   -0.196420
  47 C :   -0.021812
  48 C :   -0.031893
  49 C :    0.090571
  50 C :   -0.013739
  51 C :    0.052450
  52 C :   -0.117785
  53 C :    0.205761
  54 C :   -0.271516
  55 C :   -0.114767
  56 N :    0.092147
  57 C :   -0.147276
  58 N :    0.122289
  59 C :    0.034717
  60 C :   -0.028148
  61 C :    0.041797
  62 C :    0.022863
  63 C :   -0.014976
  64 C :   -0.022394
  65 C :    0.167002
  66 O :   -0.145206
  67 H :   -0.002310
  68 H :   -0.001026
  69 H :    0.002205
  70 H :    0.004534
  71 H :    0.027360
  72 H :    0.011416
  73 H :    0.015477
  74 H :    0.032965
  75 H :    0.018564
  76 H :    0.021963
  77 H :    0.008272
  78 H :    0.025002
  79 H :    0.038942
  80 H :    0.032978
  81 H :    0.032215
  82 H :    0.036830
  83 H :    0.026549
  84 H :    0.038057
  85 H :    0.022005
  86 H :    0.006227
  87 H :    0.024881
  88 H :    0.039230
  89 H :    0.036374
  90 H :    0.019522
  91 H :    0.029855
  92 H :    0.026730
  93 H :    0.005891
  94 H :    0.010258
  95 H :    0.012069
  96 H :   -0.000702
Sum of atomic charges:   -0.0000000

LOEWDIN ATOMIC CHARGES
----------------------
   0 C :    0.078852
   1 O :   -0.146568
   2 C :   -0.042769
   3 C :    0.011442
   4 C :   -0.002413
   5 C :    0.000872
   6 C :   -0.004972
   7 C :   -0.007183
   8 C :    0.053592
   9 C :   -0.139407
  10 C :   -0.022263
  11 N :   -0.062908
  12 C :   -0.015087
  13 N :   -0.068409
  14 C :   -0.096100
  15 C :    0.037827
  16 C :   -0.177045
  17 S :    0.431743
  18 C :   -0.195359
  19 C :   -0.180300
  20 C :   -0.012562
  21 C :   -0.028146
  22 C :   -0.040911
  23 S :    0.436266
  24 C :   -0.170403
  25 C :   -0.027414
  26 N :    0.024255
  27 C :    0.045349
  28 C :   -0.058971
  29 C :    0.001692
  30 C :   -0.058322
  31 C :   -0.053655
  32 N :   -0.272322
  33 S :    0.596710
  34 N :   -0.271077
  35 C :   -0.051456
  36 C :   -0.084871
  37 C :    0.025155
  38 N :    0.046825
  39 C :    0.043765
  40 C :   -0.069401
  41 C :   -0.050561
  42 C :   -0.149331
  43 S :    0.372014
  44 C :   -0.142415
  45 C :   -0.164070
  46 S :   -0.032854
  47 C :   -0.005388
  48 C :    0.055721
  49 C :   -0.031153
  50 C :   -0.046240
  51 C :    0.052091
  52 C :   -0.051388
  53 C :    0.049510
  54 C :   -0.117000
  55 C :   -0.002065
  56 N :   -0.058682
  57 C :   -0.025521
  58 N :   -0.053126
  59 C :   -0.008245
  60 C :   -0.004519
  61 C :    0.001424
  62 C :   -0.005715
  63 C :    0.014184
  64 C :   -0.043656
  65 C :    0.085390
  66 O :   -0.130407
  67 H :    0.039980
  68 H :    0.034208
  69 H :    0.035916
  70 H :    0.038720
  71 H :    0.048013
  72 H :    0.030834
  73 H :    0.033612
  74 H :    0.030869
  75 H :    0.026557
  76 H :    0.026829
  77 H :    0.026304
  78 H :    0.025362
  79 H :    0.029504
  80 H :    0.034915
  81 H :    0.033884
  82 H :    0.027691
  83 H :    0.020076
  84 H :    0.022152
  85 H :    0.033165
  86 H :    0.020520
  87 H :    0.048647
  88 H :    0.051822
  89 H :    0.030719
  90 H :    0.029855
  91 H :    0.029164
  92 H :    0.052255
  93 H :    0.037911
  94 H :    0.038872
  95 H :    0.038358
  96 H :    0.041240

  Mayer bond orders larger than 0.100000
B(  0-C ,  1-O ) :   2.2011 B(  0-C ,  2-C ) :   0.9340 B(  0-C , 14-C ) :   0.9460
B(  2-C ,  3-C ) :   1.3791 B(  2-C ,  7-C ) :   1.3162 B(  3-C ,  4-C ) :   1.3414
B(  3-C , 67-H ) :   0.9999 B(  4-C ,  5-C ) :   1.3656 B(  4-C , 68-H ) :   0.9827
B(  5-C ,  6-C ) :   1.3650 B(  5-C , 69-H ) :   0.9807 B(  6-C ,  7-C ) :   1.3623
B(  6-C , 70-H ) :   0.9839 B(  7-C ,  8-C ) :   1.0162 B(  8-C ,  9-C ) :   1.5891
B(  8-C , 14-C ) :   1.0570 B(  9-C , 10-C ) :   1.1677 B(  9-C , 12-C ) :   1.1352
B( 10-C , 11-N ) :   2.9397 B( 12-C , 13-N ) :   2.9418 B( 14-C , 15-C ) :   1.6025
B( 15-C , 16-C ) :   1.1796 B( 15-C , 71-H ) :   0.9212 B( 16-C , 17-S ) :   1.0574
B( 16-C , 20-C ) :   1.4028 B( 17-S , 18-C ) :   1.0586 B( 18-C , 19-C ) :   1.4092
B( 18-C , 25-C ) :   1.3065 B( 19-C , 20-C ) :   1.3595 B( 19-C , 23-S ) :   1.0362
B( 20-C , 21-C ) :   1.1026 B( 21-C , 22-C ) :   1.1090 B( 21-C , 72-H ) :   0.9126
B( 21-C , 73-H ) :   0.9066 B( 22-C , 74-H ) :   0.9658 B( 22-C , 75-H ) :   0.9617
B( 22-C , 76-H ) :   0.9646 B( 23-S , 24-C ) :   1.0369 B( 24-C , 25-C ) :   1.3775
B( 24-C , 30-C ) :   1.3507 B( 25-C , 26-N ) :   1.1373 B( 26-N , 27-C ) :   0.9534
B( 26-N , 29-C ) :   1.1329 B( 27-C , 28-C ) :   1.1216 B( 27-C , 77-H ) :   0.9349
B( 27-C , 78-H ) :   0.9329 B( 28-C , 79-H ) :   0.9559 B( 28-C , 80-H ) :   0.9574
B( 28-C , 81-H ) :   0.9586 B( 29-C , 30-C ) :   1.3736 B( 29-C , 37-C ) :   1.1460
B( 30-C , 31-C ) :   1.1045 B( 31-C , 32-N ) :   1.6111 B( 31-C , 35-C ) :   1.1141
B( 32-N , 33-S ) :   1.2059 B( 32-N , 34-N ) :   0.1330 B( 33-S , 34-N ) :   1.2049
B( 34-N , 35-C ) :   1.5930 B( 35-C , 36-C ) :   1.1049 B( 36-C , 37-C ) :   1.2986
B( 36-C , 42-C ) :   1.3767 B( 37-C , 38-N ) :   1.2141 B( 38-N , 39-C ) :   0.9254
B( 38-N , 41-C ) :   1.1095 B( 39-C , 40-C ) :   1.1111 B( 39-C , 82-H ) :   0.9217
B( 39-C , 83-H ) :   0.9398 B( 40-C , 84-H ) :   0.9365 B( 40-C , 85-H ) :   0.9546
B( 40-C , 86-H ) :   0.9565 B( 41-C , 42-C ) :   1.3121 B( 41-C , 45-C ) :   1.2601
B( 42-C , 43-S ) :   1.0561 B( 43-S , 44-C ) :   0.9055 B( 44-C , 45-C ) :   0.9289
B( 44-C , 47-C ) :   0.9186 B( 44-C , 48-C ) :   0.8931 B( 45-C , 46-S ) :   1.5788
B( 47-C , 48-C ) :   1.5400 B( 47-C , 51-C ) :   1.1285 B( 48-C , 49-C ) :   1.0977
B( 49-C , 50-C ) :   1.0968 B( 49-C , 87-H ) :   0.8979 B( 49-C , 88-H ) :   0.9042
B( 50-C , 89-H ) :   0.9714 B( 50-C , 90-H ) :   0.9601 B( 50-C , 91-H ) :   0.9736
B( 51-C , 52-C ) :   1.6689 B( 51-C , 92-H ) :   0.9480 B( 52-C , 53-C ) :   1.0383
B( 52-C , 65-C ) :   0.9248 B( 53-C , 54-C ) :   1.6451 B( 53-C , 59-C ) :   1.0106
B( 54-C , 55-C ) :   1.1389 B( 54-C , 57-C ) :   1.1323 B( 55-C , 56-N ) :   2.9048
B( 57-C , 58-N ) :   2.9759 B( 59-C , 60-C ) :   1.3706 B( 59-C , 64-C ) :   1.3120
B( 60-C , 61-C ) :   1.3675 B( 60-C , 93-H ) :   0.9733 B( 61-C , 62-C ) :   1.3528
B( 61-C , 94-H ) :   0.9775 B( 62-C , 63-C ) :   1.3390 B( 62-C , 95-H ) :   0.9889
B( 63-C , 64-C ) :   1.3766 B( 63-C , 96-H ) :   0.9987 B( 64-C , 65-C ) :   0.9291
B( 65-C , 66-O ) :   2.2284

Dispersion correction           -0.329773729
FINAL SINGLE POINT ENERGY     -4576.713573549284

DIPOLE MOMENT
-------------
                                X             Y             Z
Electronic contribution:    -34.44256       8.76378      -7.76801
Nuclear contribution   :     37.67527      -8.95905       6.77678
                        -----------------------------------------
Total Dipole Moment    :      3.23270      -0.19527      -0.99123
                        -----------------------------------------
Magnitude (a.u.)       :      3.38689
Magnitude (Debye)      :      8.60880

Rotational constants in cm-1:     0.002077     0.000578     0.000511
Rotational constants in MHz :    62.275260    17.327696    15.326493

                             ****ORCA TERMINATED NORMALLY****
TOTAL RUN TIME: 1 days 0 hours 26 minutes 14 seconds 425 msec
