                         Program Version 4.2.0 -  RELEASE  -
|  1> # ORCA input file
|  2> # SCF done       -174.316141594534          0.000642563526
|  3> ! B3LYP/G D3BJ Opt RIJCOSX def2-SVP def2/J
|  4> * xyz 0 1
|  5>    C        0.44489        -1.20242        -0.98087
|  6>    O        0.96552        -0.67030        -1.93529
|  7>    C        1.06014        -1.55096         0.31780
|  8>    C        2.37346        -1.41644         0.72306
|  9>    C        2.71407        -1.84495         1.99885
| 10>    C        1.75657        -2.39662         2.83802
| 11>    C        0.43224        -2.52562         2.43988
| 12>    C        0.08211        -2.09613         1.17094
| 13>    C       -1.20901        -2.05023         0.48814
| 14>    C       -2.43578        -2.04340         1.10044
| 15>    C       -3.61372        -1.64747         0.43334
| 16>    N       -4.57577        -1.27390        -0.06984
| 17>    C       -2.64039        -2.33728         2.46167
| 18>    N       -2.86401        -2.60262         3.55635
| 19>    C       -0.95081        -1.70424        -0.89057
| 20>    C       -1.69246        -1.85788        -2.02367
| 21>    C       -2.81697        -2.67698        -2.25071
| 22>    S       -3.17325        -4.06735        -1.22288
| 23>    C       -4.53284        -4.47150        -2.20052
| 24>    C       -4.67546        -3.57809        -3.27111
| 25>    C       -3.70467        -2.57444        -3.31686
| 26>    C       -3.70578        -1.46702        -4.31508
| 27>    C       -4.35440        -0.21565        -3.71752
| 28>    S       -6.04409        -3.94438        -4.29640
| 29>    C       -6.42231        -5.28339        -3.27228
| 30>    C       -5.53971        -5.43774        -2.19563
| 31>    N       -5.92921        -6.49596        -1.41447
| 32>    C       -4.94022        -7.17004        -0.60099
| 33>    C       -3.82670        -7.76220        -1.46505
| 34>    C       -7.08274        -7.01850        -1.97303
| 35>    C       -7.38256        -6.30148        -3.16527
| 36>    C       -8.43340        -6.70130        -4.02100
| 37>    N       -8.79445        -6.18171        -5.18328
| 38>    S      -10.01135        -7.06321        -5.78492
| 39>    N      -10.12991        -8.13981        -4.58201
| 40>    C       -9.22012        -7.84896        -3.66612
| 41>    C       -9.01536        -8.45420        -2.40537
| 42>    C       -7.99694        -8.00182        -1.51870
| 43>    N       -8.16806        -8.62347        -0.29794
| 44>    C       -7.63113        -8.29200         1.00343
| 45>    C       -6.75693        -9.41319         1.56508
| 46>    C       -9.24351        -9.46391        -0.40380
| 47>    C       -9.77012        -9.40159        -1.69947
| 48>    S      -11.16949       -10.38859        -1.92944
| 49>    C      -11.07960       -10.87306        -0.25088
| 50>    C      -10.00746       -10.28442         0.43252
| 51>    S      -10.03395       -10.70412         2.10030
| 52>    C      -11.45210       -11.72001         1.85564
| 53>    C      -11.89478       -11.69632         0.53888
| 54>    C      -13.16316       -12.29942         0.02131
| 55>    C      -12.93100       -13.22819        -1.17129
| 56>    C      -12.00575       -12.29469         3.02613
| 57>    C      -12.72799       -13.43481         3.20017
| 58>    C      -12.91688       -14.61015         2.38083
| 59>    C      -12.02092       -15.10456         1.46993
| 60>    C      -12.19707       -16.31602         0.77192
| 61>    N      -12.30063       -17.28596         0.16685
| 62>    C      -10.78630       -14.48489         1.19078
| 63>    N       -9.75800       -14.03265         0.95413
| 64>    C      -14.08203       -15.32157         2.90339
| 65>    C      -14.79098       -16.40303         2.40782
| 66>    C      -15.85822       -16.88895         3.15225
| 67>    C      -16.21261       -16.31955         4.36700
| 68>    C      -15.51139       -15.23169         4.86898
| 69>    C      -14.45435       -14.73894         4.12921
| 70>    C      -13.57153       -13.58965         4.41754
| 71>    O      -13.55566       -12.88841         5.40302
| 72>    H        3.10467        -0.98595         0.05631
| 73>    H        3.73326        -1.74994         2.34206
| 74>    H        2.04356        -2.73210         3.82339
| 75>    H       -0.29570        -2.96119         3.10577
| 76>    H       -1.30594        -1.33884        -2.89607
| 77>    H       -4.27185        -1.78785        -5.19172
| 78>    H       -2.68457        -1.23549        -4.62457
| 79>    H       -5.37771        -0.42809        -3.41908
| 80>    H       -4.36293         0.58651        -4.45060
| 81>    H       -3.80570         0.11491        -2.83889
| 82>    H       -5.41114        -7.97416        -0.04808
| 83>    H       -4.52026        -6.44220         0.10057
| 84>    H       -3.11806        -8.28991        -0.83283
| 85>    H       -3.29353        -6.98371        -2.00386
| 86>    H       -4.24250        -8.46299        -2.18621
| 87>    H       -8.47862        -8.14118         1.68190
| 88>    H       -7.09168        -7.34672         0.93628
| 89>    H       -7.36162       -10.29129         1.77366
| 90>    H       -6.29402        -9.08653         2.49183
| 91>    H       -5.97658        -9.70616         0.86598
| 92>    H      -13.81146       -11.47931        -0.30387
| 93>    H      -13.67867       -12.83106         0.82154
| 94>    H      -12.20597       -14.00308        -0.93655
| 95>    H      -12.55689       -12.66667        -2.02293
| 96>    H      -13.86621       -13.70410        -1.45562
| 97>    H      -11.87712       -11.70510         3.93077
| 98>    H      -14.53701       -16.85640         1.46295
| 99>    H      -16.42213       -17.72849         2.77437
|100>    H      -17.04300       -16.72570         4.92462
|101>    H      -15.77390       -14.77344         5.81002
|102> *
|103>
|104>                          ****END OF INPUT****
 Total Charge           Charge          ....    0
 Multiplicity           Mult            ....    1
 Number of Electrons    NEL             ....  494
Dispersion correction           -0.306319219
FINAL SINGLE POINT ENERGY     -4576.760694374021
Dispersion correction            ... done
Dispersion correction           -0.300794306
FINAL SINGLE POINT ENERGY     -4576.776901878601
Dispersion correction            ... done
Dispersion correction           -0.304608186
FINAL SINGLE POINT ENERGY     -4576.774859780407
Dispersion correction            ... done
FINAL SINGLE POINT ENERGY     -4576.777758702170
FINAL SINGLE POINT ENERGY     -4576.777209135712
FINAL SINGLE POINT ENERGY     -4576.779319056229
FINAL SINGLE POINT ENERGY     -4576.779071617081
FINAL SINGLE POINT ENERGY     -4576.778787239934
FINAL SINGLE POINT ENERGY     -4576.779163511886
FINAL SINGLE POINT ENERGY     -4576.778607614944
FINAL SINGLE POINT ENERGY     -4576.778982788547
FINAL SINGLE POINT ENERGY     -4576.779110636994
FINAL SINGLE POINT ENERGY     -4576.779042971471
FINAL SINGLE POINT ENERGY     -4576.778967125735
FINAL SINGLE POINT ENERGY     -4576.778933014825
FINAL SINGLE POINT ENERGY     -4576.778949098394
FINAL SINGLE POINT ENERGY     -4576.778924013669
Dispersion correction            ... done
Dispersion correction           -0.301765327
FINAL SINGLE POINT ENERGY     -4576.778904570361
Dispersion correction            ... done
Dispersion correction           -0.301781843
FINAL SINGLE POINT ENERGY     -4576.778906789321
Dispersion correction            ... done
                    ***********************HURRAY********************

CARTESIAN COORDINATES (ANGSTROEM)
---------------------------------
  C      0.769773   -1.752454   -1.340831
  O      1.245947   -1.576128   -2.444321
  C      1.496209   -1.921684   -0.053509
  C      2.867917   -1.972643    0.160997
  C      3.324914   -2.136655    1.473161
  C      2.411071   -2.235286    2.531095
  C      1.028271   -2.179804    2.314842
  C      0.563901   -2.031433    1.002718
  C     -0.806364   -1.898439    0.443342
  C     -1.948935   -1.585637    1.162817
  C     -3.120153   -1.073381    0.524290
  N     -4.050232   -0.606043    0.007013
  C     -1.993916   -1.621006    2.589645
  N     -2.041221   -1.675527    3.749987
  C     -0.681605   -1.903227   -1.002888
  C     -1.557953   -2.102322   -2.041780
  C     -2.835940   -2.703158   -2.136981
  S     -3.475869   -3.833018   -0.930773
  C     -4.844842   -4.169898   -1.935681
  C     -4.797169   -3.435119   -3.141696
  C     -3.670177   -2.604446   -3.267247
  C     -3.397698   -1.666693   -4.407934
  C     -3.535158   -0.190626   -4.004158
  S     -6.121082   -3.821915   -4.243765
  C     -6.711423   -4.987316   -3.090276
  C     -5.966277   -5.025892   -1.902045
  N     -6.482905   -5.989313   -1.049449
  C     -5.572728   -6.629280   -0.095967
  C     -4.665290   -7.657093   -0.763333
  C     -7.560577   -6.592869   -1.710991
  C     -7.693532   -5.999901   -3.003610
  C     -8.585497   -6.548663   -3.982709
  N     -8.743654   -6.145348   -5.236359
  S     -9.791993   -7.207104   -5.954810
  N    -10.063457   -8.210403   -4.665210
  C     -9.349590   -7.739351   -3.651158
  C     -9.307542   -8.240895   -2.308085
  C     -8.471163   -7.632264   -1.318166
  N     -8.771812   -8.202936   -0.081884
  C     -8.373932   -7.795714    1.261649
  C     -7.422464   -8.788570    1.925763
  C     -9.735741   -9.173049   -0.281792
  C    -10.063822   -9.231532   -1.645675
  S    -11.281261  -10.422092   -2.011960
  C    -11.372329  -10.835497   -0.296986
  C    -10.515894  -10.053999    0.503853
  S    -10.726292  -10.424145    2.180733
  C    -11.916186  -11.679722    1.792418
  C    -12.153050  -11.779388    0.412357
  C    -13.173217  -12.658982   -0.258050
  C    -12.579959  -13.592208   -1.323201
  C    -12.553436  -12.319407    2.900969
  C    -13.050179  -13.586861    3.062133
  C    -12.858946  -14.848152    2.356063
  C    -11.763029  -15.206287    1.593091
  C    -11.652773  -16.473960    0.941648
  N    -11.551231  -17.486771    0.380624
  C    -10.609306  -14.374137    1.457758
  N     -9.642372  -13.739140    1.348166
  C    -13.933533  -15.770314    2.802781
  C    -14.316259  -17.041935    2.359518
  C    -15.357439  -17.695673    3.030759
  C    -16.000929  -17.114248    4.133332
  C    -15.625406  -15.843021    4.578574
  C    -14.606988  -15.185249    3.898116
  C    -14.063986  -13.823608    4.147387
  O    -14.403074  -13.040494    5.010072
  H      3.552054   -1.880900   -0.685256
  H      4.396798   -2.186284    1.679802
  H      2.784689   -2.363119    3.549663
  H      0.346287   -2.259562    3.159310
  H     -1.119373   -1.824562   -3.008957
  H     -4.085920   -1.899780   -5.235255
  H     -2.380626   -1.851289   -4.795808
  H     -4.543608    0.020314   -3.616470
  H     -3.341324    0.466531   -4.865358
  H     -2.822422    0.069477   -3.208683
  H     -6.148483   -7.087601    0.706323
  H     -4.983223   -5.827935    0.374207
  H     -4.008884   -8.130455   -0.016945
  H     -4.031531   -7.181607   -1.526793
  H     -5.261627   -8.445182   -1.248721
  H     -9.292834   -7.695533    1.862055
  H     -7.946724   -6.787028    1.197491
  H     -7.927049   -9.742727    2.136779
  H     -7.049969   -8.382228    2.878803
  H     -6.561546   -9.008640    1.279020
  H    -13.913634  -11.996670   -0.742393
  H    -13.723396  -13.239238    0.493753
  H    -11.825773  -14.268906   -0.901630
  H    -12.088140  -13.024783   -2.127137
  H    -13.372166  -14.205031   -1.778747
  H    -12.744189  -11.678797    3.773921
  H    -13.833426  -17.523882    1.511666
  H    -15.676314  -18.680149    2.681585
  H    -16.798178  -17.659672    4.643249
  H    -16.108954  -15.361667    5.430615

 Multiplicity           Mult            ....    1
 Number of Electrons    NEL             ....  494
 Basis Dimension        Dim             .... 1108

ORBITAL ENERGIES
----------------

  NO   OCC          E(Eh)            E(eV)
   0   2.0000     -88.932500     -2419.9764
   1   2.0000     -88.902071     -2419.1483
   2   2.0000     -88.901629     -2419.1363
   3   2.0000     -88.897639     -2419.0277
   4   2.0000     -88.896540     -2418.9978
   5   2.0000     -19.141387      -520.8636
   6   2.0000     -19.135088      -520.6922
   7   2.0000     -14.417543      -392.3213
   8   2.0000     -14.412693      -392.1893
   9   2.0000     -14.364002      -390.8644
  10   2.0000     -14.363351      -390.8467
  11   2.0000     -14.344781      -390.3413
  12   2.0000     -14.343546      -390.3077
  13   2.0000     -14.339210      -390.1897
  14   2.0000     -14.336136      -390.1061
  15   2.0000     -10.289541      -279.9926
  16   2.0000     -10.283276      -279.8222
  17   2.0000     -10.273811      -279.5646
  18   2.0000     -10.271787      -279.5095
  19   2.0000     -10.271308      -279.4965
  20   2.0000     -10.268712      -279.4259
  21   2.0000     -10.267483      -279.3924
  22   2.0000     -10.266838      -279.3749
  23   2.0000     -10.263424      -279.2820
  24   2.0000     -10.261382      -279.2264
  25   2.0000     -10.256691      -279.0988
  26   2.0000     -10.256170      -279.0846
  27   2.0000     -10.253591      -279.0144
  28   2.0000     -10.253524      -279.0126
  29   2.0000     -10.253347      -279.0078
  30   2.0000     -10.251768      -278.9648
  31   2.0000     -10.248416      -278.8736
  32   2.0000     -10.247872      -278.8588
  33   2.0000     -10.246771      -278.8288
  34   2.0000     -10.245587      -278.7966
  35   2.0000     -10.244041      -278.7545
  36   2.0000     -10.242798      -278.7207
  37   2.0000     -10.241299      -278.6799
  38   2.0000     -10.240379      -278.6549
  39   2.0000     -10.240095      -278.6472
  40   2.0000     -10.239832      -278.6400
  41   2.0000     -10.239365      -278.6273
  42   2.0000     -10.237760      -278.5836
  43   2.0000     -10.237421      -278.5744
  44   2.0000     -10.236812      -278.5578
  45   2.0000     -10.236647      -278.5533
  46   2.0000     -10.231197      -278.4050
  47   2.0000     -10.227912      -278.3156
  48   2.0000     -10.226442      -278.2756
  49   2.0000     -10.226250      -278.2704
  50   2.0000     -10.225315      -278.2450
  51   2.0000     -10.224980      -278.2359
  52   2.0000     -10.224539      -278.2238
  53   2.0000     -10.224298      -278.2173
  54   2.0000     -10.220503      -278.1140
  55   2.0000     -10.220318      -278.1090
  56   2.0000     -10.220191      -278.1055
  57   2.0000     -10.219642      -278.0906
  58   2.0000     -10.219454      -278.0855
  59   2.0000     -10.217673      -278.0370
  60   2.0000     -10.216793      -278.0131
  61   2.0000     -10.216248      -277.9983
  62   2.0000     -10.215740      -277.9844
  63   2.0000     -10.214876      -277.9609
  64   2.0000     -10.213309      -277.9183
  65   2.0000     -10.196617      -277.4641
  66   2.0000     -10.193308      -277.3740
  67   2.0000      -8.023951      -218.3428
  68   2.0000      -7.995498      -217.5686
  69   2.0000      -7.995352      -217.5646
  70   2.0000      -7.990913      -217.4438
  71   2.0000      -7.989559      -217.4070
  72   2.0000      -5.994299      -163.1132
  73   2.0000      -5.987122      -162.9179
  74   2.0000      -5.984212      -162.8387
  75   2.0000      -5.963980      -162.2881
  76   2.0000      -5.963843      -162.2844
  77   2.0000      -5.960075      -162.1819
  78   2.0000      -5.959920      -162.1777
  79   2.0000      -5.959607      -162.1691
  80   2.0000      -5.958253      -162.1323
  81   2.0000      -5.956042      -162.0721
  82   2.0000      -5.955866      -162.0674
  83   2.0000      -5.955802      -162.0656
  84   2.0000      -5.954445      -162.0287
  85   2.0000      -5.950928      -161.9330
  86   2.0000      -5.949613      -161.8972
  87   2.0000      -1.046319       -28.4718
  88   2.0000      -1.039954       -28.2986
  89   2.0000      -1.027883       -27.9701
  90   2.0000      -1.017438       -27.6859
  91   2.0000      -1.014860       -27.6157
  92   2.0000      -0.929289       -25.2872
  93   2.0000      -0.927222       -25.2310
  94   2.0000      -0.923806       -25.1380
  95   2.0000      -0.920258       -25.0415
  96   2.0000      -0.908569       -24.7234
  97   2.0000      -0.905931       -24.6516
  98   2.0000      -0.902700       -24.5637
  99   2.0000      -0.899945       -24.4888
 100   2.0000      -0.892980       -24.2992
 101   2.0000      -0.880015       -23.9464
 102   2.0000      -0.871619       -23.7180
 103   2.0000      -0.863125       -23.4868
 104   2.0000      -0.856487       -23.3062
 105   2.0000      -0.851794       -23.1785
 106   2.0000      -0.826465       -22.4893
 107   2.0000      -0.814998       -22.1772
 108   2.0000      -0.814162       -22.1545
 109   2.0000      -0.813173       -22.1276
 110   2.0000      -0.808746       -22.0071
 111   2.0000      -0.804607       -21.8945
 112   2.0000      -0.793062       -21.5803
 113   2.0000      -0.788239       -21.4491
 114   2.0000      -0.775146       -21.0928
 115   2.0000      -0.774766       -21.0825
 116   2.0000      -0.769583       -20.9414
 117   2.0000      -0.765875       -20.8405
 118   2.0000      -0.750824       -20.4310
 119   2.0000      -0.748463       -20.3667
 120   2.0000      -0.740149       -20.1405
 121   2.0000      -0.726816       -19.7777
 122   2.0000      -0.723926       -19.6990
 123   2.0000      -0.719818       -19.5872
 124   2.0000      -0.704548       -19.1717
 125   2.0000      -0.686917       -18.6920
 126   2.0000      -0.679434       -18.4884
 127   2.0000      -0.675747       -18.3880
 128   2.0000      -0.672985       -18.3129
 129   2.0000      -0.672172       -18.2907
 130   2.0000      -0.650853       -17.7106
 131   2.0000      -0.647294       -17.6138
 132   2.0000      -0.641268       -17.4498
 133   2.0000      -0.640179       -17.4201
 134   2.0000      -0.627292       -17.0695
 135   2.0000      -0.623922       -16.9778
 136   2.0000      -0.622061       -16.9271
 137   2.0000      -0.616444       -16.7743
 138   2.0000      -0.602961       -16.4074
 139   2.0000      -0.598365       -16.2824
 140   2.0000      -0.593306       -16.1447
 141   2.0000      -0.586165       -15.9504
 142   2.0000      -0.583829       -15.8868
 143   2.0000      -0.578522       -15.7424
 144   2.0000      -0.569610       -15.4999
 145   2.0000      -0.563437       -15.3319
 146   2.0000      -0.556214       -15.1353
 147   2.0000      -0.547981       -14.9113
 148   2.0000      -0.540649       -14.7118
 149   2.0000      -0.539145       -14.6709
 150   2.0000      -0.533748       -14.5240
 151   2.0000      -0.528760       -14.3883
 152   2.0000      -0.525812       -14.3081
 153   2.0000      -0.523616       -14.2483
 154   2.0000      -0.517764       -14.0891
 155   2.0000      -0.508858       -13.8467
 156   2.0000      -0.504419       -13.7259
 157   2.0000      -0.501210       -13.6386
 158   2.0000      -0.498224       -13.5574
 159   2.0000      -0.494007       -13.4426
 160   2.0000      -0.486258       -13.2318
 161   2.0000      -0.483251       -13.1499
 162   2.0000      -0.480401       -13.0724
 163   2.0000      -0.475837       -12.9482
 164   2.0000      -0.473085       -12.8733
 165   2.0000      -0.472381       -12.8541
 166   2.0000      -0.468997       -12.7621
 167   2.0000      -0.466588       -12.6965
 168   2.0000      -0.463169       -12.6035
 169   2.0000      -0.460724       -12.5369
 170   2.0000      -0.459317       -12.4986
 171   2.0000      -0.457534       -12.4501
 172   2.0000      -0.455617       -12.3980
 173   2.0000      -0.453760       -12.3474
 174   2.0000      -0.451760       -12.2930
 175   2.0000      -0.450433       -12.2569
 176   2.0000      -0.448715       -12.2102
 177   2.0000      -0.443989       -12.0816
 178   2.0000      -0.441482       -12.0133
 179   2.0000      -0.439779       -11.9670
 180   2.0000      -0.438983       -11.9453
 181   2.0000      -0.434712       -11.8291
 182   2.0000      -0.432048       -11.7566
 183   2.0000      -0.430924       -11.7260
 184   2.0000      -0.422792       -11.5048
 185   2.0000      -0.421093       -11.4585
 186   2.0000      -0.420639       -11.4462
 187   2.0000      -0.418565       -11.3897
 188   2.0000      -0.417920       -11.3722
 189   2.0000      -0.414406       -11.2766
 190   2.0000      -0.409691       -11.1483
 191   2.0000      -0.408527       -11.1166
 192   2.0000      -0.405893       -11.0449
 193   2.0000      -0.403627       -10.9832
 194   2.0000      -0.399214       -10.8632
 195   2.0000      -0.397388       -10.8135
 196   2.0000      -0.394596       -10.7375
 197   2.0000      -0.393786       -10.7155
 198   2.0000      -0.390887       -10.6366
 199   2.0000      -0.389081       -10.5874
 200   2.0000      -0.388112       -10.5611
 201   2.0000      -0.387514       -10.5448
 202   2.0000      -0.385927       -10.5016
 203   2.0000      -0.384726       -10.4689
 204   2.0000      -0.383905       -10.4466
 205   2.0000      -0.380270       -10.3477
 206   2.0000      -0.380092       -10.3428
 207   2.0000      -0.379069       -10.3150
 208   2.0000      -0.376415       -10.2428
 209   2.0000      -0.374909       -10.2018
 210   2.0000      -0.372737       -10.1427
 211   2.0000      -0.370532       -10.0827
 212   2.0000      -0.367874       -10.0103
 213   2.0000      -0.365462        -9.9447
 214   2.0000      -0.363969        -9.9041
 215   2.0000      -0.362579        -9.8663
 216   2.0000      -0.359841        -9.7918
 217   2.0000      -0.358338        -9.7509
 218   2.0000      -0.357454        -9.7268
 219   2.0000      -0.355317        -9.6687
 220   2.0000      -0.353086        -9.6080
 221   2.0000      -0.350491        -9.5374
 222   2.0000      -0.346987        -9.4420
 223   2.0000      -0.344883        -9.3847
 224   2.0000      -0.342472        -9.3191
 225   2.0000      -0.340309        -9.2603
 226   2.0000      -0.338517        -9.2115
 227   2.0000      -0.333336        -9.0705
 228   2.0000      -0.331860        -9.0304
 229   2.0000      -0.329504        -8.9663
 230   2.0000      -0.307395        -8.3647
 231   2.0000      -0.306749        -8.3471
 232   2.0000      -0.304152        -8.2764
 233   2.0000      -0.291307        -7.9269
 234   2.0000      -0.288337        -7.8460
 235   2.0000      -0.283584        -7.7167
 236   2.0000      -0.282009        -7.6738
 237   2.0000      -0.275841        -7.5060
 238   2.0000      -0.270922        -7.3722
 239   2.0000      -0.268932        -7.3180
 240   2.0000      -0.264485        -7.1970
 241   2.0000      -0.261356        -7.1118
 242   2.0000      -0.254987        -6.9385
 243   2.0000      -0.241345        -6.5673
 244   2.0000      -0.233654        -6.3580
 245   2.0000      -0.231171        -6.2905
 246   2.0000      -0.203017        -5.5244
 247   0.0000      -0.128956        -3.5091
 248   0.0000      -0.121489        -3.3059
 249   0.0000      -0.102717        -2.7951
 250   0.0000      -0.097406        -2.6506
 251   0.0000      -0.086144        -2.3441

MULLIKEN ATOMIC CHARGES
-----------------------
   0 C :    0.138966
   1 O :   -0.169134
   2 C :   -0.003376
   3 C :   -0.019387
   4 C :    0.034238
   5 C :    0.039532
   6 C :   -0.031799
   7 C :    0.032620
   8 C :    0.223556
   9 C :   -0.305183
  10 C :   -0.162640
  11 N :    0.109978
  12 C :   -0.133109
  13 N :    0.085803
  14 C :   -0.119912
  15 C :   -0.015584
  16 C :   -0.094620
  17 S :    0.163478
  18 C :   -0.043053
  19 C :   -0.096813
  20 C :   -0.026976
  21 C :    0.067084
  22 C :    0.010588
  23 S :    0.196352
  24 C :   -0.084617
  25 C :    0.049285
  26 N :   -0.208705
  27 C :    0.119288
  28 C :   -0.003243
  29 C :    0.048797
  30 C :   -0.035976
  31 C :    0.004142
  32 N :   -0.285417
  33 S :    0.450187
  34 N :   -0.284111
  35 C :    0.009383
  36 C :   -0.046825
  37 C :    0.069685
  38 N :   -0.202194
  39 C :    0.082872
  40 C :    0.016513
  41 C :    0.063424
  42 C :   -0.093012
  43 S :    0.188712
  44 C :   -0.109349
  45 C :   -0.028340
  46 S :    0.156455
  47 C :   -0.154893
  48 C :    0.000409
  49 C :    0.070337
  50 C :   -0.011213
  51 C :    0.025141
  52 C :   -0.118808
  53 C :    0.221977
  54 C :   -0.335397
  55 C :   -0.132803
  56 N :    0.103105
  57 C :   -0.151961
  58 N :    0.124880
  59 C :    0.028837
  60 C :   -0.029480
  61 C :    0.041730
  62 C :    0.038462
  63 C :   -0.013851
  64 C :    0.000313
  65 C :    0.133591
  66 O :   -0.162349
  67 H :   -0.003148
  68 H :    0.001186
  69 H :   -0.003486
  70 H :    0.002746
  71 H :    0.016974
  72 H :    0.006682
  73 H :    0.023707
  74 H :    0.030897
  75 H :    0.021701
  76 H :    0.029737
  77 H :   -0.010854
  78 H :    0.027969
  79 H :    0.032036
  80 H :    0.037431
  81 H :    0.037439
  82 H :    0.034689
  83 H :    0.036794
  84 H :    0.036756
  85 H :    0.026611
  86 H :    0.030556
  87 H :    0.023714
  88 H :    0.012548
  89 H :    0.038271
  90 H :    0.024383
  91 H :    0.022258
  92 H :    0.028892
  93 H :    0.001659
  94 H :   -0.000675
  95 H :    0.001838
  96 H :   -0.004897
Sum of atomic charges:   -0.0000000

LOEWDIN ATOMIC CHARGES
----------------------
   0 C :    0.078960
   1 O :   -0.151929
   2 C :   -0.043030
   3 C :    0.010131
   4 C :   -0.006329
   5 C :   -0.000358
   6 C :   -0.005047
   7 C :   -0.006878
   8 C :    0.054044
   9 C :   -0.143278
  10 C :   -0.028018
  11 N :   -0.063685
  12 C :   -0.014794
  13 N :   -0.069059
  14 C :   -0.102262
  15 C :    0.034781
  16 C :   -0.173197
  17 S :    0.437902
  18 C :   -0.190421
  19 C :   -0.185573
  20 C :   -0.014870
  21 C :   -0.027535
  22 C :   -0.042458
  23 S :    0.427372
  24 C :   -0.165540
  25 C :   -0.031740
  26 N :    0.024071
  27 C :    0.043726
  28 C :   -0.059100
  29 C :    0.012880
  30 C :   -0.070108
  31 C :   -0.052075
  32 N :   -0.280091
  33 S :    0.578865
  34 N :   -0.280407
  35 C :   -0.050652
  36 C :   -0.073590
  37 C :    0.012286
  38 N :    0.037042
  39 C :    0.041025
  40 C :   -0.062840
  41 C :   -0.029407
  42 C :   -0.171027
  43 S :    0.430819
  44 C :   -0.178764
  45 C :   -0.195639
  46 S :    0.433532
  47 C :   -0.171978
  48 C :   -0.026170
  49 C :   -0.028513
  50 C :   -0.048283
  51 C :    0.031740
  52 C :   -0.091853
  53 C :    0.053327
  54 C :   -0.134937
  55 C :   -0.015785
  56 N :   -0.061157
  57 C :   -0.016463
  58 N :   -0.056163
  59 C :   -0.008034
  60 C :   -0.003624
  61 C :    0.002262
  62 C :   -0.003800
  63 C :    0.013269
  64 C :   -0.043973
  65 C :    0.079287
  66 O :   -0.144970
  67 H :    0.039488
  68 H :    0.033966
  69 H :    0.034431
  70 H :    0.038526
  71 H :    0.046272
  72 H :    0.028595
  73 H :    0.037354
  74 H :    0.032190
  75 H :    0.028001
  76 H :    0.027893
  77 H :    0.024248
  78 H :    0.026417
  79 H :    0.035116
  80 H :    0.031690
  81 H :    0.031365
  82 H :    0.031127
  83 H :    0.029551
  84 H :    0.028300
  85 H :    0.035841
  86 H :    0.027991
  87 H :    0.038501
  88 H :    0.030404
  89 H :    0.028489
  90 H :    0.017857
  91 H :    0.030643
  92 H :    0.045008
  93 H :    0.038782
  94 H :    0.035765
  95 H :    0.034606
  96 H :    0.039665

  Mayer bond orders larger than 0.100000
B(  0-C ,  1-O ) :   2.1805 B(  0-C ,  2-C ) :   0.9363 B(  0-C , 14-C ) :   0.9520
B(  2-C ,  3-C ) :   1.3893 B(  2-C ,  7-C ) :   1.3137 B(  3-C ,  4-C ) :   1.3353
B(  3-C , 67-H ) :   0.9971 B(  4-C ,  5-C ) :   1.3664 B(  4-C , 68-H ) :   0.9857
B(  5-C ,  6-C ) :   1.3638 B(  5-C , 69-H ) :   0.9812 B(  6-C ,  7-C ) :   1.3657
B(  6-C , 70-H ) :   0.9808 B(  7-C ,  8-C ) :   1.0124 B(  8-C ,  9-C ) :   1.5752
B(  8-C , 14-C ) :   1.0804 B(  9-C , 10-C ) :   1.1669 B(  9-C , 12-C ) :   1.1322
B( 10-C , 11-N ) :   2.9640 B( 12-C , 13-N ) :   2.9368 B( 14-C , 15-C ) :   1.5541
B( 15-C , 16-C ) :   1.2443 B( 15-C , 71-H ) :   0.9087 B( 16-C , 17-S ) :   1.0402
B( 16-C , 20-C ) :   1.3789 B( 17-S , 18-C ) :   1.0773 B( 18-C , 19-C ) :   1.3839
B( 18-C , 25-C ) :   1.3151 B( 19-C , 20-C ) :   1.3913 B( 19-C , 23-S ) :   1.0301
B( 20-C , 21-C ) :   1.0956 B( 21-C , 22-C ) :   1.1029 B( 21-C , 72-H ) :   0.9182
B( 21-C , 73-H ) :   0.8979 B( 22-C , 74-H ) :   0.9662 B( 22-C , 75-H ) :   0.9625
B( 22-C , 76-H ) :   0.9677 B( 23-S , 24-C ) :   1.0370 B( 24-C , 25-C ) :   1.3734
B( 24-C , 30-C ) :   1.3347 B( 25-C , 26-N ) :   1.1349 B( 26-N , 27-C ) :   0.9560
B( 26-N , 29-C ) :   1.1432 B( 27-C , 28-C ) :   1.1072 B( 27-C , 77-H ) :   0.9390
B( 27-C , 78-H ) :   0.9328 B( 28-C , 79-H ) :   0.9616 B( 28-C , 80-H ) :   0.9612
B( 28-C , 81-H ) :   0.9624 B( 29-C , 30-C ) :   1.3619 B( 29-C , 37-C ) :   1.1360
B( 30-C , 31-C ) :   1.1199 B( 31-C , 32-N ) :   1.6066 B( 31-C , 35-C ) :   1.1050
B( 32-N , 33-S ) :   1.1965 B( 32-N , 34-N ) :   0.1364 B( 33-S , 34-N ) :   1.1949
B( 34-N , 35-C ) :   1.6058 B( 35-C , 36-C ) :   1.1187 B( 36-C , 37-C ) :   1.3364
B( 36-C , 42-C ) :   1.3601 B( 37-C , 38-N ) :   1.1642 B( 38-N , 39-C ) :   0.9452
B( 38-N , 41-C ) :   1.1400 B( 39-C , 40-C ) :   1.1018 B( 39-C , 82-H ) :   0.9380
B( 39-C , 83-H ) :   0.9463 B( 40-C , 84-H ) :   0.9497 B( 40-C , 85-H ) :   0.9596
B( 40-C , 86-H ) :   0.9593 B( 41-C , 42-C ) :   1.3731 B( 41-C , 45-C ) :   1.2837
B( 42-C , 43-S ) :   1.0308 B( 43-S , 44-C ) :   1.0401 B( 44-C , 45-C ) :   1.4100
B( 44-C , 48-C ) :   1.3399 B( 45-C , 46-S ) :   1.0685 B( 46-S , 47-C ) :   1.0507
B( 47-C , 48-C ) :   1.4476 B( 47-C , 51-C ) :   1.1276 B( 48-C , 49-C ) :   1.0897
B( 49-C , 50-C ) :   1.0889 B( 49-C , 87-H ) :   0.9134 B( 49-C , 88-H ) :   0.9130
B( 50-C , 89-H ) :   0.9650 B( 50-C , 90-H ) :   0.9601 B( 50-C , 91-H ) :   0.9610
B( 51-C , 52-C ) :   1.6355 B( 51-C , 92-H ) :   0.9125 B( 52-C , 53-C ) :   1.0650
B( 52-C , 65-C ) :   0.9355 B( 53-C , 54-C ) :   1.5945 B( 53-C , 59-C ) :   1.0103
B( 54-C , 55-C ) :   1.1316 B( 54-C , 57-C ) :   1.1705 B( 55-C , 56-N ) :   2.9368
B( 57-C , 58-N ) :   2.9663 B( 59-C , 60-C ) :   1.3586 B( 59-C , 64-C ) :   1.3211
B( 60-C , 61-C ) :   1.3667 B( 60-C , 93-H ) :   0.9839 B( 61-C , 62-C ) :   1.3660
B( 61-C , 94-H ) :   0.9780 B( 62-C , 63-C ) :   1.3334 B( 62-C , 95-H ) :   0.9857
B( 63-C , 64-C ) :   1.3797 B( 63-C , 96-H ) :   1.0005 B( 64-C , 65-C ) :   0.9360
B( 65-C , 66-O ) :   2.2014

Dispersion correction           -0.301806541
FINAL SINGLE POINT ENERGY     -4576.778920580442

DIPOLE MOMENT
-------------
                                X             Y             Z
Electronic contribution:    -12.91137       5.95602     -12.51617
Nuclear contribution   :     12.53579      -6.95488      12.70518
                        -----------------------------------------
Total Dipole Moment    :     -0.37558      -0.99886       0.18901
                        -----------------------------------------
Magnitude (a.u.)       :      1.08374
Magnitude (Debye)      :      2.75466

Rotational constants in cm-1:     0.002015     0.000338     0.000306
Rotational constants in MHz :    60.402925    10.141614     9.165438

                             ****ORCA TERMINATED NORMALLY****
TOTAL RUN TIME: 0 days 15 hours 21 minutes 1 seconds 646 msec
