                         Program Version 4.2.0 -  RELEASE  -
|  1> # ORCA input file
|  2> # SCF done       -174.194974595795          0.000874125190
|  3> ! B3LYP/G D3BJ Opt RIJCOSX def2-SVP def2/J
|  4> * xyz 0 1
|  5>    C        3.70479         1.04375        -2.55570
|  6>    O        4.82646         1.47172        -2.76179
|  7>    C        2.61282         0.94039        -3.55852
|  8>    C        2.61823         1.29295        -4.89298
|  9>    C        1.45567         1.09072        -5.63023
| 10>   Cl        1.42649         1.51893        -7.29439
| 11>    C        0.31506         0.54424        -5.03299
| 12>   Cl       -1.10533         0.30038        -5.96884
| 13>    C        0.31613         0.19051        -3.68671
| 14>    C        1.47103         0.39499        -2.95960
| 15>    C        1.75185         0.11847        -1.52520
| 16>    O        0.99254        -0.34896        -0.70571
| 17>    C        3.15011         0.53186        -1.30957
| 18>    C        3.73401         0.41381        -0.07724
| 19>    C        5.03002         0.73145         0.34643
| 20>    S        6.27603         1.35767        -0.73365
| 21>    C        7.39931         1.40914         0.57020
| 22>    C        6.82429         0.96791         1.77478
| 23>    C        5.49466         0.58023         1.66083
| 24>    C        4.67721         0.11979         2.82286
| 25>    C        3.86039         1.27773         3.40285
| 26>    S        7.93301         0.98845         3.13273
| 27>    C        9.16743         1.57664         2.07458
| 28>    C        8.73931         1.76714         0.75319
| 29>    N        9.78599         2.19837        -0.01573
| 30>    C        9.69450         2.15865        -1.45996
| 31>    C        8.88489         3.32654        -2.02426
| 32>    C       10.89670         2.29449         0.79757
| 33>    C       10.53523         1.87394         2.11204
| 34>    C       11.50133         1.68384         3.12911
| 35>    N       11.32342         1.27325         4.37452
| 36>    S       12.77100         1.11457         5.07734
| 37>    N       13.68738         1.56446         3.81870
| 38>    C       12.88682         1.85806         2.80571
| 39>    C       13.22701         2.34718         1.52509
| 40>    C       12.24102         2.67236         0.54644
| 41>    N       12.86758         3.25131        -0.53619
| 42>    C       12.30883         4.20900        -1.46741
| 43>    C       12.55812         5.63857        -0.98885
| 44>    C       14.22388         3.24156        -0.29214
| 45>    C       14.45775         2.68506         0.96343
| 46>    S       16.11811         2.59820         1.38593
| 47>    C       16.56145         3.30431        -0.19206
| 48>    C       15.39338         3.60656        -0.99883
| 49>    S       15.43544         4.25706        -2.53303
| 50>    C       18.87421         3.13261         0.45323
| 51>    C       17.88866         3.48400        -0.49229
| 52>    C       18.35521         4.04674        -1.80169
| 53>    C       19.86457         4.14424        -1.96009
| 54>    C       20.08999         2.99548         0.90853
| 55>    C       19.02305         2.56417         1.88043
| 56>    C       18.69154         1.13174         2.15577
| 57>    O       18.97317         0.17867         1.47229
| 58>    C       17.91443         1.14933         3.41983
| 59>    C       17.21101         0.11865         4.01396
| 60>    C       16.43436         0.40933         5.12823
| 61>   Cl       15.50294        -0.83281         5.85665
| 62>    C       16.38510         1.70681         5.64853
| 63>   Cl       15.39418         2.03852         7.00854
| 64>    C       17.10972         2.73651         5.06233
| 65>    C       17.86326         2.44953         3.93983
| 66>    C       18.60123         3.38577         3.05677
| 67>    O       18.79393         4.56474         3.22312
| 68>    H        3.49761         1.71475        -5.35364
| 69>    H       -0.56339        -0.23117        -3.22629
| 70>    H        3.07838         0.00580         0.68627
| 71>    H        5.35503        -0.25967         3.59009
| 72>    H        4.00811        -0.68882         2.52527
| 73>    H        4.52048         2.08008         3.72372
| 74>    H        3.28865         0.93539         4.26116
| 75>    H        3.17111         1.67238         2.66003
| 76>    H        9.18961         1.22549        -1.73302
| 77>    H       10.70257         2.12160        -1.87470
| 78>    H        7.82921         3.19300        -1.80661
| 79>    H        9.00619         3.36699        -3.10276
| 80>    H        9.19893         4.27717        -1.59843
| 81>    H       11.24088         4.05291        -1.55166
| 82>    H       12.78406         4.05828        -2.44009
| 83>    H       12.14121         5.78502         0.00584
| 84>    H       12.08625         6.33631        -1.67492
| 85>    H       13.62203         5.85692        -0.95815
| 86>    H       17.90481         5.03745        -1.92705
| 87>    H       17.94000         3.42809        -2.60425
| 88>    H       20.29389         4.79900        -1.20651
| 89>    H       20.09367         4.55281        -2.94116
| 90>    H       20.32709         3.16407        -1.87977
| 91>    H       21.14509         3.06444         0.82820
| 92>    H       17.24088        -0.87921         3.60515
| 93>    H       17.06255         3.74001         5.45516
| 94> *
| 95>
| 96>                          ****END OF INPUT****
 Total Charge           Charge          ....    0
 Multiplicity           Mult            ....    1
 Number of Electrons    NEL             ....  510
Dispersion correction           -0.293880464
FINAL SINGLE POINT ENERGY     -6117.653294606801
Dispersion correction            ... done
Dispersion correction           -0.290186881
FINAL SINGLE POINT ENERGY     -6117.670362845225
Dispersion correction            ... done
Dispersion correction           -0.291221083
FINAL SINGLE POINT ENERGY     -6117.667501339552
Dispersion correction            ... done
FINAL SINGLE POINT ENERGY     -6117.668958379088
FINAL SINGLE POINT ENERGY     -6117.671777974733
FINAL SINGLE POINT ENERGY     -6117.673276541144
FINAL SINGLE POINT ENERGY     -6117.673691444564
FINAL SINGLE POINT ENERGY     -6117.673793814698
FINAL SINGLE POINT ENERGY     -6117.673972814558
FINAL SINGLE POINT ENERGY     -6117.673994419571
FINAL SINGLE POINT ENERGY     -6117.674119975799
FINAL SINGLE POINT ENERGY     -6117.674091963561
FINAL SINGLE POINT ENERGY     -6117.674067357155
FINAL SINGLE POINT ENERGY     -6117.673972416248
FINAL SINGLE POINT ENERGY     -6117.673977110161
FINAL SINGLE POINT ENERGY     -6117.673941999144
FINAL SINGLE POINT ENERGY     -6117.673905661315
Dispersion correction            ... done
Dispersion correction           -0.288123157
FINAL SINGLE POINT ENERGY     -6117.673897229593
Dispersion correction            ... done
Dispersion correction           -0.288109031
FINAL SINGLE POINT ENERGY     -6117.673899842463
Dispersion correction            ... done
                    ***********************HURRAY********************

CARTESIAN COORDINATES (ANGSTROEM)
---------------------------------
  C      3.360365    1.094909   -2.680612
  O      4.471301    1.430281   -3.057475
  C      2.105673    1.164337   -3.499123
  C      1.929466    1.648980   -4.788877
  C      0.638704    1.625196   -5.331989
  Cl     0.390528    2.244330   -6.932738
  C     -0.450314    1.109705   -4.589159
  Cl    -2.044198    1.082113   -5.269608
  C     -0.256931    0.621366   -3.290667
  C      1.025480    0.660737   -2.760516
  C      1.503831    0.242356   -1.405048
  O      0.831560   -0.236341   -0.512520
  C      2.958443    0.551224   -1.371070
  C      3.673226    0.361978   -0.219144
  C      5.022992    0.596173    0.144617
  S      6.287742    1.189936   -0.955726
  C      7.444464    1.156837    0.334411
  C      6.872094    0.723070    1.549049
  C      5.509058    0.392314    1.455895
  C      4.670513   -0.037562    2.628156
  C      3.954602    1.141307    3.306831
  S      8.014919    0.696652    2.898786
  C      9.264525    1.252974    1.814691
  C      8.818285    1.455643    0.501043
  N      9.876984    1.843464   -0.294972
  C      9.682438    1.986428   -1.735323
  C      9.138082    3.358876   -2.129860
  C     11.023073    1.918659    0.503490
  C     10.646036    1.520138    1.832787
  C     11.602597    1.372156    2.888774
  N     11.367537    1.010767    4.142112
  S     12.833876    0.954830    4.911876
  N     13.801174    1.396876    3.639344
  C     12.999561    1.592027    2.599900
  C     13.364869    2.032046    1.289520
  C     12.405702    2.257264    0.244097
  N     13.088620    2.771215   -0.858815
  C     12.560645    3.618432   -1.933387
  C     12.416394    5.071401   -1.494107
  C     14.446156    2.845829   -0.530577
  C     14.615010    2.392841    0.775801
  S     16.237763    2.438512    1.346077
  C     16.774694    3.138032   -0.227413
  C     15.645227    3.273754   -1.190192
  S     15.771384    3.816850   -2.773046
  C     19.007946    3.319623    0.722605
  C     18.100272    3.484077   -0.384113
  C     18.679003    4.062127   -1.656308
  C     20.148894    4.474265   -1.612305
  C     20.170351    3.426093    1.294817
  C     19.087244    2.924895    2.196475
  C     18.971748    1.482272    2.648298
  O     19.449166    0.510392    2.109735
  C     18.122055    1.510854    3.874903
  C     17.579951    0.434662    4.569342
  C     16.692179    0.704919    5.613149
  Cl    15.946947   -0.618669    6.448871
  C     16.375091    2.039114    5.964525
  Cl    15.252792    2.365336    7.244527
  C     16.933940    3.112697    5.269240
  C     17.802750    2.832974    4.219757
  C     18.424899    3.785047    3.254704
  O     18.385713    4.993730    3.282874
  H      2.766104    2.045532   -5.365324
  H     -1.093778    0.226942   -2.713717
  H      3.054120   -0.040152    0.591474
  H      5.322747   -0.544768    3.357757
  H      3.929175   -0.785503    2.310267
  H      4.678639    1.879881    3.683134
  H      3.348221    0.788822    4.155095
  H      3.286186    1.656867    2.599617
  H      8.971311    1.202267   -2.037452
  H     10.622854    1.736921   -2.240491
  H      8.130305    3.507866   -1.714512
  H      9.070249    3.443506   -3.224932
  H      9.779962    4.168951   -1.757642
  H     11.611322    3.217017   -2.275140
  H     13.272084    3.543605   -2.765262
  H     11.727544    5.168215   -0.639516
  H     12.025878    5.679212   -2.324820
  H     13.392177    5.486019   -1.200934
  H     18.047625    4.914304   -1.959390
  H     18.505209    3.333382   -2.466426
  H     20.340618    5.235972   -0.842385
  H     20.439122    4.904325   -2.582818
  H     20.811453    3.618538   -1.416236
  H     21.221761    3.693075    1.289768
  H     17.815321   -0.592036    4.286354
  H     16.665511    4.138292    5.525744

 Multiplicity           Mult            ....    1
 Number of Electrons    NEL             ....  510
 Basis Dimension        Dim             .... 1048

ORBITAL ENERGIES
----------------

  NO   OCC          E(Eh)            E(eV)
   0   2.0000    -101.527486     -2762.7034
   1   2.0000    -101.526959     -2762.6890
   2   2.0000    -101.524291     -2762.6164
   3   2.0000    -101.524204     -2762.6140
   4   2.0000     -88.931489     -2419.9488
   5   2.0000     -88.898275     -2419.0451
   6   2.0000     -88.895783     -2418.9772
   7   2.0000     -88.886081     -2418.7132
   8   2.0000     -88.816307     -2416.8146
   9   2.0000     -19.138797      -520.7931
  10   2.0000     -19.138709      -520.7908
  11   2.0000     -19.138636      -520.7888
  12   2.0000     -19.133205      -520.6410
  13   2.0000     -14.418166      -392.3383
  14   2.0000     -14.410322      -392.1248
  15   2.0000     -14.364227      -390.8705
  16   2.0000     -14.363244      -390.8437
  17   2.0000     -10.287630      -279.9406
  18   2.0000     -10.286640      -279.9137
  19   2.0000     -10.286569      -279.9118
  20   2.0000     -10.282795      -279.8091
  21   2.0000     -10.279122      -279.7091
  22   2.0000     -10.278661      -279.6966
  23   2.0000     -10.278248      -279.6853
  24   2.0000     -10.277839      -279.6742
  25   2.0000     -10.275535      -279.6115
  26   2.0000     -10.274686      -279.5884
  27   2.0000     -10.266221      -279.3581
  28   2.0000     -10.262858      -279.2666
  29   2.0000     -10.256617      -279.0967
  30   2.0000     -10.253473      -279.0112
  31   2.0000     -10.251778      -278.9651
  32   2.0000     -10.251431      -278.9556
  33   2.0000     -10.249492      -278.9029
  34   2.0000     -10.248696      -278.8812
  35   2.0000     -10.248233      -278.8686
  36   2.0000     -10.244230      -278.7597
  37   2.0000     -10.244193      -278.7587
  38   2.0000     -10.244057      -278.7550
  39   2.0000     -10.242085      -278.7013
  40   2.0000     -10.239520      -278.6315
  41   2.0000     -10.238394      -278.6009
  42   2.0000     -10.237447      -278.5751
  43   2.0000     -10.236235      -278.5421
  44   2.0000     -10.235960      -278.5346
  45   2.0000     -10.235870      -278.5322
  46   2.0000     -10.230651      -278.3902
  47   2.0000     -10.230479      -278.3855
  48   2.0000     -10.230369      -278.3825
  49   2.0000     -10.229801      -278.3670
  50   2.0000     -10.227547      -278.3057
  51   2.0000     -10.222918      -278.1797
  52   2.0000     -10.221997      -278.1547
  53   2.0000     -10.221547      -278.1424
  54   2.0000     -10.220824      -278.1228
  55   2.0000     -10.220030      -278.1012
  56   2.0000     -10.217293      -278.0267
  57   2.0000     -10.214426      -277.9487
  58   2.0000     -10.204483      -277.6781
  59   2.0000     -10.204441      -277.6770
  60   2.0000     -10.202363      -277.6204
  61   2.0000     -10.199998      -277.5561
  62   2.0000     -10.191235      -277.3176
  63   2.0000      -9.481497      -258.0046
  64   2.0000      -9.481004      -257.9912
  65   2.0000      -9.478401      -257.9204
  66   2.0000      -9.478344      -257.9189
  67   2.0000      -8.022890      -218.3139
  68   2.0000      -7.990670      -217.4372
  69   2.0000      -7.988963      -217.3907
  70   2.0000      -7.979421      -217.1311
  71   2.0000      -7.910878      -215.2659
  72   2.0000      -7.250694      -197.3014
  73   2.0000      -7.250193      -197.2878
  74   2.0000      -7.247666      -197.2190
  75   2.0000      -7.247610      -197.2175
  76   2.0000      -7.240893      -197.0347
  77   2.0000      -7.240368      -197.0204
  78   2.0000      -7.240053      -197.0119
  79   2.0000      -7.239609      -196.9998
  80   2.0000      -7.237733      -196.9487
  81   2.0000      -7.237687      -196.9475
  82   2.0000      -7.236952      -196.9275
  83   2.0000      -7.236914      -196.9264
  84   2.0000      -5.993238      -163.0843
  85   2.0000      -5.985979      -162.8868
  86   2.0000      -5.983107      -162.8086
  87   2.0000      -5.959171      -162.1573
  88   2.0000      -5.957739      -162.1183
  89   2.0000      -5.955041      -162.0449
  90   2.0000      -5.953901      -162.0139
  91   2.0000      -5.951376      -161.9452
  92   2.0000      -5.948880      -161.8773
  93   2.0000      -5.948203      -161.8588
  94   2.0000      -5.944386      -161.7550
  95   2.0000      -5.939110      -161.6114
  96   2.0000      -5.879317      -159.9844
  97   2.0000      -5.877102      -159.9241
  98   2.0000      -5.869807      -159.7256
  99   2.0000      -1.047246       -28.4970
 100   2.0000      -1.042458       -28.3667
 101   2.0000      -1.042011       -28.3546
 102   2.0000      -1.036411       -28.2022
 103   2.0000      -1.025456       -27.9041
 104   2.0000      -1.017149       -27.6780
 105   2.0000      -1.009438       -27.4682
 106   2.0000      -0.932127       -25.3645
 107   2.0000      -0.929914       -25.3042
 108   2.0000      -0.923057       -25.1177
 109   2.0000      -0.920575       -25.0501
 110   2.0000      -0.895521       -24.3684
 111   2.0000      -0.890017       -24.2186
 112   2.0000      -0.877655       -23.8822
 113   2.0000      -0.874969       -23.8091
 114   2.0000      -0.874556       -23.7979
 115   2.0000      -0.872134       -23.7320
 116   2.0000      -0.871898       -23.7255
 117   2.0000      -0.861189       -23.4341
 118   2.0000      -0.834858       -22.7176
 119   2.0000      -0.822353       -22.3774
 120   2.0000      -0.813228       -22.1291
 121   2.0000      -0.812727       -22.1154
 122   2.0000      -0.800714       -21.7885
 123   2.0000      -0.791313       -21.5327
 124   2.0000      -0.785966       -21.3872
 125   2.0000      -0.778607       -21.1870
 126   2.0000      -0.773307       -21.0428
 127   2.0000      -0.771169       -20.9846
 128   2.0000      -0.769701       -20.9446
 129   2.0000      -0.754892       -20.5417
 130   2.0000      -0.750888       -20.4327
 131   2.0000      -0.744141       -20.2491
 132   2.0000      -0.726357       -19.7652
 133   2.0000      -0.721058       -19.6210
 134   2.0000      -0.708796       -19.2873
 135   2.0000      -0.697131       -18.9699
 136   2.0000      -0.686154       -18.6712
 137   2.0000      -0.674548       -18.3554
 138   2.0000      -0.668110       -18.1802
 139   2.0000      -0.661073       -17.9887
 140   2.0000      -0.653330       -17.7780
 141   2.0000      -0.650727       -17.7072
 142   2.0000      -0.646652       -17.5963
 143   2.0000      -0.642437       -17.4816
 144   2.0000      -0.640285       -17.4230
 145   2.0000      -0.632489       -17.2109
 146   2.0000      -0.626834       -17.0570
 147   2.0000      -0.617545       -16.8042
 148   2.0000      -0.613062       -16.6823
 149   2.0000      -0.596862       -16.2415
 150   2.0000      -0.583613       -15.8809
 151   2.0000      -0.579143       -15.7593
 152   2.0000      -0.578870       -15.7519
 153   2.0000      -0.573941       -15.6177
 154   2.0000      -0.572601       -15.5813
 155   2.0000      -0.564094       -15.3498
 156   2.0000      -0.552039       -15.0217
 157   2.0000      -0.546076       -14.8595
 158   2.0000      -0.544437       -14.8149
 159   2.0000      -0.536081       -14.5875
 160   2.0000      -0.529619       -14.4117
 161   2.0000      -0.521137       -14.1809
 162   2.0000      -0.514410       -13.9978
 163   2.0000      -0.513023       -13.9601
 164   2.0000      -0.504075       -13.7166
 165   2.0000      -0.503723       -13.7070
 166   2.0000      -0.500092       -13.6082
 167   2.0000      -0.495279       -13.4772
 168   2.0000      -0.488680       -13.2977
 169   2.0000      -0.487356       -13.2616
 170   2.0000      -0.482447       -13.1280
 171   2.0000      -0.481655       -13.1065
 172   2.0000      -0.477575       -12.9955
 173   2.0000      -0.475713       -12.9448
 174   2.0000      -0.471943       -12.8422
 175   2.0000      -0.470181       -12.7943
 176   2.0000      -0.469985       -12.7890
 177   2.0000      -0.465941       -12.6789
 178   2.0000      -0.463024       -12.5995
 179   2.0000      -0.462346       -12.5811
 180   2.0000      -0.460035       -12.5182
 181   2.0000      -0.458432       -12.4746
 182   2.0000      -0.457338       -12.4448
 183   2.0000      -0.455067       -12.3830
 184   2.0000      -0.453018       -12.3272
 185   2.0000      -0.452327       -12.3084
 186   2.0000      -0.444771       -12.1028
 187   2.0000      -0.444230       -12.0881
 188   2.0000      -0.442900       -12.0519
 189   2.0000      -0.440578       -11.9887
 190   2.0000      -0.437202       -11.8969
 191   2.0000      -0.431188       -11.7332
 192   2.0000      -0.428117       -11.6497
 193   2.0000      -0.427120       -11.6225
 194   2.0000      -0.424815       -11.5598
 195   2.0000      -0.421213       -11.4618
 196   2.0000      -0.419924       -11.4267
 197   2.0000      -0.419349       -11.4111
 198   2.0000      -0.416247       -11.3267
 199   2.0000      -0.415404       -11.3037
 200   2.0000      -0.410740       -11.1768
 201   2.0000      -0.405143       -11.0245
 202   2.0000      -0.404172       -10.9981
 203   2.0000      -0.401936       -10.9372
 204   2.0000      -0.399877       -10.8812
 205   2.0000      -0.399302       -10.8656
 206   2.0000      -0.395871       -10.7722
 207   2.0000      -0.395037       -10.7495
 208   2.0000      -0.394127       -10.7248
 209   2.0000      -0.393126       -10.6975
 210   2.0000      -0.392085       -10.6692
 211   2.0000      -0.389244       -10.5919
 212   2.0000      -0.384705       -10.4684
 213   2.0000      -0.383742       -10.4422
 214   2.0000      -0.383020       -10.4225
 215   2.0000      -0.375865       -10.2278
 216   2.0000      -0.368439       -10.0257
 217   2.0000      -0.366439        -9.9713
 218   2.0000      -0.364296        -9.9130
 219   2.0000      -0.364004        -9.9051
 220   2.0000      -0.361021        -9.8239
 221   2.0000      -0.360633        -9.8133
 222   2.0000      -0.358704        -9.7608
 223   2.0000      -0.353698        -9.6246
 224   2.0000      -0.350412        -9.5352
 225   2.0000      -0.347089        -9.4448
 226   2.0000      -0.344489        -9.3740
 227   2.0000      -0.342513        -9.3203
 228   2.0000      -0.342419        -9.3177
 229   2.0000      -0.339828        -9.2472
 230   2.0000      -0.339149        -9.2287
 231   2.0000      -0.332339        -9.0434
 232   2.0000      -0.331883        -9.0310
 233   2.0000      -0.319682        -8.6990
 234   2.0000      -0.317382        -8.6364
 235   2.0000      -0.315327        -8.5805
 236   2.0000      -0.314199        -8.5498
 237   2.0000      -0.307196        -8.3592
 238   2.0000      -0.305294        -8.3075
 239   2.0000      -0.290807        -7.9133
 240   2.0000      -0.284504        -7.7418
 241   2.0000      -0.282484        -7.6868
 242   2.0000      -0.282356        -7.6833
 243   2.0000      -0.281736        -7.6664
 244   2.0000      -0.278541        -7.5795
 245   2.0000      -0.269719        -7.3394
 246   2.0000      -0.266610        -7.2548
 247   2.0000      -0.261305        -7.1105
 248   2.0000      -0.257305        -7.0016
 249   2.0000      -0.250147        -6.8068
 250   2.0000      -0.245604        -6.6832
 251   2.0000      -0.234090        -6.3699
 252   2.0000      -0.221601        -6.0301
 253   2.0000      -0.220644        -6.0040
 254   2.0000      -0.207651        -5.6505
 255   0.0000      -0.126171        -3.4333
 256   0.0000      -0.109524        -2.9803
 257   0.0000      -0.091285        -2.4840
 258   0.0000      -0.088706        -2.4138
 259   0.0000      -0.084707        -2.3050

MULLIKEN ATOMIC CHARGES
-----------------------
   0 C :    0.174944
   1 O :   -0.185029
   2 C :   -0.000051
   3 C :   -0.024596
   4 C :    0.056950
   5 Cl:   -0.055740
   6 C :    0.062864
   7 Cl:   -0.054553
   8 C :   -0.017645
   9 C :    0.015656
  10 C :    0.153528
  11 O :   -0.173402
  12 C :   -0.154940
  13 C :   -0.042774
  14 C :   -0.074677
  15 S :    0.194731
  16 C :   -0.044312
  17 C :   -0.088814
  18 C :   -0.047664
  19 C :    0.047643
  20 C :    0.018048
  21 S :    0.189939
  22 C :   -0.084185
  23 C :    0.051123
  24 N :   -0.202627
  25 C :    0.086570
  26 C :    0.011908
  27 C :    0.069252
  28 C :   -0.047561
  29 C :   -0.000457
  30 N :   -0.283285
  31 S :    0.453750
  32 N :   -0.290757
  33 C :    0.026470
  34 C :   -0.048534
  35 C :    0.082222
  36 N :   -0.211600
  37 C :    0.135433
  38 C :   -0.003958
  39 C :    0.102381
  40 C :   -0.040769
  41 S :    0.101120
  42 C :   -0.097214
  43 C :   -0.024637
  44 S :   -0.183593
  45 C :    0.190188
  46 C :   -0.045381
  47 C :    0.057111
  48 C :    0.057139
  49 C :   -0.166184
  50 C :   -0.265271
  51 C :    0.204264
  52 O :   -0.138984
  53 C :    0.002665
  54 C :   -0.013811
  55 C :    0.064274
  56 Cl:   -0.054661
  57 C :    0.068172
  58 Cl:   -0.056337
  59 C :   -0.005755
  60 C :   -0.003222
  61 C :    0.203494
  62 O :   -0.144021
  63 H :   -0.008169
  64 H :   -0.007539
  65 H :    0.004829
  66 H :    0.012569
  67 H :    0.025881
  68 H :    0.020171
  69 H :    0.026561
  70 H :    0.022376
  71 H :    0.037269
  72 H :    0.039723
  73 H :    0.029502
  74 H :    0.038073
  75 H :    0.023469
  76 H :   -0.024579
  77 H :    0.032586
  78 H :    0.028961
  79 H :    0.028705
  80 H :    0.032085
  81 H :    0.028556
  82 H :    0.031436
  83 H :    0.018990
  84 H :    0.015082
  85 H :    0.018670
  86 H :    0.029917
  87 H :   -0.004483
  88 H :   -0.005477
Sum of atomic charges:    0.0000000

LOEWDIN ATOMIC CHARGES
----------------------
   0 C :    0.070122
   1 O :   -0.169697
   2 C :   -0.040549
   3 C :   -0.006921
   4 C :   -0.129201
   5 Cl:    0.145197
   6 C :   -0.129610
   7 Cl:    0.147189
   8 C :   -0.004328
   9 C :   -0.042612
  10 C :    0.073620
  11 O :   -0.157315
  12 C :   -0.137852
  13 C :    0.044183
  14 C :   -0.176920
  15 S :    0.462778
  16 C :   -0.201943
  17 C :   -0.187288
  18 C :   -0.022014
  19 C :   -0.029559
  20 C :   -0.044473
  21 S :    0.416877
  22 C :   -0.168041
  23 C :   -0.029530
  24 N :    0.040076
  25 C :    0.042288
  26 C :   -0.063016
  27 C :    0.012266
  28 C :   -0.068695
  29 C :   -0.053719
  30 N :   -0.280284
  31 S :    0.582495
  32 N :   -0.284260
  33 C :   -0.050257
  34 C :   -0.079032
  35 C :    0.026495
  36 N :    0.039172
  37 C :    0.037073
  38 C :   -0.059560
  39 C :   -0.041973
  40 C :   -0.157928
  41 S :    0.425319
  42 C :   -0.131323
  43 C :   -0.172851
  44 S :    0.006125
  45 C :    0.037278
  46 C :   -0.005209
  47 C :   -0.028026
  48 C :   -0.053288
  49 C :    0.062783
  50 C :   -0.124736
  51 C :    0.070365
  52 O :   -0.135628
  53 C :   -0.050884
  54 C :    0.002474
  55 C :   -0.125873
  56 Cl:    0.146845
  57 C :   -0.125834
  58 Cl:    0.147489
  59 C :    0.002088
  60 C :   -0.050204
  61 C :    0.071506
  62 O :   -0.137979
  63 H :    0.042221
  64 H :    0.043304
  65 H :    0.045603
  66 H :    0.031244
  67 H :    0.035238
  68 H :    0.026645
  69 H :    0.029579
  70 H :    0.026800
  71 H :    0.031373
  72 H :    0.029530
  73 H :    0.029787
  74 H :    0.038711
  75 H :    0.028495
  76 H :    0.017504
  77 H :    0.015350
  78 H :    0.023564
  79 H :    0.034070
  80 H :    0.031464
  81 H :    0.034238
  82 H :    0.038838
  83 H :    0.025658
  84 H :    0.030037
  85 H :    0.025412
  86 H :    0.043515
  87 H :    0.044355
  88 H :    0.043774

  Mayer bond orders larger than 0.100000
B(  0-C ,  1-O ) :   2.1528 B(  0-C ,  2-C ) :   0.9285 B(  0-C , 12-C ) :   0.9769
B(  2-C ,  3-C ) :   1.3285 B(  2-C ,  9-C ) :   1.3389 B(  3-C ,  4-C ) :   1.3411
B(  3-C , 63-H ) :   1.0044 B(  4-C ,  5-Cl) :   1.0376 B(  4-C ,  6-C ) :   1.3910
B(  6-C ,  7-Cl) :   1.0370 B(  6-C ,  8-C ) :   1.3370 B(  8-C ,  9-C ) :   1.3370
B(  8-C , 64-H ) :   1.0039 B(  9-C , 10-C ) :   0.9105 B( 10-C , 11-O ) :   2.1771
B( 10-C , 12-C ) :   0.9842 B( 12-C , 13-C ) :   1.5654 B( 13-C , 14-C ) :   1.2454
B( 13-C , 65-H ) :   0.9206 B( 14-C , 15-S ) :   1.0448 B( 14-C , 18-C ) :   1.3701
B( 15-S , 16-C ) :   1.0385 B( 16-C , 17-C ) :   1.3858 B( 16-C , 23-C ) :   1.2870
B( 17-C , 18-C ) :   1.3910 B( 17-C , 21-S ) :   1.0288 B( 18-C , 19-C ) :   1.0871
B( 19-C , 20-C ) :   1.1065 B( 19-C , 66-H ) :   0.9175 B( 19-C , 67-H ) :   0.9077
B( 20-C , 68-H ) :   0.9667 B( 20-C , 69-H ) :   0.9647 B( 20-C , 70-H ) :   0.9680
B( 21-S , 22-C ) :   1.0241 B( 22-C , 23-C ) :   1.3683 B( 22-C , 28-C ) :   1.3812
B( 23-C , 24-N ) :   1.1486 B( 24-N , 25-C ) :   0.9415 B( 24-N , 27-C ) :   1.1620
B( 25-C , 26-C ) :   1.1113 B( 25-C , 71-H ) :   0.9324 B( 25-C , 72-H ) :   0.9439
B( 26-C , 73-H ) :   0.9478 B( 26-C , 74-H ) :   0.9606 B( 26-C , 75-H ) :   0.9606
B( 27-C , 28-C ) :   1.3339 B( 27-C , 35-C ) :   1.1427 B( 28-C , 29-C ) :   1.1138
B( 29-C , 30-N ) :   1.6078 B( 29-C , 33-C ) :   1.1071 B( 30-N , 31-S ) :   1.1954
B( 30-N , 32-N ) :   0.1344 B( 31-S , 32-N ) :   1.1882 B( 32-N , 33-C ) :   1.6042
B( 33-C , 34-C ) :   1.1125 B( 34-C , 35-C ) :   1.3212 B( 34-C , 40-C ) :   1.3635
B( 35-C , 36-N ) :   1.1941 B( 36-N , 37-C ) :   0.9481 B( 36-N , 39-C ) :   1.1186
B( 37-C , 38-C ) :   1.1137 B( 37-C , 76-H ) :   0.9339 B( 37-C , 77-H ) :   0.9006
B( 38-C , 78-H ) :   0.9604 B( 38-C , 79-H ) :   0.9612 B( 38-C , 80-H ) :   0.9553
B( 39-C , 40-C ) :   1.3471 B( 39-C , 43-C ) :   1.2272 B( 40-C , 41-S ) :   1.0360
B( 41-S , 42-C ) :   1.0150 B( 42-C , 43-C ) :   1.0686 B( 42-C , 46-C ) :   1.6499
B( 43-C , 44-S ) :   1.5074 B( 44-S , 77-H ) :   0.1070 B( 45-C , 46-C ) :   1.0679
B( 45-C , 49-C ) :   1.5992 B( 45-C , 50-C ) :   0.8366 B( 46-C , 47-C ) :   1.0769
B( 47-C , 48-C ) :   1.1353 B( 47-C , 81-H ) :   0.8866 B( 47-C , 82-H ) :   0.8929
B( 48-C , 83-H ) :   0.9539 B( 48-C , 84-H ) :   0.9554 B( 48-C , 85-H ) :   0.9484
B( 49-C , 50-C ) :   0.8306 B( 49-C , 86-H ) :   1.0509 B( 50-C , 51-C ) :   0.8811
B( 50-C , 61-C ) :   0.8891 B( 51-C , 52-O ) :   2.3055 B( 51-C , 53-C ) :   0.9064
B( 53-C , 54-C ) :   1.3123 B( 53-C , 60-C ) :   1.3321 B( 54-C , 55-C ) :   1.3588
B( 54-C , 87-H ) :   1.0090 B( 55-C , 56-Cl) :   1.0339 B( 55-C , 57-C ) :   1.3790
B( 57-C , 58-Cl) :   1.0315 B( 57-C , 59-C ) :   1.3550 B( 59-C , 60-C ) :   1.3229
B( 59-C , 88-H ) :   1.0061 B( 60-C , 61-C ) :   0.9053 B( 61-C , 62-O ) :   2.2972

Dispersion correction           -0.288105328
FINAL SINGLE POINT ENERGY     -6117.673901602876

DIPOLE MOMENT
-------------
                                X             Y             Z
Electronic contribution:    -28.14362     -25.07930      21.62599
Nuclear contribution   :     28.27773      25.65304     -21.89222
                        -----------------------------------------
Total Dipole Moment    :      0.13411       0.57374      -0.26623
                        -----------------------------------------
Magnitude (a.u.)       :      0.64656
Magnitude (Debye)      :      1.64341

Rotational constants in cm-1:     0.002037     0.000339     0.000297
Rotational constants in MHz :    61.070081    10.174313     8.914956

                             ****ORCA TERMINATED NORMALLY****
TOTAL RUN TIME: 0 days 17 hours 42 minutes 24 seconds 345 msec
