                         Program Version 4.2.0 -  RELEASE  -
|  1> # ORCA input file
|  2> # ZY-4Cl.out
|  3> ! B3LYP/G D3BJ Opt RIJCOSX def2-SVP def2/J
|  4> * xyz 0 1
|  5>   C      3.666690    2.591622    0.365085
|  6>   O      4.575690    2.460954   -0.437681
|  7>   C      2.346130    3.254767    0.092463
|  8>   C      1.866235    3.795623   -1.093235
|  9>   C      0.583333    4.358380   -1.092821
| 10>   Cl    -0.041907    5.019413   -2.568765
| 11>   C     -0.193705    4.387993    0.090518
| 12>   Cl    -1.773695    5.102674    0.091730
| 13>   C      0.301593    3.836971    1.278479
| 14>   C      1.568300    3.269186    1.259617
| 15>   C      2.313236    2.582138    2.360913
| 16>   O      1.930791    2.416563    3.504005
| 17>   C      3.606390    2.146919    1.769546
| 18>   C      4.471943    1.392858    2.512657
| 19>   C      5.752815    0.836275    2.280042
| 20>   S      6.762986    1.122846    0.842070
| 21>   C      8.032586    0.150638    1.521284
| 22>   C      7.666580   -0.381581    2.777838
| 23>   C      6.389011   -0.004545    3.219771
| 24>   C      5.762055   -0.547156    4.474885
| 25>   C      4.992966   -1.851379    4.203413
| 26>   S      8.902165   -1.409528    3.505066
| 27>   C      9.918631   -1.108402    2.123108
| 28>   C      9.331666   -0.281830    1.152952
| 29>   N     10.219943   -0.101121    0.099968
| 30>   C     10.096720    1.085066   -0.752135
| 31>   C     10.243186    2.397215    0.016970
| 32>   C     11.378904   -0.834677    0.389008
| 33>   C     11.208685   -1.449204    1.669195
| 34>   C     12.249075   -2.217794    2.280878
| 35>   N     12.205544   -2.835035    3.453054
| 36>   S     13.687974   -3.543666    3.675176
| 37>   N     14.415482   -3.060873    2.266882
| 38>   C     13.520921   -2.345631    1.598765
| 39>   C     13.662200   -1.792708    0.286253
| 40>   C     12.584729   -1.101407   -0.357632
| 41>   N     12.950584   -0.882444   -1.688753
| 42>   C     12.113132   -0.539709   -2.836995
| 43>   C     12.434037    0.830082   -3.436972
| 44>   C     14.225286   -1.395224   -1.874904
| 45>   C     14.688474   -1.939991   -0.666829
| 46>   S     16.243482   -2.717185   -0.795464
| 47>   C     16.249822   -2.349246   -2.522997
| 48>   C     15.112422   -1.633635   -2.954680
| 49>   S     15.169036   -1.306964   -4.657761
| 50>   C     16.712139   -2.188083   -4.795949
| 51>   C     17.152765   -2.678647   -3.546464
| 52>   C     18.432751   -3.425858   -3.295023
| 53>   C     19.592242   -2.490223   -2.923208
| 54>   C     17.397973   -2.444640   -6.009690
| 55>   C     17.172806   -2.094718   -7.315206
| 56>   C     18.033002   -2.647040   -8.395348
| 57>   O     18.989622   -3.386640   -8.268034
| 58>   C     17.452904   -2.142142   -9.682863
| 59>   C     17.830151   -2.417068  -10.991083
| 60>   C     17.106223   -1.812847  -12.027543
| 61>   Cl    17.538263   -2.159650  -13.670970
| 62>   C     16.033841   -0.934669  -11.743345
| 63>   Cl    15.159629   -0.179210  -13.036523
| 64>   C     15.661033   -0.669097  -10.419350
| 65>   C     16.374761   -1.290562   -9.401908
| 66>   C     16.149962   -1.223709   -7.920398
| 67>   O     15.272560   -0.579040   -7.369098
| 68>   H      2.462779    3.779309   -2.006722
| 69>   H     -0.298249    3.850481    2.189878
| 70>   H      4.074691    1.172564    3.510191
| 71>   H      5.091120    0.195183    4.931690
| 72>   H      6.560720   -0.733171    5.211171
| 73>   H      4.157916   -1.675040    3.508125
| 74>   H      4.581830   -2.269983    5.135248
| 75>   H      5.653764   -2.605292    3.748005
| 76>   H      9.118985    1.038469   -1.259135
| 77>   H     10.857618    1.027765   -1.529426
| 78>   H     11.219896    2.447152    0.523023
| 79>   H      9.454601    2.518138    0.774196
| 80>   H     10.168672    3.243777   -0.683701
| 81>   H     11.064573   -0.622300   -2.524299
| 82>   H     12.266237   -1.321290   -3.599159
| 83>   H     11.709620    1.076372   -4.227477
| 84>   H     13.436815    0.842768   -3.888911
| 85>   H     12.404255    1.624652   -2.675793
| 86>   H     18.704421   -4.034773   -4.170139
| 87>   H     18.255242   -4.137645   -2.471830
| 88>   H     19.835104   -1.812459   -3.755980
| 89>   H     20.494539   -3.070231   -2.674646
| 90>   H     19.331546   -1.870056   -2.051550
| 91>   H     18.284233   -3.082186   -5.895811
| 92>   H     18.663456   -3.085348  -11.213438
| 93>   H     14.827491   -0.000620  -10.200051
| 94> *
| 95>
| 96>                          ****END OF INPUT****
 Total Charge           Charge          ....    0
 Multiplicity           Mult            ....    1
 Number of Electrons    NEL             ....  510
Dispersion correction           -0.273358361
FINAL SINGLE POINT ENERGY     -6117.759585762496
Dispersion correction            ... done
Dispersion correction           -0.273449881
FINAL SINGLE POINT ENERGY     -6117.759700532983
Dispersion correction            ... done
Dispersion correction           -0.273471853
FINAL SINGLE POINT ENERGY     -6117.759982642422
Dispersion correction            ... done
FINAL SINGLE POINT ENERGY     -6117.759056240891
FINAL SINGLE POINT ENERGY     -6117.759697681278
FINAL SINGLE POINT ENERGY     -6117.759822710488
FINAL SINGLE POINT ENERGY     -6117.759793154553
Dispersion correction            ... done
Dispersion correction           -0.273404666
FINAL SINGLE POINT ENERGY     -6117.759655786879
Dispersion correction            ... done
Dispersion correction           -0.273422014
FINAL SINGLE POINT ENERGY     -6117.759728148311
Dispersion correction            ... done
                    ***********************HURRAY********************

CARTESIAN COORDINATES (ANGSTROEM)
---------------------------------
  C      3.687621    2.616547    0.377078
  O      4.611661    2.515914   -0.412796
  C      2.363075    3.267852    0.096792
  C      1.893147    3.825913   -1.084823
  C      0.601695    4.368387   -1.092540
  Cl    -0.012408    5.047534   -2.564449
  C     -0.193673    4.362348    0.078478
  Cl    -1.783816    5.053449    0.069419
  C      0.291916    3.794800    1.262559
  C      1.567112    3.246662    1.251461
  C      2.304327    2.548044    2.350077
  O      1.905414    2.351727    3.482565
  C      3.610234    2.138529    1.769320
  C      4.472642    1.376990    2.509574
  C      5.759574    0.833036    2.281950
  S      6.780400    1.145207    0.857045
  C      8.047909    0.169067    1.532384
  C      7.677126   -0.378655    2.780529
  C      6.393232   -0.016302    3.215881
  C      5.758052   -0.582187    4.456655
  C      5.013671   -1.894975    4.158701
  S      8.916897   -1.401877    3.507563
  C      9.936295   -1.086897    2.131017
  C      9.348536   -0.256583    1.164527
  N     10.237285   -0.067879    0.114801
  C     10.101207    1.108711   -0.747071
  C     10.240161    2.427951    0.010580
  C     11.396527   -0.800306    0.399513
  C     11.228473   -1.419879    1.677647
  C     12.271924   -2.183727    2.289807
  N     12.231530   -2.803352    3.460922
  S     13.720193   -3.496814    3.686563
  N     14.442676   -3.014774    2.275758
  C     13.544017   -2.304560    1.607821
  C     13.679928   -1.754002    0.294088
  C     12.599891   -1.067067   -0.349883
  N     12.959588   -0.858949   -1.683515
  C     12.123515   -0.513661   -2.831183
  C     12.439323    0.861409   -3.421038
  C     14.234301   -1.368142   -1.870969
  C     14.701518   -1.908485   -0.662718
  S     16.250211   -2.696097   -0.794701
  C     16.248937   -2.336302   -2.523469
  C     15.115075   -1.614677   -2.953122
  S     15.158655   -1.309226   -4.660709
  C     16.693671   -2.203147   -4.800373
  C     17.139468   -2.687259   -3.550634
  C     18.409384   -3.450127   -3.297551
  C     19.566705   -2.532439   -2.878669
  C     17.367922   -2.472677   -6.016612
  C     17.133767   -2.130620   -7.321860
  C     17.989321   -2.687395   -8.402100
  O     18.945571   -3.427825   -8.275780
  C     17.424445   -2.162108   -9.686503
  C     17.820129   -2.418798  -10.992575
  C     17.109604   -1.800340  -12.029283
  Cl    17.564284   -2.122544  -13.671174
  C     16.032027   -0.928367  -11.746397
  Cl    15.172054   -0.160549  -13.041258
  C     15.642803   -0.679137  -10.424254
  C     16.343907   -1.313407   -9.406098
  C     16.106672   -1.263653   -7.925398
  O     15.226728   -0.624728   -7.371817
  H      2.503628    3.838677   -1.988825
  H     -0.321858    3.779081    2.164268
  H      4.065147    1.135896    3.497954
  H      5.068951    0.143996    4.912339
  H      6.549328   -0.764301    5.201621
  H      4.188608   -1.723326    3.450752
  H      4.592520   -2.329208    5.078523
  H      5.693377   -2.633937    3.707210
  H      9.122052    1.050074   -1.249654
  H     10.859560    1.050975   -1.526616
  H     11.219089    2.491621    0.510196
  H      9.455173    2.546774    0.771743
  H     10.151403    3.267809   -0.696116
  H     11.074335   -0.604467   -2.523573
  H     12.283731   -1.289118   -3.597963
  H     11.719135    1.107542   -4.215154
  H     13.445215    0.881135   -3.865664
  H     12.398751    1.650899   -2.655283
  H     18.695088   -4.035731   -4.183403
  H     18.211241   -4.182444   -2.497468
  H     19.827933   -1.835662   -3.689296
  H     20.460868   -3.123754   -2.628748
  H     19.293384   -1.933362   -1.996347
  H     18.252984   -3.111644   -5.905385
  H     18.656443   -3.083841  -11.211689
  H     14.806504   -0.013623  -10.207748

 Multiplicity           Mult            ....    1
 Number of Electrons    NEL             ....  510
 Basis Dimension        Dim             .... 1048

ORBITAL ENERGIES
----------------

  NO   OCC          E(Eh)            E(eV)
   0   2.0000    -101.523273     -2762.5887
   1   2.0000    -101.523179     -2762.5862
   2   2.0000    -101.522625     -2762.5711
   3   2.0000    -101.522305     -2762.5624
   4   2.0000     -88.931803     -2419.9574
   5   2.0000     -88.896330     -2418.9921
   6   2.0000     -88.896185     -2418.9882
   7   2.0000     -88.895332     -2418.9650
   8   2.0000     -88.894534     -2418.9432
   9   2.0000     -19.136319      -520.7257
  10   2.0000     -19.135461      -520.7024
  11   2.0000     -19.131212      -520.5868
  12   2.0000     -19.130791      -520.5753
  13   2.0000     -14.416036      -392.2803
  14   2.0000     -14.413399      -392.2085
  15   2.0000     -14.363192      -390.8423
  16   2.0000     -14.362898      -390.8343
  17   2.0000     -10.285482      -279.8822
  18   2.0000     -10.285149      -279.8731
  19   2.0000     -10.280878      -279.7569
  20   2.0000     -10.280215      -279.7389
  21   2.0000     -10.276805      -279.6461
  22   2.0000     -10.276507      -279.6380
  23   2.0000     -10.276387      -279.6347
  24   2.0000     -10.275999      -279.6242
  25   2.0000     -10.272450      -279.5276
  26   2.0000     -10.271614      -279.5048
  27   2.0000     -10.266954      -279.3780
  28   2.0000     -10.262680      -279.2617
  29   2.0000     -10.255026      -279.0534
  30   2.0000     -10.254344      -279.0349
  31   2.0000     -10.251607      -278.9604
  32   2.0000     -10.251351      -278.9534
  33   2.0000     -10.248021      -278.8628
  34   2.0000     -10.247868      -278.8587
  35   2.0000     -10.242765      -278.7198
  36   2.0000     -10.241919      -278.6968
  37   2.0000     -10.237324      -278.5718
  38   2.0000     -10.236838      -278.5585
  39   2.0000     -10.236764      -278.5565
  40   2.0000     -10.236679      -278.5542
  41   2.0000     -10.236631      -278.5529
  42   2.0000     -10.235056      -278.5100
  43   2.0000     -10.234370      -278.4914
  44   2.0000     -10.234003      -278.4814
  45   2.0000     -10.229044      -278.3465
  46   2.0000     -10.228741      -278.3382
  47   2.0000     -10.228685      -278.3367
  48   2.0000     -10.228047      -278.3193
  49   2.0000     -10.224872      -278.2329
  50   2.0000     -10.224118      -278.2124
  51   2.0000     -10.219273      -278.0806
  52   2.0000     -10.218985      -278.0727
  53   2.0000     -10.218642      -278.0634
  54   2.0000     -10.217862      -278.0422
  55   2.0000     -10.216924      -278.0166
  56   2.0000     -10.216173      -277.9962
  57   2.0000     -10.215555      -277.9794
  58   2.0000     -10.211086      -277.8578
  59   2.0000     -10.201869      -277.6070
  60   2.0000     -10.201425      -277.5949
  61   2.0000     -10.198595      -277.5179
  62   2.0000     -10.198593      -277.5178
  63   2.0000      -9.477306      -257.8906
  64   2.0000      -9.477219      -257.8882
  65   2.0000      -9.476933      -257.8805
  66   2.0000      -9.476542      -257.8698
  67   2.0000      -8.023218      -218.3229
  68   2.0000      -7.988858      -217.3879
  69   2.0000      -7.988642      -217.3820
  70   2.0000      -7.988570      -217.3800
  71   2.0000      -7.987917      -217.3623
  72   2.0000      -7.246556      -197.1888
  73   2.0000      -7.246469      -197.1864
  74   2.0000      -7.246163      -197.1781
  75   2.0000      -7.245832      -197.1691
  76   2.0000      -7.236635      -196.9188
  77   2.0000      -7.236549      -196.9165
  78   2.0000      -7.236269      -196.9089
  79   2.0000      -7.235909      -196.8991
  80   2.0000      -7.235881      -196.8983
  81   2.0000      -7.235816      -196.8966
  82   2.0000      -7.235483      -196.8875
  83   2.0000      -7.235048      -196.8757
  84   2.0000      -5.993578      -163.0936
  85   2.0000      -5.986419      -162.8988
  86   2.0000      -5.983450      -162.8180
  87   2.0000      -5.957345      -162.1076
  88   2.0000      -5.957205      -162.1038
  89   2.0000      -5.957165      -162.1027
  90   2.0000      -5.956632      -162.0882
  91   2.0000      -5.953516      -162.0034
  92   2.0000      -5.953307      -161.9977
  93   2.0000      -5.953061      -161.9910
  94   2.0000      -5.952830      -161.9847
  95   2.0000      -5.949491      -161.8939
  96   2.0000      -5.949247      -161.8872
  97   2.0000      -5.948625      -161.8703
  98   2.0000      -5.947876      -161.8499
  99   2.0000      -1.040222       -28.3059
 100   2.0000      -1.039368       -28.2826
 101   2.0000      -1.034167       -28.1411
 102   2.0000      -1.033489       -28.1227
 103   2.0000      -1.025578       -27.9074
 104   2.0000      -1.016577       -27.6625
 105   2.0000      -1.012322       -27.5467
 106   2.0000      -0.928658       -25.2701
 107   2.0000      -0.928201       -25.2576
 108   2.0000      -0.922236       -25.0953
 109   2.0000      -0.920897       -25.0589
 110   2.0000      -0.892530       -24.2870
 111   2.0000      -0.878114       -23.8947
 112   2.0000      -0.875210       -23.8157
 113   2.0000      -0.874340       -23.7920
 114   2.0000      -0.870685       -23.6925
 115   2.0000      -0.870579       -23.6897
 116   2.0000      -0.867076       -23.5943
 117   2.0000      -0.857246       -23.3268
 118   2.0000      -0.828064       -22.5328
 119   2.0000      -0.818730       -22.2788
 120   2.0000      -0.812575       -22.1113
 121   2.0000      -0.812230       -22.1019
 122   2.0000      -0.811415       -22.0797
 123   2.0000      -0.803209       -21.8564
 124   2.0000      -0.778580       -21.1863
 125   2.0000      -0.777112       -21.1463
 126   2.0000      -0.772958       -21.0332
 127   2.0000      -0.768165       -20.9028
 128   2.0000      -0.767773       -20.8922
 129   2.0000      -0.760635       -20.6979
 130   2.0000      -0.749908       -20.4060
 131   2.0000      -0.745757       -20.2931
 132   2.0000      -0.732062       -19.9204
 133   2.0000      -0.720618       -19.6090
 134   2.0000      -0.719242       -19.5716
 135   2.0000      -0.712510       -19.3884
 136   2.0000      -0.693037       -18.8585
 137   2.0000      -0.674823       -18.3629
 138   2.0000      -0.670845       -18.2546
 139   2.0000      -0.669355       -18.2141
 140   2.0000      -0.651140       -17.7184
 141   2.0000      -0.648490       -17.6463
 142   2.0000      -0.647996       -17.6329
 143   2.0000      -0.646953       -17.6045
 144   2.0000      -0.641569       -17.4580
 145   2.0000      -0.639328       -17.3970
 146   2.0000      -0.627483       -17.0747
 147   2.0000      -0.622972       -16.9519
 148   2.0000      -0.607990       -16.5442
 149   2.0000      -0.596764       -16.2388
 150   2.0000      -0.584179       -15.8963
 151   2.0000      -0.579352       -15.7650
 152   2.0000      -0.576133       -15.6774
 153   2.0000      -0.574279       -15.6269
 154   2.0000      -0.565664       -15.3925
 155   2.0000      -0.559344       -15.2205
 156   2.0000      -0.551093       -14.9960
 157   2.0000      -0.541689       -14.7401
 158   2.0000      -0.538484       -14.6529
 159   2.0000      -0.533628       -14.5207
 160   2.0000      -0.528250       -14.3744
 161   2.0000      -0.522146       -14.2083
 162   2.0000      -0.518321       -14.1042
 163   2.0000      -0.513087       -13.9618
 164   2.0000      -0.512764       -13.9530
 165   2.0000      -0.503125       -13.6907
 166   2.0000      -0.501587       -13.6489
 167   2.0000      -0.498148       -13.5553
 168   2.0000      -0.488505       -13.2929
 169   2.0000      -0.486446       -13.2369
 170   2.0000      -0.482730       -13.1357
 171   2.0000      -0.481434       -13.1005
 172   2.0000      -0.478183       -13.0120
 173   2.0000      -0.474900       -12.9227
 174   2.0000      -0.472701       -12.8628
 175   2.0000      -0.469461       -12.7747
 176   2.0000      -0.467343       -12.7171
 177   2.0000      -0.466470       -12.6933
 178   2.0000      -0.460473       -12.5301
 179   2.0000      -0.458577       -12.4785
 180   2.0000      -0.458174       -12.4675
 181   2.0000      -0.457342       -12.4449
 182   2.0000      -0.455883       -12.4052
 183   2.0000      -0.454384       -12.3644
 184   2.0000      -0.453416       -12.3381
 185   2.0000      -0.450185       -12.2502
 186   2.0000      -0.444093       -12.0844
 187   2.0000      -0.443812       -12.0767
 188   2.0000      -0.441523       -12.0145
 189   2.0000      -0.440905       -11.9976
 190   2.0000      -0.436618       -11.8810
 191   2.0000      -0.431535       -11.7427
 192   2.0000      -0.430148       -11.7049
 193   2.0000      -0.427146       -11.6232
 194   2.0000      -0.423489       -11.5237
 195   2.0000      -0.422960       -11.5093
 196   2.0000      -0.418745       -11.3946
 197   2.0000      -0.417458       -11.3596
 198   2.0000      -0.417156       -11.3514
 199   2.0000      -0.415405       -11.3038
 200   2.0000      -0.414316       -11.2741
 201   2.0000      -0.411954       -11.2098
 202   2.0000      -0.409896       -11.1538
 203   2.0000      -0.407522       -11.0892
 204   2.0000      -0.404236       -10.9998
 205   2.0000      -0.402447       -10.9511
 206   2.0000      -0.397581       -10.8187
 207   2.0000      -0.396865       -10.7992
 208   2.0000      -0.394925       -10.7465
 209   2.0000      -0.394192       -10.7265
 210   2.0000      -0.393725       -10.7138
 211   2.0000      -0.393375       -10.7043
 212   2.0000      -0.391417       -10.6510
 213   2.0000      -0.391129       -10.6432
 214   2.0000      -0.386253       -10.5105
 215   2.0000      -0.385180       -10.4813
 216   2.0000      -0.379404       -10.3241
 217   2.0000      -0.365881        -9.9561
 218   2.0000      -0.365441        -9.9441
 219   2.0000      -0.364918        -9.9299
 220   2.0000      -0.363697        -9.8967
 221   2.0000      -0.359527        -9.7832
 222   2.0000      -0.359523        -9.7831
 223   2.0000      -0.357441        -9.7265
 224   2.0000      -0.352460        -9.5909
 225   2.0000      -0.351342        -9.5605
 226   2.0000      -0.348830        -9.4921
 227   2.0000      -0.343614        -9.3502
 228   2.0000      -0.342565        -9.3217
 229   2.0000      -0.339335        -9.2338
 230   2.0000      -0.339005        -9.2248
 231   2.0000      -0.338185        -9.2025
 232   2.0000      -0.334068        -9.0905
 233   2.0000      -0.331959        -9.0331
 234   2.0000      -0.316029        -8.5996
 235   2.0000      -0.315724        -8.5913
 236   2.0000      -0.314276        -8.5519
 237   2.0000      -0.309129        -8.4118
 238   2.0000      -0.306097        -8.3293
 239   2.0000      -0.292082        -7.9480
 240   2.0000      -0.281224        -7.6525
 241   2.0000      -0.280337        -7.6283
 242   2.0000      -0.280153        -7.6234
 243   2.0000      -0.280027        -7.6199
 244   2.0000      -0.279252        -7.5988
 245   2.0000      -0.270238        -7.3536
 246   2.0000      -0.266848        -7.2613
 247   2.0000      -0.261709        -7.1215
 248   2.0000      -0.258725        -7.0403
 249   2.0000      -0.255251        -6.9457
 250   2.0000      -0.254817        -6.9339
 251   2.0000      -0.239379        -6.5138
 252   2.0000      -0.233011        -6.3405
 253   2.0000      -0.230012        -6.2589
 254   2.0000      -0.202337        -5.5059
 255   0.0000      -0.118811        -3.2330
 256   0.0000      -0.106099        -2.8871
 257   0.0000      -0.086975        -2.3667
 258   0.0000      -0.086527        -2.3545
 259   0.0000      -0.084471        -2.2986

MULLIKEN ATOMIC CHARGES
-----------------------
   0 C :    0.173288
   1 O :   -0.182136
   2 C :   -0.003371
   3 C :   -0.029540
   4 C :    0.058052
   5 Cl:   -0.057747
   6 C :    0.062682
   7 Cl:   -0.054282
   8 C :   -0.029796
   9 C :    0.024397
  10 C :    0.152152
  11 O :   -0.174727
  12 C :   -0.152529
  13 C :   -0.041291
  14 C :   -0.081016
  15 S :    0.197101
  16 C :   -0.054600
  17 C :   -0.083611
  18 C :   -0.051829
  19 C :    0.053209
  20 C :    0.021185
  21 S :    0.186518
  22 C :   -0.083091
  23 C :    0.047726
  24 N :   -0.210061
  25 C :    0.112425
  26 C :    0.001347
  27 C :    0.070226
  28 C :   -0.049010
  29 C :    0.011625
  30 N :   -0.286260
  31 S :    0.446819
  32 N :   -0.283218
  33 C :    0.002263
  34 C :   -0.045335
  35 C :    0.062698
  36 N :   -0.209424
  37 C :    0.081112
  38 C :    0.003994
  39 C :    0.057072
  40 C :   -0.088383
  41 S :    0.188150
  42 C :   -0.088868
  43 C :   -0.045823
  44 S :    0.187104
  45 C :   -0.075408
  46 C :   -0.046794
  47 C :    0.056832
  48 C :    0.021601
  49 C :   -0.048935
  50 C :   -0.152503
  51 C :    0.151918
  52 O :   -0.174311
  53 C :    0.022496
  54 C :   -0.026012
  55 C :    0.059220
  56 Cl:   -0.055778
  57 C :    0.057189
  58 Cl:   -0.053829
  59 C :   -0.026527
  60 C :   -0.002793
  61 C :    0.176025
  62 O :   -0.188018
  63 H :   -0.006360
  64 H :   -0.005959
  65 H :   -0.000607
  66 H :    0.025198
  67 H :    0.013321
  68 H :    0.021620
  69 H :    0.024453
  70 H :    0.020152
  71 H :    0.033248
  72 H :   -0.008703
  73 H :    0.026777
  74 H :    0.041384
  75 H :    0.031019
  76 H :    0.036610
  77 H :    0.039612
  78 H :    0.037002
  79 H :    0.034665
  80 H :    0.035177
  81 H :    0.021012
  82 H :    0.014674
  83 H :    0.020496
  84 H :    0.024436
  85 H :    0.019336
  86 H :    0.003516
  87 H :   -0.003627
  88 H :   -0.008024
Sum of atomic charges:    0.0000000

LOEWDIN ATOMIC CHARGES
----------------------
   0 C :    0.069725
   1 O :   -0.168813
   2 C :   -0.040299
   3 C :   -0.008729
   4 C :   -0.129650
   5 Cl:    0.144671
   6 C :   -0.129711
   7 Cl:    0.146057
   8 C :   -0.006157
   9 C :   -0.042195
  10 C :    0.073521
  11 O :   -0.159568
  12 C :   -0.139602
  13 C :    0.043384
  14 C :   -0.177503
  15 S :    0.454759
  16 C :   -0.199236
  17 C :   -0.189523
  18 C :   -0.022697
  19 C :   -0.028353
  20 C :   -0.044116
  21 S :    0.420159
  22 C :   -0.166779
  23 C :   -0.033130
  24 N :    0.026564
  25 C :    0.040484
  26 C :   -0.058531
  27 C :    0.012288
  28 C :   -0.073135
  29 C :   -0.052795
  30 N :   -0.280749
  31 S :    0.576370
  32 N :   -0.281292
  33 C :   -0.051659
  34 C :   -0.075672
  35 C :    0.014587
  36 N :    0.033756
  37 C :    0.039831
  38 C :   -0.062080
  39 C :   -0.033133
  40 C :   -0.167689
  41 S :    0.418936
  42 C :   -0.189501
  43 C :   -0.199605
  44 S :    0.457302
  45 C :   -0.176631
  46 C :   -0.021912
  47 C :   -0.028069
  48 C :   -0.044131
  49 C :    0.043147
  50 C :   -0.140215
  51 C :    0.073444
  52 O :   -0.158660
  53 C :   -0.041768
  54 C :   -0.006514
  55 C :   -0.129735
  56 Cl:    0.145495
  57 C :   -0.130216
  58 Cl:    0.145454
  59 C :   -0.007732
  60 C :   -0.040357
  61 C :    0.069748
  62 O :   -0.171308
  63 H :    0.042325
  64 H :    0.043284
  65 H :    0.044452
  66 H :    0.034364
  67 H :    0.030684
  68 H :    0.027157
  69 H :    0.028720
  70 H :    0.025986
  71 H :    0.029947
  72 H :    0.026695
  73 H :    0.030773
  74 H :    0.027475
  75 H :    0.035905
  76 H :    0.029393
  77 H :    0.033035
  78 H :    0.038290
  79 H :    0.028747
  80 H :    0.025804
  81 H :    0.033451
  82 H :    0.031546
  83 H :    0.027130
  84 H :    0.028781
  85 H :    0.024719
  86 H :    0.045062
  87 H :    0.043751
  88 H :    0.041988

  Mayer bond orders larger than 0.100000
B(  0-C ,  1-O ) :   2.1629 B(  0-C ,  2-C ) :   0.9238 B(  0-C , 12-C ) :   0.9785
B(  2-C ,  3-C ) :   1.3292 B(  2-C ,  9-C ) :   1.3390 B(  3-C ,  4-C ) :   1.3410
B(  3-C , 63-H ) :   1.0048 B(  4-C ,  5-Cl) :   1.0323 B(  4-C ,  6-C ) :   1.3924
B(  6-C ,  7-Cl) :   1.0388 B(  6-C ,  8-C ) :   1.3345 B(  8-C ,  9-C ) :   1.3328
B(  8-C , 64-H ) :   1.0067 B(  9-C , 10-C ) :   0.9113 B( 10-C , 11-O ) :   2.1758
B( 10-C , 12-C ) :   0.9833 B( 12-C , 13-C ) :   1.5597 B( 13-C , 14-C ) :   1.2451
B( 13-C , 65-H ) :   0.9226 B( 14-C , 15-S ) :   1.0432 B( 14-C , 18-C ) :   1.3666
B( 15-S , 16-C ) :   1.0328 B( 16-C , 17-C ) :   1.3890 B( 16-C , 23-C ) :   1.3051
B( 17-C , 18-C ) :   1.3895 B( 17-C , 21-S ) :   1.0258 B( 18-C , 19-C ) :   1.0949
B( 19-C , 20-C ) :   1.1057 B( 19-C , 66-H ) :   0.9061 B( 19-C , 67-H ) :   0.9134
B( 20-C , 68-H ) :   0.9672 B( 20-C , 69-H ) :   0.9638 B( 20-C , 70-H ) :   0.9673
B( 21-S , 22-C ) :   1.0309 B( 22-C , 23-C ) :   1.3835 B( 22-C , 28-C ) :   1.3529
B( 23-C , 24-N ) :   1.1388 B( 24-N , 25-C ) :   0.9457 B( 24-N , 27-C ) :   1.1417
B( 25-C , 26-C ) :   1.1174 B( 25-C , 71-H ) :   0.9332 B( 25-C , 72-H ) :   0.9418
B( 26-C , 73-H ) :   0.9629 B( 26-C , 74-H ) :   0.9591 B( 26-C , 75-H ) :   0.9592
B( 27-C , 28-C ) :   1.3557 B( 27-C , 35-C ) :   1.1358 B( 28-C , 29-C ) :   1.1172
B( 29-C , 30-N ) :   1.6069 B( 29-C , 33-C ) :   1.1052 B( 30-N , 31-S ) :   1.1931
B( 30-N , 32-N ) :   0.1372 B( 31-S , 32-N ) :   1.1950 B( 32-N , 33-C ) :   1.6061
B( 33-C , 34-C ) :   1.1264 B( 34-C , 35-C ) :   1.3322 B( 34-C , 40-C ) :   1.3565
B( 35-C , 36-N ) :   1.1662 B( 36-N , 37-C ) :   0.9404 B( 36-N , 39-C ) :   1.1353
B( 37-C , 38-C ) :   1.1067 B( 37-C , 76-H ) :   0.9474 B( 37-C , 77-H ) :   0.9374
B( 38-C , 78-H ) :   0.9629 B( 38-C , 79-H ) :   0.9479 B( 38-C , 80-H ) :   0.9556
B( 39-C , 40-C ) :   1.3726 B( 39-C , 43-C ) :   1.2949 B( 40-C , 41-S ) :   1.0337
B( 41-S , 42-C ) :   1.0276 B( 42-C , 43-C ) :   1.3844 B( 42-C , 46-C ) :   1.3940
B( 43-C , 44-S ) :   1.0373 B( 44-S , 45-C ) :   1.0427 B( 45-C , 46-C ) :   1.3677
B( 45-C , 49-C ) :   1.2468 B( 46-C , 47-C ) :   1.0822 B( 47-C , 48-C ) :   1.1034
B( 47-C , 81-H ) :   0.9096 B( 47-C , 82-H ) :   0.9162 B( 48-C , 83-H ) :   0.9673
B( 48-C , 84-H ) :   0.9648 B( 48-C , 85-H ) :   0.9684 B( 49-C , 50-C ) :   1.5554
B( 49-C , 86-H ) :   0.9259 B( 50-C , 51-C ) :   0.9841 B( 50-C , 61-C ) :   0.9789
B( 51-C , 52-O ) :   2.1774 B( 51-C , 53-C ) :   0.9099 B( 53-C , 54-C ) :   1.3330
B( 53-C , 60-C ) :   1.3430 B( 54-C , 55-C ) :   1.3362 B( 54-C , 87-H ) :   1.0075
B( 55-C , 56-Cl) :   1.0348 B( 55-C , 57-C ) :   1.3934 B( 57-C , 58-Cl) :   1.0385
B( 57-C , 59-C ) :   1.3393 B( 59-C , 60-C ) :   1.3221 B( 59-C , 88-H ) :   1.0087
B( 60-C , 61-C ) :   0.9304 B( 61-C , 62-O ) :   2.1491

Dispersion correction           -0.273428457
FINAL SINGLE POINT ENERGY     -6117.759735138437

DIPOLE MOMENT
-------------
                                X             Y             Z
Electronic contribution:    -28.93191      13.44009     -46.88786
Nuclear contribution   :     29.32584     -13.36528      47.32191
                        -----------------------------------------
Total Dipole Moment    :      0.39393       0.07480       0.43406
                        -----------------------------------------
Magnitude (a.u.)       :      0.59092
Magnitude (Debye)      :      1.50199

Rotational constants in cm-1:     0.001068     0.000307     0.000242
Rotational constants in MHz :    32.003001     9.198713     7.240563

                             ****ORCA TERMINATED NORMALLY****
TOTAL RUN TIME: 0 days 5 hours 46 minutes 25 seconds 394 msec
