                         Program Version 4.2.0 -  RELEASE  -
|  1> # ORCA input file
|  2> # P3HT_olig.out
|  3> ! B3LYP def2-TZVP def2/J RIJCOSX Grid4 TightSCF
|  4> %maxcore 1000
|  5> %tddft
|  6>   maxdim 5
|  7>   nroots 50
|  8>   end
|  9> * xyz 0 1
| 10>    C        0.50514        -0.17100         0.03289
| 11>    C       -0.84651        -0.47416         0.01854
| 12>    C       -1.65755         0.68218         0.01385
| 13>    C       -0.97186         1.85567         0.02502
| 14>    S        0.73226         1.56783         0.04159
| 15>    C       -1.40118        -1.86587         0.00779
| 16>    C       -2.92262        -1.94129        -0.03234
| 17>    C        1.63662        -1.04262         0.04169
| 18>    C        2.99292        -0.73835         0.03161
| 19>    C        3.80298        -1.88290         0.04676
| 20>    C        3.11352        -3.06985         0.06550
| 21>    S        1.40329        -2.77787         0.06921
| 22>    C        3.54489         0.65467         0.00024
| 23>    C        5.06634         0.72638        -0.04666
| 24>    C        6.22079        -7.30245         0.04514
| 25>    C        7.58032        -7.00424         0.02120
| 26>    C        8.38424        -8.15142         0.02322
| 27>    C        7.69014        -9.33634         0.04561
| 28>    S        5.98160        -9.03856         0.07081
| 29>    C        8.13790        -5.61412        -0.01226
| 30>    C        9.65856        -5.54924        -0.08858
| 31>    C       10.81754       -13.55426        -0.02465
| 32>    C       12.16860       -13.24938        -0.05149
| 33>    C       12.98096       -14.40472        -0.06570
| 34>    C       12.29682       -15.57906        -0.04978
| 35>    S       10.59258       -15.29336        -0.01626
| 36>    C       12.72132       -11.85692        -0.06532
| 37>    C       14.24224       -11.77952        -0.11926
| 38>    C        5.09836        -6.42599         0.05129
| 39>    C        3.73842        -6.72408         0.04176
| 40>    C        2.93485        -5.57674         0.05289
| 41>    C        3.62988        -4.39202         0.06825
| 42>    S        5.33851        -4.69011         0.07384
| 43>    C        3.18012        -8.11402         0.01404
| 44>    C        1.65877        -8.17908        -0.04565
| 45>    C        9.68527       -12.68389        -0.00388
| 46>    C        8.32917       -12.98953        -0.00106
| 47>    C        7.51825       -11.84575         0.02355
| 48>    C        8.20702       -10.65819         0.03646
| 49>    S        9.91744       -10.94854         0.02227
| 50>    C        7.77832       -14.38306        -0.02866
| 51>    C        6.25659       -14.45641        -0.06164
| 52>    C       12.83423       -16.96495        -0.06019
| 53>    C       -1.50772         3.24221         0.02160
| 54>    H       -2.73145         0.65152         0.00202
| 55>    H       -1.04470        -2.39456         0.89803
| 56>    H       -0.99865        -2.39928        -0.85957
| 57>    H       -3.35928        -1.46762         0.84375
| 58>    H       -3.23259        -2.98384        -0.04427
| 59>    H       -3.31227        -1.46090        -0.92681
| 60>    H        4.87718        -1.86432         0.04160
| 61>    H        3.19136         1.19576         0.88386
| 62>    H        3.13978         1.17455        -0.87381
| 63>    H        5.50523         0.26730         0.83595
| 64>    H        5.37861         1.76770        -0.07939
| 65>    H        5.45119         0.22745        -0.93302
| 66>    H        9.45857        -8.13789         0.00596
| 67>    H        7.80353        -5.07703         0.88134
| 68>    H        7.71804        -5.08726        -0.87516
| 69>    H       10.11266        -6.01322         0.78377
| 70>    H        9.97518        -4.50929        -0.12425
| 71>    H       10.02339        -6.04719        -0.98392
| 72>    H       14.05466       -14.37270        -0.08779
| 73>    H       12.37235       -11.33001         0.82895
| 74>    H       12.31006       -11.32277        -0.92812
| 75>    H       14.68759       -12.25407         0.75197
| 76>    H       14.55073       -10.73655        -0.13227
| 77>    H       14.62431       -12.25788        -1.01808
| 78>    H        1.86031        -5.59002         0.04688
| 79>    H        3.52426        -8.65120         0.90388
| 80>    H        3.59027        -8.64086        -0.85352
| 81>    H        1.21429        -7.71520         0.83169
| 82>    H        1.34186        -9.21907        -0.07797
| 83>    H        1.28418        -7.68104        -0.93690
| 84>    H        6.44400       -11.86534         0.02900
| 85>    H        8.14059       -14.92457         0.85116
| 86>    H        8.17584       -14.90174        -0.90688
| 87>    H        5.82530       -13.99886         0.82549
| 88>    H        5.94512       -15.49803        -0.09279
| 89>    H        5.86312       -13.95681        -0.94384
| 90>    H       13.92121       -16.94151        -0.08208
| 91>    H       12.47613       -17.51008        -0.93344
| 92>    H       12.51143       -17.51006         0.82666
| 93>    H       -2.59494         3.22007         0.01441
| 94>    H       -1.16092         3.78670        -0.85662
| 95>    H       -1.17224         3.78718         0.90380
| 96> *
| 97>
| 98>                          ****END OF INPUT****

CARTESIAN COORDINATES (ANGSTROEM)
---------------------------------
  C      0.505140   -0.171000    0.032890
  C     -0.846510   -0.474160    0.018540
  C     -1.657550    0.682180    0.013850
  C     -0.971860    1.855670    0.025020
  S      0.732260    1.567830    0.041590
  C     -1.401180   -1.865870    0.007790
  C     -2.922620   -1.941290   -0.032340
  C      1.636620   -1.042620    0.041690
  C      2.992920   -0.738350    0.031610
  C      3.802980   -1.882900    0.046760
  C      3.113520   -3.069850    0.065500
  S      1.403290   -2.777870    0.069210
  C      3.544890    0.654670    0.000240
  C      5.066340    0.726380   -0.046660
  C      6.220790   -7.302450    0.045140
  C      7.580320   -7.004240    0.021200
  C      8.384240   -8.151420    0.023220
  C      7.690140   -9.336340    0.045610
  S      5.981600   -9.038560    0.070810
  C      8.137900   -5.614120   -0.012260
  C      9.658560   -5.549240   -0.088580
  C     10.817540  -13.554260   -0.024650
  C     12.168600  -13.249380   -0.051490
  C     12.980960  -14.404720   -0.065700
  C     12.296820  -15.579060   -0.049780
  S     10.592580  -15.293360   -0.016260
  C     12.721320  -11.856920   -0.065320
  C     14.242240  -11.779520   -0.119260
  C      5.098360   -6.425990    0.051290
  C      3.738420   -6.724080    0.041760
  C      2.934850   -5.576740    0.052890
  C      3.629880   -4.392020    0.068250
  S      5.338510   -4.690110    0.073840
  C      3.180120   -8.114020    0.014040
  C      1.658770   -8.179080   -0.045650
  C      9.685270  -12.683890   -0.003880
  C      8.329170  -12.989530   -0.001060
  C      7.518250  -11.845750    0.023550
  C      8.207020  -10.658190    0.036460
  S      9.917440  -10.948540    0.022270
  C      7.778320  -14.383060   -0.028660
  C      6.256590  -14.456410   -0.061640
  C     12.834230  -16.964950   -0.060190
  C     -1.507720    3.242210    0.021600
  H     -2.731450    0.651520    0.002020
  H     -1.044700   -2.394560    0.898030
  H     -0.998650   -2.399280   -0.859570
  H     -3.359280   -1.467620    0.843750
  H     -3.232590   -2.983840   -0.044270
  H     -3.312270   -1.460900   -0.926810
  H      4.877180   -1.864320    0.041600
  H      3.191360    1.195760    0.883860
  H      3.139780    1.174550   -0.873810
  H      5.505230    0.267300    0.835950
  H      5.378610    1.767700   -0.079390
  H      5.451190    0.227450   -0.933020
  H      9.458570   -8.137890    0.005960
  H      7.803530   -5.077030    0.881340
  H      7.718040   -5.087260   -0.875160
  H     10.112660   -6.013220    0.783770
  H      9.975180   -4.509290   -0.124250
  H     10.023390   -6.047190   -0.983920
  H     14.054660  -14.372700   -0.087790
  H     12.372350  -11.330010    0.828950
  H     12.310060  -11.322770   -0.928120
  H     14.687590  -12.254070    0.751970
  H     14.550730  -10.736550   -0.132270
  H     14.624310  -12.257880   -1.018080
  H      1.860310   -5.590020    0.046880
  H      3.524260   -8.651200    0.903880
  H      3.590270   -8.640860   -0.853520
  H      1.214290   -7.715200    0.831690
  H      1.341860   -9.219070   -0.077970
  H      1.284180   -7.681040   -0.936900
  H      6.444000  -11.865340    0.029000
  H      8.140590  -14.924570    0.851160
  H      8.175840  -14.901740   -0.906880
  H      5.825300  -13.998860    0.825490
  H      5.945120  -15.498030   -0.092790
  H      5.863120  -13.956810   -0.943840
  H     13.921210  -16.941510   -0.082080
  H     12.476130  -17.510080   -0.933440
  H     12.511430  -17.510060    0.826660
  H     -2.594940    3.220070    0.014410
  H     -1.160920    3.786700   -0.856620
  H     -1.172240    3.787180    0.903800

 Total Charge           Charge          ....    0
 Multiplicity           Mult            ....    1
 Number of Electrons    NEL             ....  366
 Basis Dimension        Dim             .... 1652

ORBITAL ENERGIES
----------------

  NO   OCC          E(Eh)            E(eV)
   0   2.0000     -88.873393     -2418.3680
   1   2.0000     -88.873365     -2418.3672
   2   2.0000     -88.872803     -2418.3519
   3   2.0000     -88.872796     -2418.3517
   4   2.0000     -88.870484     -2418.2888
   5   2.0000     -88.870479     -2418.2887
   6   2.0000     -10.204489      -277.6783
   7   2.0000     -10.204045      -277.6662
   8   2.0000     -10.203403      -277.6487
   9   2.0000     -10.203395      -277.6485
  10   2.0000     -10.200707      -277.5753
  11   2.0000     -10.200705      -277.5753
  12   2.0000     -10.200153      -277.5603
  13   2.0000     -10.200131      -277.5597
  14   2.0000     -10.199149      -277.5330
  15   2.0000     -10.199146      -277.5329
  16   2.0000     -10.194884      -277.4169
  17   2.0000     -10.194876      -277.4167
  18   2.0000     -10.177767      -276.9511
  19   2.0000     -10.177733      -276.9502
  20   2.0000     -10.176543      -276.9178
  21   2.0000     -10.176526      -276.9173
  22   2.0000     -10.174542      -276.8634
  23   2.0000     -10.174538      -276.8633
  24   2.0000     -10.174356      -276.8583
  25   2.0000     -10.174355      -276.8583
  26   2.0000     -10.172071      -276.7961
  27   2.0000     -10.172061      -276.7959
  28   2.0000     -10.171244      -276.7736
  29   2.0000     -10.171228      -276.7732
  30   2.0000     -10.171153      -276.7711
  31   2.0000     -10.171146      -276.7710
  32   2.0000     -10.165956      -276.6297
  33   2.0000     -10.165915      -276.6286
  34   2.0000     -10.165582      -276.6196
  35   2.0000     -10.165544      -276.6185
  36   2.0000     -10.162179      -276.5270
  37   2.0000     -10.162168      -276.5267
  38   2.0000     -10.159405      -276.4515
  39   2.0000     -10.159393      -276.4511
  40   2.0000     -10.159323      -276.4492
  41   2.0000     -10.159322      -276.4492
  42   2.0000     -10.158724      -276.4329
  43   2.0000     -10.158718      -276.4328
  44   2.0000      -7.950416      -216.3418
  45   2.0000      -7.950384      -216.3410
  46   2.0000      -7.949844      -216.3262
  47   2.0000      -7.949833      -216.3259
  48   2.0000      -7.947552      -216.2639
  49   2.0000      -7.947546      -216.2637
  50   2.0000      -5.912925      -160.8989
  51   2.0000      -5.912894      -160.8980
  52   2.0000      -5.912323      -160.8825
  53   2.0000      -5.912312      -160.8822
  54   2.0000      -5.910033      -160.8202
  55   2.0000      -5.910027      -160.8200
  56   2.0000      -5.909081      -160.7943
  57   2.0000      -5.909051      -160.7935
  58   2.0000      -5.908500      -160.7784
  59   2.0000      -5.908489      -160.7782
  60   2.0000      -5.906897      -160.7349
  61   2.0000      -5.906865      -160.7340
  62   2.0000      -5.906361      -160.7203
  63   2.0000      -5.906350      -160.7200
  64   2.0000      -5.906062      -160.7121
  65   2.0000      -5.906056      -160.7120
  66   2.0000      -5.904250      -160.6628
  67   2.0000      -5.904245      -160.6627
  68   2.0000      -0.901703       -24.5366
  69   2.0000      -0.896886       -24.4055
  70   2.0000      -0.890579       -24.2339
  71   2.0000      -0.880534       -23.9605
  72   2.0000      -0.871081       -23.7033
  73   2.0000      -0.863239       -23.4899
  74   2.0000      -0.803323       -21.8595
  75   2.0000      -0.801040       -21.7974
  76   2.0000      -0.796661       -21.6782
  77   2.0000      -0.796478       -21.6733
  78   2.0000      -0.786893       -21.4125
  79   2.0000      -0.782348       -21.2888
  80   2.0000      -0.773858       -21.0577
  81   2.0000      -0.771448       -20.9922
  82   2.0000      -0.762076       -20.7372
  83   2.0000      -0.738418       -20.0934
  84   2.0000      -0.732542       -19.9335
  85   2.0000      -0.724575       -19.7167
  86   2.0000      -0.718121       -19.5411
  87   2.0000      -0.716688       -19.5021
  88   2.0000      -0.713539       -19.4164
  89   2.0000      -0.712165       -19.3790
  90   2.0000      -0.705526       -19.1983
  91   2.0000      -0.689579       -18.7644
  92   2.0000      -0.674385       -18.3510
  93   2.0000      -0.673460       -18.3258
  94   2.0000      -0.637590       -17.3497
  95   2.0000      -0.635904       -17.3038
  96   2.0000      -0.633606       -17.2413
  97   2.0000      -0.632351       -17.2072
  98   2.0000      -0.630357       -17.1529
  99   2.0000      -0.604418       -16.4470
 100   2.0000      -0.592361       -16.1190
 101   2.0000      -0.579338       -15.7646
 102   2.0000      -0.568334       -15.4652
 103   2.0000      -0.560451       -15.2507
 104   2.0000      -0.552043       -15.0219
 105   2.0000      -0.546189       -14.8626
 106   2.0000      -0.534515       -14.5449
 107   2.0000      -0.526024       -14.3138
 108   2.0000      -0.519036       -14.1237
 109   2.0000      -0.514975       -14.0132
 110   2.0000      -0.505001       -13.7418
 111   2.0000      -0.503703       -13.7064
 112   2.0000      -0.498166       -13.5558
 113   2.0000      -0.490761       -13.3543
 114   2.0000      -0.471545       -12.8314
 115   2.0000      -0.461460       -12.5570
 116   2.0000      -0.460603       -12.5336
 117   2.0000      -0.460345       -12.5266
 118   2.0000      -0.458287       -12.4706
 119   2.0000      -0.456452       -12.4207
 120   2.0000      -0.455787       -12.4026
 121   2.0000      -0.455775       -12.4023
 122   2.0000      -0.447825       -12.1859
 123   2.0000      -0.444210       -12.0876
 124   2.0000      -0.429996       -11.7008
 125   2.0000      -0.429988       -11.7006
 126   2.0000      -0.426988       -11.6189
 127   2.0000      -0.425766       -11.5857
 128   2.0000      -0.421795       -11.4776
 129   2.0000      -0.418267       -11.3816
 130   2.0000      -0.416433       -11.3317
 131   2.0000      -0.416162       -11.3244
 132   2.0000      -0.411683       -11.2025
 133   2.0000      -0.411374       -11.1940
 134   2.0000      -0.406597       -11.0641
 135   2.0000      -0.401210       -10.9175
 136   2.0000      -0.400721       -10.9042
 137   2.0000      -0.399008       -10.8576
 138   2.0000      -0.394383       -10.7317
 139   2.0000      -0.393804       -10.7160
 140   2.0000      -0.393188       -10.6992
 141   2.0000      -0.391621       -10.6565
 142   2.0000      -0.383406       -10.4330
 143   2.0000      -0.380370       -10.3504
 144   2.0000      -0.380280       -10.3479
 145   2.0000      -0.379042       -10.3142
 146   2.0000      -0.376398       -10.2423
 147   2.0000      -0.368271       -10.0212
 148   2.0000      -0.364439        -9.9169
 149   2.0000      -0.364061        -9.9066
 150   2.0000      -0.363658        -9.8956
 151   2.0000      -0.362078        -9.8527
 152   2.0000      -0.360691        -9.8149
 153   2.0000      -0.360664        -9.8142
 154   2.0000      -0.359304        -9.7772
 155   2.0000      -0.359059        -9.7705
 156   2.0000      -0.358787        -9.7631
 157   2.0000      -0.355359        -9.6698
 158   2.0000      -0.346361        -9.4250
 159   2.0000      -0.345335        -9.3971
 160   2.0000      -0.345322        -9.3967
 161   2.0000      -0.344848        -9.3838
 162   2.0000      -0.343861        -9.3569
 163   2.0000      -0.339628        -9.2417
 164   2.0000      -0.336116        -9.1462
 165   2.0000      -0.324770        -8.8374
 166   2.0000      -0.320920        -8.7327
 167   2.0000      -0.316809        -8.6208
 168   2.0000      -0.316790        -8.6203
 169   2.0000      -0.312648        -8.5076
 170   2.0000      -0.311403        -8.4737
 171   2.0000      -0.298734        -8.1290
 172   2.0000      -0.275952        -7.5090
 173   2.0000      -0.256482        -6.9792
 174   2.0000      -0.251114        -6.8332
 175   2.0000      -0.248625        -6.7654
 176   2.0000      -0.245261        -6.6739
 177   2.0000      -0.244258        -6.6466
 178   2.0000      -0.240805        -6.5526
 179   2.0000      -0.239842        -6.5264
 180   2.0000      -0.215474        -5.8633
 181   2.0000      -0.186092        -5.0638
 182   2.0000      -0.160752        -4.3743
 183   0.0000      -0.070724        -1.9245
 184   0.0000      -0.047183        -1.2839
 185   0.0000      -0.021476        -0.5844
 186   0.0000      -0.005260        -0.1431
 187   0.0000       0.014506         0.3947

MULLIKEN ATOMIC CHARGES
-----------------------
   0 C :   -0.051538
   1 C :    0.031972
   2 C :   -0.238358
   3 C :    0.044077
   4 S :   -0.022818
   5 C :   -0.152154
   6 C :   -0.350681
   7 C :    0.119887
   8 C :    0.116701
   9 C :   -0.286086
  10 C :   -0.006173
  11 S :   -0.069587
  12 C :   -0.162069
  13 C :   -0.347916
  14 C :    0.051939
  15 C :    0.093383
  16 C :   -0.265995
  17 C :    0.034620
  18 S :   -0.067459
  19 C :   -0.163676
  20 C :   -0.352697
  21 C :   -0.056550
  22 C :    0.038315
  23 C :   -0.242658
  24 C :    0.046028
  25 S :   -0.021212
  26 C :   -0.151743
  27 C :   -0.350577
  28 C :    0.024517
  29 C :    0.093716
  30 C :   -0.265274
  31 C :    0.076935
  32 S :   -0.067316
  33 C :   -0.162606
  34 C :   -0.352915
  35 C :    0.116655
  36 C :    0.113906
  37 C :   -0.282974
  38 C :    0.037052
  39 S :   -0.070980
  40 C :   -0.161581
  41 C :   -0.348023
  42 C :   -0.378086
  43 C :   -0.379432
  44 H :    0.117944
  45 H :    0.103647
  46 H :    0.103921
  47 H :    0.112229
  48 H :    0.115247
  49 H :    0.112893
  50 H :    0.131552
  51 H :    0.102676
  52 H :    0.103417
  53 H :    0.112871
  54 H :    0.115623
  55 H :    0.113918
  56 H :    0.132344
  57 H :    0.104386
  58 H :    0.104900
  59 H :    0.113471
  60 H :    0.115913
  61 H :    0.114960
  62 H :    0.118039
  63 H :    0.103634
  64 H :    0.103851
  65 H :    0.112254
  66 H :    0.115253
  67 H :    0.112867
  68 H :    0.132018
  69 H :    0.104123
  70 H :    0.104912
  71 H :    0.113487
  72 H :    0.115919
  73 H :    0.115011
  74 H :    0.132214
  75 H :    0.102673
  76 H :    0.103307
  77 H :    0.112875
  78 H :    0.115602
  79 H :    0.113977
  80 H :    0.118202
  81 H :    0.122260
  82 H :    0.122280
  83 H :    0.118195
  84 H :    0.122218
  85 H :    0.122345
Sum of atomic charges:   -0.0000000

LOEWDIN ATOMIC CHARGES
----------------------
   0 C :   -0.324508
   1 C :   -0.170610
   2 C :   -0.162437
   3 C :   -0.404007
   4 S :    0.760445
   5 C :   -0.267859
   6 C :   -0.296913
   7 C :   -0.318681
   8 C :   -0.170990
   9 C :   -0.145837
  10 C :   -0.371784
  11 S :    0.779999
  12 C :   -0.266100
  13 C :   -0.296311
  14 C :   -0.319709
  15 C :   -0.169637
  16 C :   -0.146157
  17 C :   -0.370911
  18 S :    0.779132
  19 C :   -0.266260
  20 C :   -0.295942
  21 C :   -0.324554
  22 C :   -0.170608
  23 C :   -0.162431
  24 C :   -0.404000
  25 S :    0.760420
  26 C :   -0.267909
  27 C :   -0.296906
  28 C :   -0.319722
  29 C :   -0.169579
  30 C :   -0.146072
  31 C :   -0.370781
  32 S :    0.779342
  33 C :   -0.266221
  34 C :   -0.295945
  35 C :   -0.318687
  36 C :   -0.170971
  37 C :   -0.145749
  38 C :   -0.371702
  39 S :    0.780161
  40 C :   -0.266087
  41 C :   -0.296313
  42 C :   -0.286497
  43 C :   -0.286498
  44 H :    0.144470
  45 H :    0.140638
  46 H :    0.140746
  47 H :    0.118473
  48 H :    0.118718
  49 H :    0.118725
  50 H :    0.143606
  51 H :    0.140524
  52 H :    0.140723
  53 H :    0.118859
  54 H :    0.118674
  55 H :    0.119299
  56 H :    0.143763
  57 H :    0.140983
  58 H :    0.141172
  59 H :    0.118973
  60 H :    0.118760
  61 H :    0.119568
  62 H :    0.144470
  63 H :    0.140656
  64 H :    0.140724
  65 H :    0.118480
  66 H :    0.118719
  67 H :    0.118723
  68 H :    0.143781
  69 H :    0.140993
  70 H :    0.141192
  71 H :    0.118965
  72 H :    0.118770
  73 H :    0.119562
  74 H :    0.143627
  75 H :    0.140532
  76 H :    0.140721
  77 H :    0.118848
  78 H :    0.118679
  79 H :    0.119312
  80 H :    0.130123
  81 H :    0.127184
  82 H :    0.127174
  83 H :    0.130126
  84 H :    0.127197
  85 H :    0.127156

  Mayer bond orders larger than 0.100000
B(  0-C ,  1-C ) :   1.4117 B(  0-C ,  4-S ) :   1.2658 B(  0-C ,  7-C ) :   1.0081
B(  1-C ,  2-C ) :   1.2475 B(  1-C ,  5-C ) :   0.9434 B(  2-C ,  3-C ) :   1.6391
B(  2-C , 44-H ) :   0.9521 B(  3-C ,  4-S ) :   1.2865 B(  3-C , 43-C ) :   0.8800
B(  4-S ,  7-C ) :  -0.1167 B(  5-C ,  6-C ) :   0.9677 B(  5-C , 45-H ) :   0.9525
B(  5-C , 46-H ) :   0.9544 B(  6-C , 47-H ) :   0.9794 B(  6-C , 48-H ) :   0.9813
B(  6-C , 49-H ) :   0.9802 B(  7-C ,  8-C ) :   1.3770 B(  7-C , 11-S ) :   1.1957
B(  8-C ,  9-C ) :   1.2905 B(  8-C , 12-C ) :   0.9555 B(  9-C , 10-C ) :   1.4287
B(  9-C , 50-H ) :   0.9319 B( 10-C , 11-S ) :   1.3666 B( 10-C , 31-C ) :   1.1139
B( 11-S , 31-C ) :  -0.1161 B( 12-C , 13-C ) :   0.9742 B( 12-C , 51-H ) :   0.9504
B( 12-C , 52-H ) :   0.9540 B( 13-C , 53-H ) :   0.9780 B( 13-C , 54-H ) :   0.9817
B( 13-C , 55-H ) :   0.9791 B( 14-C , 15-C ) :   1.3591 B( 14-C , 18-S ) :   1.2112
B( 14-C , 28-C ) :   1.0678 B( 15-C , 16-C ) :   1.3055 B( 15-C , 19-C ) :   0.9524
B( 16-C , 17-C ) :   1.4226 B( 16-C , 56-H ) :   0.9320 B( 17-C , 18-S ) :   1.3621
B( 17-C , 38-C ) :   1.1322 B( 17-C , 39-S ) :  -0.1218 B( 19-C , 20-C ) :   0.9734
B( 19-C , 57-H ) :   0.9518 B( 19-C , 58-H ) :   0.9554 B( 20-C , 59-H ) :   0.9787
B( 20-C , 60-H ) :   0.9823 B( 20-C , 61-H ) :   0.9802 B( 21-C , 22-C ) :   1.4106
B( 21-C , 25-S ) :   1.2653 B( 21-C , 35-C ) :   1.0212 B( 22-C , 23-C ) :   1.2484
B( 22-C , 26-C ) :   0.9434 B( 23-C , 24-C ) :   1.6421 B( 23-C , 62-H ) :   0.9516
B( 24-C , 25-S ) :   1.2829 B( 24-C , 42-C ) :   0.8795 B( 25-S , 35-C ) :  -0.1094
B( 26-C , 27-C ) :   0.9679 B( 26-C , 63-H ) :   0.9522 B( 26-C , 64-H ) :   0.9541
B( 27-C , 65-H ) :   0.9793 B( 27-C , 66-H ) :   0.9813 B( 27-C , 67-H ) :   0.9801
B( 28-C , 29-C ) :   1.3607 B( 28-C , 32-S ) :   1.2141 B( 29-C , 30-C ) :   1.3019
B( 29-C , 33-C ) :   0.9522 B( 30-C , 31-C ) :   1.4166 B( 30-C , 68-H ) :   0.9334
B( 31-C , 32-S ) :   1.3623 B( 33-C , 34-C ) :   0.9734 B( 33-C , 69-H ) :   0.9514
B( 33-C , 70-H ) :   0.9554 B( 34-C , 71-H ) :   0.9788 B( 34-C , 72-H ) :   0.9820
B( 34-C , 73-H ) :   0.9802 B( 35-C , 36-C ) :   1.3750 B( 35-C , 39-S ) :   1.1937
B( 36-C , 37-C ) :   1.2918 B( 36-C , 40-C ) :   0.9557 B( 37-C , 38-C ) :   1.4206
B( 37-C , 74-H ) :   0.9313 B( 38-C , 39-S ) :   1.3668 B( 40-C , 41-C ) :   0.9737
B( 40-C , 75-H ) :   0.9506 B( 40-C , 76-H ) :   0.9538 B( 41-C , 77-H ) :   0.9781
B( 41-C , 78-H ) :   0.9817 B( 41-C , 79-H ) :   0.9792 B( 42-C , 80-H ) :   0.9926
B( 42-C , 81-H ) :   0.9686 B( 42-C , 82-H ) :   0.9684 B( 43-C , 83-H ) :   0.9926
B( 43-C , 84-H ) :   0.9682 B( 43-C , 85-H ) :   0.9691

-----------------------------------------------------------------------------
         ABSORPTION SPECTRUM VIA TRANSITION ELECTRIC DIPOLE MOMENTS
-----------------------------------------------------------------------------
State   Energy    Wavelength  fosc         T2        TX        TY        TZ
        (cm-1)      (nm)                 (au**2)    (au)      (au)      (au)
-----------------------------------------------------------------------------
   1   18951.1    527.7   2.845209299  49.42586  -4.34944   5.52337   0.02427
   2   22048.7    453.5   0.000000285   0.00000  -0.00062   0.00108   0.00165
   3   26516.5    377.1   0.000093952   0.00117  -0.00122  -0.00171   0.03409
   4   27343.7    365.7   0.006213501   0.07481   0.16537  -0.21785  -0.00095
   5   28364.8    352.6   0.274563125   3.18668  -1.18483   1.33522   0.00649
   6   31036.2    322.2   0.000000729   0.00001   0.00007   0.00033  -0.00276
   7   32613.1    306.6   0.114041447   1.15119   0.84783  -0.65754  -0.00434
   8   33211.3    301.1   0.000003938   0.00004  -0.00028   0.00093  -0.00617
   9   33746.6    296.3   0.007845874   0.07654   0.09603  -0.25946  -0.00019
  10   34188.8    292.5   0.000083740   0.00081  -0.00042   0.00238   0.02829
  11   34215.7    292.3   0.000145352   0.00140  -0.01678   0.03338  -0.00170
  12   34463.9    290.2   0.000004261   0.00004  -0.00106  -0.00111   0.00619
  13   34908.4    286.5   0.054482229   0.51381  -0.22436  -0.68079   0.00078
  14   34992.6    285.8   0.000004032   0.00004   0.00130   0.00571  -0.00189
  15   35215.1    284.0   0.000488534   0.00457  -0.00063  -0.00174  -0.06756
  16   35321.1    283.1   0.000001287   0.00001   0.00237   0.00242   0.00073
  17   35505.3    281.6   0.000528950   0.00490   0.00027  -0.00359   0.06994
  18   35690.3    280.2   0.000012128   0.00011   0.00293   0.00715  -0.00723
  19   35694.4    280.2   0.000839711   0.00774  -0.02587  -0.08411  -0.00057
  20   35765.5    279.6   0.013567945   0.12489  -0.13605  -0.32616   0.00042
  21   36419.3    274.6   0.000001142   0.00001   0.00121   0.00272   0.00121
  22   36485.7    274.1   0.019867372   0.17926  -0.14904  -0.39630   0.00085
  23   37221.9    268.7   0.049067317   0.43398  -0.59872   0.27477   0.00301
  24   38114.4    262.4   0.000000148   0.00000  -0.00054   0.00078   0.00061
  25   38567.6    259.3   0.000011000   0.00009  -0.00076   0.00080   0.00963
  26   38699.1    258.4   0.000016922   0.00014   0.00975   0.00699  -0.00007
  27   39428.2    253.6   0.003871668   0.03233  -0.02695   0.17777   0.00065
  28   39429.7    253.6   0.048994323   0.40907  -0.09404   0.63263   0.00095
  29   39681.0    252.0   0.000125137   0.00104  -0.00014   0.00061  -0.03221
  30   40090.5    249.4   0.052262020   0.42916   0.56145  -0.33753  -0.00279
  31   40216.3    248.7   0.000002565   0.00002   0.00303   0.00343   0.00006
  32   40361.0    247.8   0.000005496   0.00004   0.00125  -0.00097   0.00651
  33   40744.1    245.4   0.005256422   0.04247   0.13166  -0.15855  -0.00053
  34   40836.3    244.9   0.000092259   0.00074   0.00087  -0.00029   0.02726
  35   40869.1    244.7   0.016255868   0.13095   0.33172  -0.14458  -0.00171
  36   41045.9    243.6   0.000057896   0.00046   0.01242  -0.01343  -0.01139
  37   41046.4    243.6   0.000164591   0.00132  -0.00295   0.00361  -0.03603
  38   41167.7    242.9   0.000695756   0.00556  -0.00087  -0.00052   0.07458
  39   41491.6    241.0   0.000018797   0.00015  -0.01204   0.00206   0.00020
  40   41548.2    240.7   0.000000043   0.00000   0.00055  -0.00015   0.00010
  41   41715.9    239.7   0.000273373   0.00216   0.00089   0.00083  -0.04643
  42   41840.3    239.0   0.000001173   0.00001   0.00051  -0.00116  -0.00276
  43   41869.3    238.8   0.000039510   0.00031   0.01684   0.00521   0.00005
  44   41928.6    238.5   0.000013183   0.00010   0.00943  -0.00383   0.00003
  45   42305.8    236.4   0.000121551   0.00095   0.01085   0.00592  -0.02816
  46   42348.4    236.1   0.042236512   0.32834  -0.51968  -0.24139   0.00180
  47   42407.9    235.8   0.020764657   0.16120  -0.26291  -0.30343   0.00098
  48   43253.2    231.2   0.000000262   0.00000  -0.00035   0.00034  -0.00132
  49   43530.5    229.7   0.000048252   0.00036  -0.01284   0.00463   0.01337
  50   43574.3    229.5   0.119659317   0.90405   0.89051  -0.33321  -0.00294

FINAL SINGLE POINT ENERGY     -3861.741831332381

DIPOLE MOMENT
-------------
                                X             Y             Z
Electronic contribution:      0.00529      -0.01228       1.76864
Nuclear contribution   :     -0.00435       0.01218      -1.83873
                        -----------------------------------------
Total Dipole Moment    :      0.00094      -0.00010      -0.07009
                        -----------------------------------------
Magnitude (a.u.)       :      0.07009
Magnitude (Debye)      :      0.17816

Rotational constants in cm-1:     0.006266     0.000502     0.000465
Rotational constants in MHz :   187.841884    15.036031    13.939437

                             ****ORCA TERMINATED NORMALLY****
TOTAL RUN TIME: 1 days 4 hours 22 minutes 23 seconds 460 msec
