                         Program Version 4.2.0 -  RELEASE  -
|  1> # ORCA input file
|  2> # P3HT.out: Geometry 116
|  3> ! B3LYP def2-TZVP def2/J RIJCOSX Grid4 TightSCF
|  4>
|  5> %maxcore 6000
|  6> %tddft
|  7>   maxdim 5
|  8>   nroots 50
|  9>   end
| 10> %pal
| 11>   nprocs 6
| 12>   end
| 13>
| 14>
| 15> * xyz 0 1
| 16>    C        0.41761        -0.24741        -0.20696
| 17>    C       -0.94580        -0.47576        -0.18530
| 18>    C       -1.69109         0.74333        -0.08434
| 19>    C       -0.91918         1.87895        -0.02425
| 20>    S        0.77006         1.46562        -0.08747
| 21>    C       -1.56798        -1.83967        -0.34614
| 22>    C       -1.63760        -2.28494        -1.81270
| 23>    C        1.49806        -1.22723        -0.29079
| 24>    C        2.40663        -1.44599        -1.31261
| 25>    C        3.30457        -2.51555        -1.01455
| 26>    C        3.08843        -3.11145         0.21303
| 27>    S        1.76587        -2.33145         1.04355
| 28>    C        2.42789        -0.67472        -2.60619
| 29>    C        2.33781        -1.56313        -3.85275
| 30>    C        6.36152        -7.18027         1.15562
| 31>    C        7.55294        -7.30098         1.85324
| 32>    C        8.31628        -8.42457         1.41533
| 33>    C        7.72974        -9.14595         0.39267
| 34>    S        6.18698        -8.45341        -0.03674
| 35>    C        8.02682        -6.33263         2.90539
| 36>    C        8.27008        -6.97032         4.27967
| 37>    C       10.38843       -13.58013        -0.77623
| 38>    C       11.69293       -13.68602        -0.30986
| 39>    C       12.14956       -15.04301        -0.31102
| 40>    C       11.22325       -15.95893        -0.74946
| 41>    S        9.74262       -15.16209        -1.17825
| 42>    C       12.52874       -12.51154         0.14883
| 43>    C       14.02941       -12.79012         0.23872
| 44>    C        5.32883        -6.15735         1.27428
| 45>    C        4.46043        -5.90870         2.32431
| 46>    C        3.59474        -4.80593         2.05377
| 47>    C        3.78947        -4.22511         0.81473
| 48>    S        5.06877        -5.04006        -0.04846
| 49>    C        4.40060        -6.73464         3.58226
| 50>    C        4.59367        -5.93019         4.87297
| 51>    C        9.52496       -12.41055        -0.86294
| 52>    C        8.60531       -12.05001        -1.84317
| 53>    C        7.88001       -10.87183        -1.49194
| 54>    C        8.23229       -10.32984        -0.27078
| 55>    S        9.46644       -11.29564         0.48879
| 56>    C        8.40219       -12.79397        -3.14052
| 57>    C        8.24700       -11.88843        -4.36567
| 58>    C       11.35683       -17.44476        -0.85632
| 59>    C       -1.35963         3.30603         0.08826
| 60>    H       -2.78295         0.77268        -0.05578
| 61>    H       -2.57995        -1.82725         0.09005
| 62>    H       -0.98993        -2.57945         0.22790
| 63>    H       -2.21758        -1.57105        -2.41774
| 64>    H       -2.11421        -3.27410        -1.90329
| 65>    H       -0.62764        -2.34891        -2.24600
| 66>    H        4.08912        -2.84701        -1.69745
| 67>    H        3.35689        -0.07814        -2.65346
| 68>    H        1.60065         0.05118        -2.60251
| 69>    H        3.17569        -2.27643        -3.90851
| 70>    H        2.36021        -0.95164        -4.76861
| 71>    H        1.40560        -2.15056        -3.85547
| 72>    H        9.29742        -8.67977         1.81846
| 73>    H        7.29765        -5.51318         2.99427
| 74>    H        8.96564        -5.86935         2.55186
| 75>    H        7.34433        -7.40237         4.68995
| 76>    H        8.64323        -6.22250         4.99683
| 77>    H        9.01507        -7.78018         4.22449
| 78>    H       13.14627       -15.34214         0.01423
| 79>    H       12.17230       -12.17301         1.13774
| 80>    H       12.34233       -11.66021        -0.52616
| 81>    H       14.25438       -13.56964         0.98340
| 82>    H       14.57514       -11.88418         0.54384
| 83>    H       14.43914       -13.12707        -0.72687
| 84>    H        2.83511        -4.45393         2.75447
| 85>    H        5.15593        -7.53301         3.51663
| 86>    H        3.42121        -7.24456         3.62031
| 87>    H        5.57793        -5.43723         4.89530
| 88>    H        4.51919        -6.58638         5.75462
| 89>    H        3.83030        -5.14364         4.97985
| 90>    H        7.13089       -10.41089        -2.13711
| 91>    H        7.51130       -13.44352        -3.05168
| 92>    H        9.24908       -13.47711        -3.29854
| 93>    H        7.35040       -11.25193        -4.30179
| 94>    H        8.15477       -12.49456        -5.28060
| 95>    H        9.11749       -11.22334        -4.48160
| 96>    H       12.38568       -17.74931        -0.61479
| 97>    H       11.11733       -17.80792        -1.86944
| 98>    H       10.68149       -17.96766        -0.15946
| 99>    H       -2.45703         3.35939         0.14281
|100>    H       -1.03200         3.90624        -0.77725
|101>    H       -0.94976         3.79047         0.98996
|102> *
|103>
|104>                          ****END OF INPUT****

CARTESIAN COORDINATES (ANGSTROEM)
---------------------------------
  C      0.417610   -0.247410   -0.206960
  C     -0.945800   -0.475760   -0.185300
  C     -1.691090    0.743330   -0.084340
  C     -0.919180    1.878950   -0.024250
  S      0.770060    1.465620   -0.087470
  C     -1.567980   -1.839670   -0.346140
  C     -1.637600   -2.284940   -1.812700
  C      1.498060   -1.227230   -0.290790
  C      2.406630   -1.445990   -1.312610
  C      3.304570   -2.515550   -1.014550
  C      3.088430   -3.111450    0.213030
  S      1.765870   -2.331450    1.043550
  C      2.427890   -0.674720   -2.606190
  C      2.337810   -1.563130   -3.852750
  C      6.361520   -7.180270    1.155620
  C      7.552940   -7.300980    1.853240
  C      8.316280   -8.424570    1.415330
  C      7.729740   -9.145950    0.392670
  S      6.186980   -8.453410   -0.036740
  C      8.026820   -6.332630    2.905390
  C      8.270080   -6.970320    4.279670
  C     10.388430  -13.580130   -0.776230
  C     11.692930  -13.686020   -0.309860
  C     12.149560  -15.043010   -0.311020
  C     11.223250  -15.958930   -0.749460
  S      9.742620  -15.162090   -1.178250
  C     12.528740  -12.511540    0.148830
  C     14.029410  -12.790120    0.238720
  C      5.328830   -6.157350    1.274280
  C      4.460430   -5.908700    2.324310
  C      3.594740   -4.805930    2.053770
  C      3.789470   -4.225110    0.814730
  S      5.068770   -5.040060   -0.048460
  C      4.400600   -6.734640    3.582260
  C      4.593670   -5.930190    4.872970
  C      9.524960  -12.410550   -0.862940
  C      8.605310  -12.050010   -1.843170
  C      7.880010  -10.871830   -1.491940
  C      8.232290  -10.329840   -0.270780
  S      9.466440  -11.295640    0.488790
  C      8.402190  -12.793970   -3.140520
  C      8.247000  -11.888430   -4.365670
  C     11.356830  -17.444760   -0.856320
  C     -1.359630    3.306030    0.088260
  H     -2.782950    0.772680   -0.055780
  H     -2.579950   -1.827250    0.090050
  H     -0.989930   -2.579450    0.227900
  H     -2.217580   -1.571050   -2.417740
  H     -2.114210   -3.274100   -1.903290
  H     -0.627640   -2.348910   -2.246000
  H      4.089120   -2.847010   -1.697450
  H      3.356890   -0.078140   -2.653460
  H      1.600650    0.051180   -2.602510
  H      3.175690   -2.276430   -3.908510
  H      2.360210   -0.951640   -4.768610
  H      1.405600   -2.150560   -3.855470
  H      9.297420   -8.679770    1.818460
  H      7.297650   -5.513180    2.994270
  H      8.965640   -5.869350    2.551860
  H      7.344330   -7.402370    4.689950
  H      8.643230   -6.222500    4.996830
  H      9.015070   -7.780180    4.224490
  H     13.146270  -15.342140    0.014230
  H     12.172300  -12.173010    1.137740
  H     12.342330  -11.660210   -0.526160
  H     14.254380  -13.569640    0.983400
  H     14.575140  -11.884180    0.543840
  H     14.439140  -13.127070   -0.726870
  H      2.835110   -4.453930    2.754470
  H      5.155930   -7.533010    3.516630
  H      3.421210   -7.244560    3.620310
  H      5.577930   -5.437230    4.895300
  H      4.519190   -6.586380    5.754620
  H      3.830300   -5.143640    4.979850
  H      7.130890  -10.410890   -2.137110
  H      7.511300  -13.443520   -3.051680
  H      9.249080  -13.477110   -3.298540
  H      7.350400  -11.251930   -4.301790
  H      8.154770  -12.494560   -5.280600
  H      9.117490  -11.223340   -4.481600
  H     12.385680  -17.749310   -0.614790
  H     11.117330  -17.807920   -1.869440
  H     10.681490  -17.967660   -0.159460
  H     -2.457030    3.359390    0.142810
  H     -1.032000    3.906240   -0.777250
  H     -0.949760    3.790470    0.989960

 Total Charge           Charge          ....    0
 Multiplicity           Mult            ....    1
 Number of Electrons    NEL             ....  366
 Basis Dimension        Dim             .... 1652

ORBITAL ENERGIES
----------------

  NO   OCC          E(Eh)            E(eV)
   0   2.0000     -88.878027     -2418.4941
   1   2.0000     -88.877617     -2418.4829
   2   2.0000     -88.876764     -2418.4597
   3   2.0000     -88.876142     -2418.4428
   4   2.0000     -88.873661     -2418.3753
   5   2.0000     -88.873261     -2418.3644
   6   2.0000     -10.211646      -277.8730
   7   2.0000     -10.211399      -277.8663
   8   2.0000     -10.210740      -277.8484
   9   2.0000     -10.209640      -277.8184
  10   2.0000     -10.205945      -277.7179
  11   2.0000     -10.205055      -277.6937
  12   2.0000     -10.204708      -277.6842
  13   2.0000     -10.203951      -277.6636
  14   2.0000     -10.203665      -277.6558
  15   2.0000     -10.202418      -277.6219
  16   2.0000     -10.201691      -277.6021
  17   2.0000     -10.199545      -277.5437
  18   2.0000     -10.184282      -277.1284
  19   2.0000     -10.184186      -277.1258
  20   2.0000     -10.183210      -277.0992
  21   2.0000     -10.182755      -277.0868
  22   2.0000     -10.181333      -277.0481
  23   2.0000     -10.180839      -277.0347
  24   2.0000     -10.180360      -277.0217
  25   2.0000     -10.179679      -277.0032
  26   2.0000     -10.175860      -276.8992
  27   2.0000     -10.175419      -276.8872
  28   2.0000     -10.175333      -276.8849
  29   2.0000     -10.175309      -276.8842
  30   2.0000     -10.174445      -276.8607
  31   2.0000     -10.174406      -276.8597
  32   2.0000     -10.174300      -276.8568
  33   2.0000     -10.173674      -276.8398
  34   2.0000     -10.173600      -276.8377
  35   2.0000     -10.172026      -276.7949
  36   2.0000     -10.170011      -276.7401
  37   2.0000     -10.169170      -276.7172
  38   2.0000     -10.164885      -276.6006
  39   2.0000     -10.164617      -276.5933
  40   2.0000     -10.163995      -276.5764
  41   2.0000     -10.162868      -276.5457
  42   2.0000     -10.162296      -276.5301
  43   2.0000     -10.159792      -276.4620
  44   2.0000      -7.954246      -216.4460
  45   2.0000      -7.953951      -216.4380
  46   2.0000      -7.953123      -216.4155
  47   2.0000      -7.952691      -216.4037
  48   2.0000      -7.949995      -216.3304
  49   2.0000      -7.949797      -216.3250
  50   2.0000      -5.916718      -161.0021
  51   2.0000      -5.916405      -160.9936
  52   2.0000      -5.915625      -160.9723
  53   2.0000      -5.915165      -160.9598
  54   2.0000      -5.912904      -160.8983
  55   2.0000      -5.912594      -160.8899
  56   2.0000      -5.912411      -160.8849
  57   2.0000      -5.912242      -160.8803
  58   2.0000      -5.911776      -160.8676
  59   2.0000      -5.911346      -160.8559
  60   2.0000      -5.910992      -160.8463
  61   2.0000      -5.910704      -160.8384
  62   2.0000      -5.909824      -160.8145
  63   2.0000      -5.909374      -160.8022
  64   2.0000      -5.908547      -160.7798
  65   2.0000      -5.908368      -160.7749
  66   2.0000      -5.906908      -160.7351
  67   2.0000      -5.906628      -160.7275
  68   2.0000      -0.897171       -24.4133
  69   2.0000      -0.892110       -24.2756
  70   2.0000      -0.885347       -24.0915
  71   2.0000      -0.876715       -23.8566
  72   2.0000      -0.867654       -23.6101
  73   2.0000      -0.860782       -23.4231
  74   2.0000      -0.800091       -21.7716
  75   2.0000      -0.792812       -21.5735
  76   2.0000      -0.789950       -21.4956
  77   2.0000      -0.788170       -21.4472
  78   2.0000      -0.782412       -21.2905
  79   2.0000      -0.779007       -21.1979
  80   2.0000      -0.769101       -20.9283
  81   2.0000      -0.764508       -20.8033
  82   2.0000      -0.756012       -20.5721
  83   2.0000      -0.734438       -19.9851
  84   2.0000      -0.729701       -19.8562
  85   2.0000      -0.722094       -19.6492
  86   2.0000      -0.716403       -19.4943
  87   2.0000      -0.713910       -19.4265
  88   2.0000      -0.712265       -19.3817
  89   2.0000      -0.710060       -19.3217
  90   2.0000      -0.705250       -19.1908
  91   2.0000      -0.688542       -18.7362
  92   2.0000      -0.671858       -18.2822
  93   2.0000      -0.666345       -18.1322
  94   2.0000      -0.629159       -17.1203
  95   2.0000      -0.628378       -17.0990
  96   2.0000      -0.627152       -17.0657
  97   2.0000      -0.624933       -17.0053
  98   2.0000      -0.622015       -16.9259
  99   2.0000      -0.605633       -16.4801
 100   2.0000      -0.594991       -16.1905
 101   2.0000      -0.580515       -15.7966
 102   2.0000      -0.566144       -15.4056
 103   2.0000      -0.557041       -15.1579
 104   2.0000      -0.551662       -15.0115
 105   2.0000      -0.540389       -14.7047
 106   2.0000      -0.538547       -14.6546
 107   2.0000      -0.529049       -14.3962
 108   2.0000      -0.524904       -14.2834
 109   2.0000      -0.508546       -13.8382
 110   2.0000      -0.499766       -13.5993
 111   2.0000      -0.496735       -13.5168
 112   2.0000      -0.495511       -13.4835
 113   2.0000      -0.485409       -13.2086
 114   2.0000      -0.472017       -12.8442
 115   2.0000      -0.459985       -12.5168
 116   2.0000      -0.459301       -12.4982
 117   2.0000      -0.451503       -12.2860
 118   2.0000      -0.451149       -12.2764
 119   2.0000      -0.448842       -12.2136
 120   2.0000      -0.445594       -12.1252
 121   2.0000      -0.441511       -12.0141
 122   2.0000      -0.435905       -11.8616
 123   2.0000      -0.432041       -11.7564
 124   2.0000      -0.428372       -11.6566
 125   2.0000      -0.427007       -11.6195
 126   2.0000      -0.425644       -11.5824
 127   2.0000      -0.424520       -11.5518
 128   2.0000      -0.422450       -11.4955
 129   2.0000      -0.420393       -11.4395
 130   2.0000      -0.418474       -11.3873
 131   2.0000      -0.415265       -11.2999
 132   2.0000      -0.412191       -11.2163
 133   2.0000      -0.408353       -11.1118
 134   2.0000      -0.404487       -11.0066
 135   2.0000      -0.402020       -10.9395
 136   2.0000      -0.399031       -10.8582
 137   2.0000      -0.397282       -10.8106
 138   2.0000      -0.393578       -10.7098
 139   2.0000      -0.392932       -10.6922
 140   2.0000      -0.389584       -10.6011
 141   2.0000      -0.384807       -10.4711
 142   2.0000      -0.382195       -10.4001
 143   2.0000      -0.380359       -10.3501
 144   2.0000      -0.377393       -10.2694
 145   2.0000      -0.375770       -10.2252
 146   2.0000      -0.374025       -10.1777
 147   2.0000      -0.372744       -10.1429
 148   2.0000      -0.368456       -10.0262
 149   2.0000      -0.365571        -9.9477
 150   2.0000      -0.363567        -9.8931
 151   2.0000      -0.358292        -9.7496
 152   2.0000      -0.356965        -9.7135
 153   2.0000      -0.352605        -9.5949
 154   2.0000      -0.352400        -9.5893
 155   2.0000      -0.349881        -9.5207
 156   2.0000      -0.348769        -9.4905
 157   2.0000      -0.346130        -9.4187
 158   2.0000      -0.345162        -9.3923
 159   2.0000      -0.343633        -9.3507
 160   2.0000      -0.340352        -9.2614
 161   2.0000      -0.339203        -9.2302
 162   2.0000      -0.337944        -9.1959
 163   2.0000      -0.336812        -9.1651
 164   2.0000      -0.334142        -9.0925
 165   2.0000      -0.332955        -9.0602
 166   2.0000      -0.331878        -9.0309
 167   2.0000      -0.327287        -8.9059
 168   2.0000      -0.325912        -8.8685
 169   2.0000      -0.325184        -8.8487
 170   2.0000      -0.324116        -8.8196
 171   2.0000      -0.274486        -7.4692
 172   2.0000      -0.265827        -7.2335
 173   2.0000      -0.251832        -6.8527
 174   2.0000      -0.249218        -6.7816
 175   2.0000      -0.244445        -6.6517
 176   2.0000      -0.243727        -6.6321
 177   2.0000      -0.242929        -6.6104
 178   2.0000      -0.240848        -6.5538
 179   2.0000      -0.230829        -6.2812
 180   2.0000      -0.222832        -6.0636
 181   2.0000      -0.198346        -5.3973
 182   2.0000      -0.185727        -5.0539
 183   0.0000      -0.062114        -1.6902
 184   0.0000      -0.053365        -1.4521
 185   0.0000      -0.023973        -0.6523
 186   0.0000      -0.021760        -0.5921
 187   0.0000       0.000082         0.0022

MULLIKEN ATOMIC CHARGES
-----------------------
   0 C :   -0.051162
   1 C :   -0.010096
   2 C :   -0.193466
   3 C :    0.043627
   4 S :    0.016758
   5 C :   -0.167470
   6 C :   -0.343586
   7 C :    0.074820
   8 C :    0.075637
   9 C :   -0.256096
  10 C :    0.054290
  11 S :    0.001493
  12 C :   -0.198540
  13 C :   -0.332458
  14 C :    0.025621
  15 C :    0.007655
  16 C :   -0.229629
  17 C :    0.051575
  18 S :    0.016425
  19 C :   -0.208199
  20 C :   -0.344532
  21 C :   -0.058828
  22 C :    0.018181
  23 C :   -0.226456
  24 C :    0.051724
  25 S :    0.009306
  26 C :   -0.200706
  27 C :   -0.341575
  28 C :    0.035498
  29 C :    0.032599
  30 C :   -0.233960
  31 C :    0.063189
  32 S :    0.004109
  33 C :   -0.201162
  34 C :   -0.345775
  35 C :    0.088042
  36 C :    0.069456
  37 C :   -0.265927
  38 C :    0.066769
  39 S :   -0.006096
  40 C :   -0.198315
  41 C :   -0.329675
  42 C :   -0.378550
  43 C :   -0.380514
  44 H :    0.105235
  45 H :    0.091193
  46 H :    0.099755
  47 H :    0.104270
  48 H :    0.104582
  49 H :    0.119691
  50 H :    0.121205
  51 H :    0.098504
  52 H :    0.115351
  53 H :    0.104166
  54 H :    0.108827
  55 H :    0.108642
  56 H :    0.118467
  57 H :    0.121488
  58 H :    0.100391
  59 H :    0.114941
  60 H :    0.110121
  61 H :    0.107007
  62 H :    0.115215
  63 H :    0.104132
  64 H :    0.116723
  65 H :    0.104855
  66 H :    0.115475
  67 H :    0.114525
  68 H :    0.120105
  69 H :    0.120104
  70 H :    0.099923
  71 H :    0.114238
  72 H :    0.110284
  73 H :    0.107436
  74 H :    0.119880
  75 H :    0.099555
  76 H :    0.114179
  77 H :    0.102665
  78 H :    0.110906
  79 H :    0.110793
  80 H :    0.120160
  81 H :    0.123183
  82 H :    0.126713
  83 H :    0.120868
  84 H :    0.124262
  85 H :    0.125985
Sum of atomic charges:   -0.0000000

LOEWDIN ATOMIC CHARGES
----------------------
   0 C :   -0.350708
   1 C :   -0.164923
   2 C :   -0.157459
   3 C :   -0.393166
   4 S :    0.738715
   5 C :   -0.242879
   6 C :   -0.297285
   7 C :   -0.337875
   8 C :   -0.167037
   9 C :   -0.139173
  10 C :   -0.359922
  11 S :    0.756676
  12 C :   -0.242754
  13 C :   -0.299120
  14 C :   -0.346715
  15 C :   -0.164939
  16 C :   -0.141687
  17 C :   -0.360569
  18 S :    0.753701
  19 C :   -0.237380
  20 C :   -0.300853
  21 C :   -0.341559
  22 C :   -0.164291
  23 C :   -0.160343
  24 C :   -0.397631
  25 S :    0.747437
  26 C :   -0.255002
  27 C :   -0.303701
  28 C :   -0.347154
  29 C :   -0.165099
  30 C :   -0.139340
  31 C :   -0.358263
  32 S :    0.754302
  33 C :   -0.237746
  34 C :   -0.301300
  35 C :   -0.333029
  36 C :   -0.164810
  37 C :   -0.138929
  38 C :   -0.362861
  39 S :    0.767343
  40 C :   -0.252402
  41 C :   -0.300005
  42 C :   -0.292077
  43 C :   -0.291950
  44 H :    0.142983
  45 H :    0.138982
  46 H :    0.138405
  47 H :    0.118513
  48 H :    0.117365
  49 H :    0.120420
  50 H :    0.143773
  51 H :    0.143770
  52 H :    0.143966
  53 H :    0.117242
  54 H :    0.118680
  55 H :    0.118379
  56 H :    0.143777
  57 H :    0.145441
  58 H :    0.144558
  59 H :    0.119056
  60 H :    0.119196
  61 H :    0.117991
  62 H :    0.144376
  63 H :    0.139731
  64 H :    0.145114
  65 H :    0.117610
  66 H :    0.119772
  67 H :    0.120923
  68 H :    0.143762
  69 H :    0.145633
  70 H :    0.144566
  71 H :    0.119076
  72 H :    0.119481
  73 H :    0.117884
  74 H :    0.144559
  75 H :    0.142902
  76 H :    0.141194
  77 H :    0.116206
  78 H :    0.119195
  79 H :    0.121552
  80 H :    0.131736
  81 H :    0.128060
  82 H :    0.129004
  83 H :    0.131671
  84 H :    0.128475
  85 H :    0.128786

  Mayer bond orders larger than 0.100000
B(  0-C ,  1-C ) :   1.5781 B(  0-C ,  4-S ) :   1.2332 B(  0-C ,  7-C ) :   0.6958
B(  1-C ,  2-C ) :   1.2217 B(  1-C ,  5-C ) :   0.9552 B(  2-C ,  3-C ) :   1.6307
B(  2-C , 44-H ) :   0.9526 B(  3-C ,  4-S ) :   1.2629 B(  3-C , 43-C ) :   0.8936
B(  5-C ,  6-C ) :   0.9532 B(  5-C , 45-H ) :   0.9775 B(  5-C , 46-H ) :   0.9644
B(  6-C , 47-H ) :   0.9727 B(  6-C , 48-H ) :   0.9699 B(  6-C , 49-H ) :   0.9781
B(  7-C ,  8-C ) :   1.5357 B(  7-C , 11-S ) :   1.2659 B(  8-C ,  9-C ) :   1.2263
B(  8-C , 12-C ) :   0.9549 B(  9-C , 10-C ) :   1.5075 B(  9-C , 11-S ) :   0.1009
B(  9-C , 50-H ) :   0.9393 B( 10-C , 11-S ) :   1.2612 B( 10-C , 31-C ) :   1.0299
B( 12-C , 13-C ) :   0.9625 B( 12-C , 51-H ) :   0.9561 B( 12-C , 52-H ) :   0.9786
B( 13-C , 53-H ) :   0.9758 B( 13-C , 54-H ) :   0.9739 B( 13-C , 55-H ) :   0.9737
B( 14-C , 15-C ) :   1.5546 B( 14-C , 18-S ) :   1.2633 B( 14-C , 28-C ) :   0.7500
B( 15-C , 16-C ) :   1.2340 B( 15-C , 19-C ) :   0.9379 B( 16-C , 17-C ) :   1.5159
B( 16-C , 56-H ) :   0.9420 B( 17-C , 18-S ) :   1.2784 B( 17-C , 38-C ) :   0.9805
B( 19-C , 20-C ) :   0.9537 B( 19-C , 57-H ) :   0.9909 B( 19-C , 58-H ) :   0.9583
B( 20-C , 59-H ) :   0.9755 B( 20-C , 60-H ) :   0.9738 B( 20-C , 61-H ) :   0.9728
B( 21-C , 22-C ) :   1.5105 B( 21-C , 25-S ) :   1.2225 B( 21-C , 35-C ) :   0.8132
B( 22-C , 23-C ) :   1.2239 B( 22-C , 26-C ) :   0.9546 B( 23-C , 24-C ) :   1.6363
B( 23-C , 62-H ) :   0.9478 B( 24-C , 25-S ) :   1.2638 B( 24-C , 42-C ) :   0.8933
B( 26-C , 27-C ) :   0.9810 B( 26-C , 63-H ) :   0.9418 B( 26-C , 64-H ) :   0.9765
B( 27-C , 65-H ) :   0.9699 B( 27-C , 66-H ) :   0.9782 B( 27-C , 67-H ) :   0.9764
B( 28-C , 29-C ) :   1.5389 B( 28-C , 32-S ) :   1.2647 B( 29-C , 30-C ) :   1.2284
B( 29-C , 33-C ) :   0.9426 B( 30-C , 31-C ) :   1.5090 B( 30-C , 68-H ) :   0.9395
B( 31-C , 32-S ) :   1.2703 B( 33-C , 34-C ) :   0.9557 B( 33-C , 69-H ) :   0.9909
B( 33-C , 70-H ) :   0.9552 B( 34-C , 71-H ) :   0.9751 B( 34-C , 72-H ) :   0.9742
B( 34-C , 73-H ) :   0.9730 B( 35-C , 36-C ) :   1.4903 B( 35-C , 39-S ) :   1.2114
B( 36-C , 37-C ) :   1.2453 B( 36-C , 40-C ) :   0.9547 B( 37-C , 38-C ) :   1.4965
B( 37-C , 74-H ) :   0.9417 B( 38-C , 39-S ) :   1.2784 B( 40-C , 41-C ) :   0.9704
B( 40-C , 75-H ) :   0.9457 B( 40-C , 76-H ) :   0.9802 B( 41-C , 77-H ) :   0.9748
B( 41-C , 78-H ) :   0.9756 B( 41-C , 79-H ) :   0.9737 B( 42-C , 80-H ) :   0.9887
B( 42-C , 81-H ) :   0.9679 B( 42-C , 82-H ) :   0.9625 B( 43-C , 83-H ) :   0.9892
B( 43-C , 84-H ) :   0.9643 B( 43-C , 85-H ) :   0.9664

-----------------------------------------------------------------------------
         ABSORPTION SPECTRUM VIA TRANSITION ELECTRIC DIPOLE MOMENTS
-----------------------------------------------------------------------------
State   Energy    Wavelength  fosc         T2        TX        TY        TZ
        (cm-1)      (nm)                 (au**2)    (au)      (au)      (au)
-----------------------------------------------------------------------------
   1   24277.1    411.9   1.365920018  18.52272  -2.51882   3.48355   0.20776
   2   26145.9    382.5   0.077885574   0.98068  -0.51243   0.81095   0.24588
   3   28236.3    354.2   0.233709957   2.72486   0.68086  -1.36394  -0.63321
   4   29171.6    342.8   0.458463779   5.17392   1.43384  -1.67526   0.55814
   5   31488.3    317.6   0.080511986   0.84176   0.53794  -0.73780   0.08965
   6   31950.3    313.0   0.000872083   0.00899  -0.05367  -0.03514  -0.06979
   7   32856.0    304.4   0.031435435   0.31498   0.34789  -0.41659   0.14285
   8   34252.8    291.9   0.012262726   0.11786  -0.11095   0.10844  -0.30625
   9   34622.4    288.8   0.020127097   0.19138   0.20217  -0.14510   0.35980
  10   35216.2    284.0   0.004283783   0.04005   0.03068  -0.03046   0.19539
  11   35338.2    283.0   0.014902739   0.13883  -0.23480   0.28715  -0.03531
  12   35470.6    281.9   0.028075199   0.26057  -0.19249   0.47256  -0.01448
  13   35808.7    279.3   0.000142314   0.00131   0.01539  -0.00327   0.03257
  14   35994.1    277.8   0.015416735   0.14101  -0.15420   0.31846   0.12576
  15   36400.1    274.7   0.016634926   0.15045   0.30438   0.19743   0.13720
  16   36501.5    274.0   0.004249390   0.03833  -0.10434  -0.15036   0.06951
  17   36877.2    271.2   0.005555982   0.04960   0.00695  -0.18334  -0.12625
  18   37094.2    269.6   0.019156192   0.17001  -0.11114   0.26062  -0.29956
  19   37655.9    265.6   0.028405960   0.24834   0.02489  -0.05508  -0.49466
  20   37703.1    265.2   0.030731730   0.26834   0.16902  -0.16429   0.46128
  21   37956.5    263.5   0.013983924   0.12129  -0.02194   0.22236   0.26714
  22   38252.6    261.4   0.014010906   0.12058  -0.13176  -0.29359   0.13048
  23   38368.6    260.6   0.004752607   0.04078  -0.03954   0.07264   0.18422
  24   38821.1    257.6   0.002561762   0.02172  -0.05143   0.01543   0.13726
  25   38987.5    256.5   0.011428154   0.09650   0.04138   0.05965   0.30204
  26   39297.6    254.5   0.005548519   0.04648   0.01169   0.20654   0.06073
  27   39363.9    254.0   0.004547870   0.03804   0.02384   0.03533  -0.19031
  28   39454.4    253.5   0.013641171   0.11382  -0.31186   0.00382   0.12865
  29   39748.8    251.6   0.004713651   0.03904   0.10061   0.11488   0.12538
  30   39928.5    250.4   0.022749744   0.18757  -0.04200   0.07665  -0.42419
  31   40026.7    249.8   0.004596915   0.03781  -0.05968   0.03985   0.18072
  32   40372.5    247.7   0.001024541   0.00835   0.06156  -0.01622  -0.06559
  33   40816.5    245.0   0.011796166   0.09514   0.04754   0.11575  -0.28193
  34   41022.0    243.8   0.003392293   0.02722   0.03127  -0.15994  -0.02577
  35   41474.5    241.1   0.141160378   1.12049   0.66530  -0.82293  -0.02534
  36   42019.2    238.0   0.040034668   0.31366   0.42257  -0.36750  -0.00612
  37   42085.0    237.6   0.001632051   0.01277   0.09691  -0.05807  -0.00151
  38   42423.8    235.7   0.009812519   0.07615  -0.18238   0.19711  -0.06348
  39   42653.3    234.4   0.028348280   0.21880   0.24798  -0.32721  -0.22414
  40   42754.0    233.9   0.006594020   0.05077   0.04509  -0.20721   0.07620
  41   42946.3    232.8   0.059486870   0.45601  -0.36761   0.56361  -0.05664
  42   42973.0    232.7   0.010379412   0.07952  -0.22913   0.10506  -0.12640
  43   43254.6    231.2   0.003575335   0.02721  -0.04667  -0.08820  -0.13135
  44   43415.5    230.3   0.018436888   0.13980   0.32476  -0.17518   0.06037
  45   43419.4    230.3   0.025273796   0.19163  -0.19407   0.35026   0.17688
  46   43596.2    229.4   0.006207691   0.04688  -0.12925   0.04429  -0.16796
  47   43768.3    228.5   0.020505334   0.15424  -0.33757   0.06713  -0.18914
  48   43909.7    227.7   0.037283301   0.27953  -0.36344   0.34728   0.16382
  49   44110.8    226.7   0.017595962   0.13132  -0.35282   0.03405  -0.07538
  50   44264.2    225.9   0.022938723   0.17061   0.09168   0.07742  -0.39523

FINAL SINGLE POINT ENERGY     -3861.734641953389

DIPOLE MOMENT
-------------
                                X             Y             Z
Electronic contribution:     -4.20488       2.26813       3.05956
Nuclear contribution   :      4.28289      -2.33523      -3.06864
                        -----------------------------------------
Total Dipole Moment    :      0.07800      -0.06711      -0.00908
                        -----------------------------------------
Magnitude (a.u.)       :      0.10330
Magnitude (Debye)      :      0.26256

Rotational constants in cm-1:     0.005112     0.000509     0.000487
Rotational constants in MHz :   153.260378    15.245174    14.587825

                             ****ORCA TERMINATED NORMALLY****
TOTAL RUN TIME: 0 days 2 hours 1 minutes 39 seconds 643 msec
