                         Program Version 4.2.0 -  RELEASE  -
|  1> # ORCA input file
|  2> # PBDB-T-2Cl_dimer.out
|  3> ! B3LYP def2-TZVP def2/J RIJCOSX Grid4 TightSCF
|  4> %maxcore 1000
|  5> %tddft
|  6>   maxdim 5
|  7>   nroots 50
|  8>   end
|  9> * xyz 0 1
| 10>    C        0.74401         1.64156         0.20500
| 11>    C        1.67424         0.58844         0.21862
| 12>    C        1.22474        -0.75228         0.24337
| 13>    C       -0.11965        -1.11402         0.24168
| 14>    C       -1.05272        -0.05837         0.24828
| 15>    C       -0.60114         1.28357         0.23311
| 16>    C        3.09751         0.66535         0.21268
| 17>    C        3.71174        -0.53753         0.20285
| 18>    S        2.57024        -1.86040         0.21675
| 19>    C       -2.46708        -0.13814         0.27223
| 20>    C       -3.08679         1.07797         0.23752
| 21>    S       -1.93814         2.39813         0.19613
| 22>    C        1.13312         3.03735         0.14098
| 23>    C       -0.51489        -2.50755         0.20084
| 24>    C        0.56726         4.09146         0.79915
| 25>    C        1.15588         5.32739         0.45671
| 26>    C        2.15201         5.24222        -0.47146
| 27>    S        2.39680         3.59084        -0.92302
| 28>    C        0.06654        -3.56372         0.84286
| 29>    C       -0.54072        -4.79706         0.52514
| 30>    C       -1.56762        -4.70952        -0.36889
| 31>    S       -1.81729        -3.05854        -0.81874
| 32>    C        3.00312         6.33151        -1.02425
| 33>    C        4.28562         6.49712        -0.20527
| 34>    C       -2.44871        -5.79212        -0.88651
| 35>    C       -3.73718        -5.89069        -0.06603
| 36>    C        5.16769        -0.82740         0.19226
| 37>    C       -4.48682         1.34430         0.23852
| 38>    C       -5.52561         0.44604         0.36556
| 39>    C       -6.78637         1.03734         0.30848
| 40>    C       -6.74975         2.40475         0.13371
| 41>    S       -5.09191         2.95578         0.04469
| 42>    C       -7.77817         3.39159         0.05763
| 43>    S       -7.23455         5.04592         0.09555
| 44>    C       -8.85171         5.66732         0.02607
| 45>    C       -9.77444         4.63529         0.00702
| 46>    C       -9.16696         3.33601        -0.00212
| 47>    C      -11.22452         4.84215         0.12111
| 48>    C      -11.99725         3.60639         0.18443
| 49>    C      -11.40690         2.31338         0.04673
| 50>    C       -9.96972         2.11399        -0.13959
| 51>    C      -13.35894         3.56361         0.36068
| 52>    S      -13.92166         1.92842         0.37472
| 53>    C      -12.32735         1.29884         0.13030
| 54>    C       -9.00331         7.09032        -0.01401
| 55>    C       -9.93422         7.87349        -0.64655
| 56>    C       -9.68463         9.24932        -0.50366
| 57>    S       -7.78770         8.08245         0.75485
| 58>    O      -11.75174         5.94210         0.19469
| 59>    O       -9.50253         1.01660        -0.40602
| 60>    C      -14.28837         4.71065         0.52365
| 61>    C      -15.73253         4.29198         0.75583
| 62>    C      -12.12549        -0.16818         0.00718
| 63>    C      -12.09057        -0.58902        -1.46481
| 64>    C       -8.56816         9.51273         0.22743
| 65>   Cl        0.64385         6.81693         1.15171
| 66>   Cl       -0.01317        -6.28692         1.20823
| 67>    H        3.63824         1.59363         0.22083
| 68>    H       -3.00894        -1.06354         0.31507
| 69>    H       -0.21683         3.99827         1.52711
| 70>    H        0.87451        -3.47313         1.54444
| 71>    H        2.43480         7.26366        -1.00289
| 72>    H        3.26035         6.10363        -2.06045
| 73>    H        4.04416         6.73620         0.82756
| 74>    H        4.89154         7.30029        -0.61632
| 75>    H        4.86651         5.57763        -0.22265
| 76>    H       -1.90789        -6.73901        -0.83261
| 77>    H       -2.69835        -5.59219        -1.93045
| 78>    H       -3.50543        -6.10013         0.97550
| 79>    H       -4.36616        -6.68928        -0.45038
| 80>    H       -4.29019        -4.95553        -0.11814
| 81>    H        5.73355         0.10078         0.19041
| 82>    H        5.43386        -1.40662        -0.69143
| 83>    H        5.44719        -1.41251         1.06797
| 84>    H       -5.37390        -0.60948         0.49838
| 85>    H       -7.70247         0.48362         0.37683
| 86>    H      -10.76445         7.47314        -1.19541
| 87>    H      -10.31108        10.01310        -0.92816
| 88>    H      -14.21349         5.34166        -0.36793
| 89>    H      -13.92958         5.32761         1.35356
| 90>    H      -16.10183         3.70679        -0.08407
| 91>    H      -16.36340         5.16973         0.86849
| 92>    H      -15.81631         3.68846         1.65735
| 93>    H      -12.93368        -0.69198         0.52190
| 94>    H      -11.17180        -0.43419         0.46722
| 95>    H      -13.00689        -0.29146        -1.97037
| 96>    H      -11.98347        -1.66777        -1.53889
| 97>    H      -11.24342        -0.12092        -1.95857
| 98>    H       -8.15709        10.46584         0.49572
| 99> *
|100>
|101>                          ****END OF INPUT****

CARTESIAN COORDINATES (ANGSTROEM)
---------------------------------
  C      0.744010    1.641560    0.205000
  C      1.674240    0.588440    0.218620
  C      1.224740   -0.752280    0.243370
  C     -0.119650   -1.114020    0.241680
  C     -1.052720   -0.058370    0.248280
  C     -0.601140    1.283570    0.233110
  C      3.097510    0.665350    0.212680
  C      3.711740   -0.537530    0.202850
  S      2.570240   -1.860400    0.216750
  C     -2.467080   -0.138140    0.272230
  C     -3.086790    1.077970    0.237520
  S     -1.938140    2.398130    0.196130
  C      1.133120    3.037350    0.140980
  C     -0.514890   -2.507550    0.200840
  C      0.567260    4.091460    0.799150
  C      1.155880    5.327390    0.456710
  C      2.152010    5.242220   -0.471460
  S      2.396800    3.590840   -0.923020
  C      0.066540   -3.563720    0.842860
  C     -0.540720   -4.797060    0.525140
  C     -1.567620   -4.709520   -0.368890
  S     -1.817290   -3.058540   -0.818740
  C      3.003120    6.331510   -1.024250
  C      4.285620    6.497120   -0.205270
  C     -2.448710   -5.792120   -0.886510
  C     -3.737180   -5.890690   -0.066030
  C      5.167690   -0.827400    0.192260
  C     -4.486820    1.344300    0.238520
  C     -5.525610    0.446040    0.365560
  C     -6.786370    1.037340    0.308480
  C     -6.749750    2.404750    0.133710
  S     -5.091910    2.955780    0.044690
  C     -7.778170    3.391590    0.057630
  S     -7.234550    5.045920    0.095550
  C     -8.851710    5.667320    0.026070
  C     -9.774440    4.635290    0.007020
  C     -9.166960    3.336010   -0.002120
  C    -11.224520    4.842150    0.121110
  C    -11.997250    3.606390    0.184430
  C    -11.406900    2.313380    0.046730
  C     -9.969720    2.113990   -0.139590
  C    -13.358940    3.563610    0.360680
  S    -13.921660    1.928420    0.374720
  C    -12.327350    1.298840    0.130300
  C     -9.003310    7.090320   -0.014010
  C     -9.934220    7.873490   -0.646550
  C     -9.684630    9.249320   -0.503660
  S     -7.787700    8.082450    0.754850
  O    -11.751740    5.942100    0.194690
  O     -9.502530    1.016600   -0.406020
  C    -14.288370    4.710650    0.523650
  C    -15.732530    4.291980    0.755830
  C    -12.125490   -0.168180    0.007180
  C    -12.090570   -0.589020   -1.464810
  C     -8.568160    9.512730    0.227430
  Cl     0.643850    6.816930    1.151710
  Cl    -0.013170   -6.286920    1.208230
  H      3.638240    1.593630    0.220830
  H     -3.008940   -1.063540    0.315070
  H     -0.216830    3.998270    1.527110
  H      0.874510   -3.473130    1.544440
  H      2.434800    7.263660   -1.002890
  H      3.260350    6.103630   -2.060450
  H      4.044160    6.736200    0.827560
  H      4.891540    7.300290   -0.616320
  H      4.866510    5.577630   -0.222650
  H     -1.907890   -6.739010   -0.832610
  H     -2.698350   -5.592190   -1.930450
  H     -3.505430   -6.100130    0.975500
  H     -4.366160   -6.689280   -0.450380
  H     -4.290190   -4.955530   -0.118140
  H      5.733550    0.100780    0.190410
  H      5.433860   -1.406620   -0.691430
  H      5.447190   -1.412510    1.067970
  H     -5.373900   -0.609480    0.498380
  H     -7.702470    0.483620    0.376830
  H    -10.764450    7.473140   -1.195410
  H    -10.311080   10.013100   -0.928160
  H    -14.213490    5.341660   -0.367930
  H    -13.929580    5.327610    1.353560
  H    -16.101830    3.706790   -0.084070
  H    -16.363400    5.169730    0.868490
  H    -15.816310    3.688460    1.657350
  H    -12.933680   -0.691980    0.521900
  H    -11.171800   -0.434190    0.467220
  H    -13.006890   -0.291460   -1.970370
  H    -11.983470   -1.667770   -1.538890
  H    -11.243420   -0.120920   -1.958570
  H     -8.157090   10.465840    0.495720

 Total Charge           Charge          ....    0
 Multiplicity           Mult            ....    1
 Number of Electrons    NEL             ....  480
 Basis Dimension        Dim             .... 2019

ORBITAL ENERGIES
----------------

  NO   OCC          E(Eh)            E(eV)
   0   2.0000    -101.528444     -2762.7294
   1   2.0000    -101.527667     -2762.7083
   2   2.0000     -88.896607     -2418.9996
   3   2.0000     -88.895185     -2418.9610
   4   2.0000     -88.889569     -2418.8081
   5   2.0000     -88.889283     -2418.8004
   6   2.0000     -88.888774     -2418.7865
   7   2.0000     -88.885915     -2418.7087
   8   2.0000     -88.882286     -2418.6100
   9   2.0000     -88.878384     -2418.5038
  10   2.0000     -19.105945      -519.8992
  11   2.0000     -19.101207      -519.7703
  12   2.0000     -10.261495      -279.2295
  13   2.0000     -10.257697      -279.1261
  14   2.0000     -10.232901      -278.4514
  15   2.0000     -10.230317      -278.3811
  16   2.0000     -10.229665      -278.3633
  17   2.0000     -10.228854      -278.3413
  18   2.0000     -10.220015      -278.1007
  19   2.0000     -10.218715      -278.0654
  20   2.0000     -10.217809      -278.0407
  21   2.0000     -10.217614      -278.0354
  22   2.0000     -10.216468      -278.0042
  23   2.0000     -10.215416      -277.9756
  24   2.0000     -10.214783      -277.9584
  25   2.0000     -10.213218      -277.9158
  26   2.0000     -10.211513      -277.8694
  27   2.0000     -10.211170      -277.8601
  28   2.0000     -10.211044      -277.8566
  29   2.0000     -10.210530      -277.8426
  30   2.0000     -10.209939      -277.8266
  31   2.0000     -10.204286      -277.6727
  32   2.0000     -10.203377      -277.6480
  33   2.0000     -10.200504      -277.5698
  34   2.0000     -10.196232      -277.4536
  35   2.0000     -10.195342      -277.4294
  36   2.0000     -10.193759      -277.3863
  37   2.0000     -10.193402      -277.3766
  38   2.0000     -10.186818      -277.1974
  39   2.0000     -10.186579      -277.1909
  40   2.0000     -10.184829      -277.1433
  41   2.0000     -10.184346      -277.1301
  42   2.0000     -10.184127      -277.1242
  43   2.0000     -10.182334      -277.0754
  44   2.0000     -10.181832      -277.0617
  45   2.0000     -10.181657      -277.0570
  46   2.0000     -10.180967      -277.0382
  47   2.0000     -10.179364      -276.9946
  48   2.0000     -10.178633      -276.9747
  49   2.0000     -10.177129      -276.9338
  50   2.0000     -10.176259      -276.9101
  51   2.0000     -10.175560      -276.8911
  52   2.0000     -10.174106      -276.8515
  53   2.0000     -10.166242      -276.6375
  54   2.0000     -10.165931      -276.6290
  55   2.0000     -10.165321      -276.6125
  56   2.0000     -10.156903      -276.3834
  57   2.0000      -9.460954      -257.4456
  58   2.0000      -9.460172      -257.4244
  59   2.0000      -7.973866      -216.9799
  60   2.0000      -7.971906      -216.9266
  61   2.0000      -7.966346      -216.7753
  62   2.0000      -7.966024      -216.7665
  63   2.0000      -7.965880      -216.7626
  64   2.0000      -7.962561      -216.6723
  65   2.0000      -7.959363      -216.5853
  66   2.0000      -7.955489      -216.4799
  67   2.0000      -7.222495      -196.5341
  68   2.0000      -7.221712      -196.5128
  69   2.0000      -7.214059      -196.3045
  70   2.0000      -7.213834      -196.2984
  71   2.0000      -7.213282      -196.2834
  72   2.0000      -7.213047      -196.2770
  73   2.0000      -5.936295      -161.5348
  74   2.0000      -5.934106      -161.4752
  75   2.0000      -5.932281      -161.4256
  76   2.0000      -5.930589      -161.3795
  77   2.0000      -5.930128      -161.3670
  78   2.0000      -5.929259      -161.3433
  79   2.0000      -5.928744      -161.3293
  80   2.0000      -5.928424      -161.3206
  81   2.0000      -5.928354      -161.3187
  82   2.0000      -5.924952      -161.2261
  83   2.0000      -5.924930      -161.2255
  84   2.0000      -5.924630      -161.2174
  85   2.0000      -5.924463      -161.2128
  86   2.0000      -5.923103      -161.1758
  87   2.0000      -5.922790      -161.1673
  88   2.0000      -5.922509      -161.1596
  89   2.0000      -5.922131      -161.1494
  90   2.0000      -5.920969      -161.1178
  91   2.0000      -5.919608      -161.0807
  92   2.0000      -5.918222      -161.0430
  93   2.0000      -5.918197      -161.0423
  94   2.0000      -5.915425      -160.9669
  95   2.0000      -5.914220      -160.9341
  96   2.0000      -5.911721      -160.8661
  97   2.0000      -1.041433       -28.3388
  98   2.0000      -1.036239       -28.1975
  99   2.0000      -0.924163       -25.1478
 100   2.0000      -0.916688       -24.9444
 101   2.0000      -0.914870       -24.8949
 102   2.0000      -0.908173       -24.7126
 103   2.0000      -0.903036       -24.5729
 104   2.0000      -0.898427       -24.4474
 105   2.0000      -0.886212       -24.1151
 106   2.0000      -0.878060       -23.8932
 107   2.0000      -0.859190       -23.3798
 108   2.0000      -0.854521       -23.2527
 109   2.0000      -0.829391       -22.5689
 110   2.0000      -0.818535       -22.2735
 111   2.0000      -0.811114       -22.0715
 112   2.0000      -0.808201       -21.9923
 113   2.0000      -0.799285       -21.7497
 114   2.0000      -0.794815       -21.6280
 115   2.0000      -0.785946       -21.3867
 116   2.0000      -0.771224       -20.9861
 117   2.0000      -0.767707       -20.8904
 118   2.0000      -0.756065       -20.5736
 119   2.0000      -0.751141       -20.4396
 120   2.0000      -0.745154       -20.2767
 121   2.0000      -0.741981       -20.1903
 122   2.0000      -0.734919       -19.9982
 123   2.0000      -0.733479       -19.9590
 124   2.0000      -0.728718       -19.8294
 125   2.0000      -0.726721       -19.7751
 126   2.0000      -0.720895       -19.6165
 127   2.0000      -0.718015       -19.5382
 128   2.0000      -0.709821       -19.3152
 129   2.0000      -0.690599       -18.7921
 130   2.0000      -0.686521       -18.6812
 131   2.0000      -0.659712       -17.9517
 132   2.0000      -0.652275       -17.7493
 133   2.0000      -0.650485       -17.7006
 134   2.0000      -0.636516       -17.3205
 135   2.0000      -0.633252       -17.2317
 136   2.0000      -0.623964       -16.9789
 137   2.0000      -0.616754       -16.7827
 138   2.0000      -0.612879       -16.6773
 139   2.0000      -0.599303       -16.3079
 140   2.0000      -0.587348       -15.9825
 141   2.0000      -0.577663       -15.7190
 142   2.0000      -0.574302       -15.6276
 143   2.0000      -0.564115       -15.3504
 144   2.0000      -0.560232       -15.2447
 145   2.0000      -0.553883       -15.0719
 146   2.0000      -0.547937       -14.9101
 147   2.0000      -0.538705       -14.6589
 148   2.0000      -0.533325       -14.5125
 149   2.0000      -0.532745       -14.4967
 150   2.0000      -0.525057       -14.2875
 151   2.0000      -0.523115       -14.2347
 152   2.0000      -0.521003       -14.1772
 153   2.0000      -0.515711       -14.0332
 154   2.0000      -0.509295       -13.8586
 155   2.0000      -0.501455       -13.6453
 156   2.0000      -0.500193       -13.6109
 157   2.0000      -0.483284       -13.1508
 158   2.0000      -0.480375       -13.0717
 159   2.0000      -0.476115       -12.9558
 160   2.0000      -0.473481       -12.8841
 161   2.0000      -0.468100       -12.7377
 162   2.0000      -0.464260       -12.6331
 163   2.0000      -0.458653       -12.4806
 164   2.0000      -0.452708       -12.3188
 165   2.0000      -0.449349       -12.2274
 166   2.0000      -0.446966       -12.1626
 167   2.0000      -0.445361       -12.1189
 168   2.0000      -0.444903       -12.1064
 169   2.0000      -0.441389       -12.0108
 170   2.0000      -0.439166       -11.9503
 171   2.0000      -0.436337       -11.8733
 172   2.0000      -0.433678       -11.8010
 173   2.0000      -0.431627       -11.7452
 174   2.0000      -0.430337       -11.7101
 175   2.0000      -0.428532       -11.6609
 176   2.0000      -0.421112       -11.4590
 177   2.0000      -0.420945       -11.4545
 178   2.0000      -0.418544       -11.3892
 179   2.0000      -0.417184       -11.3522
 180   2.0000      -0.416301       -11.3281
 181   2.0000      -0.411809       -11.2059
 182   2.0000      -0.409972       -11.1559
 183   2.0000      -0.407808       -11.0970
 184   2.0000      -0.406992       -11.0748
 185   2.0000      -0.403286       -10.9740
 186   2.0000      -0.399579       -10.8731
 187   2.0000      -0.397174       -10.8077
 188   2.0000      -0.396723       -10.7954
 189   2.0000      -0.393912       -10.7189
 190   2.0000      -0.389662       -10.6032
 191   2.0000      -0.386923       -10.5287
 192   2.0000      -0.383266       -10.4292
 193   2.0000      -0.382024       -10.3954
 194   2.0000      -0.380779       -10.3615
 195   2.0000      -0.379171       -10.3178
 196   2.0000      -0.377876       -10.2825
 197   2.0000      -0.376432       -10.2432
 198   2.0000      -0.373767       -10.1707
 199   2.0000      -0.370645       -10.0858
 200   2.0000      -0.369485       -10.0542
 201   2.0000      -0.367285        -9.9943
 202   2.0000      -0.366942        -9.9850
 203   2.0000      -0.363371        -9.8878
 204   2.0000      -0.362275        -9.8580
 205   2.0000      -0.361725        -9.8430
 206   2.0000      -0.360222        -9.8021
 207   2.0000      -0.357854        -9.7377
 208   2.0000      -0.356563        -9.7026
 209   2.0000      -0.350645        -9.5415
 210   2.0000      -0.350341        -9.5333
 211   2.0000      -0.349820        -9.5191
 212   2.0000      -0.348290        -9.4775
 213   2.0000      -0.347649        -9.4600
 214   2.0000      -0.343634        -9.3507
 215   2.0000      -0.342752        -9.3268
 216   2.0000      -0.342045        -9.3075
 217   2.0000      -0.336690        -9.1618
 218   2.0000      -0.330615        -8.9965
 219   2.0000      -0.320399        -8.7185
 220   2.0000      -0.317151        -8.6301
 221   2.0000      -0.314542        -8.5591
 222   2.0000      -0.307729        -8.3737
 223   2.0000      -0.293158        -7.9772
 224   2.0000      -0.278410        -7.5759
 225   2.0000      -0.269092        -7.3224
 226   2.0000      -0.267570        -7.2809
 227   2.0000      -0.262866        -7.1530
 228   2.0000      -0.261325        -7.1110
 229   2.0000      -0.257731        -7.0132
 230   2.0000      -0.256142        -6.9700
 231   2.0000      -0.254980        -6.9384
 232   2.0000      -0.252456        -6.8697
 233   2.0000      -0.246494        -6.7074
 234   2.0000      -0.241092        -6.5604
 235   2.0000      -0.235681        -6.4132
 236   2.0000      -0.233574        -6.3559
 237   2.0000      -0.226200        -6.1552
 238   2.0000      -0.203546        -5.5388
 239   2.0000      -0.188666        -5.1339
 240   0.0000      -0.096388        -2.6228
 241   0.0000      -0.084576        -2.3014
 242   0.0000      -0.066755        -1.8165
 243   0.0000      -0.050505        -1.3743
 244   0.0000      -0.037904        -1.0314

MULLIKEN ATOMIC CHARGES
-----------------------
   0 C :    0.119156
   1 C :    0.069980
   2 C :   -0.034082
   3 C :    0.083006
   4 C :    0.183267
   5 C :   -0.029948
   6 C :   -0.224687
   7 C :    0.081856
   8 S :    0.002474
   9 C :   -0.236970
  10 C :    0.071749
  11 S :   -0.039149
  12 C :   -0.026891
  13 C :   -0.013345
  14 C :   -0.307496
  15 C :    0.116515
  16 C :   -0.002978
  17 S :    0.014487
  18 C :   -0.286713
  19 C :    0.108067
  20 C :   -0.002317
  21 S :    0.012123
  22 C :   -0.205640
  23 C :   -0.329089
  24 C :   -0.200508
  25 C :   -0.332102
  26 C :   -0.373193
  27 C :    0.080890
  28 C :   -0.158282
  29 C :   -0.184761
  30 C :    0.136635
  31 S :   -0.020072
  32 C :    0.001736
  33 S :    0.012074
  34 C :    0.120877
  35 C :    0.039765
  36 C :   -0.012606
  37 C :    0.130593
  38 C :   -0.007571
  39 C :   -0.035818
  40 C :    0.180045
  41 C :   -0.016652
  42 S :    0.037314
  43 C :    0.038539
  44 C :    0.001819
  45 C :   -0.169437
  46 C :   -0.118520
  47 S :    0.034310
  48 O :   -0.379010
  49 O :   -0.411027
  50 C :   -0.092562
  51 C :   -0.336509
  52 C :   -0.111096
  53 C :   -0.346707
  54 C :   -0.180215
  55 Cl:   -0.109958
  56 Cl:   -0.110772
  57 H :    0.120794
  58 H :    0.131518
  59 H :    0.140810
  60 H :    0.137355
  61 H :    0.110953
  62 H :    0.103840
  63 H :    0.119814
  64 H :    0.107970
  65 H :    0.104689
  66 H :    0.110700
  67 H :    0.104820
  68 H :    0.119215
  69 H :    0.108667
  70 H :    0.106586
  71 H :    0.122586
  72 H :    0.127364
  73 H :    0.126515
  74 H :    0.116814
  75 H :    0.158380
  76 H :    0.130485
  77 H :    0.117256
  78 H :    0.106928
  79 H :    0.115540
  80 H :    0.110791
  81 H :    0.118738
  82 H :    0.113243
  83 H :    0.090697
  84 H :    0.109072
  85 H :    0.099658
  86 H :    0.102958
  87 H :    0.133989
  88 H :    0.140659
Sum of atomic charges:   -0.0000000

LOEWDIN ATOMIC CHARGES
----------------------
   0 C :   -0.120237
   1 C :   -0.110427
   2 C :   -0.260247
   3 C :   -0.117480
   4 C :   -0.112742
   5 C :   -0.258161
   6 C :   -0.154603
   7 C :   -0.381327
   8 S :    0.743293
   9 C :   -0.123388
  10 C :   -0.354913
  11 S :    0.754726
  12 C :   -0.319955
  13 C :   -0.318185
  14 C :   -0.172028
  15 C :   -0.482775
  16 C :   -0.378355
  17 S :    0.784033
  18 C :   -0.172180
  19 C :   -0.482786
  20 C :   -0.378197
  21 S :    0.785308
  22 C :   -0.278911
  23 C :   -0.293700
  24 C :   -0.278646
  25 C :   -0.293722
  26 C :   -0.280098
  27 C :   -0.359661
  28 C :   -0.145830
  29 C :   -0.133953
  30 C :   -0.352072
  31 S :    0.753544
  32 C :   -0.295455
  33 S :    0.790361
  34 C :   -0.302865
  35 C :   -0.091165
  36 C :   -0.087513
  37 C :   -0.269178
  38 C :   -0.111246
  39 C :   -0.108265
  40 C :   -0.265288
  41 C :   -0.296203
  42 S :    0.801974
  43 C :   -0.300985
  44 C :   -0.364164
  45 C :   -0.133910
  46 C :   -0.197804
  47 S :    0.731538
  48 O :    0.128655
  49 O :    0.116609
  50 C :   -0.268662
  51 C :   -0.311549
  52 C :   -0.271540
  53 C :   -0.290540
  54 C :   -0.390380
  55 Cl:    0.410733
  56 Cl:    0.409386
  57 H :    0.139210
  58 H :    0.139403
  59 H :    0.145051
  60 H :    0.144083
  61 H :    0.144441
  62 H :    0.140424
  63 H :    0.121314
  64 H :    0.116815
  65 H :    0.115933
  66 H :    0.143981
  67 H :    0.141046
  68 H :    0.121404
  69 H :    0.117063
  70 H :    0.115785
  71 H :    0.131795
  72 H :    0.130524
  73 H :    0.130171
  74 H :    0.144446
  75 H :    0.154272
  76 H :    0.150549
  77 H :    0.141610
  78 H :    0.153963
  79 H :    0.155532
  80 H :    0.116524
  81 H :    0.120646
  82 H :    0.117312
  83 H :    0.135026
  84 H :    0.151805
  85 H :    0.114575
  86 H :    0.116535
  87 H :    0.124651
  88 H :    0.125246

  Mayer bond orders larger than 0.100000
B(  0-C ,  1-C ) :   1.1952 B(  0-C ,  5-C ) :   1.2525 B(  0-C , 12-C ) :   0.8850
B(  0-C , 17-S ) :  -0.1143 B(  1-C ,  2-C ) :   1.2996 B(  1-C ,  6-C ) :   1.1858
B(  2-C ,  3-C ) :   1.2826 B(  2-C ,  8-S ) :   1.2450 B(  3-C ,  4-C ) :   1.2015
B(  3-C , 13-C ) :   0.9140 B(  3-C , 21-S ) :  -0.1015 B(  4-C ,  5-C ) :   1.2403
B(  4-C ,  9-C ) :   1.2392 B(  5-C , 11-S ) :   1.2529 B(  6-C ,  7-C ) :   1.7112
B(  6-C ,  8-S ) :   0.1003 B(  6-C , 57-H ) :   0.9047 B(  7-C ,  8-S ) :   1.1998
B(  7-C , 26-C ) :   0.8816 B(  9-C , 10-C ) :   1.5585 B(  9-C , 58-H ) :   0.8833
B( 10-C , 11-S ) :   1.2487 B( 10-C , 27-C ) :   1.0546 B( 12-C , 14-C ) :   1.5474
B( 12-C , 17-S ) :   1.2662 B( 13-C , 18-C ) :   1.5327 B( 13-C , 21-S ) :   1.2574
B( 14-C , 15-C ) :   1.2382 B( 14-C , 17-S ) :   0.1131 B( 14-C , 59-H ) :   0.9523
B( 15-C , 16-C ) :   1.5439 B( 15-C , 55-Cl) :   1.0304 B( 16-C , 17-S ) :   1.2456
B( 16-C , 22-C ) :   0.9348 B( 18-C , 19-C ) :   1.2387 B( 18-C , 21-S ) :   0.1053
B( 18-C , 60-H ) :   0.9504 B( 19-C , 20-C ) :   1.5433 B( 19-C , 56-Cl) :   1.0288
B( 20-C , 21-S ) :   1.2429 B( 20-C , 24-C ) :   0.9360 B( 22-C , 23-C ) :   0.9508
B( 22-C , 61-H ) :   0.9729 B( 22-C , 62-H ) :   0.9696 B( 23-C , 63-H ) :   0.9751
B( 23-C , 64-H ) :   0.9721 B( 23-C , 65-H ) :   0.9750 B( 24-C , 25-C ) :   0.9497
B( 24-C , 66-H ) :   0.9731 B( 24-C , 67-H ) :   0.9678 B( 25-C , 68-H ) :   0.9752
B( 25-C , 69-H ) :   0.9718 B( 25-C , 70-H ) :   0.9757 B( 26-C , 71-H ) :   0.9930
B( 26-C , 72-H ) :   0.9652 B( 26-C , 73-H ) :   0.9651 B( 27-C , 28-C ) :   1.4362
B( 27-C , 31-S ) :   1.2937 B( 28-C , 29-C ) :   1.3632 B( 28-C , 74-H ) :   0.9583
B( 29-C , 30-C ) :   1.4806 B( 29-C , 75-H ) :   0.9222 B( 30-C , 31-S ) :   1.2579
B( 30-C , 32-C ) :   1.0830 B( 32-C , 33-S ) :   1.2761 B( 32-C , 36-C ) :   1.3927
B( 33-S , 34-C ) :   1.2669 B( 34-C , 35-C ) :   1.4560 B( 34-C , 44-C ) :   0.9472
B( 34-C , 47-S ) :  -0.1157 B( 35-C , 36-C ) :   1.1782 B( 35-C , 37-C ) :   1.0464
B( 36-C , 40-C ) :   1.0424 B( 37-C , 38-C ) :   1.0094 B( 37-C , 48-O ) :   2.0105
B( 38-C , 39-C ) :   1.0974 B( 38-C , 41-C ) :   1.5491 B( 39-C , 40-C ) :   1.0328
B( 39-C , 43-C ) :   1.5983 B( 40-C , 49-O ) :   1.9079 B( 41-C , 42-S ) :   1.2489
B( 41-C , 50-C ) :   1.0199 B( 42-S , 43-C ) :   1.2856 B( 43-C , 52-C ) :   0.9226
B( 44-C , 45-C ) :   1.5275 B( 44-C , 47-S ) :   1.2843 B( 45-C , 46-C ) :   1.3136
B( 45-C , 76-H ) :   0.9422 B( 46-C , 47-S ) :   0.1095 B( 46-C , 54-C ) :   1.6288
B( 46-C , 77-H ) :   0.9575 B( 47-S , 54-C ) :   1.2773 B( 50-C , 51-C ) :   0.9578
B( 50-C , 78-H ) :   0.9386 B( 50-C , 79-H ) :   0.9419 B( 51-C , 80-H ) :   0.9707
B( 51-C , 81-H ) :   0.9787 B( 51-C , 82-H ) :   0.9726 B( 52-C , 53-C ) :   0.9386
B( 52-C , 83-H ) :   0.9640 B( 52-C , 84-H ) :   0.9591 B( 53-C , 85-H ) :   0.9727
B( 53-C , 86-H ) :   0.9724 B( 53-C , 87-H ) :   0.9781 B( 54-C , 88-H ) :   0.9408

-----------------------------------------------------------------------------
         ABSORPTION SPECTRUM VIA TRANSITION ELECTRIC DIPOLE MOMENTS
-----------------------------------------------------------------------------
State   Energy    Wavelength  fosc         T2        TX        TY        TZ
        (cm-1)      (nm)                 (au**2)    (au)      (au)      (au)
-----------------------------------------------------------------------------
   1   18598.3    537.7   1.064603593  18.84472  -3.70999   2.25271  -0.07769
   2   20575.2    486.0   0.070649934   1.13043  -0.51365  -0.93056   0.02557
   3   20833.2    480.0   0.444771132   7.02838  -2.56021   0.68623  -0.05270
   4   23629.7    423.2   0.053451796   0.74470  -0.27364  -0.81735   0.04195
   5   24442.6    409.1   0.204834717   2.75888  -0.43037  -1.60403  -0.02751
   6   25104.4    398.3   0.089282885   1.17083   0.64403  -0.86947  -0.00895
   7   25689.7    389.3   0.001386061   0.01776  -0.11994   0.04345   0.03858
   8   26316.3    380.0   0.024731239   0.30938  -0.42347  -0.36061   0.00418
   9   26880.4    372.0   0.191640025   2.34707  -1.13266   1.03152   0.01168
  10   27144.8    368.4   0.058696162   0.71187  -0.50337  -0.67394   0.06546
  11   27384.9    365.2   0.017139542   0.20605  -0.05730  -0.45010  -0.01312
  12   27481.0    363.9   0.269817833   3.23231   1.64156   0.73249  -0.03256
  13   28198.6    354.6   0.166060672   1.93872  -1.38968  -0.08291   0.02516
  14   28641.9    349.1   0.024553156   0.28222  -0.44155  -0.29522   0.00941
  15   28816.2    347.0   0.092321951   1.05474   0.43027   0.93226  -0.02211
  16   29112.4    343.5   0.019589748   0.22153  -0.42965   0.19214   0.00300
  17   30114.5    332.1   0.022194917   0.24263   0.47190   0.13951  -0.02206
  18   30343.2    329.6   0.067849560   0.73614   0.29766   0.80451   0.01731
  19   30761.3    325.1   0.071706899   0.76742   0.75270   0.44727   0.02848
  20   30847.5    324.2   0.049492499   0.52820   0.04344   0.72405  -0.04544
  21   30874.3    323.9   0.010899181   0.11622  -0.02955   0.33957  -0.00578
  22   31166.4    320.9   0.002862393   0.03024   0.14115  -0.09657  -0.03142
  23   31590.7    316.5   0.016454476   0.17147   0.37273  -0.17213   0.05402
  24   31655.5    315.9   0.022255698   0.23146   0.40996   0.25130   0.01551
  25   32023.1    312.3   0.001078026   0.01108  -0.03680  -0.09156   0.03667
  26   32057.8    311.9   0.022731539   0.23344  -0.45765  -0.15488  -0.00332
  27   32240.9    310.2   0.008775012   0.08960  -0.19055  -0.22747  -0.03938
  28   32283.9    309.8   0.067339689   0.68669   0.60601   0.56476  -0.02220
  29   32503.8    307.7   0.028231141   0.28594  -0.51184  -0.14845   0.04377
  30   32765.1    305.2   0.028138064   0.28272  -0.50605  -0.12749   0.10189
  31   33347.1    299.9   0.003897755   0.03848   0.11996   0.15042   0.03827
  32   33425.4    299.2   0.050027245   0.49273   0.65949  -0.20082   0.13217
  33   33564.7    297.9   0.035001332   0.34330   0.20206   0.54284   0.08830
  34   33902.1    295.0   0.005575203   0.05414   0.22170  -0.03521   0.06124
  35   34095.0    293.3   0.012294763   0.11871  -0.33354  -0.03959   0.07679
  36   34219.9    292.2   0.062299007   0.59935  -0.47405  -0.60470  -0.09464
  37   34357.1    291.1   0.109953535   1.05358  -0.36118  -0.95252   0.12582
  38   34574.4    289.2   0.105592517   1.00544   0.79671  -0.60744   0.04136
  39   34718.2    288.0   0.032575628   0.30890   0.18413   0.51276  -0.10986
  40   35002.5    285.7   0.192129880   1.80706  -1.03115  -0.86153   0.03957
  41   35053.9    285.3   0.025011374   0.23490  -0.46312  -0.10665  -0.09508
  42   35357.0    282.8   0.009422469   0.08773   0.19382  -0.22279  -0.02311
  43   35535.0    281.4   0.006152573   0.05700  -0.23742   0.01639   0.01905
  44   35703.1    280.1   0.008333809   0.07684  -0.25950  -0.07867   0.05760
  45   36036.2    277.5   0.006834603   0.06244   0.15818   0.19300  -0.01295
  46   36052.2    277.4   0.003531229   0.03225  -0.00553  -0.17933   0.00741
  47   36270.9    275.7   0.008420840   0.07643  -0.26802  -0.02136   0.06434
  48   36417.4    274.6   0.005088340   0.04600  -0.20592   0.05631   0.02061
  49   36601.5    273.2   0.003410409   0.03067   0.14650  -0.08655   0.04151
  50   36933.7    270.8   0.010054570   0.08962  -0.10771  -0.27813  -0.02577

FINAL SINGLE POINT ENERGY     -5989.532321247219

DIPOLE MOMENT
-------------
                                X             Y             Z
Electronic contribution:     31.48267       8.48329       9.08035
Nuclear contribution   :    -31.25352      -8.58148      -9.34233
                        -----------------------------------------
Total Dipole Moment    :      0.22915      -0.09819      -0.26198
                        -----------------------------------------
Magnitude (a.u.)       :      0.36164
Magnitude (Debye)      :      0.91922

Rotational constants in cm-1:     0.001354     0.000513     0.000377
Rotational constants in MHz :    40.577195    15.372140    11.302200

                             ****ORCA TERMINATED NORMALLY****
TOTAL RUN TIME: 1 days 11 hours 54 minutes 19 seconds 747 msec
