                         Program Version 4.2.0 -  RELEASE  -
|  1> # ORCA input file
|  2> # PBDB-T-2Cl_dimer.out: Geometry 39
|  3> ! B3LYP def2-TZVP def2/J RIJCOSX Grid4 TightSCF
|  4>
|  5> %maxcore 6000
|  6> %tddft
|  7>   maxdim 5
|  8>   nroots 50
|  9>   end
| 10> %pal
| 11>   nprocs 6
| 12>   end
| 13>
| 14>
| 15> * xyz 0 1
| 16>    C        0.61532         1.58147         0.53681
| 17>    C        1.60790         0.59501         0.72374
| 18>    C        1.23212        -0.78026         0.79264
| 19>    C       -0.09140        -1.22850         0.66767
| 20>    C       -1.09359        -0.23742         0.51200
| 21>    C       -0.71093         1.13807         0.45888
| 22>    C        3.03549         0.76372         0.81751
| 23>    C        3.72017        -0.41068         0.93078
| 24>    S        2.65018        -1.80700         0.94585
| 25>    C       -2.51611        -0.39650         0.37048
| 26>    C       -3.18652         0.79338         0.20624
| 27>    S       -2.09053         2.17812         0.19462
| 28>    C        0.92767         3.00243         0.32526
| 29>    C       -0.36501        -2.66947         0.60599
| 30>    C        0.40325         4.10644         0.95673
| 31>    C        0.83049         5.32911         0.35446
| 32>    C        1.65709         5.17755        -0.73539
| 33>    S        1.94044         3.48339        -1.01907
| 34>    C        0.10868        -3.66737         1.42726
| 35>    C       -0.19637        -4.96976         0.93184
| 36>    C       -0.88249        -4.98875        -0.26070
| 37>    S       -1.18551        -3.35532        -0.78125
| 38>    C        2.27851         6.23247        -1.59908
| 39>    C        3.75029         6.52256        -1.27473
| 40>    C       -1.35533        -6.17068        -1.05008
| 41>    C       -2.82231        -6.54369        -0.79471
| 42>    C        5.19598        -0.61757         1.04391
| 43>    C       -4.60229         1.05176         0.05164
| 44>    C       -5.63868         0.21163        -0.32516
| 45>    C       -6.89557         0.85845        -0.41437
| 46>    C       -6.84765         2.21590        -0.11202
| 47>    S       -5.20408         2.66143         0.33748
| 48>    C       -7.83724         3.27778        -0.11738
| 49>    S       -7.18879         4.90747        -0.09327
| 50>    C       -8.75469         5.65761         0.03983
| 51>    C       -9.75279         4.68671         0.02595
| 52>    C       -9.23860         3.33338        -0.10225
| 53>    C      -11.19160         4.97426         0.25903
| 54>    C      -12.06743         3.79140         0.30474
| 55>    C      -11.58372         2.46254         0.02399
| 56>    C      -10.15253         2.17111        -0.21003
| 57>    C      -13.43029         3.84691         0.54553
| 58>    S      -14.11414         2.25335         0.40413
| 59>    C      -12.58960         1.51227         0.02432
| 60>    C       -8.77516         7.10682         0.11028
| 61>    C       -9.67520         8.02567        -0.39885
| 62>    C       -9.27656         9.37313        -0.18960
| 63>    S       -7.42402         7.93565         0.86852
| 64>    O      -11.63221         6.10980         0.40881
| 65>    O       -9.76653         1.03746        -0.48635
| 66>    C      -14.28044         5.03669         0.88341
| 67>    C      -15.74582         4.72227         1.18276
| 68>    C      -12.55279         0.05997        -0.34195
| 69>    C      -12.57509        -0.14583        -1.86309
| 70>    C       -8.08108         9.48125         0.48161
| 71>   Cl        0.33499         6.88575         0.95688
| 72>   Cl        0.27972        -6.41990         1.76770
| 73>    H        3.52683         1.73625         0.78975
| 74>    H       -3.01907        -1.36146         0.41923
| 75>    H       -0.26469         4.05709         1.81597
| 76>    H        0.65914        -3.48891         2.34977
| 77>    H        1.68263         7.14941        -1.47623
| 78>    H        2.18371         5.93378        -2.65693
| 79>    H        3.85970         6.86791        -0.23480
| 80>    H        4.14977         7.30423        -1.93907
| 81>    H        4.36949         5.62045        -1.40133
| 82>    H       -0.70538        -7.01985        -0.78840
| 83>    H       -1.19924        -5.97508        -2.12428
| 84>    H       -2.97833        -6.80697         0.26292
| 85>    H       -3.11901        -7.40566        -1.41186
| 86>    H       -3.49321        -5.70512        -1.03841
| 87>    H        5.72335         0.33858         0.91916
| 88>    H        5.56553        -1.31633         0.27641
| 89>    H        5.47261        -1.04068         2.02485
| 90>    H       -5.48261        -0.83967        -0.57023
| 91>    H       -7.82442         0.38050        -0.70878
| 92>    H      -10.59207         7.72487        -0.89681
| 93>    H       -9.85824        10.23257        -0.52399
| 94>    H      -14.19393         5.76082         0.05545
| 95>    H      -13.80805         5.55648         1.73327
| 96>    H      -16.25522         4.28330         0.30933
| 97>    H      -16.28916         5.63758         1.46017
| 98>    H      -15.84608         4.01086         2.01844
| 99>    H      -13.41148        -0.45366         0.11911
|100>    H      -11.63534        -0.38110         0.07038
|101>    H      -13.45287         0.33975        -2.31684
|102>    H      -12.60810        -1.21774        -2.11337
|103>    H      -11.67117         0.28445        -2.31666
|104>    H       -7.55726        10.38537         0.78741
|105> *
|106>
|107>                          ****END OF INPUT****

CARTESIAN COORDINATES (ANGSTROEM)
---------------------------------
  C      0.615320    1.581470    0.536810
  C      1.607900    0.595010    0.723740
  C      1.232120   -0.780260    0.792640
  C     -0.091400   -1.228500    0.667670
  C     -1.093590   -0.237420    0.512000
  C     -0.710930    1.138070    0.458880
  C      3.035490    0.763720    0.817510
  C      3.720170   -0.410680    0.930780
  S      2.650180   -1.807000    0.945850
  C     -2.516110   -0.396500    0.370480
  C     -3.186520    0.793380    0.206240
  S     -2.090530    2.178120    0.194620
  C      0.927670    3.002430    0.325260
  C     -0.365010   -2.669470    0.605990
  C      0.403250    4.106440    0.956730
  C      0.830490    5.329110    0.354460
  C      1.657090    5.177550   -0.735390
  S      1.940440    3.483390   -1.019070
  C      0.108680   -3.667370    1.427260
  C     -0.196370   -4.969760    0.931840
  C     -0.882490   -4.988750   -0.260700
  S     -1.185510   -3.355320   -0.781250
  C      2.278510    6.232470   -1.599080
  C      3.750290    6.522560   -1.274730
  C     -1.355330   -6.170680   -1.050080
  C     -2.822310   -6.543690   -0.794710
  C      5.195980   -0.617570    1.043910
  C     -4.602290    1.051760    0.051640
  C     -5.638680    0.211630   -0.325160
  C     -6.895570    0.858450   -0.414370
  C     -6.847650    2.215900   -0.112020
  S     -5.204080    2.661430    0.337480
  C     -7.837240    3.277780   -0.117380
  S     -7.188790    4.907470   -0.093270
  C     -8.754690    5.657610    0.039830
  C     -9.752790    4.686710    0.025950
  C     -9.238600    3.333380   -0.102250
  C    -11.191600    4.974260    0.259030
  C    -12.067430    3.791400    0.304740
  C    -11.583720    2.462540    0.023990
  C    -10.152530    2.171110   -0.210030
  C    -13.430290    3.846910    0.545530
  S    -14.114140    2.253350    0.404130
  C    -12.589600    1.512270    0.024320
  C     -8.775160    7.106820    0.110280
  C     -9.675200    8.025670   -0.398850
  C     -9.276560    9.373130   -0.189600
  S     -7.424020    7.935650    0.868520
  O    -11.632210    6.109800    0.408810
  O     -9.766530    1.037460   -0.486350
  C    -14.280440    5.036690    0.883410
  C    -15.745820    4.722270    1.182760
  C    -12.552790    0.059970   -0.341950
  C    -12.575090   -0.145830   -1.863090
  C     -8.081080    9.481250    0.481610
  Cl     0.334990    6.885750    0.956880
  Cl     0.279720   -6.419900    1.767700
  H      3.526830    1.736250    0.789750
  H     -3.019070   -1.361460    0.419230
  H     -0.264690    4.057090    1.815970
  H      0.659140   -3.488910    2.349770
  H      1.682630    7.149410   -1.476230
  H      2.183710    5.933780   -2.656930
  H      3.859700    6.867910   -0.234800
  H      4.149770    7.304230   -1.939070
  H      4.369490    5.620450   -1.401330
  H     -0.705380   -7.019850   -0.788400
  H     -1.199240   -5.975080   -2.124280
  H     -2.978330   -6.806970    0.262920
  H     -3.119010   -7.405660   -1.411860
  H     -3.493210   -5.705120   -1.038410
  H      5.723350    0.338580    0.919160
  H      5.565530   -1.316330    0.276410
  H      5.472610   -1.040680    2.024850
  H     -5.482610   -0.839670   -0.570230
  H     -7.824420    0.380500   -0.708780
  H    -10.592070    7.724870   -0.896810
  H     -9.858240   10.232570   -0.523990
  H    -14.193930    5.760820    0.055450
  H    -13.808050    5.556480    1.733270
  H    -16.255220    4.283300    0.309330
  H    -16.289160    5.637580    1.460170
  H    -15.846080    4.010860    2.018440
  H    -13.411480   -0.453660    0.119110
  H    -11.635340   -0.381100    0.070380
  H    -13.452870    0.339750   -2.316840
  H    -12.608100   -1.217740   -2.113370
  H    -11.671170    0.284450   -2.316660
  H     -7.557260   10.385370    0.787410

 Total Charge           Charge          ....    0
 Multiplicity           Mult            ....    1
 Number of Electrons    NEL             ....  480
 Basis Dimension        Dim             .... 2019

ORBITAL ENERGIES
----------------

  NO   OCC          E(Eh)            E(eV)
   0   2.0000    -101.528374     -2762.7275
   1   2.0000    -101.527319     -2762.6988
   2   2.0000     -88.898266     -2419.0448
   3   2.0000     -88.895790     -2418.9774
   4   2.0000     -88.890972     -2418.8463
   5   2.0000     -88.889951     -2418.8185
   6   2.0000     -88.888755     -2418.7860
   7   2.0000     -88.888046     -2418.7667
   8   2.0000     -88.883313     -2418.6379
   9   2.0000     -88.880111     -2418.5508
  10   2.0000     -19.108698      -519.9741
  11   2.0000     -19.104383      -519.8567
  12   2.0000     -10.266546      -279.3669
  13   2.0000     -10.262931      -279.2686
  14   2.0000     -10.239608      -278.6339
  15   2.0000     -10.235629      -278.5256
  16   2.0000     -10.234435      -278.4931
  17   2.0000     -10.234010      -278.4816
  18   2.0000     -10.224726      -278.2289
  19   2.0000     -10.224156      -278.2134
  20   2.0000     -10.223999      -278.2092
  21   2.0000     -10.222988      -278.1816
  22   2.0000     -10.220690      -278.1191
  23   2.0000     -10.219364      -278.0830
  24   2.0000     -10.218594      -278.0621
  25   2.0000     -10.217163      -278.0231
  26   2.0000     -10.216873      -278.0153
  27   2.0000     -10.216235      -277.9979
  28   2.0000     -10.215845      -277.9873
  29   2.0000     -10.214763      -277.9578
  30   2.0000     -10.214039      -277.9381
  31   2.0000     -10.209674      -277.8194
  32   2.0000     -10.207361      -277.7564
  33   2.0000     -10.206055      -277.7209
  34   2.0000     -10.203222      -277.6438
  35   2.0000     -10.201316      -277.5919
  36   2.0000     -10.200284      -277.5638
  37   2.0000     -10.198436      -277.5136
  38   2.0000     -10.190962      -277.3102
  39   2.0000     -10.190768      -277.3049
  40   2.0000     -10.190638      -277.3014
  41   2.0000     -10.190453      -277.2963
  42   2.0000     -10.189937      -277.2823
  43   2.0000     -10.189403      -277.2678
  44   2.0000     -10.188259      -277.2366
  45   2.0000     -10.187438      -277.2143
  46   2.0000     -10.187260      -277.2094
  47   2.0000     -10.185713      -277.1673
  48   2.0000     -10.183285      -277.1013
  49   2.0000     -10.183001      -277.0935
  50   2.0000     -10.182654      -277.0841
  51   2.0000     -10.181356      -277.0488
  52   2.0000     -10.180525      -277.0262
  53   2.0000     -10.171840      -276.7898
  54   2.0000     -10.171376      -276.7772
  55   2.0000     -10.171292      -276.7749
  56   2.0000     -10.164285      -276.5843
  57   2.0000      -9.460531      -257.4341
  58   2.0000      -9.459462      -257.4051
  59   2.0000      -7.974923      -217.0087
  60   2.0000      -7.972141      -216.9330
  61   2.0000      -7.967087      -216.7955
  62   2.0000      -7.966106      -216.7688
  63   2.0000      -7.965373      -216.7488
  64   2.0000      -7.964116      -216.7146
  65   2.0000      -7.959789      -216.5969
  66   2.0000      -7.956513      -216.5077
  67   2.0000      -7.222143      -196.5245
  68   2.0000      -7.221108      -196.4963
  69   2.0000      -7.213624      -196.2927
  70   2.0000      -7.213414      -196.2870
  71   2.0000      -7.212545      -196.2633
  72   2.0000      -7.212342      -196.2578
  73   2.0000      -5.937378      -161.5643
  74   2.0000      -5.934358      -161.4821
  75   2.0000      -5.933355      -161.4548
  76   2.0000      -5.931688      -161.4094
  77   2.0000      -5.930390      -161.3741
  78   2.0000      -5.929542      -161.3510
  79   2.0000      -5.929516      -161.3503
  80   2.0000      -5.928574      -161.3247
  81   2.0000      -5.927884      -161.3059
  82   2.0000      -5.926527      -161.2690
  83   2.0000      -5.925738      -161.2475
  84   2.0000      -5.924744      -161.2205
  85   2.0000      -5.924002      -161.2003
  86   2.0000      -5.923882      -161.1970
  87   2.0000      -5.922883      -161.1698
  88   2.0000      -5.922605      -161.1623
  89   2.0000      -5.922583      -161.1617
  90   2.0000      -5.922006      -161.1460
  91   2.0000      -5.921168      -161.1232
  92   2.0000      -5.919317      -161.0728
  93   2.0000      -5.918695      -161.0559
  94   2.0000      -5.915820      -160.9776
  95   2.0000      -5.915350      -160.9649
  96   2.0000      -5.912685      -160.8923
  97   2.0000      -1.038300       -28.2536
  98   2.0000      -1.034616       -28.1533
  99   2.0000      -0.917424       -24.9644
 100   2.0000      -0.910548       -24.7773
 101   2.0000      -0.908150       -24.7120
 102   2.0000      -0.901786       -24.5388
 103   2.0000      -0.897919       -24.4336
 104   2.0000      -0.892225       -24.2787
 105   2.0000      -0.880156       -23.9503
 106   2.0000      -0.872236       -23.7348
 107   2.0000      -0.854062       -23.2402
 108   2.0000      -0.849634       -23.1197
 109   2.0000      -0.824135       -22.4258
 110   2.0000      -0.813331       -22.1319
 111   2.0000      -0.806543       -21.9471
 112   2.0000      -0.802909       -21.8483
 113   2.0000      -0.794221       -21.6119
 114   2.0000      -0.789962       -21.4960
 115   2.0000      -0.781659       -21.2700
 116   2.0000      -0.767862       -20.8946
 117   2.0000      -0.763230       -20.7685
 118   2.0000      -0.750584       -20.4244
 119   2.0000      -0.746494       -20.3131
 120   2.0000      -0.740838       -20.1592
 121   2.0000      -0.738278       -20.0896
 122   2.0000      -0.731528       -19.9059
 123   2.0000      -0.730140       -19.8681
 124   2.0000      -0.726841       -19.7783
 125   2.0000      -0.724652       -19.7188
 126   2.0000      -0.717931       -19.5359
 127   2.0000      -0.715887       -19.4803
 128   2.0000      -0.707536       -19.2530
 129   2.0000      -0.688221       -18.7274
 130   2.0000      -0.684477       -18.6256
 131   2.0000      -0.657982       -17.9046
 132   2.0000      -0.649854       -17.6834
 133   2.0000      -0.648522       -17.6472
 134   2.0000      -0.633498       -17.2383
 135   2.0000      -0.631035       -17.1713
 136   2.0000      -0.620489       -16.8844
 137   2.0000      -0.615452       -16.7473
 138   2.0000      -0.609512       -16.5857
 139   2.0000      -0.597230       -16.2515
 140   2.0000      -0.584958       -15.9175
 141   2.0000      -0.576691       -15.6926
 142   2.0000      -0.569948       -15.5091
 143   2.0000      -0.562159       -15.2971
 144   2.0000      -0.554288       -15.0829
 145   2.0000      -0.547178       -14.8895
 146   2.0000      -0.542205       -14.7542
 147   2.0000      -0.535812       -14.5802
 148   2.0000      -0.531698       -14.4682
 149   2.0000      -0.529535       -14.4094
 150   2.0000      -0.524469       -14.2715
 151   2.0000      -0.522660       -14.2223
 152   2.0000      -0.518704       -14.1147
 153   2.0000      -0.513620       -13.9763
 154   2.0000      -0.504816       -13.7368
 155   2.0000      -0.499303       -13.5867
 156   2.0000      -0.497623       -13.5410
 157   2.0000      -0.480760       -13.0821
 158   2.0000      -0.478450       -13.0193
 159   2.0000      -0.471648       -12.8342
 160   2.0000      -0.469774       -12.7832
 161   2.0000      -0.462884       -12.5957
 162   2.0000      -0.459911       -12.5148
 163   2.0000      -0.455895       -12.4055
 164   2.0000      -0.448932       -12.2161
 165   2.0000      -0.446838       -12.1591
 166   2.0000      -0.443325       -12.0635
 167   2.0000      -0.442259       -12.0345
 168   2.0000      -0.441128       -12.0037
 169   2.0000      -0.439383       -11.9562
 170   2.0000      -0.436038       -11.8652
 171   2.0000      -0.435156       -11.8412
 172   2.0000      -0.431609       -11.7447
 173   2.0000      -0.427657       -11.6371
 174   2.0000      -0.426760       -11.6127
 175   2.0000      -0.426279       -11.5997
 176   2.0000      -0.421275       -11.4635
 177   2.0000      -0.420185       -11.4338
 178   2.0000      -0.418382       -11.3848
 179   2.0000      -0.413085       -11.2406
 180   2.0000      -0.411636       -11.2012
 181   2.0000      -0.410042       -11.1578
 182   2.0000      -0.407385       -11.0855
 183   2.0000      -0.406993       -11.0749
 184   2.0000      -0.404356       -11.0031
 185   2.0000      -0.401729       -10.9316
 186   2.0000      -0.397977       -10.8295
 187   2.0000      -0.395520       -10.7626
 188   2.0000      -0.395369       -10.7585
 189   2.0000      -0.392389       -10.6774
 190   2.0000      -0.387353       -10.5404
 191   2.0000      -0.385838       -10.4992
 192   2.0000      -0.382652       -10.4125
 193   2.0000      -0.381821       -10.3899
 194   2.0000      -0.378518       -10.3000
 195   2.0000      -0.378021       -10.2865
 196   2.0000      -0.376044       -10.2327
 197   2.0000      -0.374657       -10.1949
 198   2.0000      -0.372503       -10.1363
 199   2.0000      -0.370306       -10.0765
 200   2.0000      -0.369040       -10.0421
 201   2.0000      -0.367383        -9.9970
 202   2.0000      -0.365342        -9.9415
 203   2.0000      -0.362349        -9.8600
 204   2.0000      -0.359937        -9.7944
 205   2.0000      -0.359249        -9.7757
 206   2.0000      -0.359019        -9.7694
 207   2.0000      -0.357002        -9.7145
 208   2.0000      -0.355067        -9.6619
 209   2.0000      -0.349287        -9.5046
 210   2.0000      -0.347886        -9.4664
 211   2.0000      -0.346820        -9.4375
 212   2.0000      -0.346273        -9.4226
 213   2.0000      -0.345734        -9.4079
 214   2.0000      -0.342858        -9.3296
 215   2.0000      -0.341731        -9.2990
 216   2.0000      -0.339229        -9.2309
 217   2.0000      -0.335048        -9.1171
 218   2.0000      -0.329547        -8.9674
 219   2.0000      -0.317264        -8.6332
 220   2.0000      -0.316666        -8.6169
 221   2.0000      -0.312898        -8.5144
 222   2.0000      -0.303950        -8.2709
 223   2.0000      -0.290746        -7.9116
 224   2.0000      -0.276256        -7.5173
 225   2.0000      -0.266779        -7.2594
 226   2.0000      -0.265817        -7.2333
 227   2.0000      -0.262181        -7.1343
 228   2.0000      -0.260229        -7.0812
 229   2.0000      -0.258747        -7.0409
 230   2.0000      -0.256216        -6.9720
 231   2.0000      -0.254659        -6.9296
 232   2.0000      -0.253364        -6.8944
 233   2.0000      -0.248786        -6.7698
 234   2.0000      -0.239715        -6.5230
 235   2.0000      -0.236527        -6.4362
 236   2.0000      -0.233613        -6.3569
 237   2.0000      -0.227801        -6.1988
 238   2.0000      -0.207253        -5.6396
 239   2.0000      -0.193817        -5.2740
 240   0.0000      -0.095580        -2.6009
 241   0.0000      -0.085933        -2.3384
 242   0.0000      -0.066207        -1.8016
 243   0.0000      -0.050148        -1.3646
 244   0.0000      -0.041696        -1.1346

MULLIKEN ATOMIC CHARGES
-----------------------
   0 C :    0.075657
   1 C :    0.109792
   2 C :   -0.036283
   3 C :    0.057130
   4 C :    0.172327
   5 C :   -0.035138
   6 C :   -0.244046
   7 C :    0.090349
   8 S :    0.018713
   9 C :   -0.256131
  10 C :    0.121335
  11 S :    0.004775
  12 C :   -0.050185
  13 C :   -0.041552
  14 C :   -0.280652
  15 C :    0.097638
  16 C :    0.011302
  17 S :    0.026357
  18 C :   -0.282121
  19 C :    0.094478
  20 C :    0.015077
  21 S :    0.025868
  22 C :   -0.206458
  23 C :   -0.334010
  24 C :   -0.207967
  25 C :   -0.332300
  26 C :   -0.380123
  27 C :    0.038238
  28 C :   -0.172634
  29 C :   -0.182454
  30 C :    0.087051
  31 S :   -0.004761
  32 C :    0.021195
  33 S :    0.028447
  34 C :    0.110841
  35 C :    0.007156
  36 C :   -0.019606
  37 C :    0.129584
  38 C :   -0.035980
  39 C :    0.014065
  40 C :    0.174936
  41 C :   -0.003648
  42 S :    0.042113
  43 C :    0.031339
  44 C :    0.022691
  45 C :   -0.175080
  46 C :   -0.125110
  47 S :    0.040034
  48 O :   -0.377882
  49 O :   -0.422540
  50 C :   -0.101450
  51 C :   -0.344111
  52 C :   -0.119651
  53 C :   -0.352883
  54 C :   -0.175412
  55 Cl:   -0.112573
  56 Cl:   -0.112725
  57 H :    0.125839
  58 H :    0.132172
  59 H :    0.141166
  60 H :    0.140157
  61 H :    0.113528
  62 H :    0.107117
  63 H :    0.117780
  64 H :    0.111102
  65 H :    0.107706
  66 H :    0.112839
  67 H :    0.107004
  68 H :    0.119109
  69 H :    0.110562
  70 H :    0.107503
  71 H :    0.124668
  72 H :    0.128557
  73 H :    0.129353
  74 H :    0.118293
  75 H :    0.172211
  76 H :    0.135995
  77 H :    0.118887
  78 H :    0.112901
  79 H :    0.116784
  80 H :    0.113120
  81 H :    0.121230
  82 H :    0.115466
  83 H :    0.093511
  84 H :    0.119996
  85 H :    0.102866
  86 H :    0.106861
  87 H :    0.129594
  88 H :    0.143101
Sum of atomic charges:    0.0000000

LOEWDIN ATOMIC CHARGES
----------------------
   0 C :   -0.122665
   1 C :   -0.108354
   2 C :   -0.255972
   3 C :   -0.118036
   4 C :   -0.107878
   5 C :   -0.261249
   6 C :   -0.147585
   7 C :   -0.374427
   8 S :    0.727302
   9 C :   -0.120268
  10 C :   -0.344045
  11 S :    0.740903
  12 C :   -0.321972
  13 C :   -0.320731
  14 C :   -0.167011
  15 C :   -0.463536
  16 C :   -0.372334
  17 S :    0.769000
  18 C :   -0.169192
  19 C :   -0.464867
  20 C :   -0.372352
  21 S :    0.767673
  22 C :   -0.281670
  23 C :   -0.300831
  24 C :   -0.281867
  25 C :   -0.299823
  26 C :   -0.286539
  27 C :   -0.355583
  28 C :   -0.150152
  29 C :   -0.138561
  30 C :   -0.343515
  31 S :    0.739036
  32 C :   -0.286628
  33 S :    0.781655
  34 C :   -0.299350
  35 C :   -0.090492
  36 C :   -0.087464
  37 C :   -0.260504
  38 C :   -0.111681
  39 C :   -0.106579
  40 C :   -0.254183
  41 C :   -0.289596
  42 S :    0.791309
  43 C :   -0.297820
  44 C :   -0.358671
  45 C :   -0.137223
  46 C :   -0.197968
  47 S :    0.720500
  48 O :    0.119336
  49 O :    0.105914
  50 C :   -0.270077
  51 C :   -0.315614
  52 C :   -0.273677
  53 C :   -0.295707
  54 C :   -0.389107
  55 Cl:    0.387225
  56 Cl:    0.388544
  57 H :    0.145676
  58 H :    0.146841
  59 H :    0.149903
  60 H :    0.148825
  61 H :    0.145592
  62 H :    0.143156
  63 H :    0.122717
  64 H :    0.119647
  65 H :    0.117490
  66 H :    0.145908
  67 H :    0.142505
  68 H :    0.122976
  69 H :    0.119628
  70 H :    0.117851
  71 H :    0.133379
  72 H :    0.130904
  73 H :    0.131938
  74 H :    0.146726
  75 H :    0.156169
  76 H :    0.152168
  77 H :    0.143193
  78 H :    0.154965
  79 H :    0.155831
  80 H :    0.118619
  81 H :    0.123123
  82 H :    0.119242
  83 H :    0.136433
  84 H :    0.153021
  85 H :    0.116995
  86 H :    0.119180
  87 H :    0.125316
  88 H :    0.129040

  Mayer bond orders larger than 0.100000
B(  0-C ,  1-C ) :   1.1720 B(  0-C ,  5-C ) :   1.2640 B(  0-C , 12-C ) :   0.8623
B(  1-C ,  2-C ) :   1.2724 B(  1-C ,  6-C ) :   1.1806 B(  2-C ,  3-C ) :   1.2858
B(  2-C ,  8-S ) :   1.2429 B(  3-C ,  4-C ) :   1.1699 B(  3-C , 13-C ) :   0.8846
B(  4-C ,  5-C ) :   1.2426 B(  4-C ,  9-C ) :   1.2043 B(  5-C , 11-S ) :   1.2504
B(  6-C ,  7-C ) :   1.6992 B(  6-C ,  8-S ) :   0.1034 B(  6-C , 57-H ) :   0.9238
B(  7-C ,  8-S ) :   1.1885 B(  7-C , 26-C ) :   0.8942 B(  9-C , 10-C ) :   1.5550
B(  9-C , 11-S ) :   0.1005 B(  9-C , 58-H ) :   0.9271 B( 10-C , 11-S ) :   1.2163
B( 10-C , 27-C ) :   1.0036 B( 12-C , 14-C ) :   1.5479 B( 12-C , 17-S ) :   1.2446
B( 13-C , 18-C ) :   1.5366 B( 13-C , 21-S ) :   1.2504 B( 14-C , 15-C ) :   1.2222
B( 14-C , 17-S ) :   0.1014 B( 14-C , 59-H ) :   0.9632 B( 15-C , 16-C ) :   1.5458
B( 15-C , 55-Cl) :   1.0288 B( 16-C , 17-S ) :   1.2313 B( 16-C , 22-C ) :   0.9292
B( 18-C , 19-C ) :   1.2281 B( 18-C , 21-S ) :   0.1017 B( 18-C , 60-H ) :   0.9604
B( 19-C , 20-C ) :   1.5454 B( 19-C , 56-Cl) :   1.0297 B( 20-C , 21-S ) :   1.2349
B( 20-C , 24-C ) :   0.9295 B( 22-C , 23-C ) :   0.9573 B( 22-C , 61-H ) :   0.9712
B( 22-C , 62-H ) :   0.9651 B( 23-C , 63-H ) :   0.9736 B( 23-C , 64-H ) :   0.9708
B( 23-C , 65-H ) :   0.9742 B( 24-C , 25-C ) :   0.9576 B( 24-C , 66-H ) :   0.9707
B( 24-C , 67-H ) :   0.9665 B( 25-C , 68-H ) :   0.9731 B( 25-C , 69-H ) :   0.9705
B( 25-C , 70-H ) :   0.9745 B( 26-C , 71-H ) :   0.9887 B( 26-C , 72-H ) :   0.9660
B( 26-C , 73-H ) :   0.9593 B( 27-C , 28-C ) :   1.4598 B( 27-C , 31-S ) :   1.2738
B( 28-C , 29-C ) :   1.3041 B( 28-C , 74-H ) :   0.9667 B( 29-C , 30-C ) :   1.5140
B( 29-C , 75-H ) :   0.9259 B( 30-C , 31-S ) :   1.2484 B( 30-C , 32-C ) :   1.0339
B( 32-C , 33-S ) :   1.2736 B( 32-C , 36-C ) :   1.4369 B( 33-S , 34-C ) :   1.2574
B( 34-C , 35-C ) :   1.4775 B( 34-C , 44-C ) :   0.9364 B( 35-C , 36-C ) :   1.1398
B( 35-C , 37-C ) :   1.0323 B( 36-C , 40-C ) :   1.0317 B( 37-C , 38-C ) :   1.0233
B( 37-C , 48-O ) :   2.0158 B( 38-C , 39-C ) :   1.0840 B( 38-C , 41-C ) :   1.5543
B( 39-C , 40-C ) :   1.0459 B( 39-C , 43-C ) :   1.5872 B( 40-C , 49-O ) :   1.8961
B( 41-C , 42-S ) :   1.2407 B( 41-C , 50-C ) :   1.0154 B( 42-S , 43-C ) :   1.2888
B( 43-C , 52-C ) :   0.9208 B( 44-C , 45-C ) :   1.5303 B( 44-C , 47-S ) :   1.2705
B( 45-C , 46-C ) :   1.3125 B( 45-C , 76-H ) :   0.9379 B( 46-C , 47-S ) :   0.1095
B( 46-C , 54-C ) :   1.6249 B( 46-C , 77-H ) :   0.9557 B( 47-S , 54-C ) :   1.2727
B( 50-C , 51-C ) :   0.9595 B( 50-C , 78-H ) :   0.9372 B( 50-C , 79-H ) :   0.9438
B( 51-C , 80-H ) :   0.9690 B( 51-C , 81-H ) :   0.9768 B( 51-C , 82-H ) :   0.9712
B( 52-C , 53-C ) :   0.9407 B( 52-C , 83-H ) :   0.9622 B( 52-C , 84-H ) :   0.9601
B( 53-C , 85-H ) :   0.9725 B( 53-C , 86-H ) :   0.9704 B( 53-C , 87-H ) :   0.9777
B( 54-C , 88-H ) :   0.9386

-----------------------------------------------------------------------------
         ABSORPTION SPECTRUM VIA TRANSITION ELECTRIC DIPOLE MOMENTS
-----------------------------------------------------------------------------
State   Energy    Wavelength  fosc         T2        TX        TY        TZ
        (cm-1)      (nm)                 (au**2)    (au)      (au)      (au)
-----------------------------------------------------------------------------
   1   19592.4    510.4   1.073636459  18.04033  -3.67532   2.12110  -0.18234
   2   21322.5    469.0   0.091206222   1.40819  -0.72679  -0.93790   0.01784
   3   21768.0    459.4   0.310171833   4.69093   2.09562  -0.54699   0.00948
   4   24113.3    414.7   0.058117099   0.79346  -0.20349  -0.86707   0.01541
   5   25340.9    394.6   0.117150722   1.52194  -0.28468  -1.19903   0.05678
   6   25922.9    385.8   0.095570585   1.21372  -0.76424   0.78923  -0.08222
   7   26253.3    380.9   0.148254696   1.85909   1.07728  -0.83074   0.09178
   8   26672.7    374.9   0.004139130   0.05109  -0.08776   0.20471  -0.03846
   9   27399.5    365.0   0.010311245   0.12389   0.27348  -0.21314  -0.06062
  10   27635.2    361.9   0.017051740   0.20313  -0.34373  -0.28917  -0.03698
  11   27775.5    360.0   0.141863671   1.68146   0.45847  -1.20783   0.11136
  12   28175.6    354.9   0.336679189   3.93386  -1.95606  -0.32818  -0.00026
  13   28562.1    350.1   0.026295873   0.30309  -0.36559  -0.41130  -0.01628
  14   28730.2    348.1   0.045643356   0.52302  -0.42324  -0.58555   0.03191
  15   29422.1    339.9   0.063870325   0.71466   0.48513   0.69186   0.02538
  16   29818.1    335.4   0.001229753   0.01358   0.10871  -0.03957   0.01392
  17   30009.9    333.2   0.015119610   0.16586  -0.13215   0.38027   0.06161
  18   30542.2    327.4   0.001103791   0.01190   0.04576  -0.09892   0.00439
  19   30841.4    324.2   0.067957798   0.72540  -0.73085  -0.42783  -0.09067
  20   31202.3    320.5   0.081583240   0.86077   0.49611   0.78277  -0.04386
  21   31436.5    318.1   0.004254205   0.04455  -0.05506   0.16198  -0.12362
  22   31630.2    316.2   0.036930777   0.38438  -0.38813   0.48272  -0.02675
  23   31697.7    315.5   0.003354445   0.03484   0.16823   0.07384   0.03295
  24   31834.0    314.1   0.018371864   0.18999   0.40148   0.16973   0.00001
  25   31852.7    313.9   0.005264770   0.05441   0.13599  -0.18936   0.00788
  26   32115.0    311.4   0.002875096   0.02947   0.11619  -0.10956   0.06299
  27   32308.5    309.5   0.031257310   0.31850   0.51449   0.23113  -0.01935
  28   32488.9    307.8   0.002811767   0.02849  -0.12770  -0.10057  -0.04550
  29   32754.5    305.3   0.011086441   0.11143   0.32701   0.04341  -0.05107
  30   32917.8    303.8   0.056474405   0.56480  -0.74210   0.11821   0.01065
  31   33156.4    301.6   0.004993237   0.04958   0.21890  -0.01530   0.03777
  32   33300.8    300.3   0.032463680   0.32094  -0.49799   0.15258  -0.22285
  33   33422.1    299.2   0.037625886   0.37062  -0.00635  -0.56494  -0.22676
  34   33842.3    295.5   0.038512492   0.37464  -0.14578  -0.59446   0.00112
  35   33920.0    294.8   0.080974048   0.78590  -0.07881  -0.88179   0.04613
  36   34217.8    292.2   0.213007239   2.04936  -1.09736  -0.91346  -0.10374
  37   34439.5    290.4   0.071017127   0.67886  -0.81670   0.01006   0.10843
  38   34461.9    290.2   0.013210196   0.12620   0.33841   0.04078  -0.10006
  39   34826.4    287.1   0.022296673   0.21077  -0.42617   0.17051   0.00876
  40   34942.9    286.2   0.025061268   0.23611  -0.12320  -0.45825  -0.10461
  41   35001.4    285.7   0.015195047   0.14292   0.18099  -0.28399   0.17179
  42   35032.7    285.4   0.001620369   0.01523  -0.09848  -0.07296  -0.01434
  43   35510.0    281.6   0.124805210   1.15707  -0.96394  -0.47720   0.01302
  44   35563.2    281.2   0.000763245   0.00707  -0.01067  -0.08234  -0.01307
  45   35832.1    279.1   0.004322485   0.03971  -0.19296   0.04939   0.00620
  46   35911.6    278.5   0.061497195   0.56376   0.61979   0.41566   0.08272
  47   36248.4    275.9   0.002957087   0.02686  -0.13623   0.08349  -0.03641
  48   36793.5    271.8   0.011100918   0.09933  -0.02540  -0.28001  -0.14240
  49   36854.9    271.3   0.014887879   0.13299  -0.12479   0.32686  -0.10286
  50   36878.1    271.2   0.034216746   0.30545  -0.50926  -0.21163   0.03630

FINAL SINGLE POINT ENERGY     -5989.532008070468

DIPOLE MOMENT
-------------
                                X             Y             Z
Electronic contribution:     31.09464       6.04574      15.18434
Nuclear contribution   :    -30.86847      -6.08265     -15.74712
                        -----------------------------------------
Total Dipole Moment    :      0.22617      -0.03691      -0.56278
                        -----------------------------------------
Magnitude (a.u.)       :      0.60765
Magnitude (Debye)      :      1.54452

Rotational constants in cm-1:     0.001347     0.000499     0.000373
Rotational constants in MHz :    40.367687    14.955612    11.184649

                             ****ORCA TERMINATED NORMALLY****
TOTAL RUN TIME: 0 days 3 hours 41 minutes 15 seconds 260 msec
