                         Program Version 4.2.0 -  RELEASE  -
|  1> # ORCA input file
|  2> # PBDB-TF_dimer.out: Geometry 91
|  3> ! B3LYP def2-TZVP def2/J RIJCOSX Grid4 TightSCF
|  4>
|  5> %maxcore 6000
|  6> %tddft
|  7>   maxdim 5
|  8>   nroots 50
|  9>   end
| 10> %pal
| 11>   nprocs 6
| 12>   end
| 13>
| 14>
| 15> * xyz 0 1
| 16>    C        0.86922         1.72300         0.27506
| 17>    C        1.74302         0.63608         0.53089
| 18>    C        1.21810        -0.68602         0.65827
| 19>    C       -0.14385        -0.99119         0.53888
| 20>    C       -1.01929         0.09712         0.30190
| 21>    C       -0.49920         1.42137         0.17628
| 22>    C        3.17830         0.64511         0.67719
| 23>    C        3.72334        -0.59101         0.86874
| 24>    S        2.50206        -1.85485         0.92039
| 25>    C       -2.44472         0.06999         0.17721
| 26>    C       -3.00647         1.30306        -0.04905
| 27>    S       -1.78947         2.57621        -0.14017
| 28>    C        1.35170         3.10030         0.10480
| 29>    C       -0.62267        -2.37524         0.63138
| 30>    C        0.84212         4.25435         0.65937
| 31>    C        1.53623         5.41151         0.21124
| 32>    C        2.56034         5.18576        -0.67501
| 33>    S        2.67557         3.47410        -0.98191
| 34>    C       -0.31299        -3.32612         1.57766
| 35>    C       -0.92246        -4.57897         1.29081
| 36>    C       -1.67981        -4.62341         0.14640
| 37>    S       -1.65127        -3.05592        -0.61388
| 38>    C        3.44324         6.20487        -1.33475
| 39>    C        4.88219         5.74035        -1.58068
| 40>    C       -2.41305        -5.79498        -0.43697
| 41>    C       -3.87101        -5.50150        -0.81273
| 42>    C        5.16523        -0.95573         1.01963
| 43>    C       -4.42143         1.57219        -0.16701
| 44>    C       -5.42391         0.63671        -0.37028
| 45>    C       -6.72206         1.18151        -0.37195
| 46>    C       -6.75500         2.55809        -0.17116
| 47>    S       -5.10412         3.16230         0.02794
| 48>    C       -7.85873         3.49373        -0.08672
| 49>    S       -7.42095         5.18681         0.02166
| 50>    C       -9.06914         5.73273         0.18984
| 51>    C       -9.93816         4.64553         0.13262
| 52>    C       -9.25967         3.37076        -0.04844
| 53>    C      -11.40717         4.74759         0.33847
| 54>    C      -12.14467         3.47691         0.27851
| 55>    C      -11.49427         2.23099        -0.02559
| 56>    C      -10.03124         2.11270        -0.18396
| 57>    C      -13.51425         3.36265         0.44937
| 58>    S      -13.99509         1.70798         0.19978
| 59>    C      -12.37459         1.16673        -0.11354
| 60>    C       -9.26453         7.16490         0.33332
| 61>    C      -10.29272         7.98979        -0.09002
| 62>    C      -10.04980         9.36508         0.16877
| 63>    S       -7.98972         8.12122         1.07601
| 64>    O      -11.98484         5.81226         0.53545
| 65>    O       -9.52004         1.01877        -0.41855
| 66>    C      -14.50965         4.42906         0.80439
| 67>    C      -15.92729         3.93124         1.08806
| 68>    C      -12.12151        -0.25922        -0.50101
| 69>    C      -11.85241        -0.40620        -2.00541
| 70>    C       -8.84485         9.58994         0.79184
| 71>    F        1.20818         6.64093         0.63068
| 72>    F       -0.76250        -5.63804         2.09441
| 73>    H        3.78160         1.55021         0.62765
| 74>    H       -3.03688        -0.83454         0.29402
| 75>    H        0.01849         4.28376         1.37175
| 76>    H        0.30600        -3.14318         2.45521
| 77>    H        3.43248         7.10470        -0.69942
| 78>    H        2.99124         6.51405        -2.29530
| 79>    H        5.37160         5.43860        -0.64147
| 80>    H        5.47862         6.54389        -2.03901
| 81>    H        4.91444         4.87538        -2.26304
| 82>    H       -2.35862        -6.61138         0.30069
| 83>    H       -1.87315        -6.15884        -1.32965
| 84>    H       -4.44541        -5.16075         0.06281
| 85>    H       -4.36109        -6.39891        -1.22151
| 86>    H       -3.93512        -4.71226        -1.57952
| 87>    H        5.79743        -0.06681         0.88455
| 88>    H        5.46729        -1.70696         0.27195
| 89>    H        5.37645        -1.38672         2.01319
| 90>    H       -5.21335        -0.42094        -0.52851
| 91>    H       -7.63547         0.61708        -0.51765
| 92>    H      -11.19017         7.60219        -0.56134
| 93>    H      -10.74619        10.16097        -0.09664
| 94>    H      -14.51167         5.17682        -0.00787
| 95>    H      -14.10770         4.98471         1.66707
| 96>    H      -16.37795         3.45212         0.20329
| 97>    H      -16.57759         4.76886         1.37984
| 98>    H      -15.94238         3.19607         1.90913
| 99>    H      -12.98511        -0.87842        -0.20818
|100>    H      -11.24780        -0.62112         0.05925
|101>    H      -12.70917        -0.04659        -2.59657
|102>    H      -11.66799        -1.46010        -2.26659
|103>    H      -10.96488         0.17417        -2.29207
|104>    H       -8.41943        10.53662         1.12111
|105> *
|106>
|107>                          ****END OF INPUT****

CARTESIAN COORDINATES (ANGSTROEM)
---------------------------------
  C      0.869220    1.723000    0.275060
  C      1.743020    0.636080    0.530890
  C      1.218100   -0.686020    0.658270
  C     -0.143850   -0.991190    0.538880
  C     -1.019290    0.097120    0.301900
  C     -0.499200    1.421370    0.176280
  C      3.178300    0.645110    0.677190
  C      3.723340   -0.591010    0.868740
  S      2.502060   -1.854850    0.920390
  C     -2.444720    0.069990    0.177210
  C     -3.006470    1.303060   -0.049050
  S     -1.789470    2.576210   -0.140170
  C      1.351700    3.100300    0.104800
  C     -0.622670   -2.375240    0.631380
  C      0.842120    4.254350    0.659370
  C      1.536230    5.411510    0.211240
  C      2.560340    5.185760   -0.675010
  S      2.675570    3.474100   -0.981910
  C     -0.312990   -3.326120    1.577660
  C     -0.922460   -4.578970    1.290810
  C     -1.679810   -4.623410    0.146400
  S     -1.651270   -3.055920   -0.613880
  C      3.443240    6.204870   -1.334750
  C      4.882190    5.740350   -1.580680
  C     -2.413050   -5.794980   -0.436970
  C     -3.871010   -5.501500   -0.812730
  C      5.165230   -0.955730    1.019630
  C     -4.421430    1.572190   -0.167010
  C     -5.423910    0.636710   -0.370280
  C     -6.722060    1.181510   -0.371950
  C     -6.755000    2.558090   -0.171160
  S     -5.104120    3.162300    0.027940
  C     -7.858730    3.493730   -0.086720
  S     -7.420950    5.186810    0.021660
  C     -9.069140    5.732730    0.189840
  C     -9.938160    4.645530    0.132620
  C     -9.259670    3.370760   -0.048440
  C    -11.407170    4.747590    0.338470
  C    -12.144670    3.476910    0.278510
  C    -11.494270    2.230990   -0.025590
  C    -10.031240    2.112700   -0.183960
  C    -13.514250    3.362650    0.449370
  S    -13.995090    1.707980    0.199780
  C    -12.374590    1.166730   -0.113540
  C     -9.264530    7.164900    0.333320
  C    -10.292720    7.989790   -0.090020
  C    -10.049800    9.365080    0.168770
  S     -7.989720    8.121220    1.076010
  O    -11.984840    5.812260    0.535450
  O     -9.520040    1.018770   -0.418550
  C    -14.509650    4.429060    0.804390
  C    -15.927290    3.931240    1.088060
  C    -12.121510   -0.259220   -0.501010
  C    -11.852410   -0.406200   -2.005410
  C     -8.844850    9.589940    0.791840
  F      1.208180    6.640930    0.630680
  F     -0.762500   -5.638040    2.094410
  H      3.781600    1.550210    0.627650
  H     -3.036880   -0.834540    0.294020
  H      0.018490    4.283760    1.371750
  H      0.306000   -3.143180    2.455210
  H      3.432480    7.104700   -0.699420
  H      2.991240    6.514050   -2.295300
  H      5.371600    5.438600   -0.641470
  H      5.478620    6.543890   -2.039010
  H      4.914440    4.875380   -2.263040
  H     -2.358620   -6.611380    0.300690
  H     -1.873150   -6.158840   -1.329650
  H     -4.445410   -5.160750    0.062810
  H     -4.361090   -6.398910   -1.221510
  H     -3.935120   -4.712260   -1.579520
  H      5.797430   -0.066810    0.884550
  H      5.467290   -1.706960    0.271950
  H      5.376450   -1.386720    2.013190
  H     -5.213350   -0.420940   -0.528510
  H     -7.635470    0.617080   -0.517650
  H    -11.190170    7.602190   -0.561340
  H    -10.746190   10.160970   -0.096640
  H    -14.511670    5.176820   -0.007870
  H    -14.107700    4.984710    1.667070
  H    -16.377950    3.452120    0.203290
  H    -16.577590    4.768860    1.379840
  H    -15.942380    3.196070    1.909130
  H    -12.985110   -0.878420   -0.208180
  H    -11.247800   -0.621120    0.059250
  H    -12.709170   -0.046590   -2.596570
  H    -11.667990   -1.460100   -2.266590
  H    -10.964880    0.174170   -2.292070
  H     -8.419430   10.536620    1.121110

 Total Charge           Charge          ....    0
 Multiplicity           Mult            ....    1
 Number of Electrons    NEL             ....  464
 Basis Dimension        Dim             .... 2007

ORBITAL ENERGIES
----------------

  NO   OCC          E(Eh)            E(eV)
   0   2.0000     -88.898093     -2419.0401
   1   2.0000     -88.896044     -2418.9843
   2   2.0000     -88.890582     -2418.8357
   3   2.0000     -88.888812     -2418.7875
   4   2.0000     -88.888518     -2418.7796
   5   2.0000     -88.887976     -2418.7648
   6   2.0000     -88.885206     -2418.6894
   7   2.0000     -88.879908     -2418.5452
   8   2.0000     -24.697088      -672.0419
   9   2.0000     -24.695835      -672.0078
  10   2.0000     -19.107345      -519.9373
  11   2.0000     -19.104177      -519.8511
  12   2.0000     -10.265975      -279.3514
  13   2.0000     -10.262819      -279.2655
  14   2.0000     -10.258570      -279.1499
  15   2.0000     -10.256921      -279.1050
  16   2.0000     -10.240496      -278.6581
  17   2.0000     -10.236536      -278.5503
  18   2.0000     -10.224343      -278.2185
  19   2.0000     -10.223570      -278.1975
  20   2.0000     -10.223367      -278.1919
  21   2.0000     -10.222776      -278.1759
  22   2.0000     -10.220349      -278.1098
  23   2.0000     -10.219513      -278.0871
  24   2.0000     -10.218834      -278.0686
  25   2.0000     -10.218341      -278.0552
  26   2.0000     -10.217640      -278.0361
  27   2.0000     -10.215872      -277.9880
  28   2.0000     -10.215474      -277.9772
  29   2.0000     -10.209281      -277.8087
  30   2.0000     -10.208671      -277.7921
  31   2.0000     -10.208473      -277.7867
  32   2.0000     -10.208115      -277.7769
  33   2.0000     -10.206098      -277.7220
  34   2.0000     -10.203641      -277.6552
  35   2.0000     -10.200691      -277.5749
  36   2.0000     -10.199435      -277.5407
  37   2.0000     -10.199105      -277.5317
  38   2.0000     -10.191843      -277.3342
  39   2.0000     -10.191778      -277.3324
  40   2.0000     -10.188975      -277.2561
  41   2.0000     -10.188414      -277.2409
  42   2.0000     -10.187593      -277.2185
  43   2.0000     -10.187466      -277.2151
  44   2.0000     -10.187268      -277.2097
  45   2.0000     -10.185896      -277.1723
  46   2.0000     -10.185582      -277.1638
  47   2.0000     -10.184057      -277.1223
  48   2.0000     -10.183230      -277.0998
  49   2.0000     -10.182405      -277.0773
  50   2.0000     -10.180686      -277.0305
  51   2.0000     -10.179866      -277.0082
  52   2.0000     -10.178776      -276.9786
  53   2.0000     -10.174083      -276.8509
  54   2.0000     -10.173210      -276.8271
  55   2.0000     -10.171684      -276.7856
  56   2.0000     -10.161960      -276.5210
  57   2.0000      -7.974816      -217.0058
  58   2.0000      -7.972297      -216.9372
  59   2.0000      -7.966826      -216.7884
  60   2.0000      -7.964961      -216.7376
  61   2.0000      -7.964574      -216.7271
  62   2.0000      -7.964061      -216.7131
  63   2.0000      -7.961327      -216.6387
  64   2.0000      -7.956384      -216.5042
  65   2.0000      -5.937287      -161.5618
  66   2.0000      -5.934494      -161.4858
  67   2.0000      -5.933282      -161.4528
  68   2.0000      -5.931548      -161.4056
  69   2.0000      -5.930580      -161.3793
  70   2.0000      -5.929694      -161.3552
  71   2.0000      -5.929342      -161.3456
  72   2.0000      -5.927383      -161.2923
  73   2.0000      -5.927032      -161.2827
  74   2.0000      -5.926475      -161.2676
  75   2.0000      -5.925535      -161.2420
  76   2.0000      -5.924157      -161.2045
  77   2.0000      -5.923699      -161.1920
  78   2.0000      -5.923449      -161.1853
  79   2.0000      -5.923304      -161.1813
  80   2.0000      -5.922525      -161.1601
  81   2.0000      -5.921669      -161.1368
  82   2.0000      -5.921286      -161.1264
  83   2.0000      -5.921106      -161.1215
  84   2.0000      -5.920307      -161.0997
  85   2.0000      -5.919183      -161.0692
  86   2.0000      -5.917356      -161.0194
  87   2.0000      -5.915208      -160.9610
  88   2.0000      -5.912577      -160.8894
  89   2.0000      -1.232935       -33.5499
  90   2.0000      -1.231356       -33.5069
  91   2.0000      -1.038556       -28.2605
  92   2.0000      -1.034949       -28.1624
  93   2.0000      -0.914664       -24.8893
  94   2.0000      -0.909311       -24.7436
  95   2.0000      -0.897813       -24.4307
  96   2.0000      -0.893831       -24.3224
  97   2.0000      -0.893030       -24.3006
  98   2.0000      -0.885469       -24.0948
  99   2.0000      -0.879829       -23.9414
 100   2.0000      -0.871781       -23.7224
 101   2.0000      -0.826063       -22.4783
 102   2.0000      -0.817576       -22.2474
 103   2.0000      -0.805795       -21.9268
 104   2.0000      -0.802494       -21.8370
 105   2.0000      -0.794555       -21.6209
 106   2.0000      -0.790056       -21.4985
 107   2.0000      -0.783017       -21.3070
 108   2.0000      -0.767200       -20.8766
 109   2.0000      -0.762530       -20.7495
 110   2.0000      -0.751919       -20.4608
 111   2.0000      -0.747289       -20.3348
 112   2.0000      -0.741538       -20.1783
 113   2.0000      -0.737936       -20.0803
 114   2.0000      -0.736608       -20.0441
 115   2.0000      -0.734719       -19.9927
 116   2.0000      -0.731429       -19.9032
 117   2.0000      -0.725247       -19.7350
 118   2.0000      -0.721816       -19.6416
 119   2.0000      -0.720590       -19.6083
 120   2.0000      -0.708193       -19.2709
 121   2.0000      -0.693020       -18.8580
 122   2.0000      -0.685362       -18.6496
 123   2.0000      -0.657804       -17.8997
 124   2.0000      -0.653171       -17.7737
 125   2.0000      -0.647863       -17.6293
 126   2.0000      -0.634646       -17.2696
 127   2.0000      -0.633583       -17.2407
 128   2.0000      -0.621577       -16.9140
 129   2.0000      -0.615537       -16.7496
 130   2.0000      -0.613375       -16.6908
 131   2.0000      -0.596318       -16.2266
 132   2.0000      -0.584943       -15.9171
 133   2.0000      -0.577491       -15.7143
 134   2.0000      -0.576380       -15.6841
 135   2.0000      -0.574027       -15.6201
 136   2.0000      -0.570609       -15.5271
 137   2.0000      -0.561900       -15.2901
 138   2.0000      -0.553881       -15.0719
 139   2.0000      -0.543962       -14.8020
 140   2.0000      -0.540565       -14.7095
 141   2.0000      -0.534525       -14.5452
 142   2.0000      -0.528376       -14.3778
 143   2.0000      -0.522945       -14.2301
 144   2.0000      -0.518947       -14.1213
 145   2.0000      -0.517823       -14.0907
 146   2.0000      -0.515151       -14.0180
 147   2.0000      -0.513130       -13.9630
 148   2.0000      -0.499235       -13.5849
 149   2.0000      -0.486842       -13.2476
 150   2.0000      -0.481858       -13.1120
 151   2.0000      -0.480320       -13.0702
 152   2.0000      -0.478377       -13.0173
 153   2.0000      -0.478006       -13.0072
 154   2.0000      -0.472951       -12.8697
 155   2.0000      -0.465444       -12.6654
 156   2.0000      -0.462956       -12.5977
 157   2.0000      -0.462494       -12.5851
 158   2.0000      -0.459181       -12.4950
 159   2.0000      -0.455097       -12.3838
 160   2.0000      -0.453501       -12.3404
 161   2.0000      -0.450459       -12.2576
 162   2.0000      -0.447218       -12.1694
 163   2.0000      -0.442384       -12.0379
 164   2.0000      -0.440792       -11.9946
 165   2.0000      -0.438874       -11.9424
 166   2.0000      -0.434402       -11.8207
 167   2.0000      -0.432043       -11.7565
 168   2.0000      -0.429122       -11.6770
 169   2.0000      -0.426869       -11.6157
 170   2.0000      -0.423382       -11.5208
 171   2.0000      -0.421534       -11.4705
 172   2.0000      -0.419189       -11.4067
 173   2.0000      -0.418193       -11.3796
 174   2.0000      -0.414627       -11.2826
 175   2.0000      -0.408957       -11.1283
 176   2.0000      -0.408420       -11.1137
 177   2.0000      -0.407406       -11.0861
 178   2.0000      -0.405375       -11.0308
 179   2.0000      -0.401606       -10.9282
 180   2.0000      -0.397923       -10.8280
 181   2.0000      -0.396417       -10.7871
 182   2.0000      -0.394877       -10.7452
 183   2.0000      -0.391276       -10.6472
 184   2.0000      -0.390704       -10.6316
 185   2.0000      -0.387437       -10.5427
 186   2.0000      -0.382358       -10.4045
 187   2.0000      -0.381395       -10.3783
 188   2.0000      -0.380243       -10.3469
 189   2.0000      -0.377828       -10.2812
 190   2.0000      -0.376620       -10.2483
 191   2.0000      -0.375675       -10.2226
 192   2.0000      -0.373582       -10.1657
 193   2.0000      -0.372682       -10.1412
 194   2.0000      -0.369892       -10.0653
 195   2.0000      -0.369031       -10.0419
 196   2.0000      -0.366487        -9.9726
 197   2.0000      -0.364296        -9.9130
 198   2.0000      -0.362862        -9.8740
 199   2.0000      -0.361850        -9.8464
 200   2.0000      -0.359803        -9.7907
 201   2.0000      -0.357739        -9.7346
 202   2.0000      -0.356341        -9.6965
 203   2.0000      -0.354346        -9.6423
 204   2.0000      -0.352873        -9.6022
 205   2.0000      -0.348849        -9.4927
 206   2.0000      -0.347447        -9.4545
 207   2.0000      -0.345964        -9.4141
 208   2.0000      -0.342534        -9.3208
 209   2.0000      -0.341921        -9.3041
 210   2.0000      -0.341536        -9.2937
 211   2.0000      -0.337068        -9.1721
 212   2.0000      -0.331752        -9.0274
 213   2.0000      -0.317155        -8.6302
 214   2.0000      -0.307310        -8.3623
 215   2.0000      -0.292394        -7.9565
 216   2.0000      -0.276499        -7.5239
 217   2.0000      -0.266836        -7.2610
 218   2.0000      -0.266283        -7.2459
 219   2.0000      -0.261892        -7.1264
 220   2.0000      -0.259376        -7.0580
 221   2.0000      -0.258186        -7.0256
 222   2.0000      -0.256754        -6.9866
 223   2.0000      -0.255477        -6.9519
 224   2.0000      -0.252713        -6.8767
 225   2.0000      -0.248223        -6.7545
 226   2.0000      -0.240174        -6.5355
 227   2.0000      -0.236197        -6.4272
 228   2.0000      -0.232728        -6.3328
 229   2.0000      -0.227687        -6.1957
 230   2.0000      -0.205555        -5.5934
 231   2.0000      -0.191087        -5.1997
 232   0.0000      -0.096153        -2.6165
 233   0.0000      -0.086119        -2.3434
 234   0.0000      -0.066254        -1.8029
 235   0.0000      -0.050799        -1.3823
 236   0.0000      -0.041124        -1.1190

MULLIKEN ATOMIC CHARGES
-----------------------
   0 C :    0.109169
   1 C :    0.081240
   2 C :   -0.033380
   3 C :    0.086908
   4 C :    0.161845
   5 C :   -0.046698
   6 C :   -0.235965
   7 C :    0.088497
   8 S :    0.013718
   9 C :   -0.230062
  10 C :    0.088252
  11 S :    0.002117
  12 C :   -0.037150
  13 C :   -0.036355
  14 C :   -0.321326
  15 C :    0.308712
  16 C :   -0.084656
  17 S :    0.011096
  18 C :   -0.309336
  19 C :    0.305827
  20 C :   -0.082089
  21 S :    0.010563
  22 C :   -0.184024
  23 C :   -0.348847
  24 C :   -0.189293
  25 C :   -0.345852
  26 C :   -0.382093
  27 C :    0.031795
  28 C :   -0.148464
  29 C :   -0.210182
  30 C :    0.105424
  31 S :   -0.006915
  32 C :    0.024937
  33 S :    0.019198
  34 C :    0.113544
  35 C :    0.020597
  36 C :   -0.029663
  37 C :    0.123896
  38 C :   -0.044498
  39 C :    0.033901
  40 C :    0.188744
  41 C :    0.000777
  42 S :    0.044191
  43 C :    0.012064
  44 C :    0.012394
  45 C :   -0.172102
  46 C :   -0.128053
  47 S :    0.038393
  48 O :   -0.382834
  49 O :   -0.437895
  50 C :   -0.105783
  51 C :   -0.340731
  52 C :   -0.104456
  53 C :   -0.351864
  54 C :   -0.174457
  55 F :   -0.212407
  56 F :   -0.212412
  57 H :    0.124478
  58 H :    0.137608
  59 H :    0.142506
  60 H :    0.139813
  61 H :    0.118547
  62 H :    0.106241
  63 H :    0.114913
  64 H :    0.116671
  65 H :    0.112781
  66 H :    0.120502
  67 H :    0.106081
  68 H :    0.115315
  69 H :    0.114539
  70 H :    0.111909
  71 H :    0.124773
  72 H :    0.128463
  73 H :    0.128611
  74 H :    0.121027
  75 H :    0.181738
  76 H :    0.140811
  77 H :    0.118656
  78 H :    0.108887
  79 H :    0.121195
  80 H :    0.111777
  81 H :    0.120571
  82 H :    0.116190
  83 H :    0.093423
  84 H :    0.111871
  85 H :    0.100799
  86 H :    0.105035
  87 H :    0.132991
  88 H :    0.143319
Sum of atomic charges:   -0.0000000

LOEWDIN ATOMIC CHARGES
----------------------
   0 C :   -0.117453
   1 C :   -0.104644
   2 C :   -0.259144
   3 C :   -0.117566
   4 C :   -0.110530
   5 C :   -0.252667
   6 C :   -0.151807
   7 C :   -0.375779
   8 S :    0.725761
   9 C :   -0.121141
  10 C :   -0.348591
  11 S :    0.733429
  12 C :   -0.317191
  13 C :   -0.316989
  14 C :   -0.147082
  15 C :   -0.304799
  16 C :   -0.354165
  17 S :    0.764050
  18 C :   -0.145738
  19 C :   -0.304721
  20 C :   -0.355317
  21 S :    0.764260
  22 C :   -0.271107
  23 C :   -0.309118
  24 C :   -0.272586
  25 C :   -0.306040
  26 C :   -0.286655
  27 C :   -0.355439
  28 C :   -0.150621
  29 C :   -0.137559
  30 C :   -0.341606
  31 S :    0.734597
  32 C :   -0.286969
  33 S :    0.779303
  34 C :   -0.296704
  35 C :   -0.089995
  36 C :   -0.087100
  37 C :   -0.259528
  38 C :   -0.113071
  39 C :   -0.107902
  40 C :   -0.254697
  41 C :   -0.288912
  42 S :    0.789919
  43 C :   -0.297293
  44 C :   -0.356965
  45 C :   -0.137881
  46 C :   -0.198348
  47 S :    0.718366
  48 O :    0.118347
  49 O :    0.104851
  50 C :   -0.270272
  51 C :   -0.315009
  52 C :   -0.273513
  53 C :   -0.296126
  54 C :   -0.389314
  55 F :    0.188784
  56 F :    0.189247
  57 H :    0.142556
  58 H :    0.145789
  59 H :    0.150175
  60 H :    0.150360
  61 H :    0.149863
  62 H :    0.146210
  63 H :    0.120934
  64 H :    0.120953
  65 H :    0.117625
  66 H :    0.149853
  67 H :    0.144903
  68 H :    0.121572
  69 H :    0.120220
  70 H :    0.117022
  71 H :    0.133322
  72 H :    0.131214
  73 H :    0.131263
  74 H :    0.147344
  75 H :    0.157075
  76 H :    0.152701
  77 H :    0.143238
  78 H :    0.154211
  79 H :    0.156334
  80 H :    0.118202
  81 H :    0.123031
  82 H :    0.119639
  83 H :    0.135531
  84 H :    0.153042
  85 H :    0.116888
  86 H :    0.118962
  87 H :    0.125590
  88 H :    0.129113

  Mayer bond orders larger than 0.100000
B(  0-C ,  1-C ) :   1.1943 B(  0-C ,  5-C ) :   1.2377 B(  0-C , 12-C ) :   0.8758
B(  1-C ,  2-C ) :   1.2685 B(  1-C ,  6-C ) :   1.1856 B(  2-C ,  3-C ) :   1.2648
B(  2-C ,  8-S ) :   1.2542 B(  3-C ,  4-C ) :   1.1872 B(  3-C , 13-C ) :   0.8717
B(  4-C ,  5-C ) :   1.2523 B(  4-C ,  9-C ) :   1.2276 B(  5-C , 11-S ) :   1.2513
B(  6-C ,  7-C ) :   1.7043 B(  6-C ,  8-S ) :   0.1019 B(  6-C , 57-H ) :   0.9138
B(  7-C ,  8-S ) :   1.1881 B(  7-C , 26-C ) :   0.8912 B(  9-C , 10-C ) :   1.5717
B(  9-C , 58-H ) :   0.8983 B( 10-C , 11-S ) :   1.2313 B( 10-C , 27-C ) :   1.0092
B( 12-C , 14-C ) :   1.5103 B( 12-C , 17-S ) :   1.2678 B( 13-C , 18-C ) :   1.5079
B( 13-C , 21-S ) :   1.2602 B( 14-C , 15-C ) :   1.2694 B( 14-C , 17-S ) :   0.1125
B( 14-C , 59-H ) :   0.9562 B( 15-C , 16-C ) :   1.5219 B( 15-C , 55-F ) :   1.0605
B( 16-C , 17-S ) :   1.2020 B( 16-C , 22-C ) :   0.9557 B( 18-C , 19-C ) :   1.2634
B( 18-C , 21-S ) :   0.1107 B( 18-C , 60-H ) :   0.9576 B( 19-C , 20-C ) :   1.5336
B( 19-C , 56-F ) :   1.0565 B( 20-C , 21-S ) :   1.2038 B( 20-C , 24-C ) :   0.9399
B( 22-C , 23-C ) :   0.9784 B( 22-C , 61-H ) :   0.9666 B( 22-C , 62-H ) :   0.9473
B( 23-C , 63-H ) :   0.9731 B( 23-C , 64-H ) :   0.9744 B( 23-C , 65-H ) :   0.9680
B( 24-C , 25-C ) :   0.9707 B( 24-C , 66-H ) :   0.9711 B( 24-C , 67-H ) :   0.9519
B( 25-C , 68-H ) :   0.9729 B( 25-C , 69-H ) :   0.9731 B( 25-C , 70-H ) :   0.9707
B( 26-C , 71-H ) :   0.9896 B( 26-C , 72-H ) :   0.9651 B( 26-C , 73-H ) :   0.9607
B( 27-C , 28-C ) :   1.4637 B( 27-C , 31-S ) :   1.2838 B( 28-C , 29-C ) :   1.3272
B( 28-C , 74-H ) :   0.9531 B( 29-C , 30-C ) :   1.5143 B( 29-C , 31-S ) :   0.1054
B( 29-C , 75-H ) :   0.9144 B( 30-C , 31-S ) :   1.2453 B( 30-C , 32-C ) :   1.0580
B( 32-C , 33-S ) :   1.2698 B( 32-C , 36-C ) :   1.4149 B( 33-S , 34-C ) :   1.2585
B( 34-C , 35-C ) :   1.4766 B( 34-C , 44-C ) :   0.9432 B( 34-C , 47-S ) :  -0.1008
B( 35-C , 36-C ) :   1.1423 B( 35-C , 37-C ) :   1.0302 B( 36-C , 40-C ) :   1.0471
B( 37-C , 38-C ) :   1.0334 B( 37-C , 48-O ) :   2.0093 B( 38-C , 39-C ) :   1.0890
B( 38-C , 41-C ) :   1.5590 B( 39-C , 40-C ) :   1.0466 B( 39-C , 43-C ) :   1.5748
B( 40-C , 49-O ) :   1.8663 B( 41-C , 42-S ) :   1.2386 B( 41-C , 50-C ) :   1.0113
B( 42-S , 43-C ) :   1.3029 B( 43-C , 52-C ) :   0.9333 B( 44-C , 45-C ) :   1.5294
B( 44-C , 47-S ) :   1.2737 B( 45-C , 46-C ) :   1.3135 B( 45-C , 76-H ) :   0.9344
B( 46-C , 47-S ) :   0.1096 B( 46-C , 54-C ) :   1.6243 B( 46-C , 77-H ) :   0.9559
B( 47-S , 54-C ) :   1.2712 B( 50-C , 51-C ) :   0.9602 B( 50-C , 78-H ) :   0.9352
B( 50-C , 79-H ) :   0.9475 B( 51-C , 80-H ) :   0.9683 B( 51-C , 81-H ) :   0.9761
B( 51-C , 82-H ) :   0.9721 B( 52-C , 53-C ) :   0.9446 B( 52-C , 83-H ) :   0.9633
B( 52-C , 84-H ) :   0.9548 B( 53-C , 85-H ) :   0.9710 B( 53-C , 86-H ) :   0.9706
B( 53-C , 87-H ) :   0.9774 B( 54-C , 88-H ) :   0.9385

-----------------------------------------------------------------------------
         ABSORPTION SPECTRUM VIA TRANSITION ELECTRIC DIPOLE MOMENTS
-----------------------------------------------------------------------------
State   Energy    Wavelength  fosc         T2        TX        TY        TZ
        (cm-1)      (nm)                 (au**2)    (au)      (au)      (au)
-----------------------------------------------------------------------------
   1   19041.1    525.2   1.009233201  17.44916   3.64558  -2.03440   0.14182
   2   20792.0    481.0   0.077196661   1.22230  -0.47143  -0.99923  -0.03983
   3   21394.3    467.4   0.497155196   7.65013   2.68210  -0.67347  -0.05387
   4   23820.0    419.8   0.072528403   1.00240  -0.21993  -0.97500  -0.05831
   5   25018.3    399.7   0.187277082   2.46435   0.48168   1.48681  -0.14738
   6   25647.0    389.9   0.100090508   1.28479  -0.75218   0.83622  -0.14056
   7   26023.8    384.3   0.011049263   0.13978  -0.29774   0.21704  -0.06342
   8   26427.8    378.4   0.001366297   0.01702   0.11501  -0.03950  -0.04726
   9   27027.0    370.0   0.019590540   0.23863  -0.37444   0.31123   0.03947
  10   27373.8    365.3   0.144633855   1.73944  -0.82646   1.01507  -0.16142
  11   27408.9    364.8   0.037081889   0.44539   0.08019  -0.66253  -0.00392
  12   27928.4    358.1   0.459603383   5.41767  -2.26750  -0.51554   0.10171
  13   28481.8    351.1   0.014428607   0.16678   0.02328   0.40768   0.00552
  14   28588.3    349.8   0.015442242   0.17783   0.14845  -0.39446  -0.01398
  15   29024.8    344.5   0.117578488   1.33363  -0.72011  -0.89895  -0.08339
  16   29597.5    337.9   0.003155609   0.03510  -0.09778   0.15783  -0.02509
  17   29849.3    335.0   0.009743904   0.10747   0.19612  -0.25711  -0.05387
  18   30363.8    329.3   0.001200158   0.01301  -0.08294   0.07831   0.00006
  19   30543.4    327.4   0.054779138   0.59044   0.59198   0.48347   0.07908
  20   30922.9    323.4   0.100856786   1.07374  -0.55900  -0.86963  -0.07078
  21   31165.2    320.9   0.028373008   0.29972   0.20248  -0.50174   0.08350
  22   31460.6    317.9   0.026363217   0.27587  -0.50640   0.13835   0.01707
  23   31548.7    317.0   0.006198198   0.06468   0.14331  -0.20977   0.01161
  24   31862.2    313.9   0.004593253   0.04746  -0.01354  -0.21443   0.03597
  25   31895.1    313.5   0.002973214   0.03069   0.17394   0.00799   0.01925
  26   32043.6    312.1   0.002177653   0.02237   0.14228  -0.03231  -0.03294
  27   32095.5    311.6   0.015879641   0.16288  -0.36112  -0.17594  -0.03896
  28   32360.9    309.0   0.013294734   0.13525  -0.28619  -0.22854  -0.03333
  29   32618.9    306.6   0.005056154   0.05103  -0.20127  -0.09625   0.03546
  30   32747.5    305.4   0.087042256   0.87504  -0.93507  -0.01518   0.02111
  31   33001.3    303.0   0.002428880   0.02423  -0.10822   0.10899   0.02527
  32   33243.4    300.8   0.039956517   0.39569   0.52577  -0.29723   0.17582
  33   33303.4    300.3   0.041914149   0.41433  -0.19849  -0.55783  -0.25249
  34   33784.4    296.0   0.077760226   0.75773   0.05604   0.86451  -0.08492
  35   33860.5    295.3   0.014306769   0.13910   0.13733   0.31950   0.13475
  36   34075.3    293.5   0.125723951   1.21466   0.73969   0.80903   0.11391
  37   34362.7    291.0   0.158158874   1.51524   1.04897   0.64071  -0.06638
  38   34621.8    288.8   0.055454121   0.52730   0.49434  -0.52933   0.05225
  39   34736.1    287.9   0.009355251   0.08866  -0.02039   0.28119   0.09581
  40   35004.8    285.7   0.027147505   0.25532  -0.18514  -0.47000  -0.01167
  41   35321.5    283.1   0.000245970   0.00229  -0.00877   0.04707   0.00011
  42   35419.7    282.3   0.015990606   0.14863  -0.34626  -0.07487  -0.15207
  43   35521.4    281.5   0.005554376   0.05148  -0.20908  -0.08328   0.02877
  44   35631.6    280.6   0.076938495   0.71086   0.58501   0.60461   0.05542
  45   35836.7    279.0   0.022280467   0.20468  -0.44284  -0.08321   0.04056
  46   36052.1    277.4   0.000502072   0.00458   0.04251  -0.05267  -0.00177
  47   36548.3    273.6   0.004190905   0.03775  -0.11234  -0.09926  -0.12360
  48   36577.7    273.4   0.040413241   0.36373   0.57523   0.13289   0.12320
  49   36749.1    272.1   0.023372591   0.20938  -0.02272  -0.43192   0.14935
  50   36845.4    271.4   0.018231174   0.16289   0.33911  -0.20724  -0.07039

FINAL SINGLE POINT ENERGY     -5268.902298236396

DIPOLE MOMENT
-------------
                                X             Y             Z
Electronic contribution:     21.38894      14.52368      12.24738
Nuclear contribution   :    -21.04275     -14.72689     -12.64554
                        -----------------------------------------
Total Dipole Moment    :      0.34619      -0.20321      -0.39815
                        -----------------------------------------
Magnitude (a.u.)       :      0.56539
Magnitude (Debye)      :      1.43711

Rotational constants in cm-1:     0.001511     0.000511     0.000391
Rotational constants in MHz :    45.287682    15.325154    11.721859

                             ****ORCA TERMINATED NORMALLY****
TOTAL RUN TIME: 0 days 5 hours 50 minutes 42 seconds 941 msec
