                         Program Version 4.2.0 -  RELEASE  -
|  1> # ORCA input file
|  2> # PBDB-TF_dimer.out
|  3> ! B3LYP def2-TZVP def2/J RIJCOSX Grid4 TightSCF
|  4> %maxcore 1000
|  5> %tddft
|  6>   maxdim 5
|  7>   nroots 50
|  8>   end
|  9> * xyz 0 1
| 10>    C        0.74586         1.66819         0.27424
| 11>    C        1.67704         0.61572         0.28544
| 12>    C        1.22831        -0.72533         0.30543
| 13>    C       -0.11578        -1.08787         0.30200
| 14>    C       -1.04961        -0.03294         0.31196
| 15>    C       -0.59911         1.30940         0.30064
| 16>    C        3.10035         0.69280         0.28249
| 17>    C        3.71508        -0.50983         0.26969
| 18>    S        2.57425        -1.83296         0.27682
| 19>    C       -2.46375        -0.11366         0.33724
| 20>    C       -3.08459         1.10201         0.30610
| 21>    S       -1.93726         2.42302         0.26748
| 22>    C        1.13547         3.06409         0.21732
| 23>    C       -0.51015        -2.48142         0.25714
| 24>    C        0.57431         4.11517         0.88487
| 25>    C        1.17853         5.34138         0.54596
| 26>    C        2.17686         5.26737        -0.37849
| 27>    S        2.40167         3.61665        -0.84603
| 28>    C        0.06907        -3.53874         0.90002
| 29>    C       -0.54709        -4.76156         0.57162
| 30>    C       -1.57387        -4.67997        -0.32087
| 31>    S       -1.81048        -3.02634        -0.77008
| 32>    C        3.01808         6.36763        -0.92646
| 33>    C        4.47657         6.23045        -0.48760
| 34>    C       -2.43253        -5.77528        -0.85176
| 35>    C       -3.88537        -5.61886        -0.40130
| 36>    C        5.17103        -0.79942         0.25947
| 37>    C       -4.48529         1.36470         0.30642
| 38>    C       -5.52019         0.46151         0.43061
| 39>    C       -6.78335         1.04688         0.36895
| 40>    C       -6.75252         2.41416         0.19252
| 41>    S       -5.09721         2.97333         0.11115
| 42>    C       -7.78606         3.39482         0.10445
| 43>    S       -7.25362         5.05265         0.14273
| 44>    C       -8.87349         5.66317         0.04488
| 45>    C       -9.78934         4.62514         0.01865
| 46>    C       -9.17358         3.32983         0.02783
| 47>    C      -11.24258         4.82383         0.10530
| 48>    C      -12.00806         3.58387         0.17462
| 49>    C      -11.40705         2.29306         0.06599
| 50>    C       -9.96727         2.10153        -0.10743
| 51>    C      -13.37195         3.53382         0.33132
| 52>    S      -13.92300         1.89522         0.36735
| 53>    C      -12.32094         1.27327         0.15564
| 54>    C       -9.03327         7.08484        -0.00866
| 55>    C       -9.95580         7.85651        -0.66711
| 56>    C       -9.71720         9.23504        -0.53198
| 57>    S       -7.83836         8.09124         0.77413
| 58>    O      -11.77817         5.92107         0.15505
| 59>    O       -9.49168         1.00577        -0.36530
| 60>    C      -14.31204         4.67684         0.45752
| 61>    C      -15.76136         4.25177         0.64088
| 62>    C      -12.10630        -0.19423         0.06322
| 63>    C      -12.07469        -0.64590        -1.39957
| 64>    C       -8.61738         9.51185         0.21913
| 65>    F        0.79248         6.50594         1.09888
| 66>    F       -0.14364        -5.93026         1.10348
| 67>    H        3.64160         1.62073         0.29584
| 68>    H       -3.00549        -1.03919         0.37864
| 69>    H       -0.21025         4.03056         1.61301
| 70>    H        0.87489        -3.46059         1.60519
| 71>    H        2.61102         7.31719        -0.57252
| 72>    H        2.96846         6.35765        -2.01860
| 73>    H        4.55040         6.25727         0.59720
| 74>    H        5.06890         7.04493        -0.89604
| 75>    H        4.88878         5.28771        -0.84100
| 76>    H       -2.03204        -6.72644        -0.49465
| 77>    H       -2.39304        -5.77438        -1.94447
| 78>    H       -3.94879        -5.62446         0.68454
| 79>    H       -4.48742        -6.43676        -0.78817
| 80>    H       -4.29476        -4.68039        -0.76894
| 81>    H        5.73701         0.12858         0.27484
| 82>    H        5.44024        -1.36371        -0.63304
| 83>    H        5.44754        -1.39925         1.12604
| 84>    H       -5.36424        -0.59332         0.56408
| 85>    H       -7.69680         0.48850         0.43395
| 86>    H      -10.77212         7.44602        -1.22918
| 87>    H      -10.33899         9.99105        -0.97678
| 88>    H      -14.20864         5.30453        -0.43347
| 89>    H      -13.98570         5.29900         1.29700
| 90>    H      -16.09616         3.65613        -0.20617
| 91>    H      -16.40105         5.12672         0.72131
| 92>    H      -15.87507         3.65659         1.54468
| 93>    H      -12.90716        -0.71417         0.59315
| 94>    H      -11.14810        -0.44149         0.52421
| 95>    H      -12.99577        -0.36642        -1.90665
| 96>    H      -11.95944        -1.72512        -1.45135
| 97>    H      -11.23380        -0.18173        -1.90739
| 98>    H       -8.21716        10.46988         0.48632
| 99> *
|100>
|101>                          ****END OF INPUT****

CARTESIAN COORDINATES (ANGSTROEM)
---------------------------------
  C      0.745860    1.668190    0.274240
  C      1.677040    0.615720    0.285440
  C      1.228310   -0.725330    0.305430
  C     -0.115780   -1.087870    0.302000
  C     -1.049610   -0.032940    0.311960
  C     -0.599110    1.309400    0.300640
  C      3.100350    0.692800    0.282490
  C      3.715080   -0.509830    0.269690
  S      2.574250   -1.832960    0.276820
  C     -2.463750   -0.113660    0.337240
  C     -3.084590    1.102010    0.306100
  S     -1.937260    2.423020    0.267480
  C      1.135470    3.064090    0.217320
  C     -0.510150   -2.481420    0.257140
  C      0.574310    4.115170    0.884870
  C      1.178530    5.341380    0.545960
  C      2.176860    5.267370   -0.378490
  S      2.401670    3.616650   -0.846030
  C      0.069070   -3.538740    0.900020
  C     -0.547090   -4.761560    0.571620
  C     -1.573870   -4.679970   -0.320870
  S     -1.810480   -3.026340   -0.770080
  C      3.018080    6.367630   -0.926460
  C      4.476570    6.230450   -0.487600
  C     -2.432530   -5.775280   -0.851760
  C     -3.885370   -5.618860   -0.401300
  C      5.171030   -0.799420    0.259470
  C     -4.485290    1.364700    0.306420
  C     -5.520190    0.461510    0.430610
  C     -6.783350    1.046880    0.368950
  C     -6.752520    2.414160    0.192520
  S     -5.097210    2.973330    0.111150
  C     -7.786060    3.394820    0.104450
  S     -7.253620    5.052650    0.142730
  C     -8.873490    5.663170    0.044880
  C     -9.789340    4.625140    0.018650
  C     -9.173580    3.329830    0.027830
  C    -11.242580    4.823830    0.105300
  C    -12.008060    3.583870    0.174620
  C    -11.407050    2.293060    0.065990
  C     -9.967270    2.101530   -0.107430
  C    -13.371950    3.533820    0.331320
  S    -13.923000    1.895220    0.367350
  C    -12.320940    1.273270    0.155640
  C     -9.033270    7.084840   -0.008660
  C     -9.955800    7.856510   -0.667110
  C     -9.717200    9.235040   -0.531980
  S     -7.838360    8.091240    0.774130
  O    -11.778170    5.921070    0.155050
  O     -9.491680    1.005770   -0.365300
  C    -14.312040    4.676840    0.457520
  C    -15.761360    4.251770    0.640880
  C    -12.106300   -0.194230    0.063220
  C    -12.074690   -0.645900   -1.399570
  C     -8.617380    9.511850    0.219130
  F      0.792480    6.505940    1.098880
  F     -0.143640   -5.930260    1.103480
  H      3.641600    1.620730    0.295840
  H     -3.005490   -1.039190    0.378640
  H     -0.210250    4.030560    1.613010
  H      0.874890   -3.460590    1.605190
  H      2.611020    7.317190   -0.572520
  H      2.968460    6.357650   -2.018600
  H      4.550400    6.257270    0.597200
  H      5.068900    7.044930   -0.896040
  H      4.888780    5.287710   -0.841000
  H     -2.032040   -6.726440   -0.494650
  H     -2.393040   -5.774380   -1.944470
  H     -3.948790   -5.624460    0.684540
  H     -4.487420   -6.436760   -0.788170
  H     -4.294760   -4.680390   -0.768940
  H      5.737010    0.128580    0.274840
  H      5.440240   -1.363710   -0.633040
  H      5.447540   -1.399250    1.126040
  H     -5.364240   -0.593320    0.564080
  H     -7.696800    0.488500    0.433950
  H    -10.772120    7.446020   -1.229180
  H    -10.338990    9.991050   -0.976780
  H    -14.208640    5.304530   -0.433470
  H    -13.985700    5.299000    1.297000
  H    -16.096160    3.656130   -0.206170
  H    -16.401050    5.126720    0.721310
  H    -15.875070    3.656590    1.544680
  H    -12.907160   -0.714170    0.593150
  H    -11.148100   -0.441490    0.524210
  H    -12.995770   -0.366420   -1.906650
  H    -11.959440   -1.725120   -1.451350
  H    -11.233800   -0.181730   -1.907390
  H     -8.217160   10.469880    0.486320

 Total Charge           Charge          ....    0
 Multiplicity           Mult            ....    1
 Number of Electrons    NEL             ....  464
 Basis Dimension        Dim             .... 2007

ORBITAL ENERGIES
----------------

  NO   OCC          E(Eh)            E(eV)
   0   2.0000     -88.896527     -2418.9975
   1   2.0000     -88.895086     -2418.9583
   2   2.0000     -88.888653     -2418.7832
   3   2.0000     -88.887576     -2418.7539
   4   2.0000     -88.887104     -2418.7411
   5   2.0000     -88.885851     -2418.7070
   6   2.0000     -88.882049     -2418.6035
   7   2.0000     -88.878068     -2418.4952
   8   2.0000     -24.695040      -671.9862
   9   2.0000     -24.694229      -671.9641
  10   2.0000     -19.105899      -519.8979
  11   2.0000     -19.101131      -519.7682
  12   2.0000     -10.261435      -279.2278
  13   2.0000     -10.257629      -279.1243
  14   2.0000     -10.255001      -279.0528
  15   2.0000     -10.254300      -279.0337
  16   2.0000     -10.232788      -278.4483
  17   2.0000     -10.230207      -278.3781
  18   2.0000     -10.219784      -278.0945
  19   2.0000     -10.218294      -278.0539
  20   2.0000     -10.217567      -278.0341
  21   2.0000     -10.217562      -278.0340
  22   2.0000     -10.216329      -278.0005
  23   2.0000     -10.215920      -277.9893
  24   2.0000     -10.215339      -277.9735
  25   2.0000     -10.212906      -277.9073
  26   2.0000     -10.211088      -277.8578
  27   2.0000     -10.211041      -277.8566
  28   2.0000     -10.210675      -277.8466
  29   2.0000     -10.204750      -277.6854
  30   2.0000     -10.204096      -277.6676
  31   2.0000     -10.203923      -277.6629
  32   2.0000     -10.203037      -277.6387
  33   2.0000     -10.200416      -277.5674
  34   2.0000     -10.196110      -277.4502
  35   2.0000     -10.194982      -277.4196
  36   2.0000     -10.193704      -277.3848
  37   2.0000     -10.193092      -277.3681
  38   2.0000     -10.187159      -277.2067
  39   2.0000     -10.186863      -277.1986
  40   2.0000     -10.184036      -277.1217
  41   2.0000     -10.183042      -277.0947
  42   2.0000     -10.182542      -277.0811
  43   2.0000     -10.182078      -277.0684
  44   2.0000     -10.181738      -277.0592
  45   2.0000     -10.181130      -277.0426
  46   2.0000     -10.180630      -277.0290
  47   2.0000     -10.179315      -276.9933
  48   2.0000     -10.178536      -276.9720
  49   2.0000     -10.176860      -276.9265
  50   2.0000     -10.176170      -276.9077
  51   2.0000     -10.175458      -276.8883
  52   2.0000     -10.173547      -276.8363
  53   2.0000     -10.166735      -276.6509
  54   2.0000     -10.166673      -276.6492
  55   2.0000     -10.165280      -276.6113
  56   2.0000     -10.156963      -276.3850
  57   2.0000      -7.973785      -216.9777
  58   2.0000      -7.971813      -216.9241
  59   2.0000      -7.965756      -216.7592
  60   2.0000      -7.964347      -216.7209
  61   2.0000      -7.963860      -216.7076
  62   2.0000      -7.962496      -216.6705
  63   2.0000      -7.959124      -216.5788
  64   2.0000      -7.955183      -216.4715
  65   2.0000      -5.936215      -161.5326
  66   2.0000      -5.934014      -161.4727
  67   2.0000      -5.932200      -161.4234
  68   2.0000      -5.930508      -161.3773
  69   2.0000      -5.930034      -161.3644
  70   2.0000      -5.929163      -161.3407
  71   2.0000      -5.928228      -161.3153
  72   2.0000      -5.926757      -161.2753
  73   2.0000      -5.926278      -161.2622
  74   2.0000      -5.924867      -161.2238
  75   2.0000      -5.924339      -161.2095
  76   2.0000      -5.923031      -161.1739
  77   2.0000      -5.922544      -161.1606
  78   2.0000      -5.922387      -161.1563
  79   2.0000      -5.921893      -161.1429
  80   2.0000      -5.921019      -161.1191
  81   2.0000      -5.920906      -161.1160
  82   2.0000      -5.920529      -161.1058
  83   2.0000      -5.919541      -161.0789
  84   2.0000      -5.917960      -161.0359
  85   2.0000      -5.917917      -161.0347
  86   2.0000      -5.915186      -160.9604
  87   2.0000      -5.913913      -160.9258
  88   2.0000      -5.911413      -160.8577
  89   2.0000      -1.228788       -33.4370
  90   2.0000      -1.228040       -33.4167
  91   2.0000      -1.041412       -28.3383
  92   2.0000      -1.036156       -28.1952
  93   2.0000      -0.921885       -25.0858
  94   2.0000      -0.916070       -24.9275
  95   2.0000      -0.903237       -24.5783
  96   2.0000      -0.900318       -24.4989
  97   2.0000      -0.899594       -24.4792
  98   2.0000      -0.891613       -24.2620
  99   2.0000      -0.885990       -24.1090
 100   2.0000      -0.877675       -23.8827
 101   2.0000      -0.831374       -22.6228
 102   2.0000      -0.823110       -22.3980
 103   2.0000      -0.811063       -22.0701
 104   2.0000      -0.808150       -21.9909
 105   2.0000      -0.799265       -21.7491
 106   2.0000      -0.794703       -21.6250
 107   2.0000      -0.787108       -21.4183
 108   2.0000      -0.771174       -20.9847
 109   2.0000      -0.767570       -20.8866
 110   2.0000      -0.756660       -20.5898
 111   2.0000      -0.751653       -20.4535
 112   2.0000      -0.745812       -20.2946
 113   2.0000      -0.741808       -20.1856
 114   2.0000      -0.740194       -20.1417
 115   2.0000      -0.736957       -20.0536
 116   2.0000      -0.734303       -19.9814
 117   2.0000      -0.728334       -19.8190
 118   2.0000      -0.724504       -19.7148
 119   2.0000      -0.722406       -19.6577
 120   2.0000      -0.710419       -19.3315
 121   2.0000      -0.694111       -18.8877
 122   2.0000      -0.687497       -18.7078
 123   2.0000      -0.659700       -17.9513
 124   2.0000      -0.654054       -17.7977
 125   2.0000      -0.650982       -17.7141
 126   2.0000      -0.636451       -17.3187
 127   2.0000      -0.635666       -17.2973
 128   2.0000      -0.624603       -16.9963
 129   2.0000      -0.617348       -16.7989
 130   2.0000      -0.616182       -16.7672
 131   2.0000      -0.600070       -16.3287
 132   2.0000      -0.588076       -16.0024
 133   2.0000      -0.580312       -15.7911
 134   2.0000      -0.577792       -15.7225
 135   2.0000      -0.576307       -15.6821
 136   2.0000      -0.572475       -15.5778
 137   2.0000      -0.564090       -15.3497
 138   2.0000      -0.555668       -15.1205
 139   2.0000      -0.547606       -14.9011
 140   2.0000      -0.544843       -14.8259
 141   2.0000      -0.537542       -14.6273
 142   2.0000      -0.532481       -14.4895
 143   2.0000      -0.523127       -14.2350
 144   2.0000      -0.522436       -14.2162
 145   2.0000      -0.518866       -14.1191
 146   2.0000      -0.516638       -14.0584
 147   2.0000      -0.515421       -14.0253
 148   2.0000      -0.501524       -13.6472
 149   2.0000      -0.489928       -13.3316
 150   2.0000      -0.484239       -13.1768
 151   2.0000      -0.481177       -13.0935
 152   2.0000      -0.477413       -12.9911
 153   2.0000      -0.476029       -12.9534
 154   2.0000      -0.474158       -12.9025
 155   2.0000      -0.468527       -12.7493
 156   2.0000      -0.467975       -12.7342
 157   2.0000      -0.467043       -12.7089
 158   2.0000      -0.462187       -12.5768
 159   2.0000      -0.458204       -12.4684
 160   2.0000      -0.453646       -12.3443
 161   2.0000      -0.450228       -12.2513
 162   2.0000      -0.448923       -12.2158
 163   2.0000      -0.446210       -12.1420
 164   2.0000      -0.443326       -12.0635
 165   2.0000      -0.441172       -12.0049
 166   2.0000      -0.436435       -11.8760
 167   2.0000      -0.433988       -11.8094
 168   2.0000      -0.432197       -11.7607
 169   2.0000      -0.428723       -11.6661
 170   2.0000      -0.426154       -11.5962
 171   2.0000      -0.423548       -11.5253
 172   2.0000      -0.420796       -11.4504
 173   2.0000      -0.419041       -11.4027
 174   2.0000      -0.417668       -11.3653
 175   2.0000      -0.413474       -11.2512
 176   2.0000      -0.410580       -11.1725
 177   2.0000      -0.406918       -11.0728
 178   2.0000      -0.403942       -10.9918
 179   2.0000      -0.401650       -10.9295
 180   2.0000      -0.401355       -10.9214
 181   2.0000      -0.396826       -10.7982
 182   2.0000      -0.396656       -10.7935
 183   2.0000      -0.394371       -10.7314
 184   2.0000      -0.392792       -10.6884
 185   2.0000      -0.390071       -10.6144
 186   2.0000      -0.385409       -10.4875
 187   2.0000      -0.383128       -10.4254
 188   2.0000      -0.381743       -10.3877
 189   2.0000      -0.380614       -10.3570
 190   2.0000      -0.378104       -10.2887
 191   2.0000      -0.376476       -10.2444
 192   2.0000      -0.375270       -10.2116
 193   2.0000      -0.374724       -10.1968
 194   2.0000      -0.371466       -10.1081
 195   2.0000      -0.369400       -10.0519
 196   2.0000      -0.366970        -9.9858
 197   2.0000      -0.365541        -9.9469
 198   2.0000      -0.362948        -9.8763
 199   2.0000      -0.361522        -9.8375
 200   2.0000      -0.360578        -9.8118
 201   2.0000      -0.360103        -9.7989
 202   2.0000      -0.357793        -9.7361
 203   2.0000      -0.356167        -9.6918
 204   2.0000      -0.354936        -9.6583
 205   2.0000      -0.350301        -9.5322
 206   2.0000      -0.349702        -9.5159
 207   2.0000      -0.347219        -9.4483
 208   2.0000      -0.343711        -9.3529
 209   2.0000      -0.343029        -9.3343
 210   2.0000      -0.342327        -9.3152
 211   2.0000      -0.338318        -9.2061
 212   2.0000      -0.331057        -9.0085
 213   2.0000      -0.320355        -8.7173
 214   2.0000      -0.310934        -8.4609
 215   2.0000      -0.293159        -7.9773
 216   2.0000      -0.278324        -7.5736
 217   2.0000      -0.268976        -7.3192
 218   2.0000      -0.267389        -7.2760
 219   2.0000      -0.262749        -7.1498
 220   2.0000      -0.261097        -7.1048
 221   2.0000      -0.258416        -7.0319
 222   2.0000      -0.255980        -6.9656
 223   2.0000      -0.255725        -6.9586
 224   2.0000      -0.252503        -6.8710
 225   2.0000      -0.246509        -6.7079
 226   2.0000      -0.241617        -6.5747
 227   2.0000      -0.235563        -6.4100
 228   2.0000      -0.233606        -6.3568
 229   2.0000      -0.225991        -6.1495
 230   2.0000      -0.203122        -5.5272
 231   2.0000      -0.188225        -5.1219
 232   0.0000      -0.096101        -2.6151
 233   0.0000      -0.084426        -2.2973
 234   0.0000      -0.066514        -1.8099
 235   0.0000      -0.050222        -1.3666
 236   0.0000      -0.037459        -1.0193

MULLIKEN ATOMIC CHARGES
-----------------------
   0 C :    0.109909
   1 C :    0.074255
   2 C :   -0.025771
   3 C :    0.074546
   4 C :    0.191779
   5 C :   -0.028789
   6 C :   -0.227708
   7 C :    0.082162
   8 S :    0.000656
   9 C :   -0.237915
  10 C :    0.076019
  11 S :   -0.040070
  12 C :   -0.026532
  13 C :   -0.014064
  14 C :   -0.333283
  15 C :    0.316810
  16 C :   -0.076354
  17 S :    0.008417
  18 C :   -0.315549
  19 C :    0.310942
  20 C :   -0.076407
  21 S :    0.006367
  22 C :   -0.195407
  23 C :   -0.335902
  24 C :   -0.192429
  25 C :   -0.338968
  26 C :   -0.373463
  27 C :    0.076188
  28 C :   -0.158083
  29 C :   -0.184929
  30 C :    0.140997
  31 S :   -0.021082
  32 C :    0.000715
  33 S :    0.012324
  34 C :    0.122302
  35 C :    0.042407
  36 C :   -0.014925
  37 C :    0.130991
  38 C :   -0.006733
  39 C :   -0.037787
  40 C :    0.179269
  41 C :   -0.016879
  42 S :    0.037161
  43 C :    0.040896
  44 C :   -0.003293
  45 C :   -0.168825
  46 C :   -0.118754
  47 S :    0.034127
  48 O :   -0.379001
  49 O :   -0.410309
  50 C :   -0.091281
  51 C :   -0.337874
  52 C :   -0.112930
  53 C :   -0.347207
  54 C :   -0.180506
  55 F :   -0.216225
  56 F :   -0.216559
  57 H :    0.123948
  58 H :    0.133675
  59 H :    0.141370
  60 H :    0.138287
  61 H :    0.117180
  62 H :    0.105713
  63 H :    0.114773
  64 H :    0.109750
  65 H :    0.107379
  66 H :    0.117058
  67 H :    0.105811
  68 H :    0.114610
  69 H :    0.110262
  70 H :    0.110084
  71 H :    0.122827
  72 H :    0.127282
  73 H :    0.126043
  74 H :    0.117303
  75 H :    0.158548
  76 H :    0.130440
  77 H :    0.117156
  78 H :    0.108280
  79 H :    0.114009
  80 H :    0.111269
  81 H :    0.118914
  82 H :    0.112928
  83 H :    0.090954
  84 H :    0.109452
  85 H :    0.099818
  86 H :    0.103004
  87 H :    0.133858
  88 H :    0.140573
Sum of atomic charges:    0.0000000

LOEWDIN ATOMIC CHARGES
----------------------
   0 C :   -0.120454
   1 C :   -0.110140
   2 C :   -0.260318
   3 C :   -0.117694
   4 C :   -0.112621
   5 C :   -0.258208
   6 C :   -0.154552
   7 C :   -0.381821
   8 S :    0.742355
   9 C :   -0.123052
  10 C :   -0.355369
  11 S :    0.753711
  12 C :   -0.318267
  13 C :   -0.316762
  14 C :   -0.149941
  15 C :   -0.299613
  16 C :   -0.360527
  17 S :    0.780249
  18 C :   -0.150249
  19 C :   -0.299718
  20 C :   -0.360612
  21 S :    0.781462
  22 C :   -0.271150
  23 C :   -0.297479
  24 C :   -0.270948
  25 C :   -0.297673
  26 C :   -0.280269
  27 C :   -0.359698
  28 C :   -0.145795
  29 C :   -0.134008
  30 C :   -0.352368
  31 S :    0.753343
  32 C :   -0.295651
  33 S :    0.790259
  34 C :   -0.302916
  35 C :   -0.091136
  36 C :   -0.087582
  37 C :   -0.269126
  38 C :   -0.111232
  39 C :   -0.108301
  40 C :   -0.265145
  41 C :   -0.296308
  42 S :    0.802041
  43 C :   -0.300999
  44 C :   -0.364199
  45 C :   -0.133961
  46 C :   -0.197838
  47 S :    0.731379
  48 O :    0.128664
  49 O :    0.116735
  50 C :   -0.268604
  51 C :   -0.311641
  52 C :   -0.271541
  53 C :   -0.290659
  54 C :   -0.390466
  55 F :    0.181447
  56 F :    0.180856
  57 H :    0.139502
  58 H :    0.139713
  59 H :    0.146977
  60 H :    0.146032
  61 H :    0.148591
  62 H :    0.142548
  63 H :    0.120497
  64 H :    0.116825
  65 H :    0.114544
  66 H :    0.148451
  67 H :    0.142829
  68 H :    0.120426
  69 H :    0.117146
  70 H :    0.114878
  71 H :    0.131826
  72 H :    0.130536
  73 H :    0.129944
  74 H :    0.144602
  75 H :    0.154254
  76 H :    0.150540
  77 H :    0.141609
  78 H :    0.154175
  79 H :    0.155342
  80 H :    0.116675
  81 H :    0.120649
  82 H :    0.117159
  83 H :    0.135142
  84 H :    0.151779
  85 H :    0.114517
  86 H :    0.116546
  87 H :    0.124618
  88 H :    0.125239

  Mayer bond orders larger than 0.100000
B(  0-C ,  1-C ) :   1.1950 B(  0-C ,  5-C ) :   1.2536 B(  0-C , 12-C ) :   0.8875
B(  0-C , 17-S ) :  -0.1075 B(  1-C ,  2-C ) :   1.2986 B(  1-C ,  6-C ) :   1.1874
B(  2-C ,  3-C ) :   1.2821 B(  2-C ,  8-S ) :   1.2420 B(  3-C ,  4-C ) :   1.1955
B(  3-C , 13-C ) :   0.9151 B(  4-C ,  5-C ) :   1.2431 B(  4-C ,  9-C ) :   1.2456
B(  5-C , 11-S ) :   1.2511 B(  6-C ,  7-C ) :   1.7112 B(  6-C ,  8-S ) :   0.1004
B(  6-C , 57-H ) :   0.9051 B(  7-C ,  8-S ) :   1.1998 B(  7-C , 26-C ) :   0.8804
B(  9-C , 10-C ) :   1.5575 B(  9-C , 58-H ) :   0.8840 B( 10-C , 11-S ) :   1.2470
B( 10-C , 27-C ) :   1.0571 B( 12-C , 14-C ) :   1.4987 B( 12-C , 17-S ) :   1.2762
B( 13-C , 18-C ) :   1.4862 B( 13-C , 21-S ) :   1.2676 B( 14-C , 15-C ) :   1.2660
B( 14-C , 17-S ) :   0.1151 B( 14-C , 59-H ) :   0.9557 B( 15-C , 16-C ) :   1.5468
B( 15-C , 55-F ) :   1.0630 B( 16-C , 17-S ) :   1.2055 B( 16-C , 22-C ) :   0.9302
B( 18-C , 19-C ) :   1.2704 B( 18-C , 21-S ) :   0.1086 B( 18-C , 60-H ) :   0.9535
B( 19-C , 20-C ) :   1.5421 B( 19-C , 56-F ) :   1.0624 B( 20-C , 21-S ) :   1.2055
B( 20-C , 24-C ) :   0.9332 B( 22-C , 23-C ) :   0.9587 B( 22-C , 61-H ) :   0.9744
B( 22-C , 62-H ) :   0.9623 B( 23-C , 63-H ) :   0.9753 B( 23-C , 64-H ) :   0.9732
B( 23-C , 65-H ) :   0.9747 B( 24-C , 25-C ) :   0.9585 B( 24-C , 66-H ) :   0.9741
B( 24-C , 67-H ) :   0.9607 B( 25-C , 68-H ) :   0.9752 B( 25-C , 69-H ) :   0.9731
B( 25-C , 70-H ) :   0.9747 B( 26-C , 71-H ) :   0.9929 B( 26-C , 72-H ) :   0.9649
B( 26-C , 73-H ) :   0.9657 B( 27-C , 28-C ) :   1.4362 B( 27-C , 31-S ) :   1.2936
B( 28-C , 29-C ) :   1.3631 B( 28-C , 74-H ) :   0.9584 B( 29-C , 30-C ) :   1.4810
B( 29-C , 75-H ) :   0.9217 B( 30-C , 31-S ) :   1.2581 B( 30-C , 32-C ) :   1.0801
B( 32-C , 33-S ) :   1.2806 B( 32-C , 36-C ) :   1.3940 B( 33-S , 34-C ) :   1.2657
B( 34-C , 35-C ) :   1.4537 B( 34-C , 44-C ) :   0.9470 B( 34-C , 47-S ) :  -0.1163
B( 35-C , 36-C ) :   1.1777 B( 35-C , 37-C ) :   1.0468 B( 36-C , 40-C ) :   1.0433
B( 37-C , 38-C ) :   1.0090 B( 37-C , 48-O ) :   2.0104 B( 38-C , 39-C ) :   1.1001
B( 38-C , 41-C ) :   1.5481 B( 39-C , 40-C ) :   1.0311 B( 39-C , 43-C ) :   1.6000
B( 40-C , 49-O ) :   1.9078 B( 41-C , 42-S ) :   1.2493 B( 41-C , 50-C ) :   1.0202
B( 42-S , 43-C ) :   1.2847 B( 43-C , 52-C ) :   0.9199 B( 44-C , 45-C ) :   1.5282
B( 44-C , 47-S ) :   1.2852 B( 45-C , 46-C ) :   1.3132 B( 45-C , 76-H ) :   0.9422
B( 46-C , 47-S ) :   0.1096 B( 46-C , 54-C ) :   1.6294 B( 46-C , 77-H ) :   0.9574
B( 47-S , 54-C ) :   1.2772 B( 50-C , 51-C ) :   0.9562 B( 50-C , 78-H ) :   0.9402
B( 50-C , 79-H ) :   0.9401 B( 51-C , 80-H ) :   0.9711 B( 51-C , 81-H ) :   0.9792
B( 51-C , 82-H ) :   0.9723 B( 52-C , 53-C ) :   0.9385 B( 52-C , 83-H ) :   0.9638
B( 52-C , 84-H ) :   0.9601 B( 53-C , 85-H ) :   0.9729 B( 53-C , 86-H ) :   0.9723
B( 53-C , 87-H ) :   0.9782 B( 54-C , 88-H ) :   0.9409

-----------------------------------------------------------------------------
         ABSORPTION SPECTRUM VIA TRANSITION ELECTRIC DIPOLE MOMENTS
-----------------------------------------------------------------------------
State   Energy    Wavelength  fosc         T2        TX        TY        TZ
        (cm-1)      (nm)                 (au**2)    (au)      (au)      (au)
-----------------------------------------------------------------------------
   1   18562.3    538.7   1.026333965  18.20260   3.65382  -2.20177   0.06639
   2   20519.1    487.4   0.069023565   1.10742  -0.50343  -0.92384   0.02246
   3   20819.3    480.3   0.478449568   7.56565   2.64748  -0.74367   0.05846
   4   23580.9    424.1   0.057089448   0.79702  -0.29183  -0.84274   0.04049
   5   24436.8    409.2   0.198946995   2.68020  -0.43056  -1.57903  -0.03869
   6   25106.1    398.3   0.084546101   1.10864  -0.60525   0.86139   0.01803
   7   25686.5    389.3   0.001270105   0.01628   0.11596  -0.02897  -0.04464
   8   26319.6    379.9   0.024325633   0.30427   0.38867   0.39139  -0.00416
   9   26843.9    372.5   0.189076163   2.31882   1.11379  -1.03828  -0.01665
  10   27158.4    368.2   0.074374588   0.90156   0.71762   0.61570  -0.08653
  11   27426.3    364.6   0.016434238   0.19727   0.08654   0.43527   0.01790
  12   27498.0    363.7   0.250019061   2.99328   1.60300   0.65052  -0.02183
  13   28218.0    354.4   0.184860368   2.15671   1.46431   0.10818  -0.02820
  14   28762.4    347.7   0.057622049   0.65954  -0.53776  -0.60845   0.01187
  15   28808.2    347.1   0.056451666   0.64511   0.23100   0.76910  -0.01563
  16   29147.2    343.1   0.016993414   0.19194  -0.37471   0.22691   0.00631
  17   30131.7    331.9   0.025835821   0.28228   0.49984   0.17860  -0.02313
  18   30349.7    329.5   0.070918686   0.76928   0.27776   0.83188   0.01024
  19   30757.8    325.1   0.080592417   0.86261   0.77500   0.51165   0.01404
  20   30905.8    323.6   0.005692399   0.06064  -0.02417   0.24341  -0.02839
  21   30914.8    323.5   0.050220588   0.53480  -0.02200   0.73023  -0.03287
  22   31346.8    319.0   0.001943948   0.02042  -0.13447   0.03073   0.03726
  23   31648.6    316.0   0.029211546   0.30386  -0.54805  -0.02663  -0.05283
  24   31823.1    314.2   0.003178565   0.03288   0.03954   0.17616  -0.01691
  25   32072.8    311.8   0.004066854   0.04174   0.07433   0.18631  -0.03883
  26   32103.2    311.5   0.020370253   0.20889   0.44786   0.09110  -0.00391
  27   32288.2    309.7   0.081163758   0.82755  -0.68999  -0.59272  -0.01196
  28   32444.6    308.2   0.013474147   0.13672  -0.28274  -0.22698   0.07252
  29   32602.6    306.7   0.025569406   0.25819   0.49876   0.08554  -0.04601
  30   32811.3    304.8   0.022610710   0.22686  -0.45173  -0.11629   0.09635
  31   33383.5    299.5   0.005849507   0.05768   0.10431  -0.21557   0.01822
  32   33520.0    298.3   0.043665208   0.42885  -0.60281   0.21293  -0.14190
  33   33597.7    297.6   0.040939904   0.40116  -0.38489  -0.48670  -0.12704
  34   33937.1    294.7   0.011209472   0.10874  -0.31649  -0.05343  -0.07563
  35   34096.6    293.3   0.013031111   0.12582   0.34582  -0.04414  -0.06542
  36   34314.9    291.4   0.025150264   0.24129   0.35254   0.31801   0.12600
  37   34427.1    290.5   0.178313892   1.70514   0.48455   1.20689  -0.11730
  38   34602.3    289.0   0.099641683   0.94801  -0.76569   0.59949  -0.04842
  39   34877.9    286.7   0.025857509   0.24407   0.23859   0.42416  -0.08503
  40   35035.8    285.4   0.204206459   1.91881  -1.08827  -0.85693   0.01241
  41   35290.7    283.4   0.007419539   0.06921  -0.23597   0.04421  -0.10759
  42   35422.1    282.3   0.018579599   0.17268   0.35115  -0.22214   0.00502
  43   35707.0    280.1   0.000987839   0.00911   0.09239   0.02283  -0.00710
  44   35935.1    278.3   0.004766668   0.04367   0.18397   0.08999  -0.04154
  45   36103.5    277.0   0.002503688   0.02283   0.15049  -0.01078  -0.00814
  46   36265.6    275.7   0.004528288   0.04111  -0.11040  -0.16982   0.00901
  47   36470.4    274.2   0.011953976   0.10791  -0.32461  -0.02127   0.04562
  48   36559.7    273.5   0.006759491   0.06087   0.18291  -0.16185  -0.03487
  49   36811.8    271.7   0.003806136   0.03404  -0.12255   0.10901  -0.08448
  50   36957.1    270.6   0.012320573   0.10975   0.15202   0.29374   0.01890

FINAL SINGLE POINT ENERGY     -5268.900321319866

DIPOLE MOMENT
-------------
                                X             Y             Z
Electronic contribution:     22.71720      12.02284       8.83560
Nuclear contribution   :    -22.47249     -12.14036      -9.08066
                        -----------------------------------------
Total Dipole Moment    :      0.24471      -0.11752      -0.24506
                        -----------------------------------------
Magnitude (a.u.)       :      0.36572
Magnitude (Debye)      :      0.92958

Rotational constants in cm-1:     0.001546     0.000528     0.000399
Rotational constants in MHz :    46.358877    15.838726    11.951234

                             ****ORCA TERMINATED NORMALLY****
TOTAL RUN TIME: 1 days 19 hours 8 minutes 13 seconds 228 msec
