                         Program Version 4.2.0 -  RELEASE  -
|  1> # ORCA input file
|  2> # PDCBT-Cl_tetra.out
|  3> ! B3LYP def2-TZVP def2/J RIJCOSX Grid4 TightSCF
|  4> %maxcore 1000
|  5> %tddft
|  6>   maxdim 5
|  7>   nroots 50
|  8>   end
|  9> * xyz 0 1
| 10>    C       -0.26750        -0.13986        -0.23715
| 11>    C        1.21304        -0.19314        -0.16286
| 12>    C        2.12521         0.83719        -0.10474
| 13>    C        3.46617         0.38442        -0.04098
| 14>    C        3.58230        -0.97616        -0.04975
| 15>    S        2.00783        -1.72428        -0.13845
| 16>    C        1.83207         2.27863        -0.09960
| 17>    O        0.51751         2.55088        -0.17664
| 18>    O        2.67798         3.13669        -0.03234
| 19>    C        0.17608         3.92873        -0.17044
| 20>    C        8.56434        -2.57253         0.11474
| 21>    C        9.33484        -1.42758         0.07053
| 22>    C       10.70579        -1.67961        -0.00469
| 23>    S        9.57981        -3.98419         0.07411
| 24>    C        7.14004        -2.58819         0.12904
| 25>    C        6.19880        -3.60872         0.08980
| 26>    C        4.87264        -3.13422         0.00571
| 27>    C        4.76516        -1.77095         0.00407
| 28>    S        6.33858        -1.03496         0.08246
| 29>    C        6.40802        -5.06519         0.13215
| 30>    O        7.54813        -5.41500         0.74649
| 31>    O        5.61810        -5.86765        -0.29905
| 32>    C        7.81293        -6.80719         0.82822
| 33>    C       14.72285        -4.20695        -0.27511
| 34>    C       13.89540        -5.31680        -0.21327
| 35>    C       12.54516        -5.00833        -0.12507
| 36>    C       12.30077        -3.64790        -0.10842
| 37>    S       13.78309        -2.74702        -0.22635
| 38>    C       16.14374        -4.26503        -0.32141
| 39>    C       17.13999        -3.29535        -0.32734
| 40>    C       18.44044        -3.83792        -0.27674
| 41>    C       18.47698        -5.20578        -0.25487
| 42>    S       16.86415        -5.85826        -0.27242
| 43>    C       17.00860        -1.82951        -0.38240
| 44>    O       15.86983        -1.42364        -0.96156
| 45>    O       17.85728        -1.06837         0.01142
| 46>    C       15.67395        -0.02035        -1.04559
| 47>    C       11.03017        -3.02369        -0.02714
| 48>    C       23.36469        -7.06366        -0.10947
| 49>    C       24.19631        -5.96311        -0.11362
| 50>    C       25.54701        -6.28123         0.05319
| 51>    S       24.29520        -8.51930         0.09927
| 52>    C       21.94393        -7.00516        -0.19492
| 53>    C       20.94814        -7.97365        -0.17355
| 54>    C       19.64743        -7.42906        -0.17654
| 55>    C       19.61343        -6.06153        -0.22220
| 56>    S       21.22770        -5.41186        -0.23890
| 57>    C       21.08363        -9.43975        -0.16298
| 58>    O       22.23318        -9.86462        -0.70777
| 59>    O       20.23270       -10.18759         0.25040
| 60>    C       22.43058       -11.26977        -0.73668
| 61>    C       25.78974        -7.63250         0.20178
| 62>   Cl       11.87486        -0.42761        -0.06557
| 63>   Cl       26.77987        -5.08651         0.07293
| 64>    C       27.01896        -8.32132         0.39947
| 65>    S       28.55304        -7.50036         0.46880
| 66>    C       29.37492        -8.98568         0.70894
| 67>    C       28.52827       -10.05086         0.73631
| 68>    C       27.18701        -9.67728         0.56064
| 69>    H       -0.58270         0.40985        -1.12302
| 70>    H       -0.67146         0.38307         0.62880
| 71>    H       -0.68056        -1.14487        -0.27322
| 72>    H        4.30254         1.05811         0.00919
| 73>    H        0.46124         4.38625         0.77920
| 74>    H       -0.90114         3.97504        -0.30810
| 75>    H        0.69119         4.45203        -0.97854
| 76>    H        8.91951        -0.43623         0.08588
| 77>    H        4.02927        -3.79978        -0.04338
| 78>    H        7.03843        -7.30362         1.41631
| 79>    H        8.78166        -6.90091         1.31163
| 80>    H        7.83447        -7.24850        -0.17011
| 81>    H       14.27827        -6.32212        -0.22990
| 82>    H       11.75782        -5.73897        -0.07456
| 83>    H       19.31968        -3.21868        -0.26444
| 84>    H       16.46310         0.43512        -1.64594
| 85>    H       15.68753         0.42453        -0.04935
| 86>    H       14.70401         0.12096        -1.51360
| 87>    H       23.84130        -4.95516        -0.22999
| 88>    H       18.76717        -8.04645        -0.15265
| 89>    H       21.70647       -11.73768        -1.40660
| 90>    H       22.30898       -11.69071         0.26310
| 91>    H       23.44320       -11.42375        -1.09972
| 92>    H       30.44126        -8.98244         0.81707
| 93>    H       28.85213       -11.06633         0.87774
| 94>    H       26.36133       -10.36627         0.55301
| 95> *
| 96>
| 97>                          ****END OF INPUT****

CARTESIAN COORDINATES (ANGSTROEM)
---------------------------------
  C     -0.267500   -0.139860   -0.237150
  C      1.213040   -0.193140   -0.162860
  C      2.125210    0.837190   -0.104740
  C      3.466170    0.384420   -0.040980
  C      3.582300   -0.976160   -0.049750
  S      2.007830   -1.724280   -0.138450
  C      1.832070    2.278630   -0.099600
  O      0.517510    2.550880   -0.176640
  O      2.677980    3.136690   -0.032340
  C      0.176080    3.928730   -0.170440
  C      8.564340   -2.572530    0.114740
  C      9.334840   -1.427580    0.070530
  C     10.705790   -1.679610   -0.004690
  S      9.579810   -3.984190    0.074110
  C      7.140040   -2.588190    0.129040
  C      6.198800   -3.608720    0.089800
  C      4.872640   -3.134220    0.005710
  C      4.765160   -1.770950    0.004070
  S      6.338580   -1.034960    0.082460
  C      6.408020   -5.065190    0.132150
  O      7.548130   -5.415000    0.746490
  O      5.618100   -5.867650   -0.299050
  C      7.812930   -6.807190    0.828220
  C     14.722850   -4.206950   -0.275110
  C     13.895400   -5.316800   -0.213270
  C     12.545160   -5.008330   -0.125070
  C     12.300770   -3.647900   -0.108420
  S     13.783090   -2.747020   -0.226350
  C     16.143740   -4.265030   -0.321410
  C     17.139990   -3.295350   -0.327340
  C     18.440440   -3.837920   -0.276740
  C     18.476980   -5.205780   -0.254870
  S     16.864150   -5.858260   -0.272420
  C     17.008600   -1.829510   -0.382400
  O     15.869830   -1.423640   -0.961560
  O     17.857280   -1.068370    0.011420
  C     15.673950   -0.020350   -1.045590
  C     11.030170   -3.023690   -0.027140
  C     23.364690   -7.063660   -0.109470
  C     24.196310   -5.963110   -0.113620
  C     25.547010   -6.281230    0.053190
  S     24.295200   -8.519300    0.099270
  C     21.943930   -7.005160   -0.194920
  C     20.948140   -7.973650   -0.173550
  C     19.647430   -7.429060   -0.176540
  C     19.613430   -6.061530   -0.222200
  S     21.227700   -5.411860   -0.238900
  C     21.083630   -9.439750   -0.162980
  O     22.233180   -9.864620   -0.707770
  O     20.232700  -10.187590    0.250400
  C     22.430580  -11.269770   -0.736680
  C     25.789740   -7.632500    0.201780
  Cl    11.874860   -0.427610   -0.065570
  Cl    26.779870   -5.086510    0.072930
  C     27.018960   -8.321320    0.399470
  S     28.553040   -7.500360    0.468800
  C     29.374920   -8.985680    0.708940
  C     28.528270  -10.050860    0.736310
  C     27.187010   -9.677280    0.560640
  H     -0.582700    0.409850   -1.123020
  H     -0.671460    0.383070    0.628800
  H     -0.680560   -1.144870   -0.273220
  H      4.302540    1.058110    0.009190
  H      0.461240    4.386250    0.779200
  H     -0.901140    3.975040   -0.308100
  H      0.691190    4.452030   -0.978540
  H      8.919510   -0.436230    0.085880
  H      4.029270   -3.799780   -0.043380
  H      7.038430   -7.303620    1.416310
  H      8.781660   -6.900910    1.311630
  H      7.834470   -7.248500   -0.170110
  H     14.278270   -6.322120   -0.229900
  H     11.757820   -5.738970   -0.074560
  H     19.319680   -3.218680   -0.264440
  H     16.463100    0.435120   -1.645940
  H     15.687530    0.424530   -0.049350
  H     14.704010    0.120960   -1.513600
  H     23.841300   -4.955160   -0.229990
  H     18.767170   -8.046450   -0.152650
  H     21.706470  -11.737680   -1.406600
  H     22.308980  -11.690710    0.263100
  H     23.443200  -11.423750   -1.099720
  H     30.441260   -8.982440    0.817070
  H     28.852130  -11.066330    0.877740
  H     26.361330  -10.366270    0.553010

 Total Charge           Charge          ....    0
 Multiplicity           Mult            ....    1
 Number of Electrons    NEL             ....  498
 Basis Dimension        Dim             .... 2045

ORBITAL ENERGIES
----------------

  NO   OCC          E(Eh)            E(eV)
   0   2.0000    -101.542010     -2763.0986
   1   2.0000    -101.536353     -2762.9446
   2   2.0000     -88.898835     -2419.0603
   3   2.0000     -88.898742     -2419.0577
   4   2.0000     -88.897272     -2419.0178
   5   2.0000     -88.896843     -2419.0061
   6   2.0000     -88.895147     -2418.9599
   7   2.0000     -88.894204     -2418.9343
   8   2.0000     -88.889246     -2418.7994
   9   2.0000     -88.887079     -2418.7404
  10   2.0000     -19.186581      -522.0934
  11   2.0000     -19.184409      -522.0343
  12   2.0000     -19.180361      -521.9242
  13   2.0000     -19.178207      -521.8656
  14   2.0000     -19.119968      -520.2808
  15   2.0000     -19.118208      -520.2329
  16   2.0000     -19.114599      -520.1347
  17   2.0000     -19.113276      -520.0987
  18   2.0000     -10.311430      -280.5883
  19   2.0000     -10.309634      -280.5394
  20   2.0000     -10.306246      -280.4472
  21   2.0000     -10.304640      -280.4035
  22   2.0000     -10.244229      -278.7596
  23   2.0000     -10.239589      -278.6334
  24   2.0000     -10.238789      -278.6116
  25   2.0000     -10.237221      -278.5690
  26   2.0000     -10.235339      -278.5177
  27   2.0000     -10.234149      -278.4853
  28   2.0000     -10.232250      -278.4337
  29   2.0000     -10.231685      -278.4183
  30   2.0000     -10.229566      -278.3607
  31   2.0000     -10.228783      -278.3393
  32   2.0000     -10.227454      -278.3032
  33   2.0000     -10.227432      -278.3026
  34   2.0000     -10.226218      -278.2695
  35   2.0000     -10.226194      -278.2689
  36   2.0000     -10.224252      -278.2160
  37   2.0000     -10.223475      -278.1949
  38   2.0000     -10.222740      -278.1749
  39   2.0000     -10.221966      -278.1538
  40   2.0000     -10.219841      -278.0960
  41   2.0000     -10.219683      -278.0917
  42   2.0000     -10.216547      -278.0064
  43   2.0000     -10.205110      -277.6952
  44   2.0000     -10.203018      -277.6382
  45   2.0000     -10.200665      -277.5742
  46   2.0000     -10.198267      -277.5089
  47   2.0000     -10.197505      -277.4882
  48   2.0000     -10.195690      -277.4388
  49   2.0000     -10.194023      -277.3935
  50   2.0000     -10.190486      -277.2972
  51   2.0000     -10.189553      -277.2718
  52   2.0000     -10.188656      -277.2474
  53   2.0000     -10.188458      -277.2420
  54   2.0000     -10.188164      -277.2340
  55   2.0000     -10.186324      -277.1840
  56   2.0000     -10.185714      -277.1674
  57   2.0000     -10.181254      -277.0460
  58   2.0000     -10.179823      -277.0071
  59   2.0000      -9.474818      -257.8229
  60   2.0000      -9.469046      -257.6658
  61   2.0000      -7.975756      -217.0314
  62   2.0000      -7.975451      -217.0231
  63   2.0000      -7.973768      -216.9773
  64   2.0000      -7.973515      -216.9704
  65   2.0000      -7.972104      -216.9320
  66   2.0000      -7.970467      -216.8874
  67   2.0000      -7.965347      -216.7481
  68   2.0000      -7.963281      -216.6919
  69   2.0000      -7.236269      -196.9089
  70   2.0000      -7.230543      -196.7531
  71   2.0000      -7.227954      -196.6826
  72   2.0000      -7.227665      -196.6748
  73   2.0000      -7.222132      -196.5242
  74   2.0000      -7.221914      -196.5183
  75   2.0000      -5.938292      -161.5891
  76   2.0000      -5.937729      -161.5738
  77   2.0000      -5.936312      -161.5353
  78   2.0000      -5.936262      -161.5339
  79   2.0000      -5.934647      -161.4900
  80   2.0000      -5.934394      -161.4831
  81   2.0000      -5.933972      -161.4716
  82   2.0000      -5.933199      -161.4505
  83   2.0000      -5.932421      -161.4294
  84   2.0000      -5.932396      -161.4287
  85   2.0000      -5.932258      -161.4250
  86   2.0000      -5.932232      -161.4242
  87   2.0000      -5.930754      -161.3840
  88   2.0000      -5.930242      -161.3701
  89   2.0000      -5.929715      -161.3557
  90   2.0000      -5.929170      -161.3409
  91   2.0000      -5.928577      -161.3248
  92   2.0000      -5.927999      -161.3091
  93   2.0000      -5.926696      -161.2736
  94   2.0000      -5.925786      -161.2488
  95   2.0000      -5.923817      -161.1953
  96   2.0000      -5.921790      -161.1401
  97   2.0000      -5.921598      -161.1349
  98   2.0000      -5.920260      -161.0985
  99   2.0000      -1.126695       -30.6589
 100   2.0000      -1.124693       -30.6044
 101   2.0000      -1.120971       -30.5032
 102   2.0000      -1.117474       -30.4080
 103   2.0000      -1.033273       -28.1168
 104   2.0000      -1.031361       -28.0647
 105   2.0000      -1.027740       -27.9662
 106   2.0000      -1.025246       -27.8984
 107   2.0000      -0.932142       -25.3649
 108   2.0000      -0.927987       -25.2518
 109   2.0000      -0.918379       -24.9904
 110   2.0000      -0.916015       -24.9260
 111   2.0000      -0.904506       -24.6129
 112   2.0000      -0.898861       -24.4592
 113   2.0000      -0.889057       -24.1925
 114   2.0000      -0.885856       -24.1054
 115   2.0000      -0.866761       -23.5858
 116   2.0000      -0.861856       -23.4523
 117   2.0000      -0.816958       -22.2306
 118   2.0000      -0.810120       -22.0445
 119   2.0000      -0.797446       -21.6996
 120   2.0000      -0.790329       -21.5059
 121   2.0000      -0.781934       -21.2775
 122   2.0000      -0.779596       -21.2139
 123   2.0000      -0.776128       -21.1195
 124   2.0000      -0.771138       -20.9837
 125   2.0000      -0.756553       -20.5869
 126   2.0000      -0.753050       -20.4915
 127   2.0000      -0.748982       -20.3808
 128   2.0000      -0.745764       -20.2933
 129   2.0000      -0.739655       -20.1270
 130   2.0000      -0.736634       -20.0448
 131   2.0000      -0.734164       -19.9776
 132   2.0000      -0.732827       -19.9412
 133   2.0000      -0.729812       -19.8592
 134   2.0000      -0.721554       -19.6345
 135   2.0000      -0.706059       -19.2128
 136   2.0000      -0.693605       -18.8740
 137   2.0000      -0.686876       -18.6908
 138   2.0000      -0.648429       -17.6447
 139   2.0000      -0.640750       -17.4357
 140   2.0000      -0.635036       -17.2802
 141   2.0000      -0.622657       -16.9434
 142   2.0000      -0.620150       -16.8751
 143   2.0000      -0.606845       -16.5131
 144   2.0000      -0.605654       -16.4807
 145   2.0000      -0.599531       -16.3141
 146   2.0000      -0.587550       -15.9880
 147   2.0000      -0.584164       -15.8959
 148   2.0000      -0.573791       -15.6136
 149   2.0000      -0.570654       -15.5283
 150   2.0000      -0.563455       -15.3324
 151   2.0000      -0.561066       -15.2674
 152   2.0000      -0.557673       -15.1751
 153   2.0000      -0.555249       -15.1091
 154   2.0000      -0.554825       -15.0975
 155   2.0000      -0.544537       -14.8176
 156   2.0000      -0.543673       -14.7941
 157   2.0000      -0.539085       -14.6692
 158   2.0000      -0.536722       -14.6050
 159   2.0000      -0.533860       -14.5271
 160   2.0000      -0.520747       -14.1703
 161   2.0000      -0.508100       -13.8261
 162   2.0000      -0.502124       -13.6635
 163   2.0000      -0.500610       -13.6223
 164   2.0000      -0.500382       -13.6161
 165   2.0000      -0.496398       -13.5077
 166   2.0000      -0.496129       -13.5004
 167   2.0000      -0.491920       -13.3858
 168   2.0000      -0.489703       -13.3255
 169   2.0000      -0.487403       -13.2629
 170   2.0000      -0.481701       -13.1077
 171   2.0000      -0.478331       -13.0161
 172   2.0000      -0.474351       -12.9078
 173   2.0000      -0.471550       -12.8315
 174   2.0000      -0.463722       -12.6185
 175   2.0000      -0.460499       -12.5308
 176   2.0000      -0.456183       -12.4134
 177   2.0000      -0.452641       -12.3170
 178   2.0000      -0.447266       -12.1707
 179   2.0000      -0.443356       -12.0643
 180   2.0000      -0.441523       -12.0144
 181   2.0000      -0.439503       -11.9595
 182   2.0000      -0.438613       -11.9353
 183   2.0000      -0.435972       -11.8634
 184   2.0000      -0.433556       -11.7977
 185   2.0000      -0.431469       -11.7409
 186   2.0000      -0.427627       -11.6363
 187   2.0000      -0.426563       -11.6074
 188   2.0000      -0.425216       -11.5707
 189   2.0000      -0.423234       -11.5168
 190   2.0000      -0.422429       -11.4949
 191   2.0000      -0.418458       -11.3868
 192   2.0000      -0.416726       -11.3397
 193   2.0000      -0.411873       -11.2076
 194   2.0000      -0.411596       -11.2001
 195   2.0000      -0.409871       -11.1532
 196   2.0000      -0.407796       -11.0967
 197   2.0000      -0.406995       -11.0749
 198   2.0000      -0.405155       -11.0248
 199   2.0000      -0.402709       -10.9583
 200   2.0000      -0.399764       -10.8781
 201   2.0000      -0.398762       -10.8509
 202   2.0000      -0.394671       -10.7395
 203   2.0000      -0.394367       -10.7313
 204   2.0000      -0.391430       -10.6514
 205   2.0000      -0.390492       -10.6258
 206   2.0000      -0.385659       -10.4943
 207   2.0000      -0.383419       -10.4334
 208   2.0000      -0.383084       -10.4243
 209   2.0000      -0.380805       -10.3622
 210   2.0000      -0.376288       -10.2393
 211   2.0000      -0.373482       -10.1630
 212   2.0000      -0.369715       -10.0605
 213   2.0000      -0.364925        -9.9301
 214   2.0000      -0.362045        -9.8518
 215   2.0000      -0.358977        -9.7683
 216   2.0000      -0.358463        -9.7543
 217   2.0000      -0.356115        -9.6904
 218   2.0000      -0.355569        -9.6755
 219   2.0000      -0.353464        -9.6183
 220   2.0000      -0.351891        -9.5754
 221   2.0000      -0.349451        -9.5090
 222   2.0000      -0.348726        -9.4893
 223   2.0000      -0.327240        -8.9046
 224   2.0000      -0.323774        -8.8103
 225   2.0000      -0.318585        -8.6691
 226   2.0000      -0.318223        -8.6593
 227   2.0000      -0.315478        -8.5846
 228   2.0000      -0.310389        -8.4461
 229   2.0000      -0.308412        -8.3923
 230   2.0000      -0.304688        -8.2910
 231   2.0000      -0.295297        -8.0354
 232   2.0000      -0.294227        -8.0063
 233   2.0000      -0.289956        -7.8901
 234   2.0000      -0.288451        -7.8492
 235   2.0000      -0.287358        -7.8194
 236   2.0000      -0.277199        -7.5430
 237   2.0000      -0.273911        -7.4535
 238   2.0000      -0.272630        -7.4186
 239   2.0000      -0.269434        -7.3317
 240   2.0000      -0.266143        -7.2421
 241   2.0000      -0.264463        -7.1964
 242   2.0000      -0.262080        -7.1316
 243   2.0000      -0.261767        -7.1231
 244   2.0000      -0.257941        -7.0189
 245   2.0000      -0.244717        -6.6591
 246   2.0000      -0.222045        -6.0421
 247   2.0000      -0.202208        -5.5024
 248   2.0000      -0.186036        -5.0623
 249   0.0000      -0.102799        -2.7973
 250   0.0000      -0.089827        -2.4443
 251   0.0000      -0.072627        -1.9763
 252   0.0000      -0.056577        -1.5395
 253   0.0000      -0.041844        -1.1386

MULLIKEN ATOMIC CHARGES
-----------------------
   0 C :   -0.312107
   1 C :   -0.007998
   2 C :    0.034234
   3 C :   -0.248780
   4 C :    0.052040
   5 S :    0.026536
   6 C :    0.307452
   7 O :   -0.271473
   8 O :   -0.334523
   9 C :   -0.173934
  10 C :    0.048621
  11 C :   -0.158169
  12 C :    0.027048
  13 S :    0.014965
  14 C :    0.032811
  15 C :    0.019647
  16 C :   -0.174267
  17 C :    0.124858
  18 S :   -0.017241
  19 C :    0.274976
  20 O :   -0.278073
  21 O :   -0.322441
  22 C :   -0.170826
  23 C :    0.021113
  24 C :   -0.134249
  25 C :   -0.206239
  26 C :    0.093788
  27 S :    0.046007
  28 C :    0.052613
  29 C :    0.018308
  30 C :   -0.173269
  31 C :    0.098780
  32 S :   -0.029064
  33 C :    0.275662
  34 O :   -0.276232
  35 O :   -0.324862
  36 C :   -0.170340
  37 C :    0.029375
  38 C :    0.021418
  39 C :   -0.171269
  40 C :    0.039105
  41 S :    0.013487
  42 C :    0.062027
  43 C :    0.045664
  44 C :   -0.193528
  45 C :    0.049537
  46 S :   -0.019780
  47 C :    0.278157
  48 O :   -0.276485
  49 O :   -0.323368
  50 C :   -0.169921
  51 C :    0.114781
  52 Cl:   -0.090140
  53 Cl:   -0.083504
  54 C :   -0.005146
  55 S :    0.057489
  56 C :   -0.177832
  57 C :   -0.141376
  58 C :   -0.190379
  59 H :    0.128277
  60 H :    0.128035
  61 H :    0.117160
  62 H :    0.137702
  63 H :    0.124406
  64 H :    0.120754
  65 H :    0.128140
  66 H :    0.130216
  67 H :    0.138508
  68 H :    0.133329
  69 H :    0.124832
  70 H :    0.134024
  71 H :    0.122311
  72 H :    0.119728
  73 H :    0.138530
  74 H :    0.131374
  75 H :    0.132120
  76 H :    0.127470
  77 H :    0.128922
  78 H :    0.136865
  79 H :    0.130501
  80 H :    0.134303
  81 H :    0.124161
  82 H :    0.138706
  83 H :    0.115925
  84 H :    0.120018
Sum of atomic charges:    0.0000000

LOEWDIN ATOMIC CHARGES
----------------------
   0 C :   -0.282262
   1 C :   -0.339677
   2 C :   -0.159491
   3 C :   -0.109137
   4 C :   -0.361617
   5 S :    0.786818
   6 C :   -0.449907
   7 O :    0.254289
   8 O :    0.111730
   9 C :   -0.310475
  10 C :   -0.357878
  11 C :   -0.166864
  12 C :   -0.475939
  13 S :    0.808185
  14 C :   -0.300764
  15 C :   -0.141689
  16 C :   -0.113952
  17 C :   -0.359215
  18 S :    0.795862
  19 C :   -0.459848
  20 O :    0.246792
  21 O :    0.121655
  22 C :   -0.316614
  23 C :   -0.363852
  24 C :   -0.163046
  25 C :   -0.165163
  26 C :   -0.364676
  27 S :    0.791733
  28 C :   -0.297563
  29 C :   -0.141599
  30 C :   -0.110639
  31 C :   -0.361735
  32 S :    0.790808
  33 C :   -0.460599
  34 O :    0.248458
  35 O :    0.119560
  36 C :   -0.317540
  37 C :   -0.362713
  38 C :   -0.360222
  39 C :   -0.166750
  40 C :   -0.475666
  41 S :    0.807308
  42 C :   -0.299622
  43 C :   -0.142343
  44 C :   -0.112074
  45 C :   -0.359725
  46 S :    0.795695
  47 C :   -0.460319
  48 O :    0.248005
  49 O :    0.120542
  50 C :   -0.316937
  51 C :   -0.361807
  52 Cl:    0.450035
  53 Cl:    0.444778
  54 C :   -0.371748
  55 S :    0.731855
  56 C :   -0.395725
  57 C :   -0.204443
  58 C :   -0.170339
  59 H :    0.135533
  60 H :    0.135489
  61 H :    0.124112
  62 H :    0.151787
  63 H :    0.112768
  64 H :    0.110743
  65 H :    0.114092
  66 H :    0.144038
  67 H :    0.152476
  68 H :    0.116926
  69 H :    0.111022
  70 H :    0.114723
  71 H :    0.140861
  72 H :    0.139526
  73 H :    0.152801
  74 H :    0.115741
  75 H :    0.114347
  76 H :    0.109202
  77 H :    0.143845
  78 H :    0.152456
  79 H :    0.115927
  80 H :    0.115023
  81 H :    0.110746
  82 H :    0.124706
  83 H :    0.140660
  84 H :    0.138516

  Mayer bond orders larger than 0.100000
B(  0-C ,  1-C ) :   0.9415 B(  0-C , 59-H ) :   0.9610 B(  0-C , 60-H ) :   0.9615
B(  0-C , 61-H ) :   0.9727 B(  1-C ,  2-C ) :   1.5134 B(  1-C ,  5-S ) :   1.3303
B(  2-C ,  3-C ) :   1.2695 B(  2-C ,  6-C ) :   1.0196 B(  3-C ,  4-C ) :   1.4721
B(  3-C , 62-H ) :   0.9415 B(  4-C ,  5-S ) :   1.2351 B(  4-C , 17-C ) :   1.0869
B(  6-C ,  7-O ) :   1.2080 B(  6-C ,  8-O ) :   2.0164 B(  7-O ,  9-C ) :   0.9000
B(  9-C , 63-H ) :   0.9756 B(  9-C , 64-H ) :   0.9689 B(  9-C , 65-H ) :   0.9750
B( 10-C , 11-C ) :   1.3944 B( 10-C , 13-S ) :   1.2865 B( 10-C , 14-C ) :   1.0790
B( 11-C , 12-C ) :   1.3258 B( 11-C , 66-H ) :   0.9495 B( 12-C , 37-C ) :   1.2872
B( 12-C , 52-Cl) :   1.0899 B( 13-S , 26-C ) :  -0.1105 B( 13-S , 37-C ) :   1.3057
B( 14-C , 15-C ) :   1.3606 B( 14-C , 18-S ) :   1.2812 B( 15-C , 16-C ) :   1.2906
B( 15-C , 19-C ) :   0.9872 B( 16-C , 17-C ) :   1.4348 B( 16-C , 67-H ) :   0.9468
B( 17-C , 18-S ) :   1.2452 B( 19-C , 20-O ) :   1.1822 B( 19-C , 21-O ) :   2.0398
B( 20-O , 22-C ) :   0.8841 B( 22-C , 68-H ) :   0.9705 B( 22-C , 69-H ) :   0.9652
B( 22-C , 70-H ) :   0.9789 B( 23-C , 24-C ) :   1.3849 B( 23-C , 27-S ) :   1.3027
B( 23-C , 28-C ) :   1.0889 B( 24-C , 25-C ) :   1.4082 B( 24-C , 71-H ) :   0.9488
B( 25-C , 26-C ) :   1.3879 B( 25-C , 72-H ) :   0.9440 B( 26-C , 27-S ) :   1.3171
B( 26-C , 37-C ) :   1.0732 B( 28-C , 29-C ) :   1.3578 B( 28-C , 32-S ) :   1.2832
B( 29-C , 30-C ) :   1.2958 B( 29-C , 33-C ) :   0.9890 B( 30-C , 31-C ) :   1.4134
B( 30-C , 73-H ) :   0.9476 B( 31-C , 32-S ) :   1.2475 B( 31-C , 45-C ) :   1.1122
B( 33-C , 34-O ) :   1.1894 B( 33-C , 35-O ) :   2.0361 B( 34-O , 36-C ) :   0.8836
B( 36-C , 74-H ) :   0.9699 B( 36-C , 75-H ) :   0.9796 B( 36-C , 76-H ) :   0.9631
B( 38-C , 39-C ) :   1.3982 B( 38-C , 41-S ) :   1.2851 B( 38-C , 42-C ) :   1.0664
B( 39-C , 40-C ) :   1.3087 B( 39-C , 77-H ) :   0.9499 B( 40-C , 51-C ) :   1.3270
B( 40-C , 53-Cl) :   1.1013 B( 41-S , 51-C ) :   1.2631 B( 42-C , 43-C ) :   1.3684
B( 42-C , 46-S ) :   1.2756 B( 43-C , 44-C ) :   1.2904 B( 43-C , 47-C ) :   0.9825
B( 44-C , 45-C ) :   1.4250 B( 44-C , 78-H ) :   0.9484 B( 45-C , 46-S ) :   1.2546
B( 47-C , 48-O ) :   1.1852 B( 47-C , 49-O ) :   2.0398 B( 48-O , 50-C ) :   0.8850
B( 50-C , 79-H ) :   0.9710 B( 50-C , 80-H ) :   0.9789 B( 50-C , 81-H ) :   0.9654
B( 51-C , 54-C ) :   1.0457 B( 51-C , 55-S ) :  -0.1318 B( 54-C , 55-S ) :   1.3360
B( 54-C , 58-C ) :   1.4495 B( 55-S , 56-C ) :   1.2633 B( 55-S , 57-C ) :   0.1126
B( 56-C , 57-C ) :   1.6262 B( 56-C , 82-H ) :   0.9438 B( 57-C , 58-C ) :   1.3285
B( 57-C , 83-H ) :   0.9633 B( 58-C , 84-H ) :   0.9410

-----------------------------------------------------------------------------
         ABSORPTION SPECTRUM VIA TRANSITION ELECTRIC DIPOLE MOMENTS
-----------------------------------------------------------------------------
State   Energy    Wavelength  fosc         T2        TX        TY        TZ
        (cm-1)      (nm)                 (au**2)    (au)      (au)      (au)
-----------------------------------------------------------------------------
   1   16543.1    604.5   2.793604070  55.59328  -7.19262   1.96416  -0.04017
   2   19055.7    524.8   0.089846676   1.55222  -1.18247   0.38799  -0.05862
   3   21460.1    466.0   0.118591241   1.81927   1.32851  -0.10495  -0.20810
   4   22368.6    447.1   0.056939721   0.83802  -0.85624   0.31308  -0.08276
   5   23153.7    431.9   0.348155659   4.95026  -2.14742   0.55255  -0.18311
   6   25629.3    390.2   0.065887467   0.84633  -0.88150   0.17500  -0.19665
   7   26161.9    382.2   0.008351140   0.10509  -0.25551   0.19563  -0.03918
   8   26433.0    378.3   0.001171198   0.01459   0.08349  -0.02081   0.08475
   9   27140.9    368.4   0.003566979   0.04327   0.09627  -0.18431  -0.00539
  10   28461.3    351.4   0.001201932   0.01390  -0.07884   0.03327  -0.08112
  11   29905.1    334.4   0.038091238   0.41933  -0.64106   0.06666  -0.06265
  12   30153.2    331.6   0.021406413   0.23372  -0.48087  -0.02364  -0.04387
  13   30429.1    328.6   0.049080039   0.53100   0.72867  -0.00585  -0.00096
  14   31197.2    320.5   0.111088607   1.17227  -0.73870   0.78706  -0.08440
  15   31411.9    318.4   0.021683000   0.22725   0.47467  -0.04148   0.01486
  16   31618.3    316.3   0.059291246   0.61735   0.60073  -0.50097   0.07416
  17   31730.5    315.2   0.022686472   0.23538   0.35564  -0.32701   0.04432
  18   31858.6    313.9   0.052743584   0.54503   0.70905  -0.20458  -0.02043
  19   32289.1    309.7   0.056792224   0.57904   0.63539  -0.41870   0.00416
  20   32815.7    304.7   0.007107959   0.07131   0.25141  -0.08055  -0.04018
  21   32845.1    304.5   0.005834393   0.05848   0.09302   0.22279   0.01375
  22   33063.7    302.4   0.004030666   0.04013   0.17077  -0.02792   0.10096
  23   33402.3    299.4   0.022124375   0.21806   0.30781  -0.34746   0.05080
  24   33724.6    296.5   0.023063539   0.22514   0.21717   0.42169   0.01224
  25   34113.6    293.1   0.016161562   0.15597  -0.39211  -0.04048   0.02407
  26   34197.3    292.4   0.042642978   0.41052  -0.43589   0.46447  -0.06914
  27   34551.6    289.4   0.016313080   0.15543   0.23193   0.31868   0.00907
  28   34650.7    288.6   0.019492518   0.18520  -0.07490   0.42259   0.03167
  29   34821.2    287.2   0.018390946   0.17387  -0.41067   0.06982  -0.01873
  30   35013.2    285.6   0.011369445   0.10690   0.13614  -0.29340   0.04779
  31   35105.4    284.9   0.006319879   0.05927  -0.08504  -0.22705  -0.02198
  32   35256.1    283.6   0.010455216   0.09763   0.22675   0.21496  -0.00228
  33   35273.0    283.5   0.011555266   0.10785   0.26342  -0.19603  -0.00567
  34   35337.0    283.0   0.007201657   0.06709  -0.25110   0.05916   0.02323
  35   35462.9    282.0   0.006463881   0.06001   0.18436  -0.15750  -0.03480
  36   35564.1    281.2   0.045041220   0.41694   0.43375  -0.47684   0.03773
  37   35789.3    279.4   0.022431234   0.20634   0.17484  -0.41821   0.02944
  38   35925.0    278.4   0.009179438   0.08412  -0.01309   0.28884  -0.02285
  39   36152.0    276.6   0.026037352   0.23710  -0.33389   0.35243  -0.03768
  40   36261.2    275.8   0.022414077   0.20350  -0.03992  -0.44723  -0.04345
  41   36385.7    274.8   0.001462479   0.01323  -0.08394  -0.07703  -0.01590
  42   36619.4    273.1   0.011623161   0.10449   0.12154  -0.29921   0.01394
  43   36720.1    272.3   0.004305590   0.03860  -0.11134   0.16163   0.00887
  44   37000.3    270.3   0.002832755   0.02520   0.13889  -0.07666   0.00612
  45   37212.0    268.7   0.008641497   0.07645   0.13266   0.24214   0.01479
  46   37412.9    267.3   0.040231686   0.35402  -0.41176   0.42526  -0.06023
  47   37448.8    267.0   0.001235915   0.01086   0.06764  -0.06146  -0.05012
  48   37807.3    264.5   0.016615676   0.14468  -0.15560   0.34708  -0.00251
  49   37867.6    264.1   0.061706298   0.53646   0.30614  -0.66436   0.03702
  50   37987.9    263.2   0.001194267   0.01035  -0.03311  -0.08572  -0.04365

FINAL SINGLE POINT ENERGY     -6284.890978304295

DIPOLE MOMENT
-------------
                                X             Y             Z
Electronic contribution:     58.50626       0.08039       1.24047
Nuclear contribution   :    -59.81307      -0.72067      -1.53529
                        -----------------------------------------
Total Dipole Moment    :     -1.30680      -0.64027      -0.29482
                        -----------------------------------------
Magnitude (a.u.)       :      1.48479
Magnitude (Debye)      :      3.77404

Rotational constants in cm-1:     0.003763     0.000206     0.000196
Rotational constants in MHz :   112.810286     6.185802     5.879807

                             ****ORCA TERMINATED NORMALLY****
TOTAL RUN TIME: 1 days 12 hours 59 minutes 24 seconds 471 msec
