                         Program Version 4.2.0 -  RELEASE  -
|  1> # ORCA input file
|  2> # PDCBT-Cl_tetra.out: Geometry 255
|  3> ! B3LYP def2-TZVP def2/J RIJCOSX Grid4 TightSCF
|  4>
|  5> %maxcore 6000
|  6> %tddft
|  7>   maxdim 5
|  8>   nroots 50
|  9>   end
| 10> %pal
| 11>   nprocs 6
| 12>   end
| 13>
| 14>
| 15> * xyz 0 1
| 16>    C       -0.23668         0.17172        -0.87868
| 17>    C        1.24028         0.02536        -0.71401
| 18>    C        2.24375         0.95266        -0.90678
| 19>    C        3.54657         0.43071        -0.64705
| 20>    C        3.53973        -0.89571        -0.26339
| 21>    S        1.89569        -1.49481        -0.20347
| 22>    C        2.06330         2.35411        -1.33353
| 23>    O        0.76843         2.66779        -1.49461
| 24>    O        2.95805         3.14801        -1.51896
| 25>    C        0.53581         4.00474        -1.91306
| 26>    C        8.41480        -2.65756         0.75956
| 27>    C        9.18339        -1.50935         0.59527
| 28>    C       10.56732        -1.71979         0.74600
| 29>    S        9.46615        -4.01144         1.13921
| 30>    C        6.97287        -2.66837         0.60719
| 31>    C        5.98388        -3.65459         0.51533
| 32>    C        4.69483        -3.12851         0.19330
| 33>    C        4.65464        -1.75960         0.06571
| 34>    S        6.23470        -1.08459         0.38010
| 35>    C        6.11125        -5.12456         0.70017
| 36>    O        7.29889        -5.47245         1.22769
| 37>    O        5.24551        -5.93503         0.45073
| 38>    C        7.53695        -6.85415         1.47603
| 39>    C       14.64889        -4.34635         0.94656
| 40>    C       13.76361        -5.42925         0.94185
| 41>    C       12.40464        -5.06986         0.98821
| 42>    C       12.20104        -3.69646         1.03792
| 43>    S       13.73117        -2.84939         1.03048
| 44>    C       16.10040        -4.46234         0.86619
| 45>    C       17.15280        -3.55373         0.68641
| 46>    C       18.43276        -4.17476         0.59989
| 47>    C       18.41762        -5.54571         0.68991
| 48>    S       16.77564        -6.09851         0.95801
| 49>    C       17.14726        -2.08401         0.48987
| 50>    O       15.93417        -1.51166         0.57689
| 51>    O       18.15451        -1.44543         0.26361
| 52>    C       15.91187        -0.09860         0.35210
| 53>    C       10.92027        -3.04011         0.99550
| 54>    C       23.35681        -7.30959         0.14174
| 55>    C       24.11345        -6.39330         0.85091
| 56>    C       25.50576        -6.48480         0.58937
| 57>    S       24.41045        -8.30657        -0.84655
| 58>    C       21.90149        -7.33112         0.14374
| 59>    C       20.90895        -8.31169         0.03250
| 60>    C       19.59212        -7.80202         0.28060
| 61>    C       19.54631        -6.44020         0.51794
| 62>    S       21.16205        -5.77814         0.47608
| 63>    C       21.05623        -9.75075        -0.31639
| 64>    O       22.20011        -9.99786        -0.97459
| 65>    O       20.22982       -10.60729        -0.10054
| 66>    C       22.41936       -11.33433        -1.40728
| 67>    C       25.85513        -7.46602        -0.32715
| 68>   Cl       11.68029        -0.41131         0.51820
| 69>   Cl       26.65007        -5.45691         1.38819
| 70>    C       27.14680        -7.87544        -0.86273
| 71>    S       28.66970        -7.50287        -0.08312
| 72>    C       29.56359        -8.39109        -1.26462
| 73>    C       28.74670        -8.94524        -2.22063
| 74>    C       27.36984        -8.65267        -1.99450
| 75>    H       -0.49491         0.40458        -1.92504
| 76>    H       -0.61365         1.00802        -0.26806
| 77>    H       -0.76305        -0.74391        -0.58243
| 78>    H        4.44445         1.03591        -0.76702
| 79>    H        0.98784         4.72101        -1.20595
| 80>    H       -0.55169         4.12644        -1.94203
| 81>    H        0.96904         4.18044        -2.90800
| 82>    H        8.77590        -0.53747         0.32370
| 83>    H        3.83302        -3.78124         0.05524
| 84>    H        6.78328        -7.25892         2.15990
| 85>    H        8.53912        -6.90637         1.92887
| 86>    H        7.50474        -7.42895         0.54044
| 87>    H       14.09691        -6.46126         0.85970
| 88>    H       11.57945        -5.79148         0.93778
| 89>    H       19.32711        -3.58235         0.41975
| 90>    H       16.28370         0.14011        -0.65579
| 91>    H       16.54953         0.41825         1.08273
| 92>    H       14.86913         0.21842         0.45349
| 93>    H       23.68903        -5.66995         1.54572
| 94>    H       18.71468        -8.44573         0.23407
| 95>    H       21.60412       -11.65812        -2.06795
| 96>    H       22.47218       -12.01984        -0.54948
| 97>    H       23.36903       -11.31978        -1.95348
| 98>    H       30.64847        -8.45660        -1.18993
| 99>    H       29.11929        -9.53981        -3.05742
|100>    H       26.55710        -8.99833        -2.63344
|101> *
|102>
|103>                          ****END OF INPUT****

CARTESIAN COORDINATES (ANGSTROEM)
---------------------------------
  C     -0.236680    0.171720   -0.878680
  C      1.240280    0.025360   -0.714010
  C      2.243750    0.952660   -0.906780
  C      3.546570    0.430710   -0.647050
  C      3.539730   -0.895710   -0.263390
  S      1.895690   -1.494810   -0.203470
  C      2.063300    2.354110   -1.333530
  O      0.768430    2.667790   -1.494610
  O      2.958050    3.148010   -1.518960
  C      0.535810    4.004740   -1.913060
  C      8.414800   -2.657560    0.759560
  C      9.183390   -1.509350    0.595270
  C     10.567320   -1.719790    0.746000
  S      9.466150   -4.011440    1.139210
  C      6.972870   -2.668370    0.607190
  C      5.983880   -3.654590    0.515330
  C      4.694830   -3.128510    0.193300
  C      4.654640   -1.759600    0.065710
  S      6.234700   -1.084590    0.380100
  C      6.111250   -5.124560    0.700170
  O      7.298890   -5.472450    1.227690
  O      5.245510   -5.935030    0.450730
  C      7.536950   -6.854150    1.476030
  C     14.648890   -4.346350    0.946560
  C     13.763610   -5.429250    0.941850
  C     12.404640   -5.069860    0.988210
  C     12.201040   -3.696460    1.037920
  S     13.731170   -2.849390    1.030480
  C     16.100400   -4.462340    0.866190
  C     17.152800   -3.553730    0.686410
  C     18.432760   -4.174760    0.599890
  C     18.417620   -5.545710    0.689910
  S     16.775640   -6.098510    0.958010
  C     17.147260   -2.084010    0.489870
  O     15.934170   -1.511660    0.576890
  O     18.154510   -1.445430    0.263610
  C     15.911870   -0.098600    0.352100
  C     10.920270   -3.040110    0.995500
  C     23.356810   -7.309590    0.141740
  C     24.113450   -6.393300    0.850910
  C     25.505760   -6.484800    0.589370
  S     24.410450   -8.306570   -0.846550
  C     21.901490   -7.331120    0.143740
  C     20.908950   -8.311690    0.032500
  C     19.592120   -7.802020    0.280600
  C     19.546310   -6.440200    0.517940
  S     21.162050   -5.778140    0.476080
  C     21.056230   -9.750750   -0.316390
  O     22.200110   -9.997860   -0.974590
  O     20.229820  -10.607290   -0.100540
  C     22.419360  -11.334330   -1.407280
  C     25.855130   -7.466020   -0.327150
  Cl    11.680290   -0.411310    0.518200
  Cl    26.650070   -5.456910    1.388190
  C     27.146800   -7.875440   -0.862730
  S     28.669700   -7.502870   -0.083120
  C     29.563590   -8.391090   -1.264620
  C     28.746700   -8.945240   -2.220630
  C     27.369840   -8.652670   -1.994500
  H     -0.494910    0.404580   -1.925040
  H     -0.613650    1.008020   -0.268060
  H     -0.763050   -0.743910   -0.582430
  H      4.444450    1.035910   -0.767020
  H      0.987840    4.721010   -1.205950
  H     -0.551690    4.126440   -1.942030
  H      0.969040    4.180440   -2.908000
  H      8.775900   -0.537470    0.323700
  H      3.833020   -3.781240    0.055240
  H      6.783280   -7.258920    2.159900
  H      8.539120   -6.906370    1.928870
  H      7.504740   -7.428950    0.540440
  H     14.096910   -6.461260    0.859700
  H     11.579450   -5.791480    0.937780
  H     19.327110   -3.582350    0.419750
  H     16.283700    0.140110   -0.655790
  H     16.549530    0.418250    1.082730
  H     14.869130    0.218420    0.453490
  H     23.689030   -5.669950    1.545720
  H     18.714680   -8.445730    0.234070
  H     21.604120  -11.658120   -2.067950
  H     22.472180  -12.019840   -0.549480
  H     23.369030  -11.319780   -1.953480
  H     30.648470   -8.456600   -1.189930
  H     29.119290   -9.539810   -3.057420
  H     26.557100   -8.998330   -2.633440

 Total Charge           Charge          ....    0
 Multiplicity           Mult            ....    1
 Number of Electrons    NEL             ....  498
 Basis Dimension        Dim             .... 2045

ORBITAL ENERGIES
----------------

  NO   OCC          E(Eh)            E(eV)
   0   2.0000    -101.541487     -2763.0843
   1   2.0000    -101.534812     -2762.9027
   2   2.0000     -88.901369     -2419.1292
   3   2.0000     -88.900499     -2419.1056
   4   2.0000     -88.900293     -2419.1000
   5   2.0000     -88.899809     -2419.0868
   6   2.0000     -88.899359     -2419.0745
   7   2.0000     -88.897878     -2419.0342
   8   2.0000     -88.894512     -2418.9427
   9   2.0000     -88.890814     -2418.8420
  10   2.0000     -19.186323      -522.0864
  11   2.0000     -19.182352      -521.9783
  12   2.0000     -19.182071      -521.9707
  13   2.0000     -19.179995      -521.9142
  14   2.0000     -19.119721      -520.2740
  15   2.0000     -19.117222      -520.2060
  16   2.0000     -19.114641      -520.1358
  17   2.0000     -19.113858      -520.1145
  18   2.0000     -10.313852      -280.6542
  19   2.0000     -10.310683      -280.5679
  20   2.0000     -10.308715      -280.5144
  21   2.0000     -10.306252      -280.4474
  22   2.0000     -10.249402      -278.9004
  23   2.0000     -10.246665      -278.8259
  24   2.0000     -10.246470      -278.8206
  25   2.0000     -10.244560      -278.7686
  26   2.0000     -10.243427      -278.7378
  27   2.0000     -10.239029      -278.6182
  28   2.0000     -10.237505      -278.5767
  29   2.0000     -10.234002      -278.4813
  30   2.0000     -10.233448      -278.4663
  31   2.0000     -10.232727      -278.4466
  32   2.0000     -10.232709      -278.4462
  33   2.0000     -10.232018      -278.4274
  34   2.0000     -10.231712      -278.4190
  35   2.0000     -10.231584      -278.4155
  36   2.0000     -10.231491      -278.4130
  37   2.0000     -10.231177      -278.4045
  38   2.0000     -10.230498      -278.3860
  39   2.0000     -10.230073      -278.3744
  40   2.0000     -10.228252      -278.3249
  41   2.0000     -10.227098      -278.2935
  42   2.0000     -10.224656      -278.2270
  43   2.0000     -10.211825      -277.8779
  44   2.0000     -10.210563      -277.8435
  45   2.0000     -10.207399      -277.7574
  46   2.0000     -10.206447      -277.7315
  47   2.0000     -10.201984      -277.6101
  48   2.0000     -10.199098      -277.5316
  49   2.0000     -10.199066      -277.5307
  50   2.0000     -10.197494      -277.4879
  51   2.0000     -10.195803      -277.4419
  52   2.0000     -10.195453      -277.4324
  53   2.0000     -10.194897      -277.4173
  54   2.0000     -10.193602      -277.3820
  55   2.0000     -10.191918      -277.3362
  56   2.0000     -10.190491      -277.2974
  57   2.0000     -10.189262      -277.2639
  58   2.0000     -10.187461      -277.2149
  59   2.0000      -9.473791      -257.7950
  60   2.0000      -9.467062      -257.6119
  61   2.0000      -7.976815      -217.0602
  62   2.0000      -7.976787      -217.0594
  63   2.0000      -7.976721      -217.0576
  64   2.0000      -7.975785      -217.0321
  65   2.0000      -7.975770      -217.0317
  66   2.0000      -7.973371      -216.9665
  67   2.0000      -7.969644      -216.8650
  68   2.0000      -7.966427      -216.7775
  69   2.0000      -7.235406      -196.8854
  70   2.0000      -7.228697      -196.7029
  71   2.0000      -7.226908      -196.6542
  72   2.0000      -7.226609      -196.6460
  73   2.0000      -7.220141      -196.4700
  74   2.0000      -7.219894      -196.4633
  75   2.0000      -5.939560      -161.6236
  76   2.0000      -5.939367      -161.6184
  77   2.0000      -5.939152      -161.6125
  78   2.0000      -5.938427      -161.5928
  79   2.0000      -5.938323      -161.5900
  80   2.0000      -5.936106      -161.5297
  81   2.0000      -5.935505      -161.5133
  82   2.0000      -5.935467      -161.5123
  83   2.0000      -5.935354      -161.5092
  84   2.0000      -5.934541      -161.4871
  85   2.0000      -5.934343      -161.4817
  86   2.0000      -5.933773      -161.4662
  87   2.0000      -5.933278      -161.4527
  88   2.0000      -5.932922      -161.4430
  89   2.0000      -5.932389      -161.4285
  90   2.0000      -5.932373      -161.4281
  91   2.0000      -5.932247      -161.4247
  92   2.0000      -5.932154      -161.4221
  93   2.0000      -5.929717      -161.3558
  94   2.0000      -5.928957      -161.3351
  95   2.0000      -5.928240      -161.3156
  96   2.0000      -5.926096      -161.2573
  97   2.0000      -5.924860      -161.2236
  98   2.0000      -5.923420      -161.1844
  99   2.0000      -1.122160       -30.5355
 100   2.0000      -1.119896       -30.4739
 101   2.0000      -1.119643       -30.4670
 102   2.0000      -1.117573       -30.4107
 103   2.0000      -1.029046       -28.0018
 104   2.0000      -1.026757       -27.9395
 105   2.0000      -1.024493       -27.8779
 106   2.0000      -1.023473       -27.8501
 107   2.0000      -0.925985       -25.1973
 108   2.0000      -0.921197       -25.0670
 109   2.0000      -0.912628       -24.8339
 110   2.0000      -0.910253       -24.7693
 111   2.0000      -0.898875       -24.4596
 112   2.0000      -0.894608       -24.3435
 113   2.0000      -0.884176       -24.0597
 114   2.0000      -0.881398       -23.9840
 115   2.0000      -0.861584       -23.4449
 116   2.0000      -0.856311       -23.3014
 117   2.0000      -0.812635       -22.1129
 118   2.0000      -0.805612       -21.9218
 119   2.0000      -0.793428       -21.5903
 120   2.0000      -0.786260       -21.3952
 121   2.0000      -0.778910       -21.1952
 122   2.0000      -0.775461       -21.1014
 123   2.0000      -0.773306       -21.0427
 124   2.0000      -0.767924       -20.8963
 125   2.0000      -0.752365       -20.4729
 126   2.0000      -0.749249       -20.3881
 127   2.0000      -0.745702       -20.2916
 128   2.0000      -0.742090       -20.1933
 129   2.0000      -0.737263       -20.0619
 130   2.0000      -0.732935       -19.9442
 131   2.0000      -0.730981       -19.8910
 132   2.0000      -0.728856       -19.8332
 133   2.0000      -0.727658       -19.8006
 134   2.0000      -0.719660       -19.5829
 135   2.0000      -0.705165       -19.1885
 136   2.0000      -0.693163       -18.8619
 137   2.0000      -0.685963       -18.6660
 138   2.0000      -0.645569       -17.5668
 139   2.0000      -0.635691       -17.2980
 140   2.0000      -0.632526       -17.2119
 141   2.0000      -0.620987       -16.8979
 142   2.0000      -0.617211       -16.7952
 143   2.0000      -0.605000       -16.4629
 144   2.0000      -0.601761       -16.3747
 145   2.0000      -0.598388       -16.2830
 146   2.0000      -0.585240       -15.9252
 147   2.0000      -0.581552       -15.8248
 148   2.0000      -0.571450       -15.5499
 149   2.0000      -0.568421       -15.4675
 150   2.0000      -0.561077       -15.2677
 151   2.0000      -0.560118       -15.2416
 152   2.0000      -0.556340       -15.1388
 153   2.0000      -0.554288       -15.0829
 154   2.0000      -0.552545       -15.0355
 155   2.0000      -0.541791       -14.7429
 156   2.0000      -0.538543       -14.6545
 157   2.0000      -0.536476       -14.5983
 158   2.0000      -0.532858       -14.4998
 159   2.0000      -0.530134       -14.4257
 160   2.0000      -0.517958       -14.0944
 161   2.0000      -0.506241       -13.7755
 162   2.0000      -0.499439       -13.5904
 163   2.0000      -0.498857       -13.5746
 164   2.0000      -0.496668       -13.5150
 165   2.0000      -0.495532       -13.4841
 166   2.0000      -0.493632       -13.4324
 167   2.0000      -0.489652       -13.3241
 168   2.0000      -0.488339       -13.2884
 169   2.0000      -0.485300       -13.2057
 170   2.0000      -0.481234       -13.0950
 171   2.0000      -0.477537       -12.9945
 172   2.0000      -0.471862       -12.8400
 173   2.0000      -0.469097       -12.7648
 174   2.0000      -0.462906       -12.5963
 175   2.0000      -0.458600       -12.4791
 176   2.0000      -0.454680       -12.3725
 177   2.0000      -0.449665       -12.2360
 178   2.0000      -0.443614       -12.0714
 179   2.0000      -0.440850       -11.9961
 180   2.0000      -0.437514       -11.9054
 181   2.0000      -0.435452       -11.8492
 182   2.0000      -0.434584       -11.8256
 183   2.0000      -0.432828       -11.7779
 184   2.0000      -0.431170       -11.7327
 185   2.0000      -0.427143       -11.6231
 186   2.0000      -0.426615       -11.6088
 187   2.0000      -0.424232       -11.5440
 188   2.0000      -0.423151       -11.5145
 189   2.0000      -0.422117       -11.4864
 190   2.0000      -0.421059       -11.4576
 191   2.0000      -0.418539       -11.3890
 192   2.0000      -0.416378       -11.3302
 193   2.0000      -0.409376       -11.1397
 194   2.0000      -0.408943       -11.1279
 195   2.0000      -0.408517       -11.1163
 196   2.0000      -0.406630       -11.0650
 197   2.0000      -0.404331       -11.0024
 198   2.0000      -0.401794       -10.9334
 199   2.0000      -0.400774       -10.9056
 200   2.0000      -0.399823       -10.8797
 201   2.0000      -0.397608       -10.8195
 202   2.0000      -0.395445       -10.7606
 203   2.0000      -0.393777       -10.7152
 204   2.0000      -0.390432       -10.6242
 205   2.0000      -0.386287       -10.5114
 206   2.0000      -0.385874       -10.5002
 207   2.0000      -0.382631       -10.4119
 208   2.0000      -0.380930       -10.3656
 209   2.0000      -0.377254       -10.2656
 210   2.0000      -0.373950       -10.1757
 211   2.0000      -0.371005       -10.0955
 212   2.0000      -0.368299       -10.0219
 213   2.0000      -0.362821        -9.8729
 214   2.0000      -0.358707        -9.7609
 215   2.0000      -0.358382        -9.7521
 216   2.0000      -0.353915        -9.6305
 217   2.0000      -0.352971        -9.6048
 218   2.0000      -0.352698        -9.5974
 219   2.0000      -0.351713        -9.5706
 220   2.0000      -0.351014        -9.5516
 221   2.0000      -0.347339        -9.4516
 222   2.0000      -0.346888        -9.4393
 223   2.0000      -0.324857        -8.8398
 224   2.0000      -0.321109        -8.7378
 225   2.0000      -0.318297        -8.6613
 226   2.0000      -0.317671        -8.6443
 227   2.0000      -0.316341        -8.6081
 228   2.0000      -0.316041        -8.5999
 229   2.0000      -0.314543        -8.5592
 230   2.0000      -0.305801        -8.3213
 231   2.0000      -0.291902        -7.9431
 232   2.0000      -0.290424        -7.9028
 233   2.0000      -0.289112        -7.8671
 234   2.0000      -0.288283        -7.8446
 235   2.0000      -0.285393        -7.7659
 236   2.0000      -0.277168        -7.5421
 237   2.0000      -0.274669        -7.4741
 238   2.0000      -0.272595        -7.4177
 239   2.0000      -0.269982        -7.3466
 240   2.0000      -0.266603        -7.2546
 241   2.0000      -0.264821        -7.2061
 242   2.0000      -0.262139        -7.1332
 243   2.0000      -0.261450        -7.1144
 244   2.0000      -0.257432        -7.0051
 245   2.0000      -0.245864        -6.6903
 246   2.0000      -0.225162        -6.1270
 247   2.0000      -0.208995        -5.6870
 248   2.0000      -0.193274        -5.2592
 249   0.0000      -0.103503        -2.8165
 250   0.0000      -0.087830        -2.3900
 251   0.0000      -0.074487        -2.0269
 252   0.0000      -0.058142        -1.5821
 253   0.0000      -0.047956        -1.3049

MULLIKEN ATOMIC CHARGES
-----------------------
   0 C :   -0.320812
   1 C :   -0.008269
   2 C :    0.039922
   3 C :   -0.259773
   4 C :    0.066537
   5 S :    0.039369
   6 C :    0.306472
   7 O :   -0.267120
   8 O :   -0.336616
   9 C :   -0.175211
  10 C :   -0.018061
  11 C :   -0.143662
  12 C :    0.010019
  13 S :    0.042881
  14 C :    0.054740
  15 C :   -0.007845
  16 C :   -0.201311
  17 C :    0.116812
  18 S :    0.010404
  19 C :    0.313957
  20 O :   -0.282566
  21 O :   -0.331177
  22 C :   -0.165439
  23 C :    0.005883
  24 C :   -0.137206
  25 C :   -0.185933
  26 C :    0.059309
  27 S :    0.071352
  28 C :    0.021936
  29 C :   -0.029539
  30 C :   -0.157174
  31 C :    0.032809
  32 S :    0.007924
  33 C :    0.334162
  34 O :   -0.280399
  35 O :   -0.343927
  36 C :   -0.171540
  37 C :    0.031602
  38 C :    0.033144
  39 C :   -0.215874
  40 C :    0.054229
  41 S :    0.053176
  42 C :    0.015586
  43 C :    0.051552
  44 C :   -0.238787
  45 C :    0.100895
  46 S :    0.024925
  47 C :    0.294882
  48 O :   -0.275066
  49 O :   -0.328509
  50 C :   -0.164745
  51 C :    0.077942
  52 Cl:   -0.095230
  53 Cl:   -0.088521
  54 C :    0.000176
  55 S :    0.065461
  56 C :   -0.170222
  57 C :   -0.143908
  58 C :   -0.185144
  59 H :    0.128228
  60 H :    0.132034
  61 H :    0.118897
  62 H :    0.140220
  63 H :    0.128305
  64 H :    0.119827
  65 H :    0.125569
  66 H :    0.134058
  67 H :    0.144643
  68 H :    0.133722
  69 H :    0.122762
  70 H :    0.130835
  71 H :    0.126877
  72 H :    0.123114
  73 H :    0.150867
  74 H :    0.128659
  75 H :    0.130277
  76 H :    0.128861
  77 H :    0.138201
  78 H :    0.141533
  79 H :    0.128603
  80 H :    0.128675
  81 H :    0.123470
  82 H :    0.141882
  83 H :    0.119101
  84 H :    0.122311
Sum of atomic charges:   -0.0000000

LOEWDIN ATOMIC CHARGES
----------------------
   0 C :   -0.287389
   1 C :   -0.335680
   2 C :   -0.159345
   3 C :   -0.109559
   4 C :   -0.356595
   5 S :    0.778598
   6 C :   -0.448368
   7 O :    0.257062
   8 O :    0.106725
   9 C :   -0.314800
  10 C :   -0.347876
  11 C :   -0.173516
  12 C :   -0.461580
  13 S :    0.787663
  14 C :   -0.285086
  15 C :   -0.139756
  16 C :   -0.115978
  17 C :   -0.354896
  18 S :    0.784037
  19 C :   -0.444518
  20 O :    0.239905
  21 O :    0.108519
  22 C :   -0.314557
  23 C :   -0.348502
  24 C :   -0.166029
  25 C :   -0.169810
  26 C :   -0.362614
  27 S :    0.779405
  28 C :   -0.279015
  29 C :   -0.143287
  30 C :   -0.115461
  31 C :   -0.357490
  32 S :    0.765864
  33 C :   -0.445971
  34 O :    0.236817
  35 O :    0.105574
  36 C :   -0.307708
  37 C :   -0.351629
  38 C :   -0.357831
  39 C :   -0.171592
  40 C :   -0.464073
  41 S :    0.783801
  42 C :   -0.292984
  43 C :   -0.136759
  44 C :   -0.110904
  45 C :   -0.349383
  46 S :    0.797019
  47 C :   -0.449107
  48 O :    0.245816
  49 O :    0.110994
  50 C :   -0.313209
  51 C :   -0.355029
  52 Cl:    0.417352
  53 Cl:    0.416193
  54 C :   -0.365853
  55 S :    0.726749
  56 C :   -0.392942
  57 C :   -0.203992
  58 C :   -0.171241
  59 H :    0.136845
  60 H :    0.137259
  61 H :    0.124592
  62 H :    0.154128
  63 H :    0.116568
  64 H :    0.111613
  65 H :    0.114402
  66 H :    0.145828
  67 H :    0.155713
  68 H :    0.116447
  69 H :    0.112321
  70 H :    0.115314
  71 H :    0.142375
  72 H :    0.143015
  73 H :    0.156537
  74 H :    0.116380
  75 H :    0.116268
  76 H :    0.109558
  77 H :    0.147677
  78 H :    0.154677
  79 H :    0.115873
  80 H :    0.115083
  81 H :    0.112290
  82 H :    0.129193
  83 H :    0.142833
  84 H :    0.141033

  Mayer bond orders larger than 0.100000
B(  0-C ,  1-C ) :   0.9447 B(  0-C , 59-H ) :   0.9562 B(  0-C , 60-H ) :   0.9630
B(  0-C , 61-H ) :   0.9699 B(  1-C ,  2-C ) :   1.5116 B(  1-C ,  5-S ) :   1.3307
B(  2-C ,  3-C ) :   1.2571 B(  2-C ,  6-C ) :   1.0077 B(  3-C ,  4-C ) :   1.4793
B(  3-C ,  5-S ) :   0.1000 B(  3-C , 62-H ) :   0.9471 B(  4-C ,  5-S ) :   1.2121
B(  4-C , 17-C ) :   1.0093 B(  6-C ,  7-O ) :   1.1994 B(  6-C ,  8-O ) :   2.0206
B(  7-O ,  9-C ) :   0.9001 B(  9-C , 63-H ) :   0.9736 B(  9-C , 64-H ) :   0.9682
B(  9-C , 65-H ) :   0.9747 B( 10-C , 11-C ) :   1.4143 B( 10-C , 13-S ) :   1.3004
B( 10-C , 14-C ) :   1.0263 B( 11-C , 12-C ) :   1.3079 B( 11-C , 66-H ) :   0.9428
B( 12-C , 13-S ) :   0.1008 B( 12-C , 37-C ) :   1.3108 B( 12-C , 52-Cl) :   1.0889
B( 13-S , 37-C ) :   1.2645 B( 14-C , 15-C ) :   1.3614 B( 14-C , 18-S ) :   1.2729
B( 15-C , 16-C ) :   1.2734 B( 15-C , 19-C ) :   1.0088 B( 16-C , 17-C ) :   1.4478
B( 16-C , 67-H ) :   0.9481 B( 17-C , 18-S ) :   1.2348 B( 19-C , 20-O ) :   1.1690
B( 19-C , 21-O ) :   2.0365 B( 20-O , 22-C ) :   0.8876 B( 22-C , 68-H ) :   0.9708
B( 22-C , 69-H ) :   0.9651 B( 22-C , 70-H ) :   0.9745 B( 23-C , 24-C ) :   1.3916
B( 23-C , 27-S ) :   1.2910 B( 23-C , 28-C ) :   1.0332 B( 24-C , 25-C ) :   1.3879
B( 24-C , 71-H ) :   0.9432 B( 25-C , 26-C ) :   1.4335 B( 25-C , 72-H ) :   0.9366
B( 26-C , 27-S ) :   1.2954 B( 26-C , 37-C ) :   1.0461 B( 28-C , 29-C ) :   1.3585
B( 28-C , 32-S ) :   1.2802 B( 29-C , 30-C ) :   1.2883 B( 29-C , 33-C ) :   1.0287
B( 30-C , 31-C ) :   1.4482 B( 30-C , 73-H ) :   0.9336 B( 31-C , 32-S ) :   1.2433
B( 31-C , 45-C ) :   1.0551 B( 33-C , 34-O ) :   1.1847 B( 33-C , 35-O ) :   1.9892
B( 34-O , 36-C ) :   0.8896 B( 36-C , 74-H ) :   0.9732 B( 36-C , 75-H ) :   0.9738
B( 36-C , 76-H ) :   0.9622 B( 38-C , 39-C ) :   1.4689 B( 38-C , 41-S ) :   1.2555
B( 38-C , 42-C ) :   0.9609 B( 39-C , 40-C ) :   1.2664 B( 39-C , 77-H ) :   0.9474
B( 40-C , 51-C ) :   1.3668 B( 40-C , 53-Cl) :   1.0861 B( 41-S , 51-C ) :   1.2584
B( 42-C , 43-C ) :   1.3885 B( 42-C , 46-S ) :   1.2880 B( 43-C , 44-C ) :   1.2541
B( 43-C , 47-C ) :   0.9948 B( 44-C , 45-C ) :   1.4501 B( 44-C , 78-H ) :   0.9500
B( 45-C , 46-S ) :   1.2248 B( 47-C , 48-O ) :   1.1794 B( 47-C , 49-O ) :   2.0391
B( 48-O , 50-C ) :   0.8917 B( 50-C , 79-H ) :   0.9714 B( 50-C , 80-H ) :   0.9751
B( 50-C , 81-H ) :   0.9661 B( 51-C , 54-C ) :   0.9770 B( 54-C , 55-S ) :   1.2813
B( 54-C , 58-C ) :   1.4791 B( 55-S , 56-C ) :   1.2625 B( 55-S , 57-C ) :   0.1132
B( 56-C , 57-C ) :   1.6322 B( 56-C , 82-H ) :   0.9398 B( 57-C , 58-C ) :   1.3075
B( 57-C , 83-H ) :   0.9566 B( 58-C , 84-H ) :   0.9438

-----------------------------------------------------------------------------
         ABSORPTION SPECTRUM VIA TRANSITION ELECTRIC DIPOLE MOMENTS
-----------------------------------------------------------------------------
State   Energy    Wavelength  fosc         T2        TX        TY        TZ
        (cm-1)      (nm)                 (au**2)    (au)      (au)      (au)
-----------------------------------------------------------------------------
   1   17819.1    561.2   2.681571524  49.54255   6.79838  -1.82304  -0.03359
   2   20728.9    482.4   0.091899695   1.45953   1.16100  -0.33332  -0.02230
   3   22368.1    447.1   0.047592089   0.70046   0.58857  -0.09119   0.58798
   4   23414.9    427.1   0.006328790   0.08898   0.27924  -0.09841  -0.03639
   5   24602.8    406.5   0.383477619   5.13134   2.19159  -0.43057  -0.37803
   6   26389.3    378.9   0.062720370   0.78245  -0.86228   0.05293  -0.19007
   7   27205.7    367.6   0.005345751   0.06469   0.20373  -0.15182   0.01152
   8   27411.4    364.8   0.026631804   0.31985   0.50760  -0.00346  -0.24935
   9   27962.8    357.6   0.020719314   0.24393  -0.29133   0.31805  -0.24064
  10   28742.8    347.9   0.004572944   0.05238  -0.14606   0.15376   0.08603
  11   30086.9    332.4   0.023968263   0.26226   0.42362   0.20298  -0.20397
  12   30749.4    325.2   0.082308918   0.88122   0.92399  -0.15814  -0.04957
  13   31246.6    320.0   0.038757146   0.40834   0.62752  -0.09336   0.07648
  14   31438.2    318.1   0.017788409   0.18628   0.15763  -0.40171   0.00741
  15   31509.3    317.4   0.002530861   0.02644   0.10762  -0.08939   0.08288
  16   31834.8    314.1   0.081005527   0.83770  -0.70093   0.57425   0.12898
  17   32171.4    310.8   0.023452045   0.23999   0.40846  -0.22385  -0.15179
  18   32231.7    310.3   0.055507800   0.56695  -0.73028   0.15230   0.10218
  19   32352.2    309.1   0.076937095   0.78290  -0.57451   0.65155  -0.16829
  20   32865.2    304.3   0.002943778   0.02949  -0.11689  -0.06406  -0.10826
  21   32985.3    303.2   0.006701496   0.06688   0.14315  -0.20853   0.05393
  22   33156.6    301.6   0.001444972   0.01435  -0.10840  -0.04875   0.01479
  23   33637.6    297.3   0.017609215   0.17234   0.31398  -0.24213  -0.12300
  24   33815.7    295.7   0.011540154   0.11235  -0.11281  -0.30841   0.06711
  25   34267.7    291.8   0.010848821   0.10423   0.05577   0.17912   0.26274
  26   34328.3    291.3   0.013060971   0.12526  -0.34841  -0.00390  -0.06208
  27   34684.2    288.3   0.017514300   0.16624   0.40128  -0.05918   0.04136
  28   34722.0    288.0   0.000205741   0.00195  -0.04222  -0.01296  -0.00064
  29   34877.2    286.7   0.011868772   0.11203  -0.33153  -0.00542  -0.04569
  30   35048.4    285.3   0.056293786   0.52877   0.13830   0.70197  -0.12993
  31   35290.0    283.4   0.030213539   0.28186   0.23549  -0.45251   0.14708
  32   35321.9    283.1   0.016784295   0.15644  -0.34681  -0.09398  -0.16530
  33   35356.4    282.8   0.014889243   0.13864   0.13932   0.27764  -0.20528
  34   35423.1    282.3   0.004784442   0.04447  -0.07928  -0.06487  -0.18431
  35   35687.2    280.2   0.038234287   0.35271   0.46493  -0.35485  -0.10307
  36   35723.9    279.9   0.018858967   0.17379   0.35376  -0.13144  -0.17713
  37   35793.0    279.4   0.017515482   0.16110   0.34478  -0.20536   0.00717
  38   36011.3    277.7   0.005708573   0.05219  -0.02386  -0.21097  -0.08431
  39   36423.3    274.5   0.023102127   0.20881   0.17682  -0.41919  -0.04272
  40   36532.2    273.7   0.003615763   0.03258   0.02028   0.17477  -0.04036
  41   36649.5    272.9   0.000343020   0.00308  -0.05156   0.02035  -0.00289
  42   36781.6    271.9   0.012316950   0.11024  -0.32190  -0.03206   0.07479
  43   36916.6    270.9   0.095614914   0.85267   0.61374  -0.67098  -0.16054
  44   36969.2    270.5   0.028669104   0.25530   0.03965  -0.43738   0.24986
  45   37151.2    269.2   0.002525813   0.02238   0.10591  -0.10486   0.01299
  46   37744.4    264.9   0.011244023   0.09807   0.14649  -0.27521  -0.02954
  47   37826.2    264.4   0.006069824   0.05283   0.02321  -0.20067  -0.10964
  48   37833.2    264.3   0.003139966   0.02732  -0.01416  -0.14695  -0.07436
  49   37895.2    263.9   0.035363702   0.30722   0.33575  -0.43680  -0.06080
  50   38040.6    262.9   0.003366374   0.02913  -0.05711   0.15966   0.01949

FINAL SINGLE POINT ENERGY     -6284.889363960576

DIPOLE MOMENT
-------------
                                X             Y             Z
Electronic contribution:     56.49845      -3.29230      15.80830
Nuclear contribution   :    -57.73598       3.00315     -16.32596
                        -----------------------------------------
Total Dipole Moment    :     -1.23753      -0.28915      -0.51767
                        -----------------------------------------
Magnitude (a.u.)       :      1.37225
Magnitude (Debye)      :      3.48798

Rotational constants in cm-1:     0.003254     0.000203     0.000195
Rotational constants in MHz :    97.567387     6.097934     5.844719

                             ****ORCA TERMINATED NORMALLY****
TOTAL RUN TIME: 0 days 3 hours 34 minutes 23 seconds 170 msec
