                         Program Version 4.2.0 -  RELEASE  -
|  1> # ORCA input file
|  2> # P3HT.out
|  3> ! CAM-B3LYP def2-SVP def2/J RIJCOSX Grid4 TightSCF
|  4> %maxcore 5000
|  5> %tddft
|  6>     Mode sTDDFT
|  7>     Ethresh 5.0
|  8>     maxcore 5000
|  9> end
| 10> * xyz 0 1
| 11>    C        0.50514        -0.17100         0.03289
| 12>    C       -0.84651        -0.47416         0.01854
| 13>    C       -1.65755         0.68218         0.01385
| 14>    C       -0.97186         1.85567         0.02502
| 15>    S        0.73226         1.56783         0.04159
| 16>    C       -1.40118        -1.86587         0.00779
| 17>    C       -2.92262        -1.94129        -0.03234
| 18>    C        1.63662        -1.04262         0.04169
| 19>    C        2.99292        -0.73835         0.03161
| 20>    C        3.80298        -1.88290         0.04676
| 21>    C        3.11352        -3.06985         0.06550
| 22>    S        1.40329        -2.77787         0.06921
| 23>    C        3.54489         0.65467         0.00024
| 24>    C        5.06634         0.72638        -0.04666
| 25>    C        6.22079        -7.30245         0.04514
| 26>    C        7.58032        -7.00424         0.02120
| 27>    C        8.38424        -8.15142         0.02322
| 28>    C        7.69014        -9.33634         0.04561
| 29>    S        5.98160        -9.03856         0.07081
| 30>    C        8.13790        -5.61412        -0.01226
| 31>    C        9.65856        -5.54924        -0.08858
| 32>    C       10.81754       -13.55426        -0.02465
| 33>    C       12.16860       -13.24938        -0.05149
| 34>    C       12.98096       -14.40472        -0.06570
| 35>    C       12.29682       -15.57906        -0.04978
| 36>    S       10.59258       -15.29336        -0.01626
| 37>    C       12.72132       -11.85692        -0.06532
| 38>    C       14.24224       -11.77952        -0.11926
| 39>    C        5.09836        -6.42599         0.05129
| 40>    C        3.73842        -6.72408         0.04176
| 41>    C        2.93485        -5.57674         0.05289
| 42>    C        3.62988        -4.39202         0.06825
| 43>    S        5.33851        -4.69011         0.07384
| 44>    C        3.18012        -8.11402         0.01404
| 45>    C        1.65877        -8.17908        -0.04565
| 46>    C        9.68527       -12.68389        -0.00388
| 47>    C        8.32917       -12.98953        -0.00106
| 48>    C        7.51825       -11.84575         0.02355
| 49>    C        8.20702       -10.65819         0.03646
| 50>    S        9.91744       -10.94854         0.02227
| 51>    C        7.77832       -14.38306        -0.02866
| 52>    C        6.25659       -14.45641        -0.06164
| 53>    C       12.83423       -16.96495        -0.06019
| 54>    C       -1.50772         3.24221         0.02160
| 55>    H       -2.73145         0.65152         0.00202
| 56>    H       -1.04470        -2.39456         0.89803
| 57>    H       -0.99865        -2.39928        -0.85957
| 58>    H       -3.35928        -1.46762         0.84375
| 59>    H       -3.23259        -2.98384        -0.04427
| 60>    H       -3.31227        -1.46090        -0.92681
| 61>    H        4.87718        -1.86432         0.04160
| 62>    H        3.19136         1.19576         0.88386
| 63>    H        3.13978         1.17455        -0.87381
| 64>    H        5.50523         0.26730         0.83595
| 65>    H        5.37861         1.76770        -0.07939
| 66>    H        5.45119         0.22745        -0.93302
| 67>    H        9.45857        -8.13789         0.00596
| 68>    H        7.80353        -5.07703         0.88134
| 69>    H        7.71804        -5.08726        -0.87516
| 70>    H       10.11266        -6.01322         0.78377
| 71>    H        9.97518        -4.50929        -0.12425
| 72>    H       10.02339        -6.04719        -0.98392
| 73>    H       14.05466       -14.37270        -0.08779
| 74>    H       12.37235       -11.33001         0.82895
| 75>    H       12.31006       -11.32277        -0.92812
| 76>    H       14.68759       -12.25407         0.75197
| 77>    H       14.55073       -10.73655        -0.13227
| 78>    H       14.62431       -12.25788        -1.01808
| 79>    H        1.86031        -5.59002         0.04688
| 80>    H        3.52426        -8.65120         0.90388
| 81>    H        3.59027        -8.64086        -0.85352
| 82>    H        1.21429        -7.71520         0.83169
| 83>    H        1.34186        -9.21907        -0.07797
| 84>    H        1.28418        -7.68104        -0.93690
| 85>    H        6.44400       -11.86534         0.02900
| 86>    H        8.14059       -14.92457         0.85116
| 87>    H        8.17584       -14.90174        -0.90688
| 88>    H        5.82530       -13.99886         0.82549
| 89>    H        5.94512       -15.49803        -0.09279
| 90>    H        5.86312       -13.95681        -0.94384
| 91>    H       13.92121       -16.94151        -0.08208
| 92>    H       12.47613       -17.51008        -0.93344
| 93>    H       12.51143       -17.51006         0.82666
| 94>    H       -2.59494         3.22007         0.01441
| 95>    H       -1.16092         3.78670        -0.85662
| 96>    H       -1.17224         3.78718         0.90380
| 97> *
| 98>
| 99>                          ****END OF INPUT****

CARTESIAN COORDINATES (ANGSTROEM)
---------------------------------
  C      0.505140   -0.171000    0.032890
  C     -0.846510   -0.474160    0.018540
  C     -1.657550    0.682180    0.013850
  C     -0.971860    1.855670    0.025020
  S      0.732260    1.567830    0.041590
  C     -1.401180   -1.865870    0.007790
  C     -2.922620   -1.941290   -0.032340
  C      1.636620   -1.042620    0.041690
  C      2.992920   -0.738350    0.031610
  C      3.802980   -1.882900    0.046760
  C      3.113520   -3.069850    0.065500
  S      1.403290   -2.777870    0.069210
  C      3.544890    0.654670    0.000240
  C      5.066340    0.726380   -0.046660
  C      6.220790   -7.302450    0.045140
  C      7.580320   -7.004240    0.021200
  C      8.384240   -8.151420    0.023220
  C      7.690140   -9.336340    0.045610
  S      5.981600   -9.038560    0.070810
  C      8.137900   -5.614120   -0.012260
  C      9.658560   -5.549240   -0.088580
  C     10.817540  -13.554260   -0.024650
  C     12.168600  -13.249380   -0.051490
  C     12.980960  -14.404720   -0.065700
  C     12.296820  -15.579060   -0.049780
  S     10.592580  -15.293360   -0.016260
  C     12.721320  -11.856920   -0.065320
  C     14.242240  -11.779520   -0.119260
  C      5.098360   -6.425990    0.051290
  C      3.738420   -6.724080    0.041760
  C      2.934850   -5.576740    0.052890
  C      3.629880   -4.392020    0.068250
  S      5.338510   -4.690110    0.073840
  C      3.180120   -8.114020    0.014040
  C      1.658770   -8.179080   -0.045650
  C      9.685270  -12.683890   -0.003880
  C      8.329170  -12.989530   -0.001060
  C      7.518250  -11.845750    0.023550
  C      8.207020  -10.658190    0.036460
  S      9.917440  -10.948540    0.022270
  C      7.778320  -14.383060   -0.028660
  C      6.256590  -14.456410   -0.061640
  C     12.834230  -16.964950   -0.060190
  C     -1.507720    3.242210    0.021600
  H     -2.731450    0.651520    0.002020
  H     -1.044700   -2.394560    0.898030
  H     -0.998650   -2.399280   -0.859570
  H     -3.359280   -1.467620    0.843750
  H     -3.232590   -2.983840   -0.044270
  H     -3.312270   -1.460900   -0.926810
  H      4.877180   -1.864320    0.041600
  H      3.191360    1.195760    0.883860
  H      3.139780    1.174550   -0.873810
  H      5.505230    0.267300    0.835950
  H      5.378610    1.767700   -0.079390
  H      5.451190    0.227450   -0.933020
  H      9.458570   -8.137890    0.005960
  H      7.803530   -5.077030    0.881340
  H      7.718040   -5.087260   -0.875160
  H     10.112660   -6.013220    0.783770
  H      9.975180   -4.509290   -0.124250
  H     10.023390   -6.047190   -0.983920
  H     14.054660  -14.372700   -0.087790
  H     12.372350  -11.330010    0.828950
  H     12.310060  -11.322770   -0.928120
  H     14.687590  -12.254070    0.751970
  H     14.550730  -10.736550   -0.132270
  H     14.624310  -12.257880   -1.018080
  H      1.860310   -5.590020    0.046880
  H      3.524260   -8.651200    0.903880
  H      3.590270   -8.640860   -0.853520
  H      1.214290   -7.715200    0.831690
  H      1.341860   -9.219070   -0.077970
  H      1.284180   -7.681040   -0.936900
  H      6.444000  -11.865340    0.029000
  H      8.140590  -14.924570    0.851160
  H      8.175840  -14.901740   -0.906880
  H      5.825300  -13.998860    0.825490
  H      5.945120  -15.498030   -0.092790
  H      5.863120  -13.956810   -0.943840
  H     13.921210  -16.941510   -0.082080
  H     12.476130  -17.510080   -0.933440
  H     12.511430  -17.510060    0.826660
  H     -2.594940    3.220070    0.014410
  H     -1.160920    3.786700   -0.856620
  H     -1.172240    3.787180    0.903800

 Total Charge           Charge          ....    0
 Multiplicity           Mult            ....    1
 Number of Electrons    NEL             ....  366
 Basis Dimension        Dim             ....  850

ORBITAL ENERGIES
----------------

  NO   OCC          E(Eh)            E(eV)
   0   2.0000     -88.941326     -2420.2165
   1   2.0000     -88.941288     -2420.2155
   2   2.0000     -88.940364     -2420.1903
   3   2.0000     -88.940351     -2420.1900
   4   2.0000     -88.935825     -2420.0668
   5   2.0000     -88.935815     -2420.0666
   6   2.0000     -10.290955      -280.0311
   7   2.0000     -10.290711      -280.0245
   8   2.0000     -10.289751      -279.9984
   9   2.0000     -10.289744      -279.9982
  10   2.0000     -10.287830      -279.9461
  11   2.0000     -10.287813      -279.9456
  12   2.0000     -10.286605      -279.9128
  13   2.0000     -10.286599      -279.9126
  14   2.0000     -10.286343      -279.9056
  15   2.0000     -10.286342      -279.9056
  16   2.0000     -10.281513      -279.7742
  17   2.0000     -10.281503      -279.7739
  18   2.0000     -10.266592      -279.3682
  19   2.0000     -10.266592      -279.3682
  20   2.0000     -10.264817      -279.3199
  21   2.0000     -10.264781      -279.3189
  22   2.0000     -10.263124      -279.2738
  23   2.0000     -10.263106      -279.2733
  24   2.0000     -10.261266      -279.2232
  25   2.0000     -10.261261      -279.2231
  26   2.0000     -10.260517      -279.2029
  27   2.0000     -10.260507      -279.2026
  28   2.0000     -10.259341      -279.1709
  29   2.0000     -10.259326      -279.1704
  30   2.0000     -10.259249      -279.1684
  31   2.0000     -10.259242      -279.1682
  32   2.0000     -10.255898      -279.0772
  33   2.0000     -10.255855      -279.0760
  34   2.0000     -10.255535      -279.0673
  35   2.0000     -10.255495      -279.0662
  36   2.0000     -10.250947      -278.9424
  37   2.0000     -10.250945      -278.9424
  38   2.0000     -10.250749      -278.9371
  39   2.0000     -10.250738      -278.9368
  40   2.0000     -10.250590      -278.9327
  41   2.0000     -10.250579      -278.9324
  42   2.0000     -10.250165      -278.9212
  43   2.0000     -10.250158      -278.9210
  44   2.0000      -8.035963      -218.6697
  45   2.0000      -8.035923      -218.6686
  46   2.0000      -8.035022      -218.6441
  47   2.0000      -8.035009      -218.6437
  48   2.0000      -8.031100      -218.5373
  49   2.0000      -8.031091      -218.5371
  50   2.0000      -6.005448      -163.4166
  51   2.0000      -6.005410      -163.4155
  52   2.0000      -6.004483      -163.3903
  53   2.0000      -6.004470      -163.3899
  54   2.0000      -6.001189      -163.3007
  55   2.0000      -6.001150      -163.2996
  56   2.0000      -6.000560      -163.2835
  57   2.0000      -6.000552      -163.2833
  58   2.0000      -6.000249      -163.2751
  59   2.0000      -6.000236      -163.2747
  60   2.0000      -5.997914      -163.2115
  61   2.0000      -5.997874      -163.2105
  62   2.0000      -5.996998      -163.1866
  63   2.0000      -5.996983      -163.1862
  64   2.0000      -5.996129      -163.1630
  65   2.0000      -5.996121      -163.1627
  66   2.0000      -5.993219      -163.0838
  67   2.0000      -5.993210      -163.0835
  68   2.0000      -0.986332       -26.8395
  69   2.0000      -0.981097       -26.6970
  70   2.0000      -0.974413       -26.5151
  71   2.0000      -0.964276       -26.2393
  72   2.0000      -0.954500       -25.9733
  73   2.0000      -0.946718       -25.7615
  74   2.0000      -0.882195       -24.0057
  75   2.0000      -0.879759       -23.9394
  76   2.0000      -0.875292       -23.8179
  77   2.0000      -0.874994       -23.8098
  78   2.0000      -0.866274       -23.5725
  79   2.0000      -0.860844       -23.4248
  80   2.0000      -0.851465       -23.1695
  81   2.0000      -0.849067       -23.1043
  82   2.0000      -0.840173       -22.8623
  83   2.0000      -0.816025       -22.2052
  84   2.0000      -0.809661       -22.0320
  85   2.0000      -0.802571       -21.8391
  86   2.0000      -0.794906       -21.6305
  87   2.0000      -0.793037       -21.5796
  88   2.0000      -0.790491       -21.5103
  89   2.0000      -0.788675       -21.4609
  90   2.0000      -0.783431       -21.3182
  91   2.0000      -0.765843       -20.8397
  92   2.0000      -0.748404       -20.3651
  93   2.0000      -0.747036       -20.3279
  94   2.0000      -0.711720       -19.3669
  95   2.0000      -0.709858       -19.3162
  96   2.0000      -0.706933       -19.2366
  97   2.0000      -0.704335       -19.1659
  98   2.0000      -0.702885       -19.1265
  99   2.0000      -0.675590       -18.3837
 100   2.0000      -0.663707       -18.0604
 101   2.0000      -0.650694       -17.7063
 102   2.0000      -0.640606       -17.4318
 103   2.0000      -0.632574       -17.2132
 104   2.0000      -0.624427       -16.9915
 105   2.0000      -0.619202       -16.8493
 106   2.0000      -0.605764       -16.4837
 107   2.0000      -0.597172       -16.2499
 108   2.0000      -0.590424       -16.0662
 109   2.0000      -0.586942       -15.9715
 110   2.0000      -0.576039       -15.6748
 111   2.0000      -0.575699       -15.6656
 112   2.0000      -0.570075       -15.5125
 113   2.0000      -0.562129       -15.2963
 114   2.0000      -0.541919       -14.7464
 115   2.0000      -0.532824       -14.4989
 116   2.0000      -0.531526       -14.4636
 117   2.0000      -0.531144       -14.4532
 118   2.0000      -0.527452       -14.3527
 119   2.0000      -0.526094       -14.3157
 120   2.0000      -0.525115       -14.2891
 121   2.0000      -0.525099       -14.2887
 122   2.0000      -0.517284       -14.0760
 123   2.0000      -0.513803       -13.9813
 124   2.0000      -0.499304       -13.5868
 125   2.0000      -0.499297       -13.5866
 126   2.0000      -0.494470       -13.4552
 127   2.0000      -0.493219       -13.4212
 128   2.0000      -0.489559       -13.3216
 129   2.0000      -0.486586       -13.2407
 130   2.0000      -0.483892       -13.1674
 131   2.0000      -0.483505       -13.1568
 132   2.0000      -0.478648       -13.0247
 133   2.0000      -0.478549       -13.0220
 134   2.0000      -0.478390       -13.0177
 135   2.0000      -0.472975       -12.8703
 136   2.0000      -0.467891       -12.7320
 137   2.0000      -0.466210       -12.6862
 138   2.0000      -0.461513       -12.5584
 139   2.0000      -0.460265       -12.5244
 140   2.0000      -0.460121       -12.5205
 141   2.0000      -0.459695       -12.5089
 142   2.0000      -0.449915       -12.2428
 143   2.0000      -0.449218       -12.2238
 144   2.0000      -0.446135       -12.1400
 145   2.0000      -0.445110       -12.1121
 146   2.0000      -0.442390       -12.0381
 147   2.0000      -0.435484       -11.8501
 148   2.0000      -0.429469       -11.6864
 149   2.0000      -0.429118       -11.6769
 150   2.0000      -0.428826       -11.6689
 151   2.0000      -0.426918       -11.6170
 152   2.0000      -0.425095       -11.5674
 153   2.0000      -0.424428       -11.5493
 154   2.0000      -0.423462       -11.5230
 155   2.0000      -0.423190       -11.5156
 156   2.0000      -0.422914       -11.5081
 157   2.0000      -0.419543       -11.4164
 158   2.0000      -0.410817       -11.1789
 159   2.0000      -0.409676       -11.1479
 160   2.0000      -0.409297       -11.1375
 161   2.0000      -0.408013       -11.1026
 162   2.0000      -0.407887       -11.0992
 163   2.0000      -0.402245       -10.9457
 164   2.0000      -0.398618       -10.8469
 165   2.0000      -0.386733       -10.5235
 166   2.0000      -0.382927       -10.4200
 167   2.0000      -0.378000       -10.2859
 168   2.0000      -0.377972       -10.2851
 169   2.0000      -0.374109       -10.1800
 170   2.0000      -0.372827       -10.1451
 171   2.0000      -0.361938        -9.8488
 172   2.0000      -0.336315        -9.1516
 173   2.0000      -0.312729        -8.5098
 174   2.0000      -0.307056        -8.3554
 175   2.0000      -0.305488        -8.3127
 176   2.0000      -0.302306        -8.2262
 177   2.0000      -0.299149        -8.1403
 178   2.0000      -0.295663        -8.0454
 179   2.0000      -0.295308        -8.0357
 180   2.0000      -0.266675        -7.2566
 181   2.0000      -0.233003        -6.3403
 182   2.0000      -0.204130        -5.5547
 183   0.0000      -0.035868        -0.9760
 184   0.0000      -0.007708        -0.2098
 185   0.0000       0.023174         0.6306
 186   0.0000       0.045029         1.2253
 187   0.0000       0.068525         1.8647

MULLIKEN ATOMIC CHARGES
-----------------------
   0 C :   -0.112941
   1 C :   -0.060424
   2 C :   -0.029041
   3 C :   -0.177219
   4 S :    0.064866
   5 C :    0.030022
   6 C :    0.043350
   7 C :   -0.093830
   8 C :   -0.047943
   9 C :   -0.088997
  10 C :    0.013648
  11 S :    0.060821
  12 C :    0.029414
  13 C :    0.043515
  14 C :   -0.098846
  15 C :   -0.045164
  16 C :   -0.091147
  17 C :    0.016660
  18 S :    0.063016
  19 C :    0.029668
  20 C :    0.046034
  21 C :   -0.112865
  22 C :   -0.060504
  23 C :   -0.028992
  24 C :   -0.177265
  25 S :    0.064903
  26 C :    0.029973
  27 C :    0.043404
  28 C :   -0.098773
  29 C :   -0.044953
  30 C :   -0.091209
  31 C :    0.016506
  32 S :    0.062933
  33 C :    0.029655
  34 C :    0.045923
  35 C :   -0.093801
  36 C :   -0.047954
  37 C :   -0.088869
  38 C :    0.013448
  39 S :    0.060658
  40 C :    0.029424
  41 C :    0.043463
  42 C :    0.124678
  43 C :    0.124658
  44 H :   -0.036456
  45 H :    0.027750
  46 H :    0.027085
  47 H :    0.014956
  48 H :    0.009393
  49 H :    0.014806
  50 H :   -0.024271
  51 H :    0.027937
  52 H :    0.027511
  53 H :    0.015501
  54 H :    0.009508
  55 H :    0.015503
  56 H :   -0.023300
  57 H :    0.028497
  58 H :    0.027945
  59 H :    0.016169
  60 H :    0.009767
  61 H :    0.016089
  62 H :   -0.036464
  63 H :    0.027791
  64 H :    0.027128
  65 H :    0.014998
  66 H :    0.009392
  67 H :    0.014790
  68 H :   -0.023231
  69 H :    0.028477
  70 H :    0.027903
  71 H :    0.016122
  72 H :    0.009810
  73 H :    0.016100
  74 H :   -0.024232
  75 H :    0.027889
  76 H :    0.027540
  77 H :    0.015462
  78 H :    0.009532
  79 H :    0.015532
  80 H :    0.016494
  81 H :    0.029562
  82 H :    0.029527
  83 H :    0.016505
  84 H :    0.029638
  85 H :    0.029443
Sum of atomic charges:   -0.0000000

LOEWDIN ATOMIC CHARGES
----------------------
   0 C :   -0.190474
   1 C :   -0.062868
   2 C :   -0.079856
   3 C :   -0.180982
   4 S :    0.435240
   5 C :   -0.049572
   6 C :   -0.051738
   7 C :   -0.181692
   8 C :   -0.063069
   9 C :   -0.069506
  10 C :   -0.190483
  11 S :    0.451592
  12 C :   -0.048413
  13 C :   -0.051879
  14 C :   -0.184505
  15 C :   -0.060484
  16 C :   -0.070856
  17 C :   -0.187661
  18 S :    0.451276
  19 C :   -0.048972
  20 C :   -0.051546
  21 C :   -0.190489
  22 C :   -0.062878
  23 C :   -0.079849
  24 C :   -0.180970
  25 S :    0.435199
  26 C :   -0.049610
  27 C :   -0.051741
  28 C :   -0.184532
  29 C :   -0.060428
  30 C :   -0.070818
  31 C :   -0.187666
  32 S :    0.451560
  33 C :   -0.048929
  34 C :   -0.051543
  35 C :   -0.181688
  36 C :   -0.063065
  37 C :   -0.069460
  38 C :   -0.190491
  39 S :    0.451770
  40 C :   -0.048399
  41 C :   -0.051877
  42 C :   -0.059405
  43 C :   -0.059405
  44 H :    0.023644
  45 H :    0.024934
  46 H :    0.024693
  47 H :    0.023173
  48 H :    0.026344
  49 H :    0.023329
  50 H :    0.021671
  51 H :    0.025137
  52 H :    0.024678
  53 H :    0.023562
  54 H :    0.026445
  55 H :    0.023864
  56 H :    0.021772
  57 H :    0.025722
  58 H :    0.025025
  59 H :    0.023833
  60 H :    0.026631
  61 H :    0.024227
  62 H :    0.023644
  63 H :    0.024939
  64 H :    0.024666
  65 H :    0.023187
  66 H :    0.026344
  67 H :    0.023326
  68 H :    0.021821
  69 H :    0.025734
  70 H :    0.025063
  71 H :    0.023817
  72 H :    0.026651
  73 H :    0.024224
  74 H :    0.021712
  75 H :    0.025162
  76 H :    0.024664
  77 H :    0.023547
  78 H :    0.026453
  79 H :    0.023877
  80 H :    0.036287
  81 H :    0.035280
  82 H :    0.035259
  83 H :    0.036290
  84 H :    0.035308
  85 H :    0.035226

  Mayer bond orders larger than 0.100000
B(  0-C ,  1-C ) :   1.5421 B(  0-C ,  4-S ) :   1.1028 B(  0-C ,  7-C ) :   1.1463
B(  1-C ,  2-C ) :   1.2521 B(  1-C ,  5-C ) :   1.0591 B(  2-C ,  3-C ) :   1.5718
B(  2-C , 44-H ) :   0.9932 B(  3-C ,  4-S ) :   1.1276 B(  3-C , 43-C ) :   1.0630
B(  5-C ,  6-C ) :   1.1254 B(  5-C , 45-H ) :   0.9120 B(  5-C , 46-H ) :   0.9121
B(  6-C , 47-H ) :   0.9597 B(  6-C , 48-H ) :   0.9602 B(  6-C , 49-H ) :   0.9604
B(  7-C ,  8-C ) :   1.5206 B(  7-C , 11-S ) :   1.1028 B(  8-C ,  9-C ) :   1.2820
B(  8-C , 12-C ) :   1.0558 B(  9-C , 10-C ) :   1.4711 B(  9-C , 50-H ) :   0.9920
B( 10-C , 11-S ) :   1.1017 B( 10-C , 31-C ) :   1.1393 B( 12-C , 13-C ) :   1.1293
B( 12-C , 51-H ) :   0.9120 B( 12-C , 52-H ) :   0.9125 B( 13-C , 53-H ) :   0.9588
B( 13-C , 54-H ) :   0.9597 B( 13-C , 55-H ) :   0.9599 B( 14-C , 15-C ) :   1.5084
B( 14-C , 18-S ) :   1.0986 B( 14-C , 28-C ) :   1.1587 B( 15-C , 16-C ) :   1.2876
B( 15-C , 19-C ) :   1.0580 B( 16-C , 17-C ) :   1.4673 B( 16-C , 56-H ) :   0.9914
B( 17-C , 18-S ) :   1.1030 B( 17-C , 38-C ) :   1.1393 B( 19-C , 20-C ) :   1.1280
B( 19-C , 57-H ) :   0.9106 B( 19-C , 58-H ) :   0.9110 B( 20-C , 59-H ) :   0.9584
B( 20-C , 60-H ) :   0.9595 B( 20-C , 61-H ) :   0.9600 B( 21-C , 22-C ) :   1.5421
B( 21-C , 25-S ) :   1.1027 B( 21-C , 35-C ) :   1.1463 B( 22-C , 23-C ) :   1.2521
B( 22-C , 26-C ) :   1.0591 B( 23-C , 24-C ) :   1.5718 B( 23-C , 62-H ) :   0.9932
B( 24-C , 25-S ) :   1.1276 B( 24-C , 42-C ) :   1.0630 B( 26-C , 27-C ) :   1.1254
B( 26-C , 63-H ) :   0.9120 B( 26-C , 64-H ) :   0.9120 B( 27-C , 65-H ) :   0.9597
B( 27-C , 66-H ) :   0.9602 B( 27-C , 67-H ) :   0.9604 B( 28-C , 29-C ) :   1.5081
B( 28-C , 32-S ) :   1.0987 B( 29-C , 30-C ) :   1.2877 B( 29-C , 33-C ) :   1.0579
B( 30-C , 31-C ) :   1.4671 B( 30-C , 68-H ) :   0.9915 B( 31-C , 32-S ) :   1.1032
B( 33-C , 34-C ) :   1.1280 B( 33-C , 69-H ) :   0.9106 B( 33-C , 70-H ) :   0.9111
B( 34-C , 71-H ) :   0.9584 B( 34-C , 72-H ) :   0.9595 B( 34-C , 73-H ) :   0.9600
B( 35-C , 36-C ) :   1.5205 B( 35-C , 39-S ) :   1.1028 B( 36-C , 37-C ) :   1.2821
B( 36-C , 40-C ) :   1.0557 B( 37-C , 38-C ) :   1.4710 B( 37-C , 74-H ) :   0.9920
B( 38-C , 39-S ) :   1.1018 B( 40-C , 41-C ) :   1.1293 B( 40-C , 75-H ) :   0.9120
B( 40-C , 76-H ) :   0.9125 B( 41-C , 77-H ) :   0.9588 B( 41-C , 78-H ) :   0.9597
B( 41-C , 79-H ) :   0.9599 B( 42-C , 80-H ) :   0.9553 B( 42-C , 81-H ) :   0.9512
B( 42-C , 82-H ) :   0.9513 B( 43-C , 83-H ) :   0.9553 B( 43-C , 84-H ) :   0.9512
B( 43-C , 85-H ) :   0.9512

-----------------------------------------------------------------------------
         ABSORPTION SPECTRUM VIA TRANSITION ELECTRIC DIPOLE MOMENTS
-----------------------------------------------------------------------------
State   Energy  Wavelength   fosc         T2         TX        TY        TZ
        (cm-1)    (nm)                  (au**2)     (au)      (au)      (au)
-----------------------------------------------------------------------------
   0   21666.3    461.5   2.364060892  35.92115  -3.76356   4.66436   0.02127
   1   28812.3    347.1   0.000107308   0.00123  -0.00205  -0.00035   0.03495
   2   29251.2    341.9   0.000030271   0.00034   0.00091  -0.00010  -0.01843
   3   34052.2    293.7   0.001779948   0.01721  -0.09455   0.09093   0.00060
   4   35709.5    280.0   0.387067774   3.56844   1.44808  -1.21304  -0.00762
   5   38670.5    258.6   0.032306830   0.27504   0.34985  -0.39069  -0.00234

FINAL SINGLE POINT ENERGY     -3859.844937179237

DIPOLE MOMENT
-------------
                                X             Y             Z
Electronic contribution:      0.00520      -0.01227       1.77715
Nuclear contribution   :     -0.00435       0.01218      -1.83873
                        -----------------------------------------
Total Dipole Moment    :      0.00085      -0.00010      -0.06158
                        -----------------------------------------
Magnitude (a.u.)       :      0.06158
Magnitude (Debye)      :      0.15653

Rotational constants in cm-1:     0.006266     0.000502     0.000465
Rotational constants in MHz :   187.841884    15.036031    13.939437

                             ****ORCA TERMINATED NORMALLY****
TOTAL RUN TIME: 0 days 0 hours 31 minutes 29 seconds 178 msec
