                         Program Version 4.2.0 -  RELEASE  -
|  1> # ORCA input file
|  2> # AQx-2.out
|  3> ! Engrad Keepdens
|  4> %maxcore 1000
|  5> %tddft
|  6>   nroots 3
|  7>   # nroots is the number of states to be computed
|  8>   Iroot 1
|  9>   end
| 10> * xyz 0 1
| 11>    C        4.92510         2.24815        -1.47993
| 12>    O        5.92084         1.77685        -2.00086
| 13>    C        4.04849         3.28400        -2.06674
| 14>    C        4.16400         3.91317        -3.29009
| 15>    C        3.20815         4.86178        -3.61648
| 16>    F        3.27963         5.49723        -4.79264
| 17>    C        2.17310         5.16060        -2.73060
| 18>    F        1.26434         6.08145        -3.07084
| 19>    C        2.05832         4.52717        -1.50139
| 20>    C        3.00957         3.57628        -1.16755
| 21>    C        3.17153         2.74183         0.02534
| 22>    C        2.33468         2.75600         1.11202
| 23>    C        2.46642         1.95874         2.26835
| 24>    N        2.49907         1.34649         3.24012
| 25>    C        1.20179         3.58974         1.22615
| 26>    N        0.26925         4.24039         1.38307
| 27>    C        4.35218         1.92780        -0.17388
| 28>    C        4.84568         1.01252         0.72927
| 29>    C        5.95722         0.17201         0.67051
| 30>    S        7.09011         0.08229        -0.68206
| 31>    C        7.99634        -1.12729         0.14255
| 32>    C        7.44379        -1.43742         1.40008
| 33>    C        6.30217        -0.71417         1.71014
| 34>    C        5.53180        -0.92320         2.97212
| 35>    C        4.38269        -1.91084         2.74941
| 36>    S        8.34443        -2.65815         2.28148
| 37>    C        9.45591        -2.74146         0.96279
| 38>    C        9.14286        -1.88629        -0.10066
| 39>    N       10.06978        -2.02117        -1.10368
| 40>    C       10.20867        -0.93585        -2.05174
| 41>    C       11.15940         0.13288        -1.51668
| 42>    C       10.99950        -2.95622        -0.68468
| 43>    C       10.64342        -3.40373         0.62075
| 44>    C       11.44106        -4.27930         1.40352
| 45>    N       11.05215        -4.65113         2.62805
| 46>    C       11.88054        -5.41637         3.30519
| 47>    C       13.11397        -5.82346         2.78257
| 48>    N       13.51086        -5.47947         1.57651
| 49>    C       12.67949        -4.70824         0.86697
| 50>    C       12.98818        -4.34023        -0.46868
| 51>    C       12.13939        -3.54053        -1.28812
| 52>    N       12.65867        -3.51847        -2.56615
| 53>    C       12.07481        -3.11870        -3.82569
| 54>    C       12.72114        -1.85015        -4.37895
| 55>    C       13.82175        -4.23985        -2.55889
| 56>    C       14.06105        -4.74447        -1.27596
| 57>    S       15.49679        -5.69492        -1.15849
| 58>    C       15.78924        -5.42777        -2.86294
| 59>    C       14.79370        -4.65032        -3.47438
| 60>    S       15.07685        -4.49109        -5.16230
| 61>    C       16.58155        -5.39821        -5.02424
| 62>    C       16.81123        -5.84361        -3.72561
| 63>    C       17.89187        -6.78784        -3.30054
| 64>    C       18.71817        -6.25527        -2.12888
| 65>    C       17.27238        -5.63288        -6.23447
| 66>    C       18.60349        -5.81190        -6.47493
| 67>    C       19.78356        -5.50264        -5.70173
| 68>    C       19.89575        -4.51652        -4.75718
| 69>    C       21.10150        -4.18542        -4.10583
| 70>    N       22.05108        -3.89134        -3.53252
| 71>    C       18.82974        -3.67110        -4.38847
| 72>    N       18.00350        -2.93554        -4.08231
| 73>    C       20.90247        -6.22324        -6.30949
| 74>    C       22.20940        -6.39777        -5.88553
| 75>    C       23.06446        -7.12233        -6.70291
| 76>    F       24.32721        -7.31740        -6.30872
| 77>    C       22.63733        -7.65436        -7.92031
| 78>    F       23.49888        -8.34096        -8.67962
| 79>    C       21.33050        -7.48349        -8.34940
| 80>    C       20.47518        -6.77233        -7.53141
| 81>    C       19.03771        -6.47185        -7.73180
| 82>    O       18.35132        -6.74132        -8.68937
| 83>    H        4.96684         3.67926        -3.97090
| 84>    H        1.23942         4.79609        -0.85475
| 85>    H        4.28672         0.91526         1.64979
| 86>    H        5.13145         0.01817         3.35087
| 87>    H        6.21176        -1.33273         3.72166
| 88>    H        3.68558        -1.53057         2.00654
| 89>    H        3.84391        -2.06216         3.68013
| 90>    H        4.76817        -2.86857         2.40782
| 91>    H        9.21270        -0.50696        -2.18795
| 92>    H       10.55308        -1.29674        -3.01537
| 93>    H       10.78373         0.53594        -0.57923
| 94>    H       11.24255         0.94554        -2.23274
| 95>    H       12.14808        -0.28600        -1.33867
| 96>    H       11.55811        -5.71421         4.29316
| 97>    H       13.79250        -6.44424         3.35091
| 98>    H       10.99608        -3.01661        -3.70066
| 99>    H       12.24529        -3.93482        -4.53691
|100>    H       12.23074        -1.56109        -5.30410
|101>    H       13.77122        -2.03252        -4.59042
|102>    H       12.65633        -1.02765        -3.67255
|103>    H       18.53892        -7.01998        -4.14683
|104>    H       17.41164        -7.71968        -2.98520
|105>    H       19.11925        -5.26764        -2.34070
|106>    H       19.54693        -6.92906        -1.92664
|107>    H       18.10660        -6.18289        -1.23390
|108>    H       16.64309        -5.72598        -7.11614
|109>    H       22.58139        -6.00685        -4.95234
|110>    H       20.99973        -7.89444        -9.28987
|111> *
|112>
|113>                          ****END OF INPUT****

CARTESIAN COORDINATES (ANGSTROEM)
---------------------------------
  C      4.925100    2.248150   -1.479930
  O      5.920840    1.776850   -2.000860
  C      4.048490    3.284000   -2.066740
  C      4.164000    3.913170   -3.290090
  C      3.208150    4.861780   -3.616480
  F      3.279630    5.497230   -4.792640
  C      2.173100    5.160600   -2.730600
  F      1.264340    6.081450   -3.070840
  C      2.058320    4.527170   -1.501390
  C      3.009570    3.576280   -1.167550
  C      3.171530    2.741830    0.025340
  C      2.334680    2.756000    1.112020
  C      2.466420    1.958740    2.268350
  N      2.499070    1.346490    3.240120
  C      1.201790    3.589740    1.226150
  N      0.269250    4.240390    1.383070
  C      4.352180    1.927800   -0.173880
  C      4.845680    1.012520    0.729270
  C      5.957220    0.172010    0.670510
  S      7.090110    0.082290   -0.682060
  C      7.996340   -1.127290    0.142550
  C      7.443790   -1.437420    1.400080
  C      6.302170   -0.714170    1.710140
  C      5.531800   -0.923200    2.972120
  C      4.382690   -1.910840    2.749410
  S      8.344430   -2.658150    2.281480
  C      9.455910   -2.741460    0.962790
  C      9.142860   -1.886290   -0.100660
  N     10.069780   -2.021170   -1.103680
  C     10.208670   -0.935850   -2.051740
  C     11.159400    0.132880   -1.516680
  C     10.999500   -2.956220   -0.684680
  C     10.643420   -3.403730    0.620750
  C     11.441060   -4.279300    1.403520
  N     11.052150   -4.651130    2.628050
  C     11.880540   -5.416370    3.305190
  C     13.113970   -5.823460    2.782570
  N     13.510860   -5.479470    1.576510
  C     12.679490   -4.708240    0.866970
  C     12.988180   -4.340230   -0.468680
  C     12.139390   -3.540530   -1.288120
  N     12.658670   -3.518470   -2.566150
  C     12.074810   -3.118700   -3.825690
  C     12.721140   -1.850150   -4.378950
  C     13.821750   -4.239850   -2.558890
  C     14.061050   -4.744470   -1.275960
  S     15.496790   -5.694920   -1.158490
  C     15.789240   -5.427770   -2.862940
  C     14.793700   -4.650320   -3.474380
  S     15.076850   -4.491090   -5.162300
  C     16.581550   -5.398210   -5.024240
  C     16.811230   -5.843610   -3.725610
  C     17.891870   -6.787840   -3.300540
  C     18.718170   -6.255270   -2.128880
  C     17.272380   -5.632880   -6.234470
  C     18.603490   -5.811900   -6.474930
  C     19.783560   -5.502640   -5.701730
  C     19.895750   -4.516520   -4.757180
  C     21.101500   -4.185420   -4.105830
  N     22.051080   -3.891340   -3.532520
  C     18.829740   -3.671100   -4.388470
  N     18.003500   -2.935540   -4.082310
  C     20.902470   -6.223240   -6.309490
  C     22.209400   -6.397770   -5.885530
  C     23.064460   -7.122330   -6.702910
  F     24.327210   -7.317400   -6.308720
  C     22.637330   -7.654360   -7.920310
  F     23.498880   -8.340960   -8.679620
  C     21.330500   -7.483490   -8.349400
  C     20.475180   -6.772330   -7.531410
  C     19.037710   -6.471850   -7.731800
  O     18.351320   -6.741320   -8.689370
  H      4.966840    3.679260   -3.970900
  H      1.239420    4.796090   -0.854750
  H      4.286720    0.915260    1.649790
  H      5.131450    0.018170    3.350870
  H      6.211760   -1.332730    3.721660
  H      3.685580   -1.530570    2.006540
  H      3.843910   -2.062160    3.680130
  H      4.768170   -2.868570    2.407820
  H      9.212700   -0.506960   -2.187950
  H     10.553080   -1.296740   -3.015370
  H     10.783730    0.535940   -0.579230
  H     11.242550    0.945540   -2.232740
  H     12.148080   -0.286000   -1.338670
  H     11.558110   -5.714210    4.293160
  H     13.792500   -6.444240    3.350910
  H     10.996080   -3.016610   -3.700660
  H     12.245290   -3.934820   -4.536910
  H     12.230740   -1.561090   -5.304100
  H     13.771220   -2.032520   -4.590420
  H     12.656330   -1.027650   -3.672550
  H     18.538920   -7.019980   -4.146830
  H     17.411640   -7.719680   -2.985200
  H     19.119250   -5.267640   -2.340700
  H     19.546930   -6.929060   -1.926640
  H     18.106600   -6.182890   -1.233900
  H     16.643090   -5.725980   -7.116140
  H     22.581390   -6.006850   -4.952340
  H     20.999730   -7.894440   -9.289870

 Total Charge           Charge          ....    0
 Multiplicity           Mult            ....    1
 Number of Electrons    NEL             ....  524
 Basis Dimension        Dim             .... 1164

ORBITAL ENERGIES
----------------

  NO   OCC          E(Eh)            E(eV)
   0   2.0000     -91.982551     -2502.9725
   1   2.0000     -91.973922     -2502.7377
   2   2.0000     -91.973732     -2502.7325
   3   2.0000     -91.972659     -2502.7033
   4   2.0000     -26.339251      -716.7275
   5   2.0000     -26.338753      -716.7139
   6   2.0000     -26.335244      -716.6184
   7   2.0000     -26.332630      -716.5473
   8   2.0000     -20.572645      -559.8101
   9   2.0000     -20.569661      -559.7289
  10   2.0000     -15.651009      -425.8856
  11   2.0000     -15.647642      -425.7940
  12   2.0000     -15.602642      -424.5695
  13   2.0000     -15.602516      -424.5660
  14   2.0000     -15.597646      -424.4335
  15   2.0000     -15.594631      -424.3515
  16   2.0000     -15.594152      -424.3384
  17   2.0000     -15.586390      -424.1272
  18   2.0000     -11.383369      -309.7572
  19   2.0000     -11.381996      -309.7199
  20   2.0000     -11.377524      -309.5982
  21   2.0000     -11.375945      -309.5552
  22   2.0000     -11.370843      -309.4164
  23   2.0000     -11.368165      -309.3435
  24   2.0000     -11.347907      -308.7923
  25   2.0000     -11.342681      -308.6500
  26   2.0000     -11.329335      -308.2869
  27   2.0000     -11.329301      -308.2860
  28   2.0000     -11.327190      -308.2285
  29   2.0000     -11.324688      -308.1604
  30   2.0000     -11.319884      -308.0297
  31   2.0000     -11.317682      -307.9698
  32   2.0000     -11.314835      -307.8923
  33   2.0000     -11.311787      -307.8094
  34   2.0000     -11.310084      -307.7630
  35   2.0000     -11.309181      -307.7385
  36   2.0000     -11.308093      -307.7088
  37   2.0000     -11.307073      -307.6811
  38   2.0000     -11.306480      -307.6650
  39   2.0000     -11.306207      -307.6575
  40   2.0000     -11.304122      -307.6008
  41   2.0000     -11.303738      -307.5903
  42   2.0000     -11.303058      -307.5719
  43   2.0000     -11.303018      -307.5708
  44   2.0000     -11.302554      -307.5581
  45   2.0000     -11.302489      -307.5564
  46   2.0000     -11.301349      -307.5253
  47   2.0000     -11.301056      -307.5174
  48   2.0000     -11.300935      -307.5141
  49   2.0000     -11.300678      -307.5071
  50   2.0000     -11.299596      -307.4776
  51   2.0000     -11.299485      -307.4746
  52   2.0000     -11.298141      -307.4380
  53   2.0000     -11.295434      -307.3644
  54   2.0000     -11.294520      -307.3395
  55   2.0000     -11.294383      -307.3358
  56   2.0000     -11.293620      -307.3150
  57   2.0000     -11.292255      -307.2779
  58   2.0000     -11.291331      -307.2527
  59   2.0000     -11.288073      -307.1641
  60   2.0000     -11.286874      -307.1315
  61   2.0000     -11.286457      -307.1201
  62   2.0000     -11.281664      -306.9897
  63   2.0000     -11.271353      -306.7091
  64   2.0000     -11.271238      -306.7060
  65   2.0000     -11.270333      -306.6813
  66   2.0000     -11.266845      -306.5864
  67   2.0000     -11.261617      -306.4442
  68   2.0000     -11.255685      -306.2828
  69   2.0000     -11.251869      -306.1789
  70   2.0000     -11.244934      -305.9902
  71   2.0000     -11.240597      -305.8722
  72   2.0000      -9.017698      -245.3840
  73   2.0000      -9.008196      -245.1255
  74   2.0000      -9.007292      -245.1009
  75   2.0000      -9.007063      -245.0947
  76   2.0000      -6.705355      -182.4620
  77   2.0000      -6.704269      -182.4324
  78   2.0000      -6.702170      -182.3753
  79   2.0000      -6.695713      -182.1996
  80   2.0000      -6.694899      -182.1775
  81   2.0000      -6.694585      -182.1689
  82   2.0000      -6.694520      -182.1671
  83   2.0000      -6.693779      -182.1470
  84   2.0000      -6.693139      -182.1296
  85   2.0000      -6.692593      -182.1147
  86   2.0000      -6.691450      -182.0836
  87   2.0000      -6.691077      -182.0735
  88   2.0000      -1.649403       -44.8825
  89   2.0000      -1.644123       -44.7389
  90   2.0000      -1.634473       -44.4763
  91   2.0000      -1.629160       -44.3317
  92   2.0000      -1.405326       -38.2409
  93   2.0000      -1.403621       -38.1945
  94   2.0000      -1.357146       -36.9298
  95   2.0000      -1.341168       -36.4950
  96   2.0000      -1.322018       -35.9739
  97   2.0000      -1.259930       -34.2844
  98   2.0000      -1.253637       -34.1132
  99   2.0000      -1.237399       -33.6713
 100   2.0000      -1.235672       -33.6244
 101   2.0000      -1.234216       -33.5847
 102   2.0000      -1.233525       -33.5659
 103   2.0000      -1.230122       -33.4733
 104   2.0000      -1.228676       -33.4340
 105   2.0000      -1.225724       -33.3536
 106   2.0000      -1.180963       -32.1356
 107   2.0000      -1.175704       -31.9925
 108   2.0000      -1.171043       -31.8657
 109   2.0000      -1.158158       -31.5151
 110   2.0000      -1.149101       -31.2686
 111   2.0000      -1.114023       -30.3141
 112   2.0000      -1.107826       -30.1455
 113   2.0000      -1.101424       -29.9713
 114   2.0000      -1.094022       -29.7699
 115   2.0000      -1.089300       -29.6414
 116   2.0000      -1.085484       -29.5375
 117   2.0000      -1.078673       -29.3522
 118   2.0000      -1.076203       -29.2850
 119   2.0000      -1.072731       -29.1905
 120   2.0000      -1.068443       -29.0738
 121   2.0000      -1.043514       -28.3955
 122   2.0000      -1.035440       -28.1758
 123   2.0000      -1.014677       -27.6108
 124   2.0000      -1.013510       -27.5790
 125   2.0000      -1.007574       -27.4175
 126   2.0000      -0.996115       -27.1057
 127   2.0000      -0.974787       -26.5253
 128   2.0000      -0.963469       -26.2173
 129   2.0000      -0.961174       -26.1549
 130   2.0000      -0.948640       -25.8138
 131   2.0000      -0.943901       -25.6849
 132   2.0000      -0.937701       -25.5161
 133   2.0000      -0.929636       -25.2967
 134   2.0000      -0.924305       -25.1516
 135   2.0000      -0.907285       -24.6885
 136   2.0000      -0.893166       -24.3043
 137   2.0000      -0.885547       -24.0970
 138   2.0000      -0.876934       -23.8626
 139   2.0000      -0.871689       -23.7199
 140   2.0000      -0.871228       -23.7073
 141   2.0000      -0.864253       -23.5175
 142   2.0000      -0.860667       -23.4199
 143   2.0000      -0.849457       -23.1149
 144   2.0000      -0.832349       -22.6494
 145   2.0000      -0.825038       -22.4504
 146   2.0000      -0.815023       -22.1779
 147   2.0000      -0.808238       -21.9933
 148   2.0000      -0.800470       -21.7819
 149   2.0000      -0.796743       -21.6805
 150   2.0000      -0.791316       -21.5328
 151   2.0000      -0.788189       -21.4477
 152   2.0000      -0.785643       -21.3784
 153   2.0000      -0.784080       -21.3359
 154   2.0000      -0.774130       -21.0651
 155   2.0000      -0.757496       -20.6125
 156   2.0000      -0.755029       -20.5454
 157   2.0000      -0.751555       -20.4508
 158   2.0000      -0.746548       -20.3146
 159   2.0000      -0.746047       -20.3010
 160   2.0000      -0.741322       -20.1724
 161   2.0000      -0.738907       -20.1067
 162   2.0000      -0.735225       -20.0065
 163   2.0000      -0.733755       -19.9665
 164   2.0000      -0.723751       -19.6943
 165   2.0000      -0.719573       -19.5806
 166   2.0000      -0.718226       -19.5439
 167   2.0000      -0.714440       -19.4409
 168   2.0000      -0.713203       -19.4072
 169   2.0000      -0.705801       -19.2058
 170   2.0000      -0.702282       -19.1101
 171   2.0000      -0.697996       -18.9934
 172   2.0000      -0.691919       -18.8281
 173   2.0000      -0.684799       -18.6343
 174   2.0000      -0.678286       -18.4571
 175   2.0000      -0.677350       -18.4316
 176   2.0000      -0.675004       -18.3678
 177   2.0000      -0.671600       -18.2752
 178   2.0000      -0.669913       -18.2293
 179   2.0000      -0.663671       -18.0594
 180   2.0000      -0.662122       -18.0173
 181   2.0000      -0.659446       -17.9444
 182   2.0000      -0.655087       -17.8258
 183   2.0000      -0.643910       -17.5217
 184   2.0000      -0.640946       -17.4410
 185   2.0000      -0.639582       -17.4039
 186   2.0000      -0.636323       -17.3152
 187   2.0000      -0.632428       -17.2092
 188   2.0000      -0.630551       -17.1582
 189   2.0000      -0.628143       -17.0926
 190   2.0000      -0.627141       -17.0654
 191   2.0000      -0.623880       -16.9766
 192   2.0000      -0.623731       -16.9726
 193   2.0000      -0.621755       -16.9188
 194   2.0000      -0.618276       -16.8242
 195   2.0000      -0.612702       -16.6725
 196   2.0000      -0.610134       -16.6026
 197   2.0000      -0.607902       -16.5418
 198   2.0000      -0.605735       -16.4829
 199   2.0000      -0.602102       -16.3840
 200   2.0000      -0.592100       -16.1119
 201   2.0000      -0.586130       -15.9494
 202   2.0000      -0.582955       -15.8630
 203   2.0000      -0.582387       -15.8476
 204   2.0000      -0.580055       -15.7841
 205   2.0000      -0.579733       -15.7753
 206   2.0000      -0.579133       -15.7590
 207   2.0000      -0.578262       -15.7353
 208   2.0000      -0.577364       -15.7109
 209   2.0000      -0.573890       -15.6163
 210   2.0000      -0.571305       -15.5460
 211   2.0000      -0.569209       -15.4890
 212   2.0000      -0.567188       -15.4340
 213   2.0000      -0.563294       -15.3280
 214   2.0000      -0.561493       -15.2790
 215   2.0000      -0.559531       -15.2256
 216   2.0000      -0.555062       -15.1040
 217   2.0000      -0.553818       -15.0701
 218   2.0000      -0.549271       -14.9464
 219   2.0000      -0.545791       -14.8517
 220   2.0000      -0.540864       -14.7177
 221   2.0000      -0.540353       -14.7038
 222   2.0000      -0.538844       -14.6627
 223   2.0000      -0.535180       -14.5630
 224   2.0000      -0.530554       -14.4371
 225   2.0000      -0.527359       -14.3502
 226   2.0000      -0.524637       -14.2761
 227   2.0000      -0.517704       -14.0874
 228   2.0000      -0.513053       -13.9609
 229   2.0000      -0.511052       -13.9064
 230   2.0000      -0.510695       -13.8967
 231   2.0000      -0.508646       -13.8410
 232   2.0000      -0.503372       -13.6974
 233   2.0000      -0.499906       -13.6031
 234   2.0000      -0.499032       -13.5793
 235   2.0000      -0.497187       -13.5291
 236   2.0000      -0.489711       -13.3257
 237   2.0000      -0.488134       -13.2828
 238   2.0000      -0.483499       -13.1567
 239   2.0000      -0.478657       -13.0249
 240   2.0000      -0.476522       -12.9668
 241   2.0000      -0.475450       -12.9377
 242   2.0000      -0.469320       -12.7708
 243   2.0000      -0.462910       -12.5964
 244   2.0000      -0.456565       -12.4238
 245   2.0000      -0.450523       -12.2594
 246   2.0000      -0.434199       -11.8151
 247   2.0000      -0.424454       -11.5500
 248   2.0000      -0.418663       -11.3924
 249   2.0000      -0.412615       -11.2278
 250   2.0000      -0.397970       -10.8293
 251   2.0000      -0.393711       -10.7134
 252   2.0000      -0.387877       -10.5547
 253   2.0000      -0.386640       -10.5210
 254   2.0000      -0.364290        -9.9128
 255   2.0000      -0.359563        -9.7842
 256   2.0000      -0.352251        -9.5852
 257   2.0000      -0.346370        -9.4252
 258   2.0000      -0.330269        -8.9871
 259   2.0000      -0.306344        -8.3360
 260   2.0000      -0.306074        -8.3287
 261   2.0000      -0.258237        -7.0270
 262   0.0000      -0.030404        -0.8273
 263   0.0000      -0.017388        -0.4732
 264   0.0000       0.010741         0.2923
 265   0.0000       0.016338         0.4446
 266   0.0000       0.040467         1.1012

MULLIKEN ATOMIC CHARGES
-----------------------
   0 C :    0.534027
   1 O :   -0.404289
   2 C :   -0.172450
   3 C :   -0.033381
   4 C :    0.345427
   5 F :   -0.313095
   6 C :    0.353532
   7 F :   -0.309539
   8 C :   -0.052356
   9 C :   -0.030072
  10 C :    0.269108
  11 C :   -0.389060
  12 C :    0.038422
  13 N :   -0.082777
  14 C :    0.030830
  15 N :   -0.068447
  16 C :   -0.333467
  17 C :    0.084902
  18 C :   -0.163996
  19 S :    0.231971
  20 C :    0.017481
  21 C :   -0.111920
  22 C :   -0.099676
  23 C :   -0.012353
  24 C :    0.000488
  25 S :    0.235394
  26 C :    0.018308
  27 C :    0.095547
  28 N :   -0.583846
  29 C :    0.123173
  30 C :   -0.042201
  31 C :    0.258041
  32 C :   -0.198230
  33 C :    0.103622
  34 N :   -0.293811
  35 C :    0.097986
  36 C :    0.098263
  37 N :   -0.294318
  38 C :    0.101587
  39 C :   -0.192626
  40 C :    0.249970
  41 N :   -0.588312
  42 C :    0.104940
  43 C :   -0.037013
  44 C :    0.130885
  45 C :    0.005428
  46 S :    0.227213
  47 C :   -0.102649
  48 C :   -0.009734
  49 S :    0.193025
  50 C :   -0.280424
  51 C :   -0.075067
  52 C :    0.022289
  53 C :   -0.043061
  54 C :    0.214101
  55 C :   -0.343741
  56 C :    0.212221
  57 C :   -0.370721
  58 C :    0.039744
  59 N :   -0.055084
  60 C :    0.038767
  61 N :   -0.043892
  62 C :   -0.044397
  63 C :   -0.051965
  64 C :    0.353766
  65 F :   -0.308076
  66 C :    0.343317
  67 F :   -0.310906
  68 C :   -0.028535
  69 C :   -0.156528
  70 C :    0.473526
  71 O :   -0.346553
  72 H :    0.075466
  73 H :    0.096886
  74 H :    0.079003
  75 H :    0.071976
  76 H :    0.055975
  77 H :    0.034970
  78 H :    0.056733
  79 H :    0.038595
  80 H :    0.075190
  81 H :    0.042592
  82 H :    0.054685
  83 H :    0.049275
  84 H :    0.050999
  85 H :    0.059876
  86 H :    0.059664
  87 H :    0.063562
  88 H :    0.062655
  89 H :    0.047043
  90 H :    0.063110
  91 H :    0.043712
  92 H :    0.056712
  93 H :    0.069879
  94 H :    0.056413
  95 H :    0.046454
  96 H :    0.057088
  97 H :    0.089138
  98 H :    0.092768
  99 H :    0.080846
Sum of atomic charges:    0.0000000

LOEWDIN ATOMIC CHARGES
----------------------
   0 C :    0.168637
   1 O :   -0.261087
   2 C :   -0.050681
   3 C :    0.008411
   4 C :    0.122528
   5 F :   -0.111203
   6 C :    0.123624
   7 F :   -0.109006
   8 C :   -0.000989
   9 C :   -0.022774
  10 C :    0.124162
  11 C :   -0.186197
  12 C :    0.016626
  13 N :   -0.103227
  14 C :    0.011771
  15 N :   -0.096578
  16 C :   -0.184143
  17 C :    0.118619
  18 C :   -0.224489
  19 S :    0.462274
  20 C :   -0.162092
  21 C :   -0.217246
  22 C :    0.026797
  23 C :   -0.013882
  24 C :   -0.015533
  25 S :    0.409760
  26 C :   -0.150747
  27 C :   -0.032832
  28 N :   -0.032973
  29 C :    0.076791
  30 C :   -0.034956
  31 C :    0.045429
  32 C :   -0.079856
  33 C :    0.003692
  34 N :   -0.085671
  35 C :    0.023402
  36 C :    0.023722
  37 N :   -0.085921
  38 C :    0.003877
  39 C :   -0.074977
  40 C :    0.038067
  41 N :   -0.026322
  42 C :    0.073549
  43 C :   -0.039220
  44 C :   -0.019685
  45 C :   -0.166269
  46 S :    0.425342
  47 C :   -0.196209
  48 C :   -0.171788
  49 S :    0.417227
  50 C :   -0.211824
  51 C :    0.001497
  52 C :   -0.012723
  53 C :   -0.025592
  54 C :    0.110287
  55 C :   -0.152520
  56 C :    0.102086
  57 C :   -0.164865
  58 C :    0.008646
  59 N :   -0.085779
  60 C :    0.009172
  61 N :   -0.079960
  62 C :   -0.021451
  63 C :   -0.005681
  64 C :    0.126972
  65 F :   -0.107294
  66 C :    0.122119
  67 F :   -0.109381
  68 C :    0.012779
  69 C :   -0.055292
  70 C :    0.164897
  71 O :   -0.226283
  72 H :    0.054556
  73 H :    0.054988
  74 H :    0.047485
  75 H :    0.032303
  76 H :    0.026477
  77 H :    0.017407
  78 H :    0.026931
  79 H :    0.019177
  80 H :    0.022216
  81 H :    0.015814
  82 H :    0.025672
  83 H :    0.025254
  84 H :    0.020786
  85 H :    0.027449
  86 H :    0.027359
  87 H :    0.021878
  88 H :    0.021481
  89 H :    0.025637
  90 H :    0.020527
  91 H :    0.020342
  92 H :    0.021729
  93 H :    0.035408
  94 H :    0.021184
  95 H :    0.023844
  96 H :    0.013183
  97 H :    0.052261
  98 H :    0.054378
  99 H :    0.056717

  Mayer bond orders larger than 0.100000
B(  0-C ,  1-O ) :   1.9923 B(  0-C ,  2-C ) :   0.9863 B(  0-C , 16-C ) :   1.0030
B(  2-C ,  3-C ) :   1.3922 B(  2-C ,  9-C ) :   1.3717 B(  3-C ,  4-C ) :   1.3748
B(  3-C , 72-H ) :   1.0142 B(  4-C ,  5-F ) :   0.9338 B(  4-C ,  6-C ) :   1.3428
B(  6-C ,  7-F ) :   0.9437 B(  6-C ,  8-C ) :   1.3992 B(  8-C ,  9-C ) :   1.3792
B(  8-C , 73-H ) :   0.9901 B(  9-C , 10-C ) :   1.0367 B( 10-C , 11-C ) :   1.6492
B( 10-C , 16-C ) :   1.1422 B( 11-C , 12-C ) :   1.0752 B( 11-C , 14-C ) :   1.0672
B( 12-C , 13-N ) :   2.9718 B( 14-C , 15-N ) :   2.9835 B( 16-C , 17-C ) :   1.5292
B( 17-C , 18-C ) :   1.3687 B( 17-C , 74-H ) :   0.9584 B( 18-C , 19-S ) :   1.0171
B( 18-C , 22-C ) :   1.4329 B( 19-S , 20-C ) :   1.0225 B( 20-C , 21-C ) :   1.4521
B( 20-C , 27-C ) :   1.3780 B( 21-C , 22-C ) :   1.5242 B( 21-C , 25-S ) :   0.9721
B( 22-C , 23-C ) :   0.9818 B( 23-C , 24-C ) :   1.0397 B( 23-C , 75-H ) :   0.9581
B( 23-C , 76-H ) :   0.9672 B( 24-C , 77-H ) :   0.9853 B( 24-C , 78-H ) :   0.9861
B( 24-C , 79-H ) :   0.9816 B( 25-S , 26-C ) :   0.9965 B( 26-C , 27-C ) :   1.4650
B( 26-C , 32-C ) :   1.4097 B( 27-C , 28-N ) :   1.0723 B( 28-N , 29-C ) :   0.8664
B( 28-N , 31-C ) :   1.0992 B( 29-C , 30-C ) :   1.0418 B( 29-C , 80-H ) :   0.9754
B( 29-C , 81-H ) :   0.9797 B( 30-C , 82-H ) :   0.9795 B( 30-C , 83-H ) :   0.9844
B( 30-C , 84-H ) :   0.9776 B( 31-C , 32-C ) :   1.4268 B( 31-C , 40-C ) :   1.1922
B( 32-C , 33-C ) :   1.1501 B( 33-C , 34-N ) :   1.4901 B( 33-C , 38-C ) :   1.2316
B( 34-N , 35-C ) :   1.5563 B( 35-C , 36-C ) :   1.2886 B( 35-C , 85-H ) :   0.9953
B( 36-C , 37-N ) :   1.5568 B( 36-C , 86-H ) :   0.9952 B( 37-N , 38-C ) :   1.4886
B( 38-C , 39-C ) :   1.1526 B( 39-C , 40-C ) :   1.4193 B( 39-C , 45-C ) :   1.4144
B( 40-C , 41-N ) :   1.1020 B( 41-N , 42-C ) :   0.8435 B( 41-N , 44-C ) :   1.0843
B( 42-C , 43-C ) :   1.0356 B( 42-C , 87-H ) :   0.9850 B( 42-C , 88-H ) :   0.9789
B( 43-C , 89-H ) :   0.9836 B( 43-C , 90-H ) :   0.9770 B( 43-C , 91-H ) :   0.9810
B( 44-C , 45-C ) :   1.4707 B( 44-C , 48-C ) :   1.3472 B( 45-C , 46-S ) :   0.9984
B( 46-S , 47-C ) :   0.9972 B( 47-C , 48-C ) :   1.5199 B( 47-C , 51-C ) :   1.3978
B( 48-C , 49-S ) :   1.0392 B( 49-S , 50-C ) :   1.0715 B( 50-C , 51-C ) :   1.5805
B( 50-C , 54-C ) :   1.1384 B( 51-C , 52-C ) :   0.9748 B( 52-C , 53-C ) :   1.0360
B( 52-C , 92-H ) :   0.9688 B( 52-C , 93-H ) :   0.9620 B( 53-C , 94-H ) :   0.9828
B( 53-C , 95-H ) :   0.9855 B( 53-C , 96-H ) :   0.9795 B( 54-C , 55-C ) :   1.7129
B( 54-C , 97-H ) :   0.9443 B( 55-C , 56-C ) :   1.0862 B( 55-C , 70-C ) :   0.9901
B( 56-C , 57-C ) :   1.7025 B( 56-C , 62-C ) :   1.0427 B( 57-C , 58-C ) :   1.0534
B( 57-C , 60-C ) :   1.0860 B( 58-C , 59-N ) :   2.9955 B( 60-C , 61-N ) :   3.0072
B( 62-C , 63-C ) :   1.3801 B( 62-C , 69-C ) :   1.3651 B( 63-C , 64-C ) :   1.4037
B( 63-C , 98-H ) :   0.9940 B( 64-C , 65-F ) :   0.9432 B( 64-C , 66-C ) :   1.3373
B( 66-C , 67-F ) :   0.9365 B( 66-C , 68-C ) :   1.3828 B( 68-C , 69-C ) :   1.3862
B( 68-C , 99-H ) :   1.0135 B( 69-C , 70-C ) :   0.9466 B( 70-C , 71-O ) :   2.1112

-----------------------------------------------------------------------------
         ABSORPTION SPECTRUM VIA TRANSITION ELECTRIC DIPOLE MOMENTS
-----------------------------------------------------------------------------
State   Energy    Wavelength  fosc         T2        TX        TY        TZ
        (cm-1)      (nm)                 (au**2)    (au)      (au)      (au)
-----------------------------------------------------------------------------
   1   21995.7    454.6   2.664384017  39.87806  -5.42880   2.75311   1.68123
   2   26184.7    381.9   0.482683350   6.06862   0.46139  -1.96391   1.41379
   3   33833.6    295.6   0.060297526   0.58671  -0.01619   0.41920   0.64088

FINAL SINGLE POINT ENERGY     -4631.276715528202

DIPOLE MOMENT
-------------
                                X             Y             Z
Electronic contribution:      6.87742      10.49033     -26.43672
Nuclear contribution   :     -6.06639     -13.19634      26.33251
                        -----------------------------------------
Total Dipole Moment    :      0.81103      -2.70601      -0.10421
                        -----------------------------------------
Magnitude (a.u.)       :      2.82685
Magnitude (Debye)      :      7.18529

Rotational constants in cm-1:     0.001998     0.000259     0.000235
Rotational constants in MHz :    59.892351     7.752177     7.034430

                             ****ORCA TERMINATED NORMALLY****
TOTAL RUN TIME: 0 days 14 hours 42 minutes 1 seconds 150 msec
