                         Program Version 4.2.0 -  RELEASE  -
|  1> # ORCA input file
|  2> # AQx-2.out: Geometry 262
|  3> ! Engrad Keepdens
|  4> %maxcore 1000
|  5> %tddft
|  6>   nroots 3
|  7>   # nroots is the number of states to be computed
|  8>   Iroot 1
|  9>   end
| 10> * xyz 0 1
| 11>    C        4.53080         2.45302        -1.40038
| 12>    O        5.51954         2.12565        -2.03512
| 13>    C        3.56765         3.52064        -1.77848
| 14>    C        3.55420         4.28554        -2.93960
| 15>    C        2.52682         5.21230        -3.08599
| 16>    F        2.43228         5.95854        -4.18326
| 17>    C        1.56084         5.37394        -2.07630
| 18>    F        0.60950         6.28775        -2.25275
| 19>    C        1.57828         4.60792        -0.91354
| 20>    C        2.59631         3.65618        -0.76703
| 21>    C        2.87883         2.66575         0.30323
| 22>    C        2.16261         2.56436         1.48693
| 23>    C        2.43296         1.59246         2.50003
| 24>    N        2.63097         0.80440         3.33228
| 25>    C        1.09377         3.45048         1.82647
| 26>    N        0.22942         4.16636         2.12883
| 27>    C        4.04196         1.88729        -0.12167
| 28>    C        4.57903         0.80135         0.54656
| 29>    C        5.69760        -0.03754         0.35492
| 30>    S        6.94032         0.09107        -0.91969
| 31>    C        7.82171        -1.22511        -0.21469
| 32>    C        7.17917        -1.73704         0.93641
| 33>    C        5.98221        -1.09288         1.26512
| 34>    C        5.10078        -1.55135         2.39457
| 35>    C        4.02468        -2.53457         1.90630
| 36>    S        8.08038        -3.02595         1.74264
| 37>    C        9.32846        -2.84874         0.54595
| 38>    C        9.04404        -1.89647        -0.44458
| 39>    N       10.10857        -1.81485        -1.33370
| 40>    C       10.29065        -0.59562        -2.12213
| 41>    C       10.70090         0.60330        -1.27125
| 42>    C       11.09395        -2.70326        -0.88915
| 43>    C       10.62887        -3.33810         0.30570
| 44>    C       11.43221        -4.21213         1.10380
| 45>    N       10.93077        -4.77006         2.22233
| 46>    C       11.75736        -5.52816         2.92672
| 47>    C       13.09879        -5.74382         2.53417
| 48>    N       13.60873        -5.20541         1.43674
| 49>    C       12.78028        -4.43491         0.70481
| 50>    C       13.21561        -3.87712        -0.53857
| 51>    C       12.37935        -3.08505        -1.38790
| 52>    N       13.03813        -2.90149        -2.60630
| 53>    C       12.48871        -2.46686        -3.88845
| 54>    C       13.05154        -1.12932        -4.36734
| 55>    C       14.26862        -3.53774        -2.52214
| 56>    C       14.40772        -4.11611        -1.25096
| 57>    S       15.85786        -5.05100        -1.04801
| 58>    C       16.27286        -4.71496        -2.72997
| 59>    C       15.32184        -3.90912        -3.39199
| 60>    S       15.71113        -3.75687        -5.07074
| 61>    C       17.15364        -4.78530        -4.87532
| 62>    C       17.31359        -5.21215        -3.54164
| 63>    C       18.29479        -6.21906        -3.00385
| 64>    C       19.20714        -5.66924        -1.89651
| 65>    C       17.78042        -5.20739        -6.08249
| 66>    C       19.00250        -5.77230        -6.36823
| 67>    C       20.28503        -5.84043        -5.68953
| 68>    C       20.78929        -4.90650        -4.80410
| 69>    C       22.07061        -5.03876        -4.18800
| 70>    N       23.09975        -5.15001        -3.65938
| 71>    C       20.07351        -3.71180        -4.49205
| 72>    N       19.49639        -2.73468        -4.24163
| 73>    C       21.03725        -6.97391        -6.28355
| 74>    C       22.23769        -7.59097        -5.90944
| 75>    C       22.67733        -8.66951        -6.67485
| 76>    F       23.80144        -9.30350        -6.35358
| 77>    C       21.96202        -9.12892        -7.79568
| 78>    F       22.43371       -10.18068        -8.45918
| 79>    C       20.78580        -8.50158        -8.19163
| 80>    C       20.34024        -7.43235        -7.42137
| 81>    C       19.09656        -6.63228        -7.59676
| 82>    O       18.30078        -6.70026        -8.50946
| 83>    H        4.31144         4.15759        -3.71540
| 84>    H        0.79825         4.78211        -0.17470
| 85>    H        4.03575         0.50485         1.44044
| 86>    H        4.62063        -0.70381         2.90490
| 87>    H        5.73611        -2.04629         3.14744
| 88>    H        3.33149        -2.04050         1.20897
| 89>    H        3.43904        -2.91973         2.75409
| 90>    H        4.48184        -3.38837         1.38239
| 91>    H        9.34084        -0.39595        -2.64326
| 92>    H       11.03283        -0.78392        -2.89749
| 93>    H        9.92904         0.84405        -0.52613
| 94>    H       10.83976         1.48711        -1.91247
| 95>    H       11.64536         0.40408        -0.74069
| 96>    H       11.36788        -5.99217         3.83925
| 97>    H       13.75678        -6.37231         3.14405
| 98>    H       11.39554        -2.44464        -3.79408
| 99>    H       12.71113        -3.25359        -4.62815
|100>    H       12.51707        -0.79290        -5.26910
|101>    H       14.11930        -1.21445        -4.61945
|102>    H       12.95280        -0.35364        -3.59351
|103>    H       18.88818        -6.65194        -3.81594
|104>    H       17.69894        -7.04891        -2.58237
|105>    H       19.83532        -4.84272        -2.24970
|106>    H       19.86606        -6.46308        -1.51505
|107>    H       18.61792        -5.28294        -1.05125
|108>    H       17.12641        -5.19156        -6.96597
|109>    H       22.83326        -7.28257        -5.05121
|110>    H       20.23192        -8.85027        -9.06458
|111> *
|112>
|113>                          ****END OF INPUT****

CARTESIAN COORDINATES (ANGSTROEM)
---------------------------------
  C      4.530800    2.453020   -1.400380
  O      5.519540    2.125650   -2.035120
  C      3.567650    3.520640   -1.778480
  C      3.554200    4.285540   -2.939600
  C      2.526820    5.212300   -3.085990
  F      2.432280    5.958540   -4.183260
  C      1.560840    5.373940   -2.076300
  F      0.609500    6.287750   -2.252750
  C      1.578280    4.607920   -0.913540
  C      2.596310    3.656180   -0.767030
  C      2.878830    2.665750    0.303230
  C      2.162610    2.564360    1.486930
  C      2.432960    1.592460    2.500030
  N      2.630970    0.804400    3.332280
  C      1.093770    3.450480    1.826470
  N      0.229420    4.166360    2.128830
  C      4.041960    1.887290   -0.121670
  C      4.579030    0.801350    0.546560
  C      5.697600   -0.037540    0.354920
  S      6.940320    0.091070   -0.919690
  C      7.821710   -1.225110   -0.214690
  C      7.179170   -1.737040    0.936410
  C      5.982210   -1.092880    1.265120
  C      5.100780   -1.551350    2.394570
  C      4.024680   -2.534570    1.906300
  S      8.080380   -3.025950    1.742640
  C      9.328460   -2.848740    0.545950
  C      9.044040   -1.896470   -0.444580
  N     10.108570   -1.814850   -1.333700
  C     10.290650   -0.595620   -2.122130
  C     10.700900    0.603300   -1.271250
  C     11.093950   -2.703260   -0.889150
  C     10.628870   -3.338100    0.305700
  C     11.432210   -4.212130    1.103800
  N     10.930770   -4.770060    2.222330
  C     11.757360   -5.528160    2.926720
  C     13.098790   -5.743820    2.534170
  N     13.608730   -5.205410    1.436740
  C     12.780280   -4.434910    0.704810
  C     13.215610   -3.877120   -0.538570
  C     12.379350   -3.085050   -1.387900
  N     13.038130   -2.901490   -2.606300
  C     12.488710   -2.466860   -3.888450
  C     13.051540   -1.129320   -4.367340
  C     14.268620   -3.537740   -2.522140
  C     14.407720   -4.116110   -1.250960
  S     15.857860   -5.051000   -1.048010
  C     16.272860   -4.714960   -2.729970
  C     15.321840   -3.909120   -3.391990
  S     15.711130   -3.756870   -5.070740
  C     17.153640   -4.785300   -4.875320
  C     17.313590   -5.212150   -3.541640
  C     18.294790   -6.219060   -3.003850
  C     19.207140   -5.669240   -1.896510
  C     17.780420   -5.207390   -6.082490
  C     19.002500   -5.772300   -6.368230
  C     20.285030   -5.840430   -5.689530
  C     20.789290   -4.906500   -4.804100
  C     22.070610   -5.038760   -4.188000
  N     23.099750   -5.150010   -3.659380
  C     20.073510   -3.711800   -4.492050
  N     19.496390   -2.734680   -4.241630
  C     21.037250   -6.973910   -6.283550
  C     22.237690   -7.590970   -5.909440
  C     22.677330   -8.669510   -6.674850
  F     23.801440   -9.303500   -6.353580
  C     21.962020   -9.128920   -7.795680
  F     22.433710  -10.180680   -8.459180
  C     20.785800   -8.501580   -8.191630
  C     20.340240   -7.432350   -7.421370
  C     19.096560   -6.632280   -7.596760
  O     18.300780   -6.700260   -8.509460
  H      4.311440    4.157590   -3.715400
  H      0.798250    4.782110   -0.174700
  H      4.035750    0.504850    1.440440
  H      4.620630   -0.703810    2.904900
  H      5.736110   -2.046290    3.147440
  H      3.331490   -2.040500    1.208970
  H      3.439040   -2.919730    2.754090
  H      4.481840   -3.388370    1.382390
  H      9.340840   -0.395950   -2.643260
  H     11.032830   -0.783920   -2.897490
  H      9.929040    0.844050   -0.526130
  H     10.839760    1.487110   -1.912470
  H     11.645360    0.404080   -0.740690
  H     11.367880   -5.992170    3.839250
  H     13.756780   -6.372310    3.144050
  H     11.395540   -2.444640   -3.794080
  H     12.711130   -3.253590   -4.628150
  H     12.517070   -0.792900   -5.269100
  H     14.119300   -1.214450   -4.619450
  H     12.952800   -0.353640   -3.593510
  H     18.888180   -6.651940   -3.815940
  H     17.698940   -7.048910   -2.582370
  H     19.835320   -4.842720   -2.249700
  H     19.866060   -6.463080   -1.515050
  H     18.617920   -5.282940   -1.051250
  H     17.126410   -5.191560   -6.965970
  H     22.833260   -7.282570   -5.051210
  H     20.231920   -8.850270   -9.064580

 Total Charge           Charge          ....    0
 Multiplicity           Mult            ....    1
 Number of Electrons    NEL             ....  524
 Basis Dimension        Dim             .... 1164

ORBITAL ENERGIES
----------------

  NO   OCC          E(Eh)            E(eV)
   0   2.0000     -91.986772     -2503.0873
   1   2.0000     -91.981520     -2502.9444
   2   2.0000     -91.977067     -2502.8232
   3   2.0000     -91.976875     -2502.8180
   4   2.0000     -26.340248      -716.7546
   5   2.0000     -26.338848      -716.7165
   6   2.0000     -26.337498      -716.6798
   7   2.0000     -26.334310      -716.5930
   8   2.0000     -20.572240      -559.7991
   9   2.0000     -20.570214      -559.7440
  10   2.0000     -15.655515      -426.0082
  11   2.0000     -15.651149      -425.8894
  12   2.0000     -15.608552      -424.7303
  13   2.0000     -15.608468      -424.7280
  14   2.0000     -15.601368      -424.5348
  15   2.0000     -15.600828      -424.5201
  16   2.0000     -15.597791      -424.4375
  17   2.0000     -15.593047      -424.3084
  18   2.0000     -11.383003      -309.7473
  19   2.0000     -11.381876      -309.7166
  20   2.0000     -11.379421      -309.6498
  21   2.0000     -11.377108      -309.5869
  22   2.0000     -11.372630      -309.4650
  23   2.0000     -11.369432      -309.3780
  24   2.0000     -11.352394      -308.9144
  25   2.0000     -11.351185      -308.8814
  26   2.0000     -11.335879      -308.4649
  27   2.0000     -11.334507      -308.4276
  28   2.0000     -11.333367      -308.3966
  29   2.0000     -11.329245      -308.2844
  30   2.0000     -11.326086      -308.1985
  31   2.0000     -11.323875      -308.1383
  32   2.0000     -11.321138      -308.0638
  33   2.0000     -11.319887      -308.0298
  34   2.0000     -11.319191      -308.0109
  35   2.0000     -11.315480      -307.9099
  36   2.0000     -11.315114      -307.8999
  37   2.0000     -11.313886      -307.8665
  38   2.0000     -11.313154      -307.8466
  39   2.0000     -11.312507      -307.8290
  40   2.0000     -11.311826      -307.8104
  41   2.0000     -11.311185      -307.7930
  42   2.0000     -11.310148      -307.7648
  43   2.0000     -11.309912      -307.7583
  44   2.0000     -11.309631      -307.7507
  45   2.0000     -11.308063      -307.7080
  46   2.0000     -11.307765      -307.6999
  47   2.0000     -11.307715      -307.6986
  48   2.0000     -11.307050      -307.6805
  49   2.0000     -11.306691      -307.6707
  50   2.0000     -11.306241      -307.6585
  51   2.0000     -11.303112      -307.5733
  52   2.0000     -11.302435      -307.5549
  53   2.0000     -11.302169      -307.5476
  54   2.0000     -11.298061      -307.4359
  55   2.0000     -11.298049      -307.4355
  56   2.0000     -11.297554      -307.4221
  57   2.0000     -11.297050      -307.4084
  58   2.0000     -11.296368      -307.3898
  59   2.0000     -11.293828      -307.3207
  60   2.0000     -11.293472      -307.3110
  61   2.0000     -11.291372      -307.2538
  62   2.0000     -11.284694      -307.0721
  63   2.0000     -11.278098      -306.8927
  64   2.0000     -11.277692      -306.8816
  65   2.0000     -11.277324      -306.8716
  66   2.0000     -11.271060      -306.7011
  67   2.0000     -11.265567      -306.5517
  68   2.0000     -11.265235      -306.5426
  69   2.0000     -11.256618      -306.3081
  70   2.0000     -11.248500      -306.0872
  71   2.0000     -11.247994      -306.0735
  72   2.0000      -9.021225      -245.4800
  73   2.0000      -9.014593      -245.2995
  74   2.0000      -9.010904      -245.1992
  75   2.0000      -9.010714      -245.1940
  76   2.0000      -6.708834      -182.5567
  77   2.0000      -6.707739      -182.5269
  78   2.0000      -6.705698      -182.4713
  79   2.0000      -6.701859      -182.3669
  80   2.0000      -6.700714      -182.3357
  81   2.0000      -6.698704      -182.2810
  82   2.0000      -6.698376      -182.2721
  83   2.0000      -6.698187      -182.2669
  84   2.0000      -6.697536      -182.2492
  85   2.0000      -6.697358      -182.2444
  86   2.0000      -6.695257      -182.1872
  87   2.0000      -6.695061      -182.1819
  88   2.0000      -1.653616       -44.9972
  89   2.0000      -1.649563       -44.8869
  90   2.0000      -1.637321       -44.5538
  91   2.0000      -1.633499       -44.4498
  92   2.0000      -1.401641       -38.1406
  93   2.0000      -1.397995       -38.0414
  94   2.0000      -1.347454       -36.6661
  95   2.0000      -1.331267       -36.2256
  96   2.0000      -1.317388       -35.8479
  97   2.0000      -1.249494       -34.0004
  98   2.0000      -1.246773       -33.9264
  99   2.0000      -1.232406       -33.5355
 100   2.0000      -1.229118       -33.4460
 101   2.0000      -1.227456       -33.4008
 102   2.0000      -1.227005       -33.3885
 103   2.0000      -1.224796       -33.3284
 104   2.0000      -1.223004       -33.2796
 105   2.0000      -1.220613       -33.2146
 106   2.0000      -1.173318       -31.9276
 107   2.0000      -1.169552       -31.8251
 108   2.0000      -1.165526       -31.7156
 109   2.0000      -1.153106       -31.3776
 110   2.0000      -1.143898       -31.1270
 111   2.0000      -1.108052       -30.1516
 112   2.0000      -1.101093       -29.9623
 113   2.0000      -1.095105       -29.7993
 114   2.0000      -1.089850       -29.6563
 115   2.0000      -1.084453       -29.5095
 116   2.0000      -1.081114       -29.4186
 117   2.0000      -1.072845       -29.1936
 118   2.0000      -1.071960       -29.1695
 119   2.0000      -1.067830       -29.0571
 120   2.0000      -1.064891       -28.9772
 121   2.0000      -1.039988       -28.2995
 122   2.0000      -1.033627       -28.1264
 123   2.0000      -1.011974       -27.5372
 124   2.0000      -1.010738       -27.5036
 125   2.0000      -1.005351       -27.3570
 126   2.0000      -0.992267       -27.0010
 127   2.0000      -0.971389       -26.4328
 128   2.0000      -0.962190       -26.1825
 129   2.0000      -0.958509       -26.0823
 130   2.0000      -0.942196       -25.6385
 131   2.0000      -0.937656       -25.5149
 132   2.0000      -0.934755       -25.4360
 133   2.0000      -0.926611       -25.2144
 134   2.0000      -0.919770       -25.0282
 135   2.0000      -0.905413       -24.6375
 136   2.0000      -0.890645       -24.2357
 137   2.0000      -0.883600       -24.0440
 138   2.0000      -0.874023       -23.7834
 139   2.0000      -0.871279       -23.7087
 140   2.0000      -0.868226       -23.6256
 141   2.0000      -0.861720       -23.4486
 142   2.0000      -0.857357       -23.3299
 143   2.0000      -0.846589       -23.0369
 144   2.0000      -0.828888       -22.5552
 145   2.0000      -0.821296       -22.3486
 146   2.0000      -0.810926       -22.0664
 147   2.0000      -0.806746       -21.9527
 148   2.0000      -0.799566       -21.7573
 149   2.0000      -0.794217       -21.6117
 150   2.0000      -0.788285       -21.4503
 151   2.0000      -0.785417       -21.3723
 152   2.0000      -0.784094       -21.3363
 153   2.0000      -0.783138       -21.3103
 154   2.0000      -0.771930       -21.0053
 155   2.0000      -0.755774       -20.5656
 156   2.0000      -0.753624       -20.5072
 157   2.0000      -0.749662       -20.3993
 158   2.0000      -0.748069       -20.3560
 159   2.0000      -0.744211       -20.2510
 160   2.0000      -0.743041       -20.2192
 161   2.0000      -0.735210       -20.0061
 162   2.0000      -0.731443       -19.9036
 163   2.0000      -0.730289       -19.8722
 164   2.0000      -0.721157       -19.6237
 165   2.0000      -0.719486       -19.5782
 166   2.0000      -0.716357       -19.4931
 167   2.0000      -0.715907       -19.4808
 168   2.0000      -0.710072       -19.3221
 169   2.0000      -0.703217       -19.1355
 170   2.0000      -0.699803       -19.0426
 171   2.0000      -0.695977       -18.9385
 172   2.0000      -0.691247       -18.8098
 173   2.0000      -0.682476       -18.5711
 174   2.0000      -0.675810       -18.3897
 175   2.0000      -0.673108       -18.3162
 176   2.0000      -0.670871       -18.2553
 177   2.0000      -0.666604       -18.1392
 178   2.0000      -0.664679       -18.0868
 179   2.0000      -0.660977       -17.9861
 180   2.0000      -0.658630       -17.9222
 181   2.0000      -0.653168       -17.7736
 182   2.0000      -0.650023       -17.6880
 183   2.0000      -0.641722       -17.4621
 184   2.0000      -0.640812       -17.4374
 185   2.0000      -0.637873       -17.3574
 186   2.0000      -0.633849       -17.2479
 187   2.0000      -0.629948       -17.1417
 188   2.0000      -0.628919       -17.1138
 189   2.0000      -0.624857       -17.0032
 190   2.0000      -0.623246       -16.9594
 191   2.0000      -0.621223       -16.9043
 192   2.0000      -0.619802       -16.8657
 193   2.0000      -0.618873       -16.8404
 194   2.0000      -0.615726       -16.7548
 195   2.0000      -0.609681       -16.5903
 196   2.0000      -0.608230       -16.5508
 197   2.0000      -0.604039       -16.4367
 198   2.0000      -0.601073       -16.3560
 199   2.0000      -0.598592       -16.2885
 200   2.0000      -0.589743       -16.0477
 201   2.0000      -0.585403       -15.9296
 202   2.0000      -0.582533       -15.8515
 203   2.0000      -0.582088       -15.8394
 204   2.0000      -0.578295       -15.7362
 205   2.0000      -0.576940       -15.6993
 206   2.0000      -0.575902       -15.6711
 207   2.0000      -0.575105       -15.6494
 208   2.0000      -0.572979       -15.5916
 209   2.0000      -0.572569       -15.5804
 210   2.0000      -0.570211       -15.5162
 211   2.0000      -0.567540       -15.4436
 212   2.0000      -0.564107       -15.3501
 213   2.0000      -0.562198       -15.2982
 214   2.0000      -0.560693       -15.2572
 215   2.0000      -0.558944       -15.2097
 216   2.0000      -0.553659       -15.0658
 217   2.0000      -0.552016       -15.0211
 218   2.0000      -0.547314       -14.8932
 219   2.0000      -0.542767       -14.7694
 220   2.0000      -0.538978       -14.6663
 221   2.0000      -0.536464       -14.5979
 222   2.0000      -0.535544       -14.5729
 223   2.0000      -0.533783       -14.5250
 224   2.0000      -0.529446       -14.4070
 225   2.0000      -0.525510       -14.2998
 226   2.0000      -0.522913       -14.2292
 227   2.0000      -0.516248       -14.0478
 228   2.0000      -0.513680       -13.9779
 229   2.0000      -0.508806       -13.8453
 230   2.0000      -0.506561       -13.7842
 231   2.0000      -0.503961       -13.7135
 232   2.0000      -0.500646       -13.6233
 233   2.0000      -0.498481       -13.5644
 234   2.0000      -0.497505       -13.5378
 235   2.0000      -0.494396       -13.4532
 236   2.0000      -0.490303       -13.3418
 237   2.0000      -0.487540       -13.2666
 238   2.0000      -0.483695       -13.1620
 239   2.0000      -0.478905       -13.0317
 240   2.0000      -0.476230       -12.9589
 241   2.0000      -0.475000       -12.9254
 242   2.0000      -0.466895       -12.7049
 243   2.0000      -0.461628       -12.5615
 244   2.0000      -0.454913       -12.3788
 245   2.0000      -0.449638       -12.2353
 246   2.0000      -0.443795       -12.0763
 247   2.0000      -0.427687       -11.6379
 248   2.0000      -0.417769       -11.3681
 249   2.0000      -0.411976       -11.2104
 250   2.0000      -0.395250       -10.7553
 251   2.0000      -0.391362       -10.6495
 252   2.0000      -0.389581       -10.6010
 253   2.0000      -0.384937       -10.4747
 254   2.0000      -0.361982        -9.8500
 255   2.0000      -0.358041        -9.7428
 256   2.0000      -0.354471        -9.6457
 257   2.0000      -0.346111        -9.4182
 258   2.0000      -0.334246        -9.0953
 259   2.0000      -0.309909        -8.4331
 260   2.0000      -0.308023        -8.3817
 261   2.0000      -0.262458        -7.1418
 262   0.0000      -0.032753        -0.8912
 263   0.0000      -0.018747        -0.5101
 264   0.0000       0.009902         0.2695
 265   0.0000       0.015985         0.4350
 266   0.0000       0.038666         1.0522

MULLIKEN ATOMIC CHARGES
-----------------------
   0 C :    0.516226
   1 O :   -0.384951
   2 C :   -0.184307
   3 C :   -0.037849
   4 C :    0.342488
   5 F :   -0.304726
   6 C :    0.343035
   7 F :   -0.302958
   8 C :   -0.054621
   9 C :   -0.030685
  10 C :    0.252893
  11 C :   -0.361762
  12 C :    0.065101
  13 N :   -0.111986
  14 C :    0.042461
  15 N :   -0.087398
  16 C :   -0.317412
  17 C :    0.073385
  18 C :   -0.172359
  19 S :    0.255953
  20 C :   -0.017952
  21 C :   -0.114402
  22 C :   -0.087173
  23 C :   -0.034471
  24 C :   -0.017547
  25 S :    0.240613
  26 C :    0.002501
  27 C :    0.131339
  28 N :   -0.606657
  29 C :    0.123854
  30 C :   -0.049270
  31 C :    0.265076
  32 C :   -0.195548
  33 C :    0.112866
  34 N :   -0.301829
  35 C :    0.092556
  36 C :    0.092894
  37 N :   -0.302938
  38 C :    0.106263
  39 C :   -0.177592
  40 C :    0.249336
  41 N :   -0.611558
  42 C :    0.106196
  43 C :   -0.057853
  44 C :    0.166545
  45 C :   -0.018467
  46 S :    0.227771
  47 C :   -0.123971
  48 C :   -0.027838
  49 S :    0.187101
  50 C :   -0.237610
  51 C :   -0.042152
  52 C :   -0.002405
  53 C :   -0.049319
  54 C :    0.193307
  55 C :   -0.340543
  56 C :    0.195912
  57 C :   -0.354081
  58 C :    0.051626
  59 N :   -0.077151
  60 C :    0.043228
  61 N :   -0.058854
  62 C :   -0.037341
  63 C :   -0.057372
  64 C :    0.344581
  65 F :   -0.301724
  66 C :    0.339515
  67 F :   -0.303355
  68 C :   -0.032659
  69 C :   -0.161206
  70 C :    0.463370
  71 O :   -0.355014
  72 H :    0.086209
  73 H :    0.106586
  74 H :    0.076725
  75 H :    0.091665
  76 H :    0.059830
  77 H :    0.037394
  78 H :    0.060995
  79 H :    0.044096
  80 H :    0.067976
  81 H :    0.039619
  82 H :    0.062829
  83 H :    0.052486
  84 H :    0.051834
  85 H :    0.069645
  86 H :    0.069430
  87 H :    0.068005
  88 H :    0.066671
  89 H :    0.055389
  90 H :    0.063101
  91 H :    0.051877
  92 H :    0.063164
  93 H :    0.071292
  94 H :    0.059872
  95 H :    0.053447
  96 H :    0.057766
  97 H :    0.098253
  98 H :    0.102742
  99 H :    0.089971
Sum of atomic charges:   -0.0000000

LOEWDIN ATOMIC CHARGES
----------------------
   0 C :    0.169449
   1 O :   -0.254345
   2 C :   -0.051942
   3 C :    0.001599
   4 C :    0.120443
   5 F :   -0.103255
   6 C :    0.119370
   7 F :   -0.102952
   8 C :   -0.006068
   9 C :   -0.024167
  10 C :    0.130561
  11 C :   -0.188181
  12 C :    0.027968
  13 N :   -0.111318
  14 C :    0.017167
  15 N :   -0.102364
  16 C :   -0.180755
  17 C :    0.116265
  18 C :   -0.221994
  19 S :    0.442413
  20 C :   -0.158044
  21 C :   -0.214201
  22 C :    0.030988
  23 C :   -0.019656
  24 C :   -0.021365
  25 S :    0.406903
  26 C :   -0.149717
  27 C :   -0.025339
  28 N :   -0.049425
  29 C :    0.073337
  30 C :   -0.040666
  31 C :    0.048330
  32 C :   -0.078508
  33 C :    0.006381
  34 N :   -0.091124
  35 C :    0.024448
  36 C :    0.025013
  37 N :   -0.091962
  38 C :    0.007385
  39 C :   -0.075690
  40 C :    0.043851
  41 N :   -0.043008
  42 C :    0.072112
  43 C :   -0.044283
  44 C :   -0.015121
  45 C :   -0.162599
  46 S :    0.415733
  47 C :   -0.197516
  48 C :   -0.169391
  49 S :    0.403606
  50 C :   -0.205856
  51 C :    0.014623
  52 C :   -0.017715
  53 C :   -0.027755
  54 C :    0.107936
  55 C :   -0.157319
  56 C :    0.105806
  57 C :   -0.168732
  58 C :    0.014460
  59 N :   -0.094686
  60 C :    0.009832
  61 N :   -0.085063
  62 C :   -0.020885
  63 C :   -0.011265
  64 C :    0.122368
  65 F :   -0.101433
  66 C :    0.118751
  67 F :   -0.102151
  68 C :    0.005934
  69 C :   -0.055889
  70 C :    0.171101
  71 O :   -0.232246
  72 H :    0.058147
  73 H :    0.057603
  74 H :    0.048841
  75 H :    0.034774
  76 H :    0.027886
  77 H :    0.019023
  78 H :    0.028785
  79 H :    0.021203
  80 H :    0.024561
  81 H :    0.019139
  82 H :    0.023524
  83 H :    0.028709
  84 H :    0.025169
  85 H :    0.031101
  86 H :    0.030976
  87 H :    0.024660
  88 H :    0.023569
  89 H :    0.029770
  90 H :    0.023948
  91 H :    0.022213
  92 H :    0.023586
  93 H :    0.035271
  94 H :    0.023439
  95 H :    0.026599
  96 H :    0.017150
  97 H :    0.055327
  98 H :    0.057124
  99 H :    0.059724

  Mayer bond orders larger than 0.100000
B(  0-C ,  1-O ) :   2.0469 B(  0-C ,  2-C ) :   0.9746 B(  0-C , 16-C ) :   0.9844
B(  2-C ,  3-C ) :   1.3825 B(  2-C ,  9-C ) :   1.3888 B(  3-C ,  4-C ) :   1.3912
B(  3-C , 72-H ) :   1.0062 B(  4-C ,  5-F ) :   0.9409 B(  4-C ,  6-C ) :   1.3267
B(  6-C ,  7-F ) :   0.9480 B(  6-C ,  8-C ) :   1.4216 B(  8-C ,  9-C ) :   1.3640
B(  8-C , 73-H ) :   0.9838 B(  9-C , 10-C ) :   1.0386 B( 10-C , 11-C ) :   1.6469
B( 10-C , 16-C ) :   1.1381 B( 11-C , 12-C ) :   1.0682 B( 11-C , 14-C ) :   1.0585
B( 12-C , 13-N ) :   2.9576 B( 14-C , 15-N ) :   2.9791 B( 16-C , 17-C ) :   1.5651
B( 17-C , 18-C ) :   1.3526 B( 17-C , 74-H ) :   0.9556 B( 18-C , 19-S ) :   1.0209
B( 18-C , 22-C ) :   1.4463 B( 19-S , 20-C ) :   1.0227 B( 20-C , 21-C ) :   1.4697
B( 20-C , 27-C ) :   1.3666 B( 21-C , 22-C ) :   1.4897 B( 21-C , 25-S ) :   0.9798
B( 22-C , 23-C ) :   0.9822 B( 23-C , 24-C ) :   1.0330 B( 23-C , 75-H ) :   0.9539
B( 23-C , 76-H ) :   0.9674 B( 24-C , 77-H ) :   0.9844 B( 24-C , 78-H ) :   0.9860
B( 24-C , 79-H ) :   0.9827 B( 25-S , 26-C ) :   1.0044 B( 26-C , 27-C ) :   1.4744
B( 26-C , 32-C ) :   1.3954 B( 27-C , 28-N ) :   1.0628 B( 28-N , 29-C ) :   0.8551
B( 28-N , 31-C ) :   1.0859 B( 29-C , 30-C ) :   1.0410 B( 29-C , 80-H ) :   0.9734
B( 29-C , 81-H ) :   0.9842 B( 30-C , 82-H ) :   0.9781 B( 30-C , 83-H ) :   0.9825
B( 30-C , 84-H ) :   0.9797 B( 31-C , 32-C ) :   1.4340 B( 31-C , 40-C ) :   1.1884
B( 32-C , 33-C ) :   1.1479 B( 33-C , 34-N ) :   1.4741 B( 33-C , 38-C ) :   1.2378
B( 34-N , 35-C ) :   1.5539 B( 35-C , 36-C ) :   1.2881 B( 35-C , 85-H ) :   0.9908
B( 36-C , 37-N ) :   1.5548 B( 36-C , 86-H ) :   0.9908 B( 37-N , 38-C ) :   1.4688
B( 38-C , 39-C ) :   1.1512 B( 39-C , 40-C ) :   1.4265 B( 39-C , 45-C ) :   1.4005
B( 40-C , 41-N ) :   1.0958 B( 41-N , 42-C ) :   0.8385 B( 41-N , 44-C ) :   1.0670
B( 42-C , 43-C ) :   1.0316 B( 42-C , 87-H ) :   0.9852 B( 42-C , 88-H ) :   0.9788
B( 43-C , 89-H ) :   0.9834 B( 43-C , 90-H ) :   0.9787 B( 43-C , 91-H ) :   0.9791
B( 44-C , 45-C ) :   1.4746 B( 44-C , 48-C ) :   1.3294 B( 45-C , 46-S ) :   1.0078
B( 46-S , 47-C ) :   1.0012 B( 47-C , 48-C ) :   1.5120 B( 47-C , 51-C ) :   1.3923
B( 48-C , 49-S ) :   1.0475 B( 49-S , 50-C ) :   1.0733 B( 50-C , 51-C ) :   1.5531
B( 50-C , 54-C ) :   1.1658 B( 51-C , 52-C ) :   0.9697 B( 52-C , 53-C ) :   1.0327
B( 52-C , 92-H ) :   0.9698 B( 52-C , 93-H ) :   0.9644 B( 53-C , 94-H ) :   0.9810
B( 53-C , 95-H ) :   0.9845 B( 53-C , 96-H ) :   0.9814 B( 54-C , 55-C ) :   1.7068
B( 54-C , 97-H ) :   0.9362 B( 55-C , 56-C ) :   1.0884 B( 55-C , 70-C ) :   0.9963
B( 56-C , 57-C ) :   1.6998 B( 56-C , 62-C ) :   1.0392 B( 57-C , 58-C ) :   1.0426
B( 57-C , 60-C ) :   1.0835 B( 58-C , 59-N ) :   2.9879 B( 60-C , 61-N ) :   2.9908
B( 62-C , 63-C ) :   1.3686 B( 62-C , 69-C ) :   1.3811 B( 63-C , 64-C ) :   1.4201
B( 63-C , 98-H ) :   0.9882 B( 64-C , 65-F ) :   0.9471 B( 64-C , 66-C ) :   1.3251
B( 66-C , 67-F ) :   0.9434 B( 66-C , 68-C ) :   1.3963 B( 68-C , 69-C ) :   1.3776
B( 68-C , 99-H ) :   1.0061 B( 69-C , 70-C ) :   0.9469 B( 70-C , 71-O ) :   2.0879

-----------------------------------------------------------------------------
         ABSORPTION SPECTRUM VIA TRANSITION ELECTRIC DIPOLE MOMENTS
-----------------------------------------------------------------------------
State   Energy    Wavelength  fosc         T2        TX        TY        TZ
        (cm-1)      (nm)                 (au**2)    (au)      (au)      (au)
-----------------------------------------------------------------------------
   1   22114.4    452.2   2.943267452  43.81570   5.66697  -2.85404  -1.88562
   2   26429.1    378.4   0.330356712   4.11506   0.28176  -1.54381   1.28543
   3   34021.8    293.9   0.011151202   0.10790  -0.08242  -0.10471  -0.30024

FINAL SINGLE POINT ENERGY     -4631.275965433892

DIPOLE MOMENT
-------------
                                X             Y             Z
Electronic contribution:      4.13873       4.20294     -23.37478
Nuclear contribution   :     -4.03869      -6.33089      23.13117
                        -----------------------------------------
Total Dipole Moment    :      0.10004      -2.12796      -0.24361
                        -----------------------------------------
Magnitude (a.u.)       :      2.14419
Magnitude (Debye)      :      5.45010

Rotational constants in cm-1:     0.002166     0.000240     0.000223
Rotational constants in MHz :    64.931651     7.197326     6.689771

                             ****ORCA TERMINATED NORMALLY****
TOTAL RUN TIME: 0 days 11 hours 15 minutes 53 seconds 567 msec
