                         Program Version 4.2.0 -  RELEASE  -
|  1> # ORCA input file
|  2> # AQx.out: Geometry 24
|  3> ! Engrad Keepdens
|  4> %maxcore 1000
|  5> %tddft
|  6>   nroots 3
|  7>   # nroots is the number of states to be computed
|  8>   Iroot 1
|  9>   end
| 10> * xyz 0 1
| 11>    C        8.63700         2.72312         1.86103
| 12>    O        9.11167         1.60930         2.01041
| 13>    C        9.06700         3.93391         2.59534
| 14>    C       10.04815         4.01662         3.57467
| 15>    C       10.29866         5.26681         4.12638
| 16>    F       11.22362         5.41378         5.07138
| 17>    C        9.57537         6.39234         3.69130
| 18>    F        9.84642         7.57182         4.24341
| 19>    C        8.59093         6.30287         2.70914
| 20>    C        8.32617         5.04457         2.15226
| 21>    C        7.36196         4.58632         1.11554
| 22>    C        6.50374         5.42304         0.42002
| 23>    C        5.61264         4.97520        -0.60442
| 24>    N        4.87650         4.64506        -1.44218
| 25>    C        6.44219         6.83074         0.66004
| 26>    N        6.38485         7.97640         0.84849
| 27>    C        7.53278         3.14114         0.96641
| 28>    C        6.73785         2.28840         0.21618
| 29>    C        6.80881         0.90623        -0.06951
| 30>    S        8.18291        -0.15746         0.30992
| 31>    C        7.40394        -1.47215        -0.48466
| 32>    C        6.11374        -1.13977        -0.95563
| 33>    C        5.77836         0.21094        -0.76599
| 34>    C        4.53725         0.84900        -1.32886
| 35>    C        4.76245         1.35888        -2.76434
| 36>    S        5.25854        -2.53376        -1.64726
| 37>    C        6.65471        -3.53478        -1.31084
| 38>    C        7.71216        -2.82339        -0.72684
| 39>    N        8.78508        -3.66319        -0.49536
| 40>    C        9.89353        -3.21631         0.34600
| 41>    C       10.89790        -2.32461        -0.37917
| 42>    C        8.42847        -4.93537        -0.94158
| 43>    C        7.07220        -4.88302        -1.41367
| 44>    C        6.33480        -6.05592        -1.77691
| 45>    N        5.03250        -5.96789        -2.11008
| 46>    C        4.37149        -7.09270        -2.34084
| 47>    C        2.91086        -6.99376        -2.67598
| 48>    C        5.02698        -8.36689        -2.26334
| 49>    C        4.27452        -9.64391        -2.51249
| 50>    N        6.31277        -8.45536        -1.95706
| 51>    C        6.98259        -7.31520        -1.70237
| 52>    C        8.37281        -7.35452        -1.36490
| 53>    C        9.12486        -6.18266        -1.01748
| 54>    N       10.46006        -6.55682        -0.85513
| 55>    C       11.65896        -5.78315        -0.56182
| 56>    C       12.12466        -5.91850         0.88821
| 57>    C       10.54423        -7.91779        -1.06007
| 58>    C        9.27503        -8.44210        -1.34870
| 59>    S        9.28694       -10.17114        -1.59135
| 60>    C       11.03760       -10.17927        -1.32266
| 61>    C       11.55812        -8.89257        -1.07331
| 62>    S       13.26999        -8.92140        -0.84796
| 63>    C       13.29018       -10.68773        -1.01810
| 64>    C       12.00540       -11.20464        -1.29015
| 65>    C       11.67063       -12.66496        -1.36652
| 66>    C       11.11695       -13.16706        -0.02110
| 67>    C       14.51082       -11.40904        -0.98521
| 68>    C       15.75004       -11.03192        -0.51307
| 69>    C       16.17567        -9.97462         0.38885
| 70>    C       15.44679        -9.45400         1.44698
| 71>    C       15.89898        -8.33741         2.21190
| 72>    N       16.25610        -7.40050         2.80093
| 73>    C       14.21139       -10.03508         1.86897
| 74>    N       13.23198       -10.53656         2.24353
| 75>    C       17.61217        -9.72072         0.12364
| 76>    C       18.49073        -8.74557         0.61289
| 77>    C       19.81955        -8.79868         0.19869
| 78>    F       20.68616        -7.88363         0.62817
| 79>    C       20.28496        -9.80257        -0.67110
| 80>    F       21.56642        -9.78959        -1.02794
| 81>    C       19.42326       -10.78688        -1.14538
| 82>    C       18.09386       -10.72762        -0.74036
| 83>    C       16.97792       -11.64671        -1.11073
| 84>    O       17.04890       -12.64558        -1.79616
| 85>    H       10.60451         3.13768         3.90358
| 86>    H        8.07070         7.21474         2.42579
| 87>    H        5.86748         2.74971        -0.24723
| 88>    H        4.19661         1.67986        -0.69326
| 89>    H        3.72632         0.10186        -1.31460
| 90>    H        5.52131         2.15510        -2.78118
| 91>    H        3.83428         1.78078        -3.17782
| 92>    H        5.10317         0.54401        -3.42170
| 93>    H       10.36720        -4.09397         0.79199
| 94>    H        9.45239        -2.66007         1.18829
| 95>    H       11.37223        -2.83927        -1.22841
| 96>    H       11.68762        -2.00527         0.31737
| 97>    H       10.41158        -1.41981        -0.77048
| 98>    H        2.59442        -5.94532        -2.60895
| 99>    H        2.29706        -7.59627        -1.98815
|100>    H        2.70323        -7.36711        -3.69329
|101>    H        3.46021        -9.77883        -1.78145
|102>    H        4.96715       -10.49129        -2.42997
|103>    H        3.80425        -9.65357        -3.50975
|104>    H       11.47767        -4.74388        -0.84417
|105>    H       12.44797        -6.13974        -1.24292
|106>    H       11.32202        -5.66357         1.59628
|107>    H       12.98152        -5.25547         1.07856
|108>    H       12.44189        -6.94764         1.11011
|109>    H       12.56079       -13.24749        -1.64984
|110>    H       10.92287       -12.82227        -2.16188
|111>    H       11.85521       -13.01911         0.78059
|112>    H       10.85473       -14.23461        -0.07796
|113>    H       10.21182       -12.60753         0.26017
|114>    H       14.51480       -12.36891        -1.51611
|115>    H       18.18871        -7.94739         1.28881
|116>    H       19.78374       -11.57588        -1.80780
|117> *
|118>
|119>                          ****END OF INPUT****

CARTESIAN COORDINATES (ANGSTROEM)
---------------------------------
  C      8.637000    2.723120    1.861030
  O      9.111670    1.609300    2.010410
  C      9.067000    3.933910    2.595340
  C     10.048150    4.016620    3.574670
  C     10.298660    5.266810    4.126380
  F     11.223620    5.413780    5.071380
  C      9.575370    6.392340    3.691300
  F      9.846420    7.571820    4.243410
  C      8.590930    6.302870    2.709140
  C      8.326170    5.044570    2.152260
  C      7.361960    4.586320    1.115540
  C      6.503740    5.423040    0.420020
  C      5.612640    4.975200   -0.604420
  N      4.876500    4.645060   -1.442180
  C      6.442190    6.830740    0.660040
  N      6.384850    7.976400    0.848490
  C      7.532780    3.141140    0.966410
  C      6.737850    2.288400    0.216180
  C      6.808810    0.906230   -0.069510
  S      8.182910   -0.157460    0.309920
  C      7.403940   -1.472150   -0.484660
  C      6.113740   -1.139770   -0.955630
  C      5.778360    0.210940   -0.765990
  C      4.537250    0.849000   -1.328860
  C      4.762450    1.358880   -2.764340
  S      5.258540   -2.533760   -1.647260
  C      6.654710   -3.534780   -1.310840
  C      7.712160   -2.823390   -0.726840
  N      8.785080   -3.663190   -0.495360
  C      9.893530   -3.216310    0.346000
  C     10.897900   -2.324610   -0.379170
  C      8.428470   -4.935370   -0.941580
  C      7.072200   -4.883020   -1.413670
  C      6.334800   -6.055920   -1.776910
  N      5.032500   -5.967890   -2.110080
  C      4.371490   -7.092700   -2.340840
  C      2.910860   -6.993760   -2.675980
  C      5.026980   -8.366890   -2.263340
  C      4.274520   -9.643910   -2.512490
  N      6.312770   -8.455360   -1.957060
  C      6.982590   -7.315200   -1.702370
  C      8.372810   -7.354520   -1.364900
  C      9.124860   -6.182660   -1.017480
  N     10.460060   -6.556820   -0.855130
  C     11.658960   -5.783150   -0.561820
  C     12.124660   -5.918500    0.888210
  C     10.544230   -7.917790   -1.060070
  C      9.275030   -8.442100   -1.348700
  S      9.286940  -10.171140   -1.591350
  C     11.037600  -10.179270   -1.322660
  C     11.558120   -8.892570   -1.073310
  S     13.269990   -8.921400   -0.847960
  C     13.290180  -10.687730   -1.018100
  C     12.005400  -11.204640   -1.290150
  C     11.670630  -12.664960   -1.366520
  C     11.116950  -13.167060   -0.021100
  C     14.510820  -11.409040   -0.985210
  C     15.750040  -11.031920   -0.513070
  C     16.175670   -9.974620    0.388850
  C     15.446790   -9.454000    1.446980
  C     15.898980   -8.337410    2.211900
  N     16.256100   -7.400500    2.800930
  C     14.211390  -10.035080    1.868970
  N     13.231980  -10.536560    2.243530
  C     17.612170   -9.720720    0.123640
  C     18.490730   -8.745570    0.612890
  C     19.819550   -8.798680    0.198690
  F     20.686160   -7.883630    0.628170
  C     20.284960   -9.802570   -0.671100
  F     21.566420   -9.789590   -1.027940
  C     19.423260  -10.786880   -1.145380
  C     18.093860  -10.727620   -0.740360
  C     16.977920  -11.646710   -1.110730
  O     17.048900  -12.645580   -1.796160
  H     10.604510    3.137680    3.903580
  H      8.070700    7.214740    2.425790
  H      5.867480    2.749710   -0.247230
  H      4.196610    1.679860   -0.693260
  H      3.726320    0.101860   -1.314600
  H      5.521310    2.155100   -2.781180
  H      3.834280    1.780780   -3.177820
  H      5.103170    0.544010   -3.421700
  H     10.367200   -4.093970    0.791990
  H      9.452390   -2.660070    1.188290
  H     11.372230   -2.839270   -1.228410
  H     11.687620   -2.005270    0.317370
  H     10.411580   -1.419810   -0.770480
  H      2.594420   -5.945320   -2.608950
  H      2.297060   -7.596270   -1.988150
  H      2.703230   -7.367110   -3.693290
  H      3.460210   -9.778830   -1.781450
  H      4.967150  -10.491290   -2.429970
  H      3.804250   -9.653570   -3.509750
  H     11.477670   -4.743880   -0.844170
  H     12.447970   -6.139740   -1.242920
  H     11.322020   -5.663570    1.596280
  H     12.981520   -5.255470    1.078560
  H     12.441890   -6.947640    1.110110
  H     12.560790  -13.247490   -1.649840
  H     10.922870  -12.822270   -2.161880
  H     11.855210  -13.019110    0.780590
  H     10.854730  -14.234610   -0.077960
  H     10.211820  -12.607530    0.260170
  H     14.514800  -12.368910   -1.516110
  H     18.188710   -7.947390    1.288810
  H     19.783740  -11.575880   -1.807800

 Total Charge           Charge          ....    0
 Multiplicity           Mult            ....    1
 Number of Electrons    NEL             ....  540
 Basis Dimension        Dim             .... 1212

ORBITAL ENERGIES
----------------

  NO   OCC          E(Eh)            E(eV)
   0   2.0000     -91.985089     -2503.0415
   1   2.0000     -91.978182     -2502.8536
   2   2.0000     -91.977703     -2502.8405
   3   2.0000     -91.974861     -2502.7632
   4   2.0000     -26.337602      -716.6826
   5   2.0000     -26.336310      -716.6474
   6   2.0000     -26.336276      -716.6465
   7   2.0000     -26.333126      -716.5608
   8   2.0000     -20.568539      -559.6984
   9   2.0000     -20.568180      -559.6886
  10   2.0000     -15.651468      -425.8981
  11   2.0000     -15.649567      -425.8464
  12   2.0000     -15.599272      -424.4778
  13   2.0000     -15.599256      -424.4773
  14   2.0000     -15.596141      -424.3926
  15   2.0000     -15.595883      -424.3855
  16   2.0000     -15.593333      -424.3162
  17   2.0000     -15.592640      -424.2973
  18   2.0000     -11.380132      -309.6691
  19   2.0000     -11.379051      -309.6397
  20   2.0000     -11.377831      -309.6065
  21   2.0000     -11.376076      -309.5588
  22   2.0000     -11.369278      -309.3738
  23   2.0000     -11.367949      -309.3376
  24   2.0000     -11.350345      -308.8586
  25   2.0000     -11.349888      -308.8462
  26   2.0000     -11.331788      -308.3536
  27   2.0000     -11.330725      -308.3247
  28   2.0000     -11.329361      -308.2876
  29   2.0000     -11.327592      -308.2394
  30   2.0000     -11.325586      -308.1849
  31   2.0000     -11.325224      -308.1750
  32   2.0000     -11.320006      -308.0330
  33   2.0000     -11.314591      -307.8857
  34   2.0000     -11.314328      -307.8785
  35   2.0000     -11.312716      -307.8346
  36   2.0000     -11.312678      -307.8336
  37   2.0000     -11.311881      -307.8119
  38   2.0000     -11.311641      -307.8054
  39   2.0000     -11.310328      -307.7697
  40   2.0000     -11.310060      -307.7624
  41   2.0000     -11.309938      -307.7591
  42   2.0000     -11.306972      -307.6784
  43   2.0000     -11.306777      -307.6731
  44   2.0000     -11.305774      -307.6458
  45   2.0000     -11.305433      -307.6365
  46   2.0000     -11.305168      -307.6293
  47   2.0000     -11.304528      -307.6118
  48   2.0000     -11.302630      -307.5602
  49   2.0000     -11.300892      -307.5129
  50   2.0000     -11.300226      -307.4948
  51   2.0000     -11.299691      -307.4802
  52   2.0000     -11.299270      -307.4688
  53   2.0000     -11.299092      -307.4639
  54   2.0000     -11.296923      -307.4049
  55   2.0000     -11.296171      -307.3844
  56   2.0000     -11.295714      -307.3720
  57   2.0000     -11.295336      -307.3617
  58   2.0000     -11.294338      -307.3346
  59   2.0000     -11.293534      -307.3127
  60   2.0000     -11.293184      -307.3032
  61   2.0000     -11.288466      -307.1748
  62   2.0000     -11.278652      -306.9077
  63   2.0000     -11.277303      -306.8710
  64   2.0000     -11.274995      -306.8082
  65   2.0000     -11.274718      -306.8007
  66   2.0000     -11.271306      -306.7078
  67   2.0000     -11.267205      -306.5962
  68   2.0000     -11.259439      -306.3849
  69   2.0000     -11.259086      -306.3753
  70   2.0000     -11.252063      -306.1842
  71   2.0000     -11.251564      -306.1706
  72   2.0000     -11.246142      -306.0231
  73   2.0000     -11.243095      -305.9402
  74   2.0000      -9.019570      -245.4350
  75   2.0000      -9.011710      -245.2211
  76   2.0000      -9.011073      -245.2038
  77   2.0000      -9.008223      -245.1262
  78   2.0000      -6.707222      -182.5128
  79   2.0000      -6.706113      -182.4826
  80   2.0000      -6.704053      -182.4266
  81   2.0000      -6.698961      -182.2880
  82   2.0000      -6.698561      -182.2771
  83   2.0000      -6.697760      -182.2553
  84   2.0000      -6.697732      -182.2545
  85   2.0000      -6.695751      -182.2006
  86   2.0000      -6.695718      -182.1997
  87   2.0000      -6.695456      -182.1926
  88   2.0000      -6.694916      -182.1779
  89   2.0000      -6.692579      -182.1143
  90   2.0000      -1.650425       -44.9103
  91   2.0000      -1.648212       -44.8501
  92   2.0000      -1.634540       -44.4781
  93   2.0000      -1.632669       -44.4272
  94   2.0000      -1.398185       -38.0465
  95   2.0000      -1.397020       -38.0148
  96   2.0000      -1.345706       -36.6185
  97   2.0000      -1.330255       -36.1981
  98   2.0000      -1.310649       -35.6646
  99   2.0000      -1.246625       -33.9224
 100   2.0000      -1.245293       -33.8861
 101   2.0000      -1.228434       -33.4274
 102   2.0000      -1.225933       -33.3593
 103   2.0000      -1.225429       -33.3456
 104   2.0000      -1.224375       -33.3169
 105   2.0000      -1.222663       -33.2704
 106   2.0000      -1.220106       -33.2008
 107   2.0000      -1.219739       -33.1908
 108   2.0000      -1.171134       -31.8682
 109   2.0000      -1.167737       -31.7757
 110   2.0000      -1.163726       -31.6666
 111   2.0000      -1.150556       -31.3082
 112   2.0000      -1.142497       -31.0889
 113   2.0000      -1.106473       -30.1087
 114   2.0000      -1.098053       -29.8795
 115   2.0000      -1.094053       -29.7707
 116   2.0000      -1.090887       -29.6845
 117   2.0000      -1.088503       -29.6197
 118   2.0000      -1.082721       -29.4623
 119   2.0000      -1.073713       -29.2172
 120   2.0000      -1.068684       -29.0804
 121   2.0000      -1.066762       -29.0281
 122   2.0000      -1.062869       -28.9221
 123   2.0000      -1.048018       -28.5180
 124   2.0000      -1.032327       -28.0911
 125   2.0000      -1.019838       -27.7512
 126   2.0000      -1.010104       -27.4863
 127   2.0000      -1.005575       -27.3631
 128   2.0000      -0.995718       -27.0949
 129   2.0000      -0.983667       -26.7669
 130   2.0000      -0.975129       -26.5346
 131   2.0000      -0.961544       -26.1649
 132   2.0000      -0.959710       -26.1150
 133   2.0000      -0.953907       -25.9571
 134   2.0000      -0.938152       -25.5284
 135   2.0000      -0.936013       -25.4702
 136   2.0000      -0.929032       -25.2802
 137   2.0000      -0.907150       -24.6848
 138   2.0000      -0.903998       -24.5990
 139   2.0000      -0.886978       -24.1359
 140   2.0000      -0.883443       -24.0397
 141   2.0000      -0.872681       -23.7469
 142   2.0000      -0.870520       -23.6881
 143   2.0000      -0.867258       -23.5993
 144   2.0000      -0.861812       -23.4511
 145   2.0000      -0.857629       -23.3373
 146   2.0000      -0.851838       -23.1797
 147   2.0000      -0.844326       -22.9753
 148   2.0000      -0.828266       -22.5383
 149   2.0000      -0.816571       -22.2200
 150   2.0000      -0.810620       -22.0581
 151   2.0000      -0.805490       -21.9185
 152   2.0000      -0.797440       -21.6995
 153   2.0000      -0.789072       -21.4717
 154   2.0000      -0.784755       -21.3543
 155   2.0000      -0.784624       -21.3507
 156   2.0000      -0.774950       -21.0875
 157   2.0000      -0.772461       -21.0197
 158   2.0000      -0.761449       -20.7201
 159   2.0000      -0.753044       -20.4914
 160   2.0000      -0.752733       -20.4829
 161   2.0000      -0.746205       -20.3053
 162   2.0000      -0.745163       -20.2769
 163   2.0000      -0.742935       -20.2163
 164   2.0000      -0.739865       -20.1327
 165   2.0000      -0.736693       -20.0464
 166   2.0000      -0.734310       -19.9816
 167   2.0000      -0.728178       -19.8147
 168   2.0000      -0.720532       -19.6067
 169   2.0000      -0.716973       -19.5098
 170   2.0000      -0.714977       -19.4555
 171   2.0000      -0.713274       -19.4092
 172   2.0000      -0.705787       -19.2055
 173   2.0000      -0.700720       -19.0676
 174   2.0000      -0.698227       -18.9997
 175   2.0000      -0.691818       -18.8253
 176   2.0000      -0.689207       -18.7543
 177   2.0000      -0.674360       -18.3503
 178   2.0000      -0.672472       -18.2989
 179   2.0000      -0.669685       -18.2231
 180   2.0000      -0.666574       -18.1384
 181   2.0000      -0.663451       -18.0534
 182   2.0000      -0.661373       -17.9969
 183   2.0000      -0.655143       -17.8273
 184   2.0000      -0.652387       -17.7524
 185   2.0000      -0.647491       -17.6191
 186   2.0000      -0.641637       -17.4598
 187   2.0000      -0.640450       -17.4275
 188   2.0000      -0.637293       -17.3416
 189   2.0000      -0.634846       -17.2750
 190   2.0000      -0.631352       -17.1800
 191   2.0000      -0.630315       -17.1517
 192   2.0000      -0.623905       -16.9773
 193   2.0000      -0.621719       -16.9178
 194   2.0000      -0.620734       -16.8910
 195   2.0000      -0.619310       -16.8523
 196   2.0000      -0.617557       -16.8046
 197   2.0000      -0.616087       -16.7646
 198   2.0000      -0.614469       -16.7206
 199   2.0000      -0.612336       -16.6625
 200   2.0000      -0.606821       -16.5125
 201   2.0000      -0.601573       -16.3696
 202   2.0000      -0.599581       -16.3154
 203   2.0000      -0.594583       -16.1794
 204   2.0000      -0.589444       -16.0396
 205   2.0000      -0.582130       -15.8406
 206   2.0000      -0.581063       -15.8115
 207   2.0000      -0.580518       -15.7967
 208   2.0000      -0.577192       -15.7062
 209   2.0000      -0.576252       -15.6806
 210   2.0000      -0.575749       -15.6669
 211   2.0000      -0.574599       -15.6356
 212   2.0000      -0.573840       -15.6150
 213   2.0000      -0.572945       -15.5906
 214   2.0000      -0.572013       -15.5653
 215   2.0000      -0.571053       -15.5391
 216   2.0000      -0.568525       -15.4704
 217   2.0000      -0.567387       -15.4394
 218   2.0000      -0.564998       -15.3744
 219   2.0000      -0.562726       -15.3126
 220   2.0000      -0.561110       -15.2686
 221   2.0000      -0.559091       -15.2136
 222   2.0000      -0.558038       -15.1850
 223   2.0000      -0.552170       -15.0253
 224   2.0000      -0.546862       -14.8809
 225   2.0000      -0.546498       -14.8710
 226   2.0000      -0.544025       -14.8037
 227   2.0000      -0.538048       -14.6410
 228   2.0000      -0.536287       -14.5931
 229   2.0000      -0.534902       -14.5554
 230   2.0000      -0.533111       -14.5067
 231   2.0000      -0.528866       -14.3912
 232   2.0000      -0.527526       -14.3547
 233   2.0000      -0.523434       -14.2434
 234   2.0000      -0.515697       -14.0328
 235   2.0000      -0.514470       -13.9994
 236   2.0000      -0.507607       -13.8127
 237   2.0000      -0.502229       -13.6664
 238   2.0000      -0.501073       -13.6349
 239   2.0000      -0.500347       -13.6151
 240   2.0000      -0.499121       -13.5818
 241   2.0000      -0.496905       -13.5215
 242   2.0000      -0.495744       -13.4899
 243   2.0000      -0.492926       -13.4132
 244   2.0000      -0.489052       -13.3078
 245   2.0000      -0.486150       -13.2288
 246   2.0000      -0.481225       -13.0948
 247   2.0000      -0.476532       -12.9671
 248   2.0000      -0.474843       -12.9211
 249   2.0000      -0.469213       -12.7679
 250   2.0000      -0.462908       -12.5964
 251   2.0000      -0.456020       -12.4089
 252   2.0000      -0.449398       -12.2288
 253   2.0000      -0.441077       -12.0023
 254   2.0000      -0.439546       -11.9607
 255   2.0000      -0.417344       -11.3565
 256   2.0000      -0.415032       -11.2936
 257   2.0000      -0.409259       -11.1365
 258   2.0000      -0.392518       -10.6809
 259   2.0000      -0.389322       -10.5940
 260   2.0000      -0.385711       -10.4957
 261   2.0000      -0.382825       -10.4172
 262   2.0000      -0.360196        -9.8014
 263   2.0000      -0.355750        -9.6804
 264   2.0000      -0.348182        -9.4745
 265   2.0000      -0.341689        -9.2978
 266   2.0000      -0.330864        -9.0033
 267   2.0000      -0.305945        -8.3252
 268   2.0000      -0.298350        -8.1185
 269   2.0000      -0.259666        -7.0659
 270   0.0000      -0.033973        -0.9244
 271   0.0000      -0.018951        -0.5157
 272   0.0000       0.013175         0.3585
 273   0.0000       0.018563         0.5051
 274   0.0000       0.046381         1.2621

MULLIKEN ATOMIC CHARGES
-----------------------
   0 C :    0.509599
   1 O :   -0.390567
   2 C :   -0.183243
   3 C :   -0.037675
   4 C :    0.343907
   5 F :   -0.304900
   6 C :    0.342629
   7 F :   -0.302745
   8 C :   -0.057453
   9 C :   -0.023045
  10 C :    0.243921
  11 C :   -0.355792
  12 C :    0.045410
  13 N :   -0.098010
  14 C :    0.045003
  15 N :   -0.088771
  16 C :   -0.315366
  17 C :    0.083449
  18 C :   -0.182178
  19 S :    0.249564
  20 C :   -0.012321
  21 C :   -0.111385
  22 C :   -0.090351
  23 C :   -0.019527
  24 C :   -0.016977
  25 S :    0.237578
  26 C :    0.009024
  27 C :    0.134772
  28 N :   -0.610928
  29 C :    0.114339
  30 C :   -0.047126
  31 C :    0.258818
  32 C :   -0.207270
  33 C :    0.120507
  34 N :   -0.309707
  35 C :   -0.065837
  36 C :    0.076950
  37 C :   -0.065836
  38 C :    0.077028
  39 N :   -0.309205
  40 C :    0.115520
  41 C :   -0.205604
  42 C :    0.268301
  43 N :   -0.613023
  44 C :    0.119256
  45 C :   -0.055469
  46 C :    0.137044
  47 C :    0.004056
  48 S :    0.242490
  49 C :   -0.118777
  50 C :   -0.003563
  51 S :    0.177557
  52 C :   -0.212997
  53 C :   -0.055385
  54 C :    0.009772
  55 C :   -0.044303
  56 C :    0.151410
  57 C :   -0.344085
  58 C :    0.225329
  59 C :   -0.341444
  60 C :    0.047606
  61 N :   -0.093978
  62 C :    0.058925
  63 N :   -0.077709
  64 C :   -0.038256
  65 C :   -0.061983
  66 C :    0.344549
  67 F :   -0.303670
  68 C :    0.339098
  69 F :   -0.304457
  70 C :   -0.032382
  71 C :   -0.174305
  72 C :    0.473108
  73 O :   -0.357373
  74 H :    0.086227
  75 H :    0.105901
  76 H :    0.089598
  77 H :    0.062644
  78 H :    0.059737
  79 H :    0.049255
  80 H :    0.060112
  81 H :    0.042679
  82 H :    0.049167
  83 H :    0.073248
  84 H :    0.046300
  85 H :    0.058319
  86 H :    0.061139
  87 H :    0.065036
  88 H :    0.049581
  89 H :    0.053714
  90 H :    0.053249
  91 H :    0.064458
  92 H :    0.050384
  93 H :    0.049229
  94 H :    0.063187
  95 H :    0.054590
  96 H :    0.060183
  97 H :    0.065631
  98 H :    0.050472
  99 H :    0.059680
 100 H :    0.064629
 101 H :    0.051081
 102 H :    0.052809
 103 H :    0.094287
 104 H :    0.102575
 105 H :    0.089356
Sum of atomic charges:   -0.0000000

LOEWDIN ATOMIC CHARGES
----------------------
   0 C :    0.168012
   1 O :   -0.256966
   2 C :   -0.052879
   3 C :    0.003181
   4 C :    0.120124
   5 F :   -0.103301
   6 C :    0.119179
   7 F :   -0.102713
   8 C :   -0.006415
   9 C :   -0.023229
  10 C :    0.129209
  11 C :   -0.186048
  12 C :    0.021920
  13 N :   -0.108104
  14 C :    0.018686
  15 N :   -0.102602
  16 C :   -0.180956
  17 C :    0.117713
  18 C :   -0.224878
  19 S :    0.460629
  20 C :   -0.160045
  21 C :   -0.212548
  22 C :    0.030110
  23 C :   -0.017556
  24 C :   -0.021403
  25 S :    0.392543
  26 C :   -0.149666
  27 C :   -0.026777
  28 N :   -0.042287
  29 C :    0.072228
  30 C :   -0.042126
  31 C :    0.046493
  32 C :   -0.075700
  33 C :    0.002101
  34 N :   -0.100315
  35 C :    0.014364
  36 C :   -0.030305
  37 C :    0.013678
  38 C :   -0.030374
  39 N :   -0.100375
  40 C :    0.000600
  41 C :   -0.073580
  42 C :    0.043677
  43 N :   -0.037839
  44 C :    0.070060
  45 C :   -0.042324
  46 C :   -0.020789
  47 C :   -0.155773
  48 S :    0.404166
  49 C :   -0.205266
  50 C :   -0.157118
  51 S :    0.417619
  52 C :   -0.219730
  53 C :    0.030132
  54 C :   -0.015104
  55 C :   -0.024378
  56 C :    0.117067
  57 C :   -0.170360
  58 C :    0.109596
  59 C :   -0.180049
  60 C :    0.017818
  61 N :   -0.104711
  62 C :    0.005771
  63 N :   -0.100017
  64 C :   -0.020569
  65 C :   -0.011569
  66 C :    0.121515
  67 F :   -0.103524
  68 C :    0.118517
  69 F :   -0.103198
  70 C :    0.004355
  71 C :   -0.054884
  72 C :    0.170824
  73 O :   -0.236125
  74 H :    0.058329
  75 H :    0.056980
  76 H :    0.049043
  77 H :    0.029826
  78 H :    0.029485
  79 H :    0.022457
  80 H :    0.029028
  81 H :    0.019791
  82 H :    0.022201
  83 H :    0.026234
  84 H :    0.018241
  85 H :    0.031649
  86 H :    0.019487
  87 H :    0.036431
  88 H :    0.030110
  89 H :    0.031806
  90 H :    0.031562
  91 H :    0.036151
  92 H :    0.030331
  93 H :    0.021558
  94 H :    0.022404
  95 H :    0.021973
  96 H :    0.031382
  97 H :    0.022406
  98 H :    0.026748
  99 H :    0.029808
 100 H :    0.029558
 101 H :    0.023451
 102 H :    0.022056
 103 H :    0.056383
 104 H :    0.056317
 105 H :    0.059404

  Mayer bond orders larger than 0.100000
B(  0-C ,  1-O ) :   2.0285 B(  0-C ,  2-C ) :   0.9813 B(  0-C , 16-C ) :   0.9953
B(  2-C ,  3-C ) :   1.3810 B(  2-C ,  9-C ) :   1.3883 B(  3-C ,  4-C ) :   1.3901
B(  3-C , 74-H ) :   1.0070 B(  4-C ,  5-F ) :   0.9411 B(  4-C ,  6-C ) :   1.3257
B(  6-C ,  7-F ) :   0.9472 B(  6-C ,  8-C ) :   1.4207 B(  8-C ,  9-C ) :   1.3641
B(  8-C , 75-H ) :   0.9854 B(  9-C , 10-C ) :   1.0366 B( 10-C , 11-C ) :   1.6560
B( 10-C , 16-C ) :   1.1360 B( 11-C , 12-C ) :   1.0659 B( 11-C , 14-C ) :   1.0567
B( 12-C , 13-N ) :   2.9725 B( 14-C , 15-N ) :   2.9794 B( 16-C , 17-C ) :   1.5592
B( 17-C , 18-C ) :   1.3416 B( 17-C , 76-H ) :   0.9573 B( 18-C , 19-S ) :   1.0302
B( 18-C , 22-C ) :   1.4408 B( 19-S , 20-C ) :   1.0432 B( 20-C , 21-C ) :   1.4587
B( 20-C , 27-C ) :   1.3465 B( 21-C , 22-C ) :   1.4971 B( 21-C , 25-S ) :   0.9774
B( 22-C , 23-C ) :   0.9878 B( 23-C , 24-C ) :   1.0332 B( 23-C , 77-H ) :   0.9616
B( 23-C , 78-H ) :   0.9664 B( 24-C , 79-H ) :   0.9822 B( 24-C , 80-H ) :   0.9855
B( 24-C , 81-H ) :   0.9823 B( 25-S , 26-C ) :   0.9882 B( 26-C , 27-C ) :   1.4687
B( 26-C , 32-C ) :   1.4176 B( 27-C , 28-N ) :   1.0697 B( 28-N , 29-C ) :   0.8298
B( 28-N , 31-C ) :   1.0927 B( 29-C , 30-C ) :   1.0357 B( 29-C , 82-H ) :   0.9842
B( 29-C , 83-H ) :   0.9785 B( 30-C , 84-H ) :   0.9763 B( 30-C , 85-H ) :   0.9815
B( 30-C , 86-H ) :   0.9753 B( 31-C , 32-C ) :   1.4238 B( 31-C , 42-C ) :   1.1917
B( 32-C , 33-C ) :   1.1516 B( 33-C , 34-N ) :   1.4435 B( 33-C , 40-C ) :   1.2602
B( 34-N , 35-C ) :   1.6230 B( 35-C , 36-C ) :   1.0248 B( 35-C , 37-C ) :   1.1871
B( 36-C , 87-H ) :   0.9749 B( 36-C , 88-H ) :   0.9724 B( 36-C , 89-H ) :   0.9718
B( 37-C , 38-C ) :   1.0248 B( 37-C , 39-N ) :   1.6217 B( 38-C , 90-H ) :   0.9726
B( 38-C , 91-H ) :   0.9749 B( 38-C , 92-H ) :   0.9716 B( 39-N , 40-C ) :   1.4450
B( 40-C , 41-C ) :   1.1503 B( 41-C , 42-C ) :   1.4186 B( 41-C , 47-C ) :   1.4208
B( 42-C , 43-N ) :   1.0867 B( 43-N , 44-C ) :   0.8379 B( 43-N , 46-C ) :   1.0756
B( 44-C , 45-C ) :   1.0307 B( 44-C , 93-H ) :   0.9841 B( 44-C , 94-H ) :   0.9784
B( 45-C , 95-H ) :   0.9755 B( 45-C , 96-H ) :   0.9824 B( 45-C , 97-H ) :   0.9763
B( 46-C , 47-C ) :   1.4612 B( 46-C , 50-C ) :   1.3516 B( 47-C , 48-S ) :   0.9937
B( 48-S , 49-C ) :   0.9894 B( 49-C , 50-C ) :   1.5003 B( 49-C , 53-C ) :   1.4296
B( 50-C , 51-S ) :   1.0368 B( 51-S , 52-C ) :   1.0449 B( 52-C , 53-C ) :   1.5007
B( 52-C , 56-C ) :   1.2320 B( 53-C , 54-C ) :   0.9999 B( 54-C , 55-C ) :   1.0295
B( 54-C , 98-H ) :   0.9622 B( 54-C , 99-H ) :   0.9633 B( 55-C ,100-H ) :   0.9793
B( 55-C ,101-H ) :   0.9857 B( 55-C ,102-H ) :   0.9839 B( 56-C , 57-C ) :   1.6533
B( 56-C ,103-H ) :   0.9538 B( 57-C , 58-C ) :   1.0913 B( 57-C , 72-C ) :   1.0017
B( 58-C , 59-C ) :   1.6842 B( 58-C , 64-C ) :   1.0435 B( 59-C , 60-C ) :   1.0426
B( 59-C , 62-C ) :   1.0699 B( 60-C , 61-N ) :   2.9832 B( 62-C , 63-N ) :   2.9983
B( 64-C , 65-C ) :   1.3689 B( 64-C , 71-C ) :   1.3794 B( 65-C , 66-C ) :   1.4196
B( 65-C ,104-H ) :   0.9869 B( 66-C , 67-F ) :   0.9461 B( 66-C , 68-C ) :   1.3255
B( 68-C , 69-F ) :   0.9411 B( 68-C , 70-C ) :   1.3962 B( 70-C , 71-C ) :   1.3823
B( 70-C ,105-H ) :   1.0052 B( 71-C , 72-C ) :   0.9467 B( 72-C , 73-O ) :   2.0858

-----------------------------------------------------------------------------
         ABSORPTION SPECTRUM VIA TRANSITION ELECTRIC DIPOLE MOMENTS
-----------------------------------------------------------------------------
State   Energy    Wavelength  fosc         T2        TX        TY        TZ
        (cm-1)      (nm)                 (au**2)    (au)      (au)      (au)
-----------------------------------------------------------------------------
   1   21311.8    469.2   1.790082362  27.65213  -3.03834   4.29192  -0.00435
   2   25609.0    390.5   1.350737744  17.36414  -1.82075  -3.36590  -1.64916
   3   33655.4    297.1   0.242445799   2.37157  -1.44651   0.28491   0.44498

FINAL SINGLE POINT ENERGY     -4709.312067021731

DIPOLE MOMENT
-------------
                                X             Y             Z
Electronic contribution:     58.52455      40.82134      26.36069
Nuclear contribution   :    -61.03389     -43.78333     -28.37273
                        -----------------------------------------
Total Dipole Moment    :     -2.50934      -2.96199      -2.01204
                        -----------------------------------------
Magnitude (a.u.)       :      4.37246
Magnitude (Debye)      :     11.11392

Rotational constants in cm-1:     0.001035     0.000336     0.000263
Rotational constants in MHz :    31.030860    10.064146     7.879789

                             ****ORCA TERMINATED NORMALLY****
TOTAL RUN TIME: 0 days 15 hours 52 minutes 53 seconds 347 msec
