                         Program Version 4.2.0 -  RELEASE  -
|  1> # ORCA input file
|  2> # AQx.out
|  3> ! Engrad Keepdens
|  4> %maxcore 1000
|  5> %tddft
|  6>   nroots 3
|  7>   # nroots is the number of states to be computed
|  8>   Iroot 1
|  9>   end
| 10> * xyz 0 1
| 11>    C        8.85689         2.86215         1.35253
| 12>    O        9.48754         1.82917         1.20864
| 13>    C        9.37919         4.12391         1.91845
| 14>    C       10.64834         4.39208         2.38985
| 15>    C       10.89516         5.66453         2.88014
| 16>    F       12.11180         5.96997         3.34821
| 17>    C        9.88796         6.62904         2.89062
| 18>    F       10.15350         7.84958         3.36992
| 19>    C        8.61254         6.35793         2.41622
| 20>    C        8.35741         5.08786         1.92416
| 21>    C        7.14375         4.48948         1.36313
| 22>    C        5.94378         5.13873         1.21856
| 23>    C        4.76296         4.58385         0.68292
| 24>    N        3.76293         4.20986         0.25758
| 25>    C        5.72000         6.47976         1.59632
| 26>    N        5.46915         7.56266         1.88238
| 27>    C        7.45879         3.12040         1.01409
| 28>    C        6.57594         2.22042         0.45829
| 29>    C        6.73383         0.88225         0.10002
| 30>    S        8.21676        -0.05410         0.30831
| 31>    C        7.43994        -1.44811        -0.33788
| 32>    C        6.10411        -1.18984        -0.70233
| 33>    C        5.69451         0.11176        -0.45989
| 34>    C        4.33357         0.61267        -0.81562
| 35>    C        4.35087         1.30958        -2.17919
| 36>    S        5.27473        -2.58746        -1.36506
| 37>    C        6.72038        -3.50759        -1.14522
| 38>    C        7.78210        -2.77546        -0.60139
| 39>    N        8.87384        -3.58448        -0.44475
| 40>    C       10.05125        -3.03974         0.19012
| 41>    C       10.92401        -2.27087        -0.80167
| 42>    C        8.54358        -4.84498        -0.90414
| 43>    C        7.17837        -4.81711        -1.32645
| 44>    C        6.45712        -5.95067        -1.78208
| 45>    N        5.17475        -5.85000        -2.15185
| 46>    C        4.55782        -6.94909        -2.53187
| 47>    C        3.12896        -6.81719        -2.94123
| 48>    C        5.22580        -8.20047        -2.54769
| 49>    C        4.53316        -9.45417        -2.96607
| 50>    N        6.48957        -8.30492        -2.19378
| 51>    C        7.12335        -7.19040        -1.80965
| 52>    C        8.49381        -7.21769        -1.44365
| 53>    C        9.24090        -6.07425        -1.02694
| 54>    N       10.55552        -6.46584        -0.84678
| 55>    C       11.75990        -5.76596        -0.46599
| 56>    C       12.06602        -5.94473         1.02135
| 57>    C       10.63572        -7.80686        -1.09846
| 58>    C        9.37864        -8.30265        -1.46339
| 59>    S        9.36516        -9.99615        -1.79864
| 60>    C       11.08047       -10.05181        -1.45345
| 61>    C       11.61333        -8.80032        -1.10520
| 62>    S       13.30249        -8.90207        -0.78733
| 63>    C       13.27949       -10.64145        -1.08709
| 64>    C       12.01269       -11.08959        -1.46066
| 65>    C       11.66537       -12.51557        -1.71998
| 66>    C       11.49862       -13.27082        -0.39855
| 67>    C       14.45664       -11.40689        -1.03915
| 68>    C       15.65610       -11.10040        -0.45743
| 69>    C       16.01643       -10.12002         0.53821
| 70>    C       15.21799        -9.67386         1.56034
| 71>    C       15.62324        -8.73648         2.52922
| 72>    N       15.88905        -7.94566         3.31821
| 73>    C       13.91828       -10.17350         1.78690
| 74>    N       12.88088       -10.60060         2.03044
| 75>    C       17.46205        -9.92033         0.44467
| 76>    C       18.29436        -8.99501         1.05159
| 77>    C       19.65424        -9.07774         0.79091
| 78>    F       20.47757        -8.18461         1.35206
| 79>    C       20.18028       -10.06441        -0.04328
| 80>    F       21.50025       -10.10956        -0.26273
| 81>    C       19.35237       -10.99591        -0.65034
| 82>    C       17.99730       -10.90776        -0.40164
| 83>    C       16.89798       -11.74526        -0.94197
| 84>    O       16.99054       -12.71224        -1.66255
| 85>    H       11.42350         3.64260         2.38024
| 86>    H        7.87140         7.13935         2.44771
| 87>    H        5.58214         2.59937         0.26411
| 88>    H        3.95839         1.30505        -0.06068
| 89>    H        3.65745        -0.24315        -0.86179
| 90>    H        5.01922         2.16720        -2.16588
| 91>    H        3.35182         1.65636        -2.42684
| 92>    H        4.68418         0.62063        -2.95181
| 93>    H       10.60065        -3.83274         0.68977
| 94>    H        9.70679        -2.34158         0.95972
| 95>    H       11.16476        -2.87563        -1.67417
| 96>    H       11.84610        -1.96109        -0.31843
| 97>    H       10.40165        -1.38058        -1.14138
| 98>    H        2.82827        -5.77703        -2.85551
| 99>    H        2.49294        -7.43084        -2.30495
|100>    H        2.99537        -7.14905        -3.96978
|101>    H        3.67815        -9.64930        -2.32045
|102>    H        5.23005       -10.28488        -2.90234
|103>    H        4.16868        -9.36514        -3.98840
|104>    H       11.68512        -4.71867        -0.74352
|105>    H       12.57940        -6.20217        -1.04716
|106>    H       11.22743        -5.63187         1.64023
|107>    H       12.94227        -5.36335         1.29357
|108>    H       12.26742        -6.99063         1.23943
|109>    H       12.44641       -12.99225        -2.31573
|110>    H       10.72891       -12.54985        -2.27979
|111>    H       12.42260       -13.24629         0.17403
|112>    H       11.23177       -14.30610        -0.59272
|113>    H       10.71491       -12.81374         0.19987
|114>    H       14.45083       -12.32446        -1.61973
|115>    H       17.92977        -8.21612         1.70143
|116>    H       19.75961       -11.75952        -1.29367
|117> *
|118>
|119>                          ****END OF INPUT****

CARTESIAN COORDINATES (ANGSTROEM)
---------------------------------
  C      8.856890    2.862150    1.352530
  O      9.487540    1.829170    1.208640
  C      9.379190    4.123910    1.918450
  C     10.648340    4.392080    2.389850
  C     10.895160    5.664530    2.880140
  F     12.111800    5.969970    3.348210
  C      9.887960    6.629040    2.890620
  F     10.153500    7.849580    3.369920
  C      8.612540    6.357930    2.416220
  C      8.357410    5.087860    1.924160
  C      7.143750    4.489480    1.363130
  C      5.943780    5.138730    1.218560
  C      4.762960    4.583850    0.682920
  N      3.762930    4.209860    0.257580
  C      5.720000    6.479760    1.596320
  N      5.469150    7.562660    1.882380
  C      7.458790    3.120400    1.014090
  C      6.575940    2.220420    0.458290
  C      6.733830    0.882250    0.100020
  S      8.216760   -0.054100    0.308310
  C      7.439940   -1.448110   -0.337880
  C      6.104110   -1.189840   -0.702330
  C      5.694510    0.111760   -0.459890
  C      4.333570    0.612670   -0.815620
  C      4.350870    1.309580   -2.179190
  S      5.274730   -2.587460   -1.365060
  C      6.720380   -3.507590   -1.145220
  C      7.782100   -2.775460   -0.601390
  N      8.873840   -3.584480   -0.444750
  C     10.051250   -3.039740    0.190120
  C     10.924010   -2.270870   -0.801670
  C      8.543580   -4.844980   -0.904140
  C      7.178370   -4.817110   -1.326450
  C      6.457120   -5.950670   -1.782080
  N      5.174750   -5.850000   -2.151850
  C      4.557820   -6.949090   -2.531870
  C      3.128960   -6.817190   -2.941230
  C      5.225800   -8.200470   -2.547690
  C      4.533160   -9.454170   -2.966070
  N      6.489570   -8.304920   -2.193780
  C      7.123350   -7.190400   -1.809650
  C      8.493810   -7.217690   -1.443650
  C      9.240900   -6.074250   -1.026940
  N     10.555520   -6.465840   -0.846780
  C     11.759900   -5.765960   -0.465990
  C     12.066020   -5.944730    1.021350
  C     10.635720   -7.806860   -1.098460
  C      9.378640   -8.302650   -1.463390
  S      9.365160   -9.996150   -1.798640
  C     11.080470  -10.051810   -1.453450
  C     11.613330   -8.800320   -1.105200
  S     13.302490   -8.902070   -0.787330
  C     13.279490  -10.641450   -1.087090
  C     12.012690  -11.089590   -1.460660
  C     11.665370  -12.515570   -1.719980
  C     11.498620  -13.270820   -0.398550
  C     14.456640  -11.406890   -1.039150
  C     15.656100  -11.100400   -0.457430
  C     16.016430  -10.120020    0.538210
  C     15.217990   -9.673860    1.560340
  C     15.623240   -8.736480    2.529220
  N     15.889050   -7.945660    3.318210
  C     13.918280  -10.173500    1.786900
  N     12.880880  -10.600600    2.030440
  C     17.462050   -9.920330    0.444670
  C     18.294360   -8.995010    1.051590
  C     19.654240   -9.077740    0.790910
  F     20.477570   -8.184610    1.352060
  C     20.180280  -10.064410   -0.043280
  F     21.500250  -10.109560   -0.262730
  C     19.352370  -10.995910   -0.650340
  C     17.997300  -10.907760   -0.401640
  C     16.897980  -11.745260   -0.941970
  O     16.990540  -12.712240   -1.662550
  H     11.423500    3.642600    2.380240
  H      7.871400    7.139350    2.447710
  H      5.582140    2.599370    0.264110
  H      3.958390    1.305050   -0.060680
  H      3.657450   -0.243150   -0.861790
  H      5.019220    2.167200   -2.165880
  H      3.351820    1.656360   -2.426840
  H      4.684180    0.620630   -2.951810
  H     10.600650   -3.832740    0.689770
  H      9.706790   -2.341580    0.959720
  H     11.164760   -2.875630   -1.674170
  H     11.846100   -1.961090   -0.318430
  H     10.401650   -1.380580   -1.141380
  H      2.828270   -5.777030   -2.855510
  H      2.492940   -7.430840   -2.304950
  H      2.995370   -7.149050   -3.969780
  H      3.678150   -9.649300   -2.320450
  H      5.230050  -10.284880   -2.902340
  H      4.168680   -9.365140   -3.988400
  H     11.685120   -4.718670   -0.743520
  H     12.579400   -6.202170   -1.047160
  H     11.227430   -5.631870    1.640230
  H     12.942270   -5.363350    1.293570
  H     12.267420   -6.990630    1.239430
  H     12.446410  -12.992250   -2.315730
  H     10.728910  -12.549850   -2.279790
  H     12.422600  -13.246290    0.174030
  H     11.231770  -14.306100   -0.592720
  H     10.714910  -12.813740    0.199870
  H     14.450830  -12.324460   -1.619730
  H     17.929770   -8.216120    1.701430
  H     19.759610  -11.759520   -1.293670

 Total Charge           Charge          ....    0
 Multiplicity           Mult            ....    1
 Number of Electrons    NEL             ....  540
 Basis Dimension        Dim             .... 1212

ORBITAL ENERGIES
----------------

  NO   OCC          E(Eh)            E(eV)
   0   2.0000     -91.981804     -2502.9521
   1   2.0000     -91.974977     -2502.7663
   2   2.0000     -91.974283     -2502.7475
   3   2.0000     -91.971439     -2502.6701
   4   2.0000     -26.335269      -716.6191
   5   2.0000     -26.335078      -716.6139
   6   2.0000     -26.334592      -716.6007
   7   2.0000     -26.332108      -716.5331
   8   2.0000     -20.569321      -559.7197
   9   2.0000     -20.566135      -559.6330
  10   2.0000     -15.650431      -425.8699
  11   2.0000     -15.649277      -425.8385
  12   2.0000     -15.594074      -424.3363
  13   2.0000     -15.593896      -424.3315
  14   2.0000     -15.593779      -424.3283
  15   2.0000     -15.593777      -424.3282
  16   2.0000     -15.587837      -424.1666
  17   2.0000     -15.585966      -424.1157
  18   2.0000     -11.378892      -309.6354
  19   2.0000     -11.377392      -309.5946
  20   2.0000     -11.377001      -309.5839
  21   2.0000     -11.375436      -309.5413
  22   2.0000     -11.367834      -309.3345
  23   2.0000     -11.365419      -309.2688
  24   2.0000     -11.342863      -308.6550
  25   2.0000     -11.342371      -308.6416
  26   2.0000     -11.329431      -308.2895
  27   2.0000     -11.328360      -308.2604
  28   2.0000     -11.322609      -308.1039
  29   2.0000     -11.320959      -308.0590
  30   2.0000     -11.319644      -308.0232
  31   2.0000     -11.317201      -307.9567
  32   2.0000     -11.315802      -307.9186
  33   2.0000     -11.313064      -307.8441
  34   2.0000     -11.310355      -307.7704
  35   2.0000     -11.308210      -307.7120
  36   2.0000     -11.306026      -307.6526
  37   2.0000     -11.305961      -307.6508
  38   2.0000     -11.304955      -307.6235
  39   2.0000     -11.304335      -307.6066
  40   2.0000     -11.304209      -307.6032
  41   2.0000     -11.302758      -307.5637
  42   2.0000     -11.302522      -307.5572
  43   2.0000     -11.302097      -307.5457
  44   2.0000     -11.301152      -307.5200
  45   2.0000     -11.300168      -307.4932
  46   2.0000     -11.298795      -307.4558
  47   2.0000     -11.297734      -307.4270
  48   2.0000     -11.296536      -307.3944
  49   2.0000     -11.296416      -307.3911
  50   2.0000     -11.295734      -307.3726
  51   2.0000     -11.294920      -307.3504
  52   2.0000     -11.294816      -307.3476
  53   2.0000     -11.294615      -307.3421
  54   2.0000     -11.293945      -307.3239
  55   2.0000     -11.293508      -307.3120
  56   2.0000     -11.290975      -307.2431
  57   2.0000     -11.289562      -307.2046
  58   2.0000     -11.289256      -307.1963
  59   2.0000     -11.288958      -307.1882
  60   2.0000     -11.287574      -307.1505
  61   2.0000     -11.286351      -307.1172
  62   2.0000     -11.272613      -306.7434
  63   2.0000     -11.269958      -306.6712
  64   2.0000     -11.269324      -306.6539
  65   2.0000     -11.268206      -306.6235
  66   2.0000     -11.266723      -306.5831
  67   2.0000     -11.261690      -306.4462
  68   2.0000     -11.254383      -306.2473
  69   2.0000     -11.254210      -306.2426
  70   2.0000     -11.246535      -306.0338
  71   2.0000     -11.246301      -306.0274
  72   2.0000     -11.241613      -305.8998
  73   2.0000     -11.241298      -305.8913
  74   2.0000      -9.016754      -245.3583
  75   2.0000      -9.009242      -245.1539
  76   2.0000      -9.007839      -245.1158
  77   2.0000      -9.005795      -245.0602
  78   2.0000      -6.704431      -182.4368
  79   2.0000      -6.703318      -182.4066
  80   2.0000      -6.701260      -182.3506
  81   2.0000      -6.696760      -182.2281
  82   2.0000      -6.695967      -182.2065
  83   2.0000      -6.695059      -182.1818
  84   2.0000      -6.693679      -182.1443
  85   2.0000      -6.693655      -182.1436
  86   2.0000      -6.693328      -182.1347
  87   2.0000      -6.692527      -182.1129
  88   2.0000      -6.691625      -182.0884
  89   2.0000      -6.690186      -182.0492
  90   2.0000      -1.645259       -44.7698
  91   2.0000      -1.643470       -44.7211
  92   2.0000      -1.630366       -44.3645
  93   2.0000      -1.628524       -44.3144
  94   2.0000      -1.403241       -38.1841
  95   2.0000      -1.398738       -38.0616
  96   2.0000      -1.356066       -36.9004
  97   2.0000      -1.341125       -36.4939
  98   2.0000      -1.318530       -35.8790
  99   2.0000      -1.255158       -34.1546
 100   2.0000      -1.253275       -34.1033
 101   2.0000      -1.235202       -33.6115
 102   2.0000      -1.233197       -33.5570
 103   2.0000      -1.232176       -33.5292
 104   2.0000      -1.231298       -33.5053
 105   2.0000      -1.229002       -33.4428
 106   2.0000      -1.226033       -33.3621
 107   2.0000      -1.225358       -33.3437
 108   2.0000      -1.178305       -32.0633
 109   2.0000      -1.175160       -31.9777
 110   2.0000      -1.171244       -31.8712
 111   2.0000      -1.157755       -31.5041
 112   2.0000      -1.149330       -31.2749
 113   2.0000      -1.112970       -30.2855
 114   2.0000      -1.104630       -30.0585
 115   2.0000      -1.100768       -29.9534
 116   2.0000      -1.097057       -29.8525
 117   2.0000      -1.093322       -29.7508
 118   2.0000      -1.089222       -29.6392
 119   2.0000      -1.078697       -29.3528
 120   2.0000      -1.073883       -29.2218
 121   2.0000      -1.072096       -29.1732
 122   2.0000      -1.067717       -29.0541
 123   2.0000      -1.052607       -28.6429
 124   2.0000      -1.036939       -28.2165
 125   2.0000      -1.024965       -27.8907
 126   2.0000      -1.015437       -27.6315
 127   2.0000      -1.009861       -27.4797
 128   2.0000      -1.000516       -27.2254
 129   2.0000      -0.988663       -26.9029
 130   2.0000      -0.980223       -26.6732
 131   2.0000      -0.965601       -26.2753
 132   2.0000      -0.963375       -26.2148
 133   2.0000      -0.958336       -26.0777
 134   2.0000      -0.944229       -25.6938
 135   2.0000      -0.942690       -25.6519
 136   2.0000      -0.931323       -25.3426
 137   2.0000      -0.913292       -24.8519
 138   2.0000      -0.907354       -24.6904
 139   2.0000      -0.889782       -24.2122
 140   2.0000      -0.888528       -24.1781
 141   2.0000      -0.877103       -23.8672
 142   2.0000      -0.874540       -23.7974
 143   2.0000      -0.871267       -23.7084
 144   2.0000      -0.864951       -23.5365
 145   2.0000      -0.861018       -23.4295
 146   2.0000      -0.854224       -23.2446
 147   2.0000      -0.847857       -23.0714
 148   2.0000      -0.831928       -22.6379
 149   2.0000      -0.819769       -22.3071
 150   2.0000      -0.816642       -22.2219
 151   2.0000      -0.806879       -21.9563
 152   2.0000      -0.798131       -21.7183
 153   2.0000      -0.790927       -21.5222
 154   2.0000      -0.787274       -21.4228
 155   2.0000      -0.786360       -21.3979
 156   2.0000      -0.779083       -21.1999
 157   2.0000      -0.774612       -21.0783
 158   2.0000      -0.764037       -20.7905
 159   2.0000      -0.756582       -20.5876
 160   2.0000      -0.754172       -20.5221
 161   2.0000      -0.749427       -20.3929
 162   2.0000      -0.743595       -20.2342
 163   2.0000      -0.742423       -20.2024
 164   2.0000      -0.741527       -20.1780
 165   2.0000      -0.740709       -20.1557
 166   2.0000      -0.737027       -20.0555
 167   2.0000      -0.731360       -19.9013
 168   2.0000      -0.723538       -19.6885
 169   2.0000      -0.716203       -19.4889
 170   2.0000      -0.714448       -19.4411
 171   2.0000      -0.712586       -19.3904
 172   2.0000      -0.708672       -19.2839
 173   2.0000      -0.704794       -19.1784
 174   2.0000      -0.701412       -19.0864
 175   2.0000      -0.692672       -18.8486
 176   2.0000      -0.689794       -18.7702
 177   2.0000      -0.678838       -18.4721
 178   2.0000      -0.677420       -18.4335
 179   2.0000      -0.672093       -18.2886
 180   2.0000      -0.670658       -18.2495
 181   2.0000      -0.668028       -18.1780
 182   2.0000      -0.665143       -18.0995
 183   2.0000      -0.660913       -17.9844
 184   2.0000      -0.655021       -17.8240
 185   2.0000      -0.651757       -17.7352
 186   2.0000      -0.647220       -17.6117
 187   2.0000      -0.642709       -17.4890
 188   2.0000      -0.639862       -17.4115
 189   2.0000      -0.638287       -17.3687
 190   2.0000      -0.635721       -17.2988
 191   2.0000      -0.635176       -17.2840
 192   2.0000      -0.628695       -17.1077
 193   2.0000      -0.626401       -17.0452
 194   2.0000      -0.625580       -17.0229
 195   2.0000      -0.622330       -16.9345
 196   2.0000      -0.621640       -16.9157
 197   2.0000      -0.621164       -16.9027
 198   2.0000      -0.619306       -16.8522
 199   2.0000      -0.617299       -16.7976
 200   2.0000      -0.609474       -16.5846
 201   2.0000      -0.607187       -16.5224
 202   2.0000      -0.602230       -16.3875
 203   2.0000      -0.599218       -16.3055
 204   2.0000      -0.591977       -16.1085
 205   2.0000      -0.584949       -15.9173
 206   2.0000      -0.583223       -15.8703
 207   2.0000      -0.580205       -15.7882
 208   2.0000      -0.579836       -15.7781
 209   2.0000      -0.579416       -15.7667
 210   2.0000      -0.578094       -15.7307
 211   2.0000      -0.577389       -15.7116
 212   2.0000      -0.576454       -15.6861
 213   2.0000      -0.575363       -15.6564
 214   2.0000      -0.574450       -15.6316
 215   2.0000      -0.572226       -15.5711
 216   2.0000      -0.571400       -15.5486
 217   2.0000      -0.569870       -15.5070
 218   2.0000      -0.567077       -15.4310
 219   2.0000      -0.565155       -15.3786
 220   2.0000      -0.563586       -15.3360
 221   2.0000      -0.561293       -15.2736
 222   2.0000      -0.559368       -15.2212
 223   2.0000      -0.553975       -15.0744
 224   2.0000      -0.550641       -14.9837
 225   2.0000      -0.548365       -14.9218
 226   2.0000      -0.546515       -14.8714
 227   2.0000      -0.543152       -14.7799
 228   2.0000      -0.540427       -14.7058
 229   2.0000      -0.537883       -14.6365
 230   2.0000      -0.537193       -14.6178
 231   2.0000      -0.532037       -14.4775
 232   2.0000      -0.530860       -14.4454
 233   2.0000      -0.528409       -14.3787
 234   2.0000      -0.519533       -14.1372
 235   2.0000      -0.517625       -14.0853
 236   2.0000      -0.511098       -13.9077
 237   2.0000      -0.510427       -13.8894
 238   2.0000      -0.504590       -13.7306
 239   2.0000      -0.503059       -13.6889
 240   2.0000      -0.502288       -13.6679
 241   2.0000      -0.499353       -13.5881
 242   2.0000      -0.496728       -13.5167
 243   2.0000      -0.495686       -13.4883
 244   2.0000      -0.489385       -13.3168
 245   2.0000      -0.488837       -13.3019
 246   2.0000      -0.483085       -13.1454
 247   2.0000      -0.475856       -12.9487
 248   2.0000      -0.475287       -12.9332
 249   2.0000      -0.472718       -12.8633
 250   2.0000      -0.465540       -12.6680
 251   2.0000      -0.457166       -12.4401
 252   2.0000      -0.450357       -12.2548
 253   2.0000      -0.441969       -12.0266
 254   2.0000      -0.434083       -11.8120
 255   2.0000      -0.417958       -11.3732
 256   2.0000      -0.417502       -11.3608
 257   2.0000      -0.411564       -11.1992
 258   2.0000      -0.395126       -10.7519
 259   2.0000      -0.392579       -10.6826
 260   2.0000      -0.386370       -10.5137
 261   2.0000      -0.385364       -10.4863
 262   2.0000      -0.362065        -9.8523
 263   2.0000      -0.356937        -9.7127
 264   2.0000      -0.348650        -9.4872
 265   2.0000      -0.341858        -9.3024
 266   2.0000      -0.329271        -8.9599
 267   2.0000      -0.304205        -8.2778
 268   2.0000      -0.297567        -8.0972
 269   2.0000      -0.257040        -6.9944
 270   0.0000      -0.033244        -0.9046
 271   0.0000      -0.016785        -0.4567
 272   0.0000       0.013724         0.3734
 273   0.0000       0.019447         0.5292
 274   0.0000       0.047000         1.2789

MULLIKEN ATOMIC CHARGES
-----------------------
   0 C :    0.533971
   1 O :   -0.405173
   2 C :   -0.172199
   3 C :   -0.033265
   4 C :    0.345481
   5 F :   -0.313031
   6 C :    0.353624
   7 F :   -0.309638
   8 C :   -0.052331
   9 C :   -0.030145
  10 C :    0.269267
  11 C :   -0.389727
  12 C :    0.039470
  13 N :   -0.084104
  14 C :    0.030858
  15 N :   -0.068364
  16 C :   -0.334805
  17 C :    0.084676
  18 C :   -0.172163
  19 S :    0.241524
  20 C :    0.013581
  21 C :   -0.110159
  22 C :   -0.096634
  23 C :   -0.011539
  24 C :   -0.000861
  25 S :    0.230691
  26 C :    0.022488
  27 C :    0.103642
  28 N :   -0.592784
  29 C :    0.110805
  30 C :   -0.032935
  31 C :    0.270689
  32 C :   -0.219212
  33 C :    0.116815
  34 N :   -0.299881
  35 C :   -0.081898
  36 C :    0.105732
  37 C :   -0.082107
  38 C :    0.105911
  39 N :   -0.300505
  40 C :    0.114722
  41 C :   -0.213427
  42 C :    0.266288
  43 N :   -0.594099
  44 C :    0.111595
  45 C :   -0.035907
  46 C :    0.111882
  47 C :    0.015988
  48 S :    0.239764
  49 C :   -0.124630
  50 C :    0.008090
  51 S :    0.168419
  52 C :   -0.221478
  53 C :   -0.043443
  54 C :    0.006842
  55 C :   -0.011388
  56 C :    0.155042
  57 C :   -0.345640
  58 C :    0.234459
  59 C :   -0.351960
  60 C :    0.034850
  61 N :   -0.068470
  62 C :    0.047124
  63 N :   -0.062856
  64 C :   -0.045933
  65 C :   -0.056059
  66 C :    0.353387
  67 F :   -0.310380
  68 C :    0.341299
  69 F :   -0.312940
  70 C :   -0.028204
  71 C :   -0.164887
  72 C :    0.478887
  73 O :   -0.353581
  74 H :    0.075706
  75 H :    0.096753
  76 H :    0.079136
  77 H :    0.073756
  78 H :    0.055344
  79 H :    0.034585
  80 H :    0.056529
  81 H :    0.038451
  82 H :    0.049836
  83 H :    0.072143
  84 H :    0.043633
  85 H :    0.049630
  86 H :    0.059011
  87 H :    0.059821
  88 H :    0.046790
  89 H :    0.046061
  90 H :    0.046902
  91 H :    0.059067
  92 H :    0.045968
  93 H :    0.050592
  94 H :    0.061996
  95 H :    0.049319
  96 H :    0.052689
  97 H :    0.061531
  98 H :    0.055794
  99 H :    0.052607
 100 H :    0.048502
 101 H :    0.044812
 102 H :    0.052455
 103 H :    0.081154
 104 H :    0.090720
 105 H :    0.079590
Sum of atomic charges:   -0.0000000

LOEWDIN ATOMIC CHARGES
----------------------
   0 C :    0.168716
   1 O :   -0.261783
   2 C :   -0.050777
   3 C :    0.008678
   4 C :    0.122714
   5 F :   -0.111179
   6 C :    0.123711
   7 F :   -0.109106
   8 C :   -0.000965
   9 C :   -0.022810
  10 C :    0.124397
  11 C :   -0.186717
  12 C :    0.017057
  13 N :   -0.104076
  14 C :    0.011650
  15 N :   -0.096687
  16 C :   -0.184512
  17 C :    0.118300
  18 C :   -0.225518
  19 S :    0.467478
  20 C :   -0.161500
  21 C :   -0.216234
  22 C :    0.026825
  23 C :   -0.013809
  24 C :   -0.015780
  25 S :    0.405928
  26 C :   -0.151683
  27 C :   -0.032284
  28 N :   -0.025102
  29 C :    0.072122
  30 C :   -0.037792
  31 C :    0.044254
  32 C :   -0.078791
  33 C :   -0.000894
  34 N :   -0.094580
  35 C :    0.011699
  36 C :   -0.024030
  37 C :    0.011195
  38 C :   -0.024079
  39 N :   -0.094767
  40 C :   -0.002220
  41 C :   -0.074824
  42 C :    0.040949
  43 N :   -0.026260
  44 C :    0.071165
  45 C :   -0.036958
  46 C :   -0.024731
  47 C :   -0.157618
  48 S :    0.417832
  49 C :   -0.209869
  50 C :   -0.157873
  51 S :    0.423442
  52 C :   -0.221899
  53 C :    0.028214
  54 C :   -0.012127
  55 C :   -0.015631
  56 C :    0.116150
  57 C :   -0.168656
  58 C :    0.102265
  59 C :   -0.177923
  60 C :    0.010655
  61 N :   -0.095442
  62 C :   -0.001300
  63 N :   -0.094794
  64 C :   -0.019411
  65 C :   -0.007472
  66 C :    0.125722
  67 F :   -0.109420
  68 C :    0.120550
  69 F :   -0.111303
  70 C :    0.011697
  71 C :   -0.054393
  72 C :    0.165498
  73 O :   -0.233760
  74 H :    0.054669
  75 H :    0.054955
  76 H :    0.047399
  77 H :    0.032907
  78 H :    0.026201
  79 H :    0.017189
  80 H :    0.026795
  81 H :    0.019306
  82 H :    0.020265
  83 H :    0.024577
  84 H :    0.017203
  85 H :    0.026432
  86 H :    0.021178
  87 H :    0.034662
  88 H :    0.029325
  89 H :    0.028887
  90 H :    0.029296
  91 H :    0.034352
  92 H :    0.028893
  93 H :    0.020914
  94 H :    0.020502
  95 H :    0.020014
  96 H :    0.027195
  97 H :    0.022349
  98 H :    0.028578
  99 H :    0.025112
 100 H :    0.021527
 101 H :    0.020812
 102 H :    0.026261
 103 H :    0.053207
 104 H :    0.053434
 105 H :    0.056081

  Mayer bond orders larger than 0.100000
B(  0-C ,  1-O ) :   1.9910 B(  0-C ,  2-C ) :   0.9864 B(  0-C , 16-C ) :   1.0039
B(  2-C ,  3-C ) :   1.3927 B(  2-C ,  9-C ) :   1.3711 B(  3-C ,  4-C ) :   1.3743
B(  3-C , 74-H ) :   1.0143 B(  4-C ,  5-F ) :   0.9339 B(  4-C ,  6-C ) :   1.3433
B(  6-C ,  7-F ) :   0.9436 B(  6-C ,  8-C ) :   1.3987 B(  8-C ,  9-C ) :   1.3797
B(  8-C , 75-H ) :   0.9902 B(  9-C , 10-C ) :   1.0366 B( 10-C , 11-C ) :   1.6477
B( 10-C , 16-C ) :   1.1434 B( 11-C , 12-C ) :   1.0757 B( 11-C , 14-C ) :   1.0675
B( 12-C , 13-N ) :   2.9708 B( 14-C , 15-N ) :   2.9834 B( 16-C , 17-C ) :   1.5268
B( 17-C , 18-C ) :   1.3719 B( 17-C , 76-H ) :   0.9584 B( 18-C , 19-S ) :   1.0183
B( 18-C , 22-C ) :   1.4273 B( 19-S , 20-C ) :   1.0226 B( 20-C , 21-C ) :   1.4497
B( 20-C , 27-C ) :   1.3699 B( 21-C , 22-C ) :   1.5297 B( 21-C , 25-S ) :   0.9697
B( 22-C , 23-C ) :   0.9815 B( 23-C , 24-C ) :   1.0397 B( 23-C , 77-H ) :   0.9579
B( 23-C , 78-H ) :   0.9673 B( 24-C , 79-H ) :   0.9857 B( 24-C , 80-H ) :   0.9861
B( 24-C , 81-H ) :   0.9815 B( 25-S , 26-C ) :   0.9912 B( 26-C , 27-C ) :   1.4543
B( 26-C , 32-C ) :   1.4348 B( 27-C , 28-N ) :   1.0818 B( 28-N , 29-C ) :   0.8453
B( 28-N , 31-C ) :   1.1050 B( 29-C , 30-C ) :   1.0391 B( 29-C , 82-H ) :   0.9838
B( 29-C , 83-H ) :   0.9764 B( 30-C , 84-H ) :   0.9766 B( 30-C , 85-H ) :   0.9847
B( 30-C , 86-H ) :   0.9755 B( 31-C , 32-C ) :   1.4051 B( 31-C , 42-C ) :   1.1926
B( 32-C , 33-C ) :   1.1521 B( 33-C , 34-N ) :   1.4557 B( 33-C , 40-C ) :   1.2579
B( 34-N , 35-C ) :   1.6246 B( 35-C , 36-C ) :   1.0212 B( 35-C , 37-C ) :   1.1947
B( 36-C , 87-H ) :   0.9739 B( 36-C , 88-H ) :   0.9711 B( 36-C , 89-H ) :   0.9716
B( 37-C , 38-C ) :   1.0214 B( 37-C , 39-N ) :   1.6245 B( 38-C , 90-H ) :   0.9715
B( 38-C , 91-H ) :   0.9740 B( 38-C , 92-H ) :   0.9712 B( 39-N , 40-C ) :   1.4551
B( 40-C , 41-C ) :   1.1528 B( 41-C , 42-C ) :   1.4120 B( 41-C , 47-C ) :   1.4281
B( 42-C , 43-N ) :   1.0940 B( 43-N , 44-C ) :   0.8482 B( 43-N , 46-C ) :   1.0865
B( 44-C , 45-C ) :   1.0368 B( 44-C , 93-H ) :   0.9831 B( 44-C , 94-H ) :   0.9776
B( 45-C , 95-H ) :   0.9762 B( 45-C , 96-H ) :   0.9845 B( 45-C , 97-H ) :   0.9767
B( 46-C , 47-C ) :   1.4535 B( 46-C , 50-C ) :   1.3743 B( 47-C , 48-S ) :   0.9981
B( 48-S , 49-C ) :   0.9847 B( 49-C , 50-C ) :   1.4962 B( 49-C , 53-C ) :   1.4544
B( 50-C , 51-S ) :   1.0274 B( 51-S , 52-C ) :   1.0443 B( 52-C , 53-C ) :   1.4936
B( 52-C , 56-C ) :   1.2389 B( 53-C , 54-C ) :   0.9903 B( 54-C , 55-C ) :   1.0382
B( 54-C , 98-H ) :   0.9588 B( 54-C , 99-H ) :   0.9665 B( 55-C ,100-H ) :   0.9837
B( 55-C ,101-H ) :   0.9864 B( 55-C ,102-H ) :   0.9807 B( 56-C , 57-C ) :   1.6496
B( 56-C ,103-H ) :   0.9576 B( 57-C , 58-C ) :   1.0867 B( 57-C , 72-C ) :   1.0039
B( 58-C , 59-C ) :   1.6866 B( 58-C , 64-C ) :   1.0440 B( 59-C , 60-C ) :   1.0572
B( 59-C , 62-C ) :   1.0744 B( 60-C , 61-N ) :   2.9947 B( 62-C , 63-N ) :   2.9982
B( 64-C , 65-C ) :   1.3843 B( 64-C , 71-C ) :   1.3642 B( 65-C , 66-C ) :   1.4001
B( 65-C ,104-H ) :   0.9938 B( 66-C , 67-F ) :   0.9409 B( 66-C , 68-C ) :   1.3410
B( 68-C , 69-F ) :   0.9343 B( 68-C , 70-C ) :   1.3814 B( 70-C , 71-C ) :   1.3909
B( 70-C ,105-H ) :   1.0129 B( 71-C , 72-C ) :   0.9455 B( 72-C , 73-O ) :   2.1000

-----------------------------------------------------------------------------
         ABSORPTION SPECTRUM VIA TRANSITION ELECTRIC DIPOLE MOMENTS
-----------------------------------------------------------------------------
State   Energy    Wavelength  fosc         T2        TX        TY        TZ
        (cm-1)      (nm)                 (au**2)    (au)      (au)      (au)
-----------------------------------------------------------------------------
   1   21075.0    474.5   1.932122430  30.18159  -3.05235   4.56770   0.02867
   2   25645.4    389.9   1.263814356  16.22368  -1.63397  -3.18069  -1.85392
   3   33748.2    296.3   0.188155602   1.83545   1.33937  -0.16790  -0.11558

FINAL SINGLE POINT ENERGY     -4709.314277304334

DIPOLE MOMENT
-------------
                                X             Y             Z
Electronic contribution:     58.56215      40.46067      27.61704
Nuclear contribution   :    -60.31050     -43.16268     -30.49310
                        -----------------------------------------
Total Dipole Moment    :     -1.74835      -2.70201      -2.87607
                        -----------------------------------------
Magnitude (a.u.)       :      4.31617
Magnitude (Debye)      :     10.97084

Rotational constants in cm-1:     0.001089     0.000336     0.000262
Rotational constants in MHz :    32.661377    10.062791     7.849287

                             ****ORCA TERMINATED NORMALLY****
TOTAL RUN TIME: 0 days 12 hours 55 minutes 28 seconds 560 msec
