                         Program Version 4.2.0 -  RELEASE  -
|  1> # ORCA input file
|  2> # BCDT-4F.out: Geometry 166
|  3> ! Engrad Keepdens
|  4> %maxcore 1000
|  5> %tddft
|  6>   nroots 3
|  7>   # nroots is the number of states to be computed
|  8>   Iroot 1
|  9>   end
| 10> * xyz 0 1
| 11>    C        2.33218        -1.21393        -3.61652
| 12>    O        1.55547        -1.99376        -3.10448
| 13>    C        2.52990        -0.98580        -5.07127
| 14>    C        1.89208        -1.62675        -6.12760
| 15>    C        2.25614        -1.25652        -7.41778
| 16>    C        3.23565        -0.26647        -7.62464
| 17>    C        3.86285         0.38448        -6.56385
| 18>    C        3.50203         0.01645        -5.26169
| 19>    C        3.91671         0.53963        -3.93161
| 20>    C        4.56136         1.75472        -3.74132
| 21>    C        4.63272         2.41648        -2.47976
| 22>    N        4.69689         2.99631        -1.47422
| 23>    C        5.12931         2.50496        -4.81711
| 24>    N        5.62184         3.11807        -5.67345
| 25>    C        3.32285        -0.32555        -2.92446
| 26>    F        3.56482         0.05241        -8.87397
| 27>    C        3.52612        -0.52822        -1.57259
| 28>    F        1.68675        -1.83292        -8.47403
| 29>    C       13.79329         5.08857        18.79255
| 30>    O       13.07972         6.05439        18.97068
| 31>    C       14.96814         4.67910        19.61030
| 32>    C       15.52718         5.33676        20.70093
| 33>    C       16.63528         4.75426        21.31029
| 34>    C       17.14558         3.53101        20.83856
| 35>    C       16.58100         2.87290        19.74685
| 36>    C       15.47800         3.46206        19.11600
| 37>    C       14.62306         3.00994        17.98280
| 38>    C       14.60105         1.71289        17.48590
| 39>    C       13.53725         1.21824        16.67660
| 40>    N       12.66382         0.78843        16.04119
| 41>    C       15.56643         0.72729        17.85680
| 42>    N       16.35412        -0.07958        18.13978
| 43>    C       13.69397         4.08202        17.68503
| 44>    F       18.19349         2.99314        21.46073
| 45>    C       12.83475         4.38097        16.64169
| 46>    F       17.22972         5.34411        22.34626
| 47>    C       12.74578         3.92735        15.30729
| 48>    S       11.29656         4.36188        14.37686
| 49>    C       11.93061         3.60453        12.97855
| 50>    C       13.22110         3.06722        13.18372
| 51>    C       13.66280         3.22784        14.49451
| 52>    C       11.51049         3.32608        11.64070
| 53>    C       12.53843         2.64121        10.98795
| 54>    C       13.73110         2.40588        11.90306
| 55>    S       10.10854         3.51968        10.65192
| 56>    C       10.92849         2.71319         9.30352
| 57>    C       12.21720         2.30608         9.66815
| 58>    C       10.28167         2.51880         8.01839
| 59>    C       10.98966         2.24821         6.84193
| 60>    C       10.34816         1.94618         5.58905
| 61>    C        8.96303         1.92807         5.41675
| 62>    C        8.20380         2.25639         6.59553
| 63>    C        8.84877         2.55418         7.86570
| 64>    N        6.87642         2.32552         6.65619
| 65>    S        6.46960         2.75212         8.18925
| 66>    N        7.97933         2.85542         8.82777
| 67>    C        8.32693         1.59362         4.15437
| 68>    S        6.66020         1.00081         4.08838
| 69>    C        6.77713         0.81284         2.37811
| 70>    C        8.01188         1.23536         1.86936
| 71>    C        8.89166         1.65817         2.87529
| 72>    C        5.95563         0.37663         1.29012
| 73>    C        6.67618         0.52273         0.08874
| 74>    C        8.05851         1.11602         0.35085
| 75>    S        4.35023        -0.17597         1.03431
| 76>    C        4.59621        -0.15903        -0.72411
| 77>    C        5.91150         0.23005        -1.03631
| 78>    O       12.34577         2.18567         6.85492
| 79>    O       11.17527         1.65840         4.54570
| 80>    C       13.08797         3.18099         6.12149
| 81>    C       13.69003         4.20130         7.06801
| 82>    C       11.67059         0.30763         4.48806
| 83>    C       12.30832         0.10055         3.13036
| 84>    C        9.21701         0.20413        -0.11913
| 85>    C        9.18454        -1.21807         0.43439
| 86>    C        8.11217         2.51345        -0.33400
| 87>    C        9.40216         3.30714        -0.13984
| 88>    C       13.98492         0.88975        12.09516
| 89>    C       12.75957         0.08842        12.52791
| 90>    C       14.96811         3.13255        11.30802
| 91>    C       16.27864         2.97459        12.07183
| 92>    H        1.13186        -2.39042        -5.95485
| 93>    H        4.60640         1.14501        -6.79552
| 94>    H        2.73386        -1.13897        -1.11870
| 95>    H       15.11289         6.27407        21.07521
| 96>    H       17.02456         1.93114        19.43134
| 97>    H       12.14796         5.19661        16.90618
| 98>    H       14.62208         2.88072        14.87404
| 99>    H       12.86516         1.77173         8.98091
|100>    H        9.90216         2.01921         2.71561
|101>    H        6.27057         0.27722        -2.06343
|102>    H       12.43215         3.65903         5.37965
|103>    H       13.87045         2.63727         5.57060
|104>    H       12.90707         4.75432         7.60824
|105>    H       14.29801         4.92433         6.49992
|106>    H       14.33610         3.71375         7.81347
|107>    H       10.82721        -0.38753         4.64449
|108>    H       12.39572         0.15528         5.30535
|109>    H       11.55818         0.17983         2.32940
|110>    H       12.77264        -0.89605         3.07476
|111>    H       13.08943         0.85457         2.95025
|112>    H       10.16455         0.68742         0.16892
|113>    H        9.20873         0.18058        -1.22221
|114>    H        9.25822        -1.22389         1.53362
|115>    H       10.02337        -1.80994         0.03721
|116>    H        8.25285        -1.73710         0.15975
|117>    H        7.25051         3.09811         0.02348
|118>    H        7.93539         2.36062        -1.41189
|119>    H        9.61210         3.50257         0.92252
|120>    H        9.31918         4.28245        -0.64217
|121>    H       10.27411         2.79310        -0.57127
|122>    H       14.78673         0.75775        12.83930
|123>    H       14.38041         0.49601        11.14267
|124>    H       12.39160         0.41837        13.51110
|125>    H       13.01671        -0.97859        12.61349
|126>    H       11.93741         0.18017        11.80181
|127>    H       14.71443         4.20148        11.21608
|128>    H       15.10274         2.75796        10.27876
|129>    H       16.19302         3.33118        13.10992
|130>    H       17.07150         3.56717        11.59091
|131>    H       16.61835         1.92854        12.09589
|132> *
|133>
|134>                          ****END OF INPUT****

CARTESIAN COORDINATES (ANGSTROEM)
---------------------------------
  C      2.332180   -1.213930   -3.616520
  O      1.555470   -1.993760   -3.104480
  C      2.529900   -0.985800   -5.071270
  C      1.892080   -1.626750   -6.127600
  C      2.256140   -1.256520   -7.417780
  C      3.235650   -0.266470   -7.624640
  C      3.862850    0.384480   -6.563850
  C      3.502030    0.016450   -5.261690
  C      3.916710    0.539630   -3.931610
  C      4.561360    1.754720   -3.741320
  C      4.632720    2.416480   -2.479760
  N      4.696890    2.996310   -1.474220
  C      5.129310    2.504960   -4.817110
  N      5.621840    3.118070   -5.673450
  C      3.322850   -0.325550   -2.924460
  F      3.564820    0.052410   -8.873970
  C      3.526120   -0.528220   -1.572590
  F      1.686750   -1.832920   -8.474030
  C     13.793290    5.088570   18.792550
  O     13.079720    6.054390   18.970680
  C     14.968140    4.679100   19.610300
  C     15.527180    5.336760   20.700930
  C     16.635280    4.754260   21.310290
  C     17.145580    3.531010   20.838560
  C     16.581000    2.872900   19.746850
  C     15.478000    3.462060   19.116000
  C     14.623060    3.009940   17.982800
  C     14.601050    1.712890   17.485900
  C     13.537250    1.218240   16.676600
  N     12.663820    0.788430   16.041190
  C     15.566430    0.727290   17.856800
  N     16.354120   -0.079580   18.139780
  C     13.693970    4.082020   17.685030
  F     18.193490    2.993140   21.460730
  C     12.834750    4.380970   16.641690
  F     17.229720    5.344110   22.346260
  C     12.745780    3.927350   15.307290
  S     11.296560    4.361880   14.376860
  C     11.930610    3.604530   12.978550
  C     13.221100    3.067220   13.183720
  C     13.662800    3.227840   14.494510
  C     11.510490    3.326080   11.640700
  C     12.538430    2.641210   10.987950
  C     13.731100    2.405880   11.903060
  S     10.108540    3.519680   10.651920
  C     10.928490    2.713190    9.303520
  C     12.217200    2.306080    9.668150
  C     10.281670    2.518800    8.018390
  C     10.989660    2.248210    6.841930
  C     10.348160    1.946180    5.589050
  C      8.963030    1.928070    5.416750
  C      8.203800    2.256390    6.595530
  C      8.848770    2.554180    7.865700
  N      6.876420    2.325520    6.656190
  S      6.469600    2.752120    8.189250
  N      7.979330    2.855420    8.827770
  C      8.326930    1.593620    4.154370
  S      6.660200    1.000810    4.088380
  C      6.777130    0.812840    2.378110
  C      8.011880    1.235360    1.869360
  C      8.891660    1.658170    2.875290
  C      5.955630    0.376630    1.290120
  C      6.676180    0.522730    0.088740
  C      8.058510    1.116020    0.350850
  S      4.350230   -0.175970    1.034310
  C      4.596210   -0.159030   -0.724110
  C      5.911500    0.230050   -1.036310
  O     12.345770    2.185670    6.854920
  O     11.175270    1.658400    4.545700
  C     13.087970    3.180990    6.121490
  C     13.690030    4.201300    7.068010
  C     11.670590    0.307630    4.488060
  C     12.308320    0.100550    3.130360
  C      9.217010    0.204130   -0.119130
  C      9.184540   -1.218070    0.434390
  C      8.112170    2.513450   -0.334000
  C      9.402160    3.307140   -0.139840
  C     13.984920    0.889750   12.095160
  C     12.759570    0.088420   12.527910
  C     14.968110    3.132550   11.308020
  C     16.278640    2.974590   12.071830
  H      1.131860   -2.390420   -5.954850
  H      4.606400    1.145010   -6.795520
  H      2.733860   -1.138970   -1.118700
  H     15.112890    6.274070   21.075210
  H     17.024560    1.931140   19.431340
  H     12.147960    5.196610   16.906180
  H     14.622080    2.880720   14.874040
  H     12.865160    1.771730    8.980910
  H      9.902160    2.019210    2.715610
  H      6.270570    0.277220   -2.063430
  H     12.432150    3.659030    5.379650
  H     13.870450    2.637270    5.570600
  H     12.907070    4.754320    7.608240
  H     14.298010    4.924330    6.499920
  H     14.336100    3.713750    7.813470
  H     10.827210   -0.387530    4.644490
  H     12.395720    0.155280    5.305350
  H     11.558180    0.179830    2.329400
  H     12.772640   -0.896050    3.074760
  H     13.089430    0.854570    2.950250
  H     10.164550    0.687420    0.168920
  H      9.208730    0.180580   -1.222210
  H      9.258220   -1.223890    1.533620
  H     10.023370   -1.809940    0.037210
  H      8.252850   -1.737100    0.159750
  H      7.250510    3.098110    0.023480
  H      7.935390    2.360620   -1.411890
  H      9.612100    3.502570    0.922520
  H      9.319180    4.282450   -0.642170
  H     10.274110    2.793100   -0.571270
  H     14.786730    0.757750   12.839300
  H     14.380410    0.496010   11.142670
  H     12.391600    0.418370   13.511100
  H     13.016710   -0.978590   12.613490
  H     11.937410    0.180170   11.801810
  H     14.714430    4.201480   11.216080
  H     15.102740    2.757960   10.278760
  H     16.193020    3.331180   13.109920
  H     17.071500    3.567170   11.590910
  H     16.618350    1.928540   12.095890

 Total Charge           Charge          ....    0
 Multiplicity           Mult            ....    1
 Number of Electrons    NEL             ....  602
 Basis Dimension        Dim             .... 1354

ORBITAL ENERGIES
----------------

  NO   OCC          E(Eh)            E(eV)
   0   2.0000     -92.040369     -2504.5458
   1   2.0000     -91.987189     -2503.0987
   2   2.0000     -91.985327     -2503.0480
   3   2.0000     -91.978796     -2502.8703
   4   2.0000     -91.976835     -2502.8169
   5   2.0000     -26.336058      -716.6406
   6   2.0000     -26.334304      -716.5928
   7   2.0000     -26.333729      -716.5772
   8   2.0000     -26.331929      -716.5282
   9   2.0000     -20.605103      -560.6934
  10   2.0000     -20.604859      -560.6867
  11   2.0000     -20.565105      -559.6050
  12   2.0000     -20.562097      -559.5231
  13   2.0000     -15.633082      -425.3978
  14   2.0000     -15.631720      -425.3607
  15   2.0000     -15.596343      -424.3981
  16   2.0000     -15.595263      -424.3687
  17   2.0000     -15.592733      -424.2998
  18   2.0000     -15.592679      -424.2984
  19   2.0000     -11.378346      -309.6205
  20   2.0000     -11.377239      -309.5904
  21   2.0000     -11.375812      -309.5516
  22   2.0000     -11.374616      -309.5190
  23   2.0000     -11.365078      -309.2595
  24   2.0000     -11.362334      -309.1848
  25   2.0000     -11.353087      -308.9332
  26   2.0000     -11.351471      -308.8892
  27   2.0000     -11.349556      -308.8371
  28   2.0000     -11.347649      -308.7852
  29   2.0000     -11.328995      -308.2776
  30   2.0000     -11.328085      -308.2529
  31   2.0000     -11.328076      -308.2526
  32   2.0000     -11.325566      -308.1843
  33   2.0000     -11.323655      -308.1323
  34   2.0000     -11.322204      -308.0928
  35   2.0000     -11.320308      -308.0413
  36   2.0000     -11.319914      -308.0305
  37   2.0000     -11.319626      -308.0227
  38   2.0000     -11.319117      -308.0088
  39   2.0000     -11.311115      -307.7911
  40   2.0000     -11.310679      -307.7792
  41   2.0000     -11.308983      -307.7331
  42   2.0000     -11.308134      -307.7100
  43   2.0000     -11.305627      -307.6417
  44   2.0000     -11.305580      -307.6405
  45   2.0000     -11.305252      -307.6315
  46   2.0000     -11.303663      -307.5883
  47   2.0000     -11.302962      -307.5692
  48   2.0000     -11.300350      -307.4982
  49   2.0000     -11.299799      -307.4831
  50   2.0000     -11.297578      -307.4227
  51   2.0000     -11.297073      -307.4090
  52   2.0000     -11.296753      -307.4003
  53   2.0000     -11.296398      -307.3906
  54   2.0000     -11.296301      -307.3880
  55   2.0000     -11.294606      -307.3418
  56   2.0000     -11.294589      -307.3414
  57   2.0000     -11.294389      -307.3360
  58   2.0000     -11.290759      -307.2372
  59   2.0000     -11.289705      -307.2085
  60   2.0000     -11.287513      -307.1488
  61   2.0000     -11.280024      -306.9451
  62   2.0000     -11.278384      -306.9004
  63   2.0000     -11.277270      -306.8701
  64   2.0000     -11.272259      -306.7338
  65   2.0000     -11.271077      -306.7016
  66   2.0000     -11.269801      -306.6669
  67   2.0000     -11.268996      -306.6450
  68   2.0000     -11.267309      -306.5991
  69   2.0000     -11.267091      -306.5931
  70   2.0000     -11.266332      -306.5725
  71   2.0000     -11.256454      -306.3037
  72   2.0000     -11.256082      -306.2936
  73   2.0000     -11.255584      -306.2800
  74   2.0000     -11.251225      -306.1614
  75   2.0000     -11.248389      -306.0842
  76   2.0000     -11.247744      -306.0667
  77   2.0000     -11.243566      -305.9530
  78   2.0000     -11.240930      -305.8813
  79   2.0000     -11.237922      -305.7994
  80   2.0000     -11.220901      -305.3362
  81   2.0000      -9.071016      -246.8349
  82   2.0000      -9.021895      -245.4983
  83   2.0000      -9.020241      -245.4532
  84   2.0000      -9.012692      -245.2478
  85   2.0000      -9.010579      -245.1903
  86   2.0000      -6.758140      -183.8983
  87   2.0000      -6.756402      -183.8510
  88   2.0000      -6.754814      -183.8078
  89   2.0000      -6.709325      -182.5700
  90   2.0000      -6.708312      -182.5424
  91   2.0000      -6.707672      -182.5250
  92   2.0000      -6.706624      -182.4965
  93   2.0000      -6.706480      -182.4926
  94   2.0000      -6.704830      -182.4477
  95   2.0000      -6.700008      -182.3165
  96   2.0000      -6.698980      -182.2885
  97   2.0000      -6.697889      -182.2588
  98   2.0000      -6.697136      -182.2383
  99   2.0000      -6.696862      -182.2309
 100   2.0000      -6.694999      -182.1802
 101   2.0000      -1.648331       -44.8534
 102   2.0000      -1.645466       -44.7754
 103   2.0000      -1.632976       -44.4355
 104   2.0000      -1.630080       -44.3567
 105   2.0000      -1.442136       -39.2425
 106   2.0000      -1.409826       -38.3633
 107   2.0000      -1.394485       -37.9459
 108   2.0000      -1.391574       -37.8667
 109   2.0000      -1.359157       -36.9846
 110   2.0000      -1.245220       -33.8842
 111   2.0000      -1.242230       -33.8028
 112   2.0000      -1.237827       -33.6830
 113   2.0000      -1.236563       -33.6486
 114   2.0000      -1.223207       -33.2851
 115   2.0000      -1.220828       -33.2204
 116   2.0000      -1.220149       -33.2019
 117   2.0000      -1.218285       -33.1512
 118   2.0000      -1.213179       -33.0123
 119   2.0000      -1.193250       -32.4700
 120   2.0000      -1.185208       -32.2511
 121   2.0000      -1.169972       -31.8366
 122   2.0000      -1.162388       -31.6302
 123   2.0000      -1.158972       -31.5372
 124   2.0000      -1.132745       -30.8236
 125   2.0000      -1.125051       -30.6142
 126   2.0000      -1.098987       -29.9050
 127   2.0000      -1.095964       -29.8227
 128   2.0000      -1.089975       -29.6597
 129   2.0000      -1.084438       -29.5090
 130   2.0000      -1.078142       -29.3377
 131   2.0000      -1.066917       -29.0323
 132   2.0000      -1.064097       -28.9556
 133   2.0000      -1.063713       -28.9451
 134   2.0000      -1.050723       -28.5916
 135   2.0000      -1.047428       -28.5020
 136   2.0000      -1.027441       -27.9581
 137   2.0000      -1.026261       -27.9260
 138   2.0000      -1.025260       -27.8987
 139   2.0000      -1.021807       -27.8048
 140   2.0000      -1.017470       -27.6868
 141   2.0000      -1.011844       -27.5337
 142   2.0000      -1.007085       -27.4042
 143   2.0000      -1.005322       -27.3562
 144   2.0000      -0.991229       -26.9727
 145   2.0000      -0.980963       -26.6933
 146   2.0000      -0.954335       -25.9688
 147   2.0000      -0.937074       -25.4991
 148   2.0000      -0.933489       -25.4015
 149   2.0000      -0.929909       -25.3041
 150   2.0000      -0.927238       -25.2314
 151   2.0000      -0.924176       -25.1481
 152   2.0000      -0.906006       -24.6537
 153   2.0000      -0.892161       -24.2769
 154   2.0000      -0.886285       -24.1170
 155   2.0000      -0.884111       -24.0579
 156   2.0000      -0.868889       -23.6437
 157   2.0000      -0.857569       -23.3356
 158   2.0000      -0.854022       -23.2391
 159   2.0000      -0.851235       -23.1633
 160   2.0000      -0.845956       -23.0196
 161   2.0000      -0.842975       -22.9385
 162   2.0000      -0.835057       -22.7231
 163   2.0000      -0.827488       -22.5171
 164   2.0000      -0.827320       -22.5125
 165   2.0000      -0.822174       -22.3725
 166   2.0000      -0.819868       -22.3097
 167   2.0000      -0.811412       -22.0796
 168   2.0000      -0.803480       -21.8638
 169   2.0000      -0.788323       -21.4514
 170   2.0000      -0.783140       -21.3103
 171   2.0000      -0.780141       -21.2287
 172   2.0000      -0.779604       -21.2141
 173   2.0000      -0.772030       -21.0080
 174   2.0000      -0.769088       -20.9279
 175   2.0000      -0.765406       -20.8277
 176   2.0000      -0.757674       -20.6174
 177   2.0000      -0.754339       -20.5266
 178   2.0000      -0.750297       -20.4166
 179   2.0000      -0.748384       -20.3646
 180   2.0000      -0.743198       -20.2234
 181   2.0000      -0.742843       -20.2138
 182   2.0000      -0.741587       -20.1796
 183   2.0000      -0.740597       -20.1527
 184   2.0000      -0.738943       -20.1077
 185   2.0000      -0.729820       -19.8594
 186   2.0000      -0.726960       -19.7816
 187   2.0000      -0.718077       -19.5399
 188   2.0000      -0.715399       -19.4670
 189   2.0000      -0.712808       -19.3965
 190   2.0000      -0.703439       -19.1415
 191   2.0000      -0.698805       -19.0154
 192   2.0000      -0.697471       -18.9791
 193   2.0000      -0.694174       -18.8894
 194   2.0000      -0.691848       -18.8261
 195   2.0000      -0.681138       -18.5347
 196   2.0000      -0.677488       -18.4354
 197   2.0000      -0.671169       -18.2634
 198   2.0000      -0.664650       -18.0860
 199   2.0000      -0.662632       -18.0311
 200   2.0000      -0.659273       -17.9397
 201   2.0000      -0.658751       -17.9255
 202   2.0000      -0.657644       -17.8954
 203   2.0000      -0.654604       -17.8127
 204   2.0000      -0.651279       -17.7222
 205   2.0000      -0.646962       -17.6047
 206   2.0000      -0.643170       -17.5015
 207   2.0000      -0.640985       -17.4421
 208   2.0000      -0.640555       -17.4304
 209   2.0000      -0.638150       -17.3649
 210   2.0000      -0.631610       -17.1870
 211   2.0000      -0.629262       -17.1231
 212   2.0000      -0.626651       -17.0520
 213   2.0000      -0.625769       -17.0280
 214   2.0000      -0.622598       -16.9417
 215   2.0000      -0.621623       -16.9152
 216   2.0000      -0.619187       -16.8489
 217   2.0000      -0.616914       -16.7871
 218   2.0000      -0.616560       -16.7775
 219   2.0000      -0.614567       -16.7232
 220   2.0000      -0.612452       -16.6657
 221   2.0000      -0.605841       -16.4858
 222   2.0000      -0.599793       -16.3212
 223   2.0000      -0.594118       -16.1668
 224   2.0000      -0.593312       -16.1448
 225   2.0000      -0.588589       -16.0163
 226   2.0000      -0.585864       -15.9422
 227   2.0000      -0.582431       -15.8487
 228   2.0000      -0.579796       -15.7771
 229   2.0000      -0.578990       -15.7551
 230   2.0000      -0.578504       -15.7419
 231   2.0000      -0.576550       -15.6887
 232   2.0000      -0.573277       -15.5997
 233   2.0000      -0.572278       -15.5725
 234   2.0000      -0.569769       -15.5042
 235   2.0000      -0.569021       -15.4838
 236   2.0000      -0.567740       -15.4490
 237   2.0000      -0.564125       -15.3506
 238   2.0000      -0.563167       -15.3245
 239   2.0000      -0.562697       -15.3118
 240   2.0000      -0.562255       -15.2997
 241   2.0000      -0.558847       -15.2070
 242   2.0000      -0.557694       -15.1756
 243   2.0000      -0.555498       -15.1159
 244   2.0000      -0.554434       -15.0869
 245   2.0000      -0.549109       -14.9420
 246   2.0000      -0.547143       -14.8885
 247   2.0000      -0.545292       -14.8381
 248   2.0000      -0.543972       -14.8022
 249   2.0000      -0.540881       -14.7181
 250   2.0000      -0.536679       -14.6038
 251   2.0000      -0.535320       -14.5668
 252   2.0000      -0.531116       -14.4524
 253   2.0000      -0.528232       -14.3739
 254   2.0000      -0.527992       -14.3674
 255   2.0000      -0.525783       -14.3073
 256   2.0000      -0.521267       -14.1844
 257   2.0000      -0.518172       -14.1002
 258   2.0000      -0.516361       -14.0509
 259   2.0000      -0.515501       -14.0275
 260   2.0000      -0.509698       -13.8696
 261   2.0000      -0.507415       -13.8075
 262   2.0000      -0.504741       -13.7347
 263   2.0000      -0.501839       -13.6557
 264   2.0000      -0.499120       -13.5818
 265   2.0000      -0.497668       -13.5422
 266   2.0000      -0.495693       -13.4885
 267   2.0000      -0.494890       -13.4666
 268   2.0000      -0.492778       -13.4092
 269   2.0000      -0.490410       -13.3447
 270   2.0000      -0.489455       -13.3187
 271   2.0000      -0.484672       -13.1886
 272   2.0000      -0.480686       -13.0801
 273   2.0000      -0.478176       -13.0118
 274   2.0000      -0.476509       -12.9665
 275   2.0000      -0.476220       -12.9586
 276   2.0000      -0.474577       -12.9139
 277   2.0000      -0.472827       -12.8663
 278   2.0000      -0.469341       -12.7714
 279   2.0000      -0.467854       -12.7310
 280   2.0000      -0.465779       -12.6745
 281   2.0000      -0.464726       -12.6458
 282   2.0000      -0.460260       -12.5243
 283   2.0000      -0.448557       -12.2059
 284   2.0000      -0.445116       -12.1122
 285   2.0000      -0.422941       -11.5088
 286   2.0000      -0.416481       -11.3330
 287   2.0000      -0.393927       -10.7193
 288   2.0000      -0.388294       -10.5660
 289   2.0000      -0.384944       -10.4749
 290   2.0000      -0.377796       -10.2803
 291   2.0000      -0.376335       -10.2406
 292   2.0000      -0.371073       -10.0974
 293   2.0000      -0.366373        -9.9695
 294   2.0000      -0.364135        -9.9086
 295   2.0000      -0.359768        -9.7898
 296   2.0000      -0.354053        -9.6343
 297   2.0000      -0.349690        -9.5156
 298   2.0000      -0.328596        -8.9415
 299   2.0000      -0.283607        -7.7173
 300   2.0000      -0.259246        -7.0544
 301   0.0000      -0.036328        -0.9885
 302   0.0000      -0.021474        -0.5843
 303   0.0000      -0.001612        -0.0439
 304   0.0000       0.017780         0.4838
 305   0.0000       0.022094         0.6012

MULLIKEN ATOMIC CHARGES
-----------------------
   0 C :    0.459626
   1 O :   -0.360511
   2 C :   -0.164168
   3 C :   -0.032081
   4 C :    0.340481
   5 C :    0.342940
   6 C :   -0.062762
   7 C :   -0.047728
   8 C :    0.245785
   9 C :   -0.369905
  10 C :    0.048207
  11 N :   -0.069437
  12 C :    0.049665
  13 N :   -0.090029
  14 C :   -0.346183
  15 F :   -0.303475
  16 C :    0.215781
  17 F :   -0.305447
  18 C :    0.460407
  19 O :   -0.362810
  20 C :   -0.161433
  21 C :   -0.033265
  22 C :    0.338890
  23 C :    0.343023
  24 C :   -0.063125
  25 C :   -0.046976
  26 C :    0.249698
  27 C :   -0.369326
  28 C :    0.047051
  29 N :   -0.074562
  30 C :    0.048867
  31 N :   -0.092164
  32 C :   -0.352054
  33 F :   -0.304761
  34 C :    0.210230
  35 F :   -0.306657
  36 C :   -0.260808
  37 S :    0.208648
  38 C :   -0.027059
  39 C :   -0.092152
  40 C :    0.121163
  41 C :   -0.098935
  42 C :   -0.016569
  43 C :   -0.305801
  44 S :    0.235732
  45 C :   -0.089277
  46 C :    0.003988
  47 C :   -0.063399
  48 C :    0.260046
  49 C :    0.228154
  50 C :   -0.028096
  51 C :    0.127244
  52 C :    0.146776
  53 N :   -0.485607
  54 S :    0.602275
  55 N :   -0.493713
  56 C :   -0.098465
  57 S :    0.239638
  58 C :   -0.100723
  59 C :   -0.007282
  60 C :   -0.005849
  61 C :   -0.027086
  62 C :   -0.080038
  63 C :   -0.322465
  64 S :    0.210660
  65 C :   -0.261057
  66 C :    0.108513
  67 O :   -0.602130
  68 O :   -0.602663
  69 C :    0.233104
  70 C :   -0.063599
  71 C :    0.231917
  72 C :   -0.068711
  73 C :    0.018479
  74 C :   -0.028923
  75 C :    0.027796
  76 C :   -0.027990
  77 C :    0.014735
  78 C :   -0.043979
  79 C :    0.022390
  80 C :   -0.019636
  81 H :    0.089097
  82 H :    0.103557
  83 H :    0.095088
  84 H :    0.087749
  85 H :    0.102681
  86 H :    0.094667
  87 H :    0.073760
  88 H :    0.069978
  89 H :    0.076131
  90 H :    0.069485
  91 H :    0.050815
  92 H :    0.040462
  93 H :    0.053441
  94 H :    0.044256
  95 H :    0.046422
  96 H :    0.042285
  97 H :    0.051961
  98 H :    0.048174
  99 H :    0.048239
 100 H :    0.047033
 101 H :    0.041789
 102 H :    0.035829
 103 H :    0.042975
 104 H :    0.039713
 105 H :    0.046721
 106 H :    0.069203
 107 H :    0.035403
 108 H :    0.035282
 109 H :    0.049596
 110 H :    0.032044
 111 H :    0.045323
 112 H :    0.030485
 113 H :    0.083779
 114 H :    0.037965
 115 H :    0.042662
 116 H :    0.042291
 117 H :    0.037645
 118 H :    0.029108
 119 H :    0.043860
 120 H :    0.042010
Sum of atomic charges:   -0.0000000

LOEWDIN ATOMIC CHARGES
----------------------
   0 C :    0.168535
   1 O :   -0.237726
   2 C :   -0.055519
   3 C :    0.005331
   4 C :    0.118611
   5 C :    0.120882
   6 C :   -0.011851
   7 C :   -0.021235
   8 C :    0.117185
   9 C :   -0.184384
  10 C :    0.015718
  11 N :   -0.090064
  12 C :    0.015744
  13 N :   -0.103023
  14 C :   -0.170588
  15 F :   -0.103342
  16 C :    0.115375
  17 F :   -0.104127
  18 C :    0.169462
  19 O :   -0.239349
  20 C :   -0.054830
  21 C :    0.004093
  22 C :    0.118435
  23 C :    0.120609
  24 C :   -0.011323
  25 C :   -0.021095
  26 C :    0.117851
  27 C :   -0.189549
  28 C :    0.018856
  29 N :   -0.091765
  30 C :    0.015948
  31 N :   -0.105125
  32 C :   -0.176196
  33 F :   -0.104713
  34 C :    0.112932
  35 F :   -0.105412
  36 C :   -0.222260
  37 S :    0.438907
  38 C :   -0.121631
  39 C :   -0.065176
  40 C :    0.042167
  41 C :   -0.214991
  42 C :   -0.017216
  43 C :   -0.029540
  44 S :    0.446780
  45 C :   -0.139908
  46 C :   -0.038273
  47 C :   -0.073834
  48 C :    0.083585
  49 C :    0.071259
  50 C :   -0.063401
  51 C :   -0.024036
  52 C :   -0.019741
  53 N :   -0.316863
  54 S :    0.628679
  55 N :   -0.321654
  56 C :   -0.146807
  57 S :    0.450004
  58 C :   -0.207924
  59 C :   -0.022707
  60 C :   -0.040919
  61 C :   -0.128306
  62 C :   -0.059687
  63 C :   -0.029222
  64 S :    0.436008
  65 C :   -0.220727
  66 C :    0.037804
  67 O :   -0.197230
  68 O :   -0.202169
  69 C :    0.143725
  70 C :   -0.046953
  71 C :    0.140556
  72 C :   -0.041821
  73 C :   -0.003816
  74 C :   -0.037899
  75 C :    0.004807
  76 C :   -0.039285
  77 C :   -0.001979
  78 C :   -0.039332
  79 C :    0.000277
  80 C :   -0.037395
  81 H :    0.059482
  82 H :    0.056365
  83 H :    0.056525
  84 H :    0.058756
  85 H :    0.055892
  86 H :    0.055833
  87 H :    0.037128
  88 H :    0.033938
  89 H :    0.033246
  90 H :    0.037852
  91 H :    0.015204
  92 H :    0.015347
  93 H :    0.026456
  94 H :    0.026429
  95 H :    0.021938
  96 H :    0.012176
  97 H :    0.012308
  98 H :    0.022091
  99 H :    0.029154
 100 H :    0.024882
 101 H :    0.014312
 102 H :    0.017246
 103 H :    0.017780
 104 H :    0.020424
 105 H :    0.020501
 106 H :    0.030222
 107 H :    0.015155
 108 H :    0.016574
 109 H :    0.026531
 110 H :    0.014419
 111 H :    0.017045
 112 H :    0.013573
 113 H :    0.027289
 114 H :    0.021419
 115 H :    0.017226
 116 H :    0.021232
 117 H :    0.013690
 118 H :    0.015156
 119 H :    0.023782
 120 H :    0.019220

  Mayer bond orders larger than 0.100000
B(  0-C ,  1-O ) :   2.0822 B(  0-C ,  2-C ) :   0.9508 B(  0-C , 14-C ) :   1.0112
B(  2-C ,  3-C ) :   1.3805 B(  2-C ,  7-C ) :   1.3838 B(  3-C ,  4-C ) :   1.3932
B(  3-C , 81-H ) :   1.0059 B(  4-C ,  5-C ) :   1.3257 B(  4-C , 17-F ) :   0.9404
B(  5-C ,  6-C ) :   1.4218 B(  5-C , 15-F ) :   0.9453 B(  6-C ,  7-C ) :   1.3693
B(  6-C , 82-H ) :   0.9857 B(  7-C ,  8-C ) :   1.0425 B(  8-C ,  9-C ) :   1.6581
B(  8-C , 14-C ) :   1.1070 B(  9-C , 10-C ) :   1.0822 B(  9-C , 12-C ) :   1.0412
B( 10-C , 11-N ) :   2.9852 B( 12-C , 13-N ) :   2.9858 B( 14-C , 16-C ) :   1.6393
B( 16-C , 65-C ) :   1.2236 B( 16-C , 83-H ) :   0.9425 B( 18-C , 19-O ) :   2.0768
B( 18-C , 20-C ) :   0.9485 B( 18-C , 32-C ) :   1.0146 B( 20-C , 21-C ) :   1.3839
B( 20-C , 25-C ) :   1.3841 B( 21-C , 22-C ) :   1.3913 B( 21-C , 84-H ) :   1.0059
B( 22-C , 23-C ) :   1.3291 B( 22-C , 35-F ) :   0.9391 B( 23-C , 24-C ) :   1.4178
B( 23-C , 33-F ) :   0.9451 B( 24-C , 25-C ) :   1.3729 B( 24-C , 85-H ) :   0.9858
B( 25-C , 26-C ) :   1.0395 B( 26-C , 27-C ) :   1.6415 B( 26-C , 32-C ) :   1.1251
B( 27-C , 28-C ) :   1.0839 B( 27-C , 30-C ) :   1.0429 B( 28-C , 29-N ) :   2.9755
B( 30-C , 31-N ) :   2.9854 B( 32-C , 34-C ) :   1.6154 B( 34-C , 36-C ) :   1.2508
B( 34-C , 86-H ) :   0.9397 B( 36-C , 37-S ) :   1.0794 B( 36-C , 40-C ) :   1.3829
B( 37-S , 38-C ) :   1.1427 B( 38-C , 39-C ) :   1.4933 B( 38-C , 41-C ) :   1.2633
B( 39-C , 40-C ) :   1.4682 B( 39-C , 43-C ) :   0.9075 B( 40-C , 87-H ) :   0.9844
B( 41-C , 42-C ) :   1.5634 B( 41-C , 44-S ) :   1.0451 B( 42-C , 43-C ) :   0.9450
B( 42-C , 46-C ) :   1.3213 B( 43-C , 77-C ) :   1.0049 B( 43-C , 79-C ) :   1.0071
B( 44-S , 45-C ) :   1.1235 B( 45-C , 46-C ) :   1.5531 B( 45-C , 47-C ) :   1.0965
B( 46-C , 88-H ) :   1.0064 B( 47-C , 48-C ) :   1.6099 B( 47-C , 52-C ) :   1.1443
B( 48-C , 49-C ) :   1.1547 B( 48-C , 67-O ) :   1.0076 B( 49-C , 50-C ) :   1.6184
B( 49-C , 68-O ) :   0.9922 B( 50-C , 51-C ) :   1.1401 B( 50-C , 56-C ) :   1.0959
B( 51-C , 52-C ) :   1.1164 B( 51-C , 53-N ) :   1.5562 B( 52-C , 55-N ) :   1.5507
B( 53-N , 54-S ) :   1.1956 B( 53-N , 55-N ) :   0.1137 B( 54-S , 55-N ) :   1.1925
B( 56-C , 57-S ) :   1.1229 B( 56-C , 60-C ) :   1.5513 B( 57-S , 58-C ) :   1.0569
B( 58-C , 59-C ) :   1.5669 B( 58-C , 61-C ) :   1.2569 B( 59-C , 60-C ) :   1.3267
B( 59-C , 63-C ) :   0.9166 B( 60-C , 89-H ) :   1.0012 B( 61-C , 62-C ) :   1.5112
B( 61-C , 64-S ) :   1.1312 B( 62-C , 63-C ) :   0.9346 B( 62-C , 66-C ) :   1.4405
B( 63-C , 73-C ) :   1.0104 B( 63-C , 75-C ) :   1.0058 B( 64-S , 65-C ) :   1.0784
B( 65-C , 66-C ) :   1.4128 B( 66-C , 90-H ) :   0.9893 B( 67-O , 69-C ) :   0.7756
B( 68-O , 71-C ) :   0.7875 B( 69-C , 70-C ) :   1.0536 B( 69-C , 91-H ) :   0.9757
B( 69-C , 92-H ) :   0.9806 B( 70-C , 93-H ) :   0.9795 B( 70-C , 94-H ) :   0.9799
B( 70-C , 95-H ) :   0.9783 B( 71-C , 72-C ) :   1.0524 B( 71-C , 96-H ) :   0.9710
B( 71-C , 97-H ) :   0.9752 B( 72-C , 98-H ) :   0.9839 B( 72-C , 99-H ) :   0.9804
B( 72-C ,100-H ) :   0.9810 B( 73-C , 74-C ) :   1.0350 B( 73-C ,101-H ) :   0.9738
B( 73-C ,102-H ) :   0.9727 B( 74-C ,103-H ) :   0.9815 B( 74-C ,104-H ) :   0.9873
B( 74-C ,105-H ) :   0.9816 B( 75-C , 76-C ) :   1.0428 B( 75-C ,106-H ) :   0.9700
B( 75-C ,107-H ) :   0.9680 B( 76-C ,108-H ) :   0.9823 B( 76-C ,109-H ) :   0.9850
B( 76-C ,110-H ) :   0.9803 B( 77-C , 78-C ) :   1.0349 B( 77-C ,111-H ) :   0.9711
B( 77-C ,112-H ) :   0.9728 B( 78-C ,113-H ) :   0.9766 B( 78-C ,114-H ) :   0.9855
B( 78-C ,115-H ) :   0.9798 B( 79-C , 80-C ) :   1.0445 B( 79-C ,116-H ) :   0.9719
B( 79-C ,117-H ) :   0.9675 B( 80-C ,118-H ) :   0.9833 B( 80-C ,119-H ) :   0.9854
B( 80-C ,120-H ) :   0.9805

-----------------------------------------------------------------------------
         ABSORPTION SPECTRUM VIA TRANSITION ELECTRIC DIPOLE MOMENTS
-----------------------------------------------------------------------------
State   Energy    Wavelength  fosc         T2        TX        TY        TZ
        (cm-1)      (nm)                 (au**2)    (au)      (au)      (au)
-----------------------------------------------------------------------------
   1   19711.4    507.3   3.123923387  52.17455   3.12482   0.58739   6.48576
   2   23136.9    432.2   0.017185620   0.24453  -0.32629  -0.14253   0.34315
   3   28698.8    348.4   0.128005640   1.46839  -0.24866  -1.16636  -0.21487

FINAL SINGLE POINT ENERGY     -5379.082253523468

DIPOLE MOMENT
-------------
                                X             Y             Z
Electronic contribution:    -67.91609       7.99655      29.65637
Nuclear contribution   :     70.30561      -8.16145     -31.30123
                        -----------------------------------------
Total Dipole Moment    :      2.38952      -0.16490      -1.64486
                        -----------------------------------------
Magnitude (a.u.)       :      2.90561
Magnitude (Debye)      :      7.38547

Rotational constants in cm-1:     0.003057     0.000149     0.000147
Rotational constants in MHz :    91.660637     4.460095     4.404462

                             ****ORCA TERMINATED NORMALLY****
TOTAL RUN TIME: 0 days 16 hours 1 minutes 36 seconds 620 msec
