                         Program Version 4.2.0 -  RELEASE  -
|  1> # ORCA input file
|  2> # BCDT-4F.out
|  3> ! Engrad Keepdens
|  4> %maxcore 1000
|  5> %tddft
|  6>   nroots 3
|  7>   # nroots is the number of states to be computed
|  8>   Iroot 1
|  9>   end
| 10> * xyz 0 1
| 11>    C        2.16853        -1.00581        -3.20400
| 12>    O        1.29800        -1.60117        -2.61176
| 13>    C        2.44873        -1.02692        -4.65940
| 14>    C        1.83193        -1.76842        -5.64674
| 15>    C        2.30402        -1.63288        -6.94307
| 16>    C        3.36563        -0.77467        -7.22801
| 17>    C        3.97853        -0.02055        -6.23768
| 18>    C        3.51084        -0.15054        -4.94067
| 19>    C        3.91303         0.51526        -3.69822
| 20>    C        4.61477         1.69462        -3.64067
| 21>    C        4.75340         2.47706        -2.47802
| 22>    N        4.87460         3.17320        -1.57294
| 23>    C        5.22152         2.30709        -4.75522
| 24>    N        5.76460         2.83498        -5.61802
| 25>    C        3.21795        -0.13767        -2.61913
| 26>    F        3.81116        -0.67535        -8.48602
| 27>    C        3.38626        -0.14006        -1.25735
| 28>    F        1.73792        -2.33643        -7.93161
| 29>    C       13.17198         4.42827        18.93658
| 30>    O       12.30804         5.19231        19.30202
| 31>    C       14.45298         4.12071        19.61835
| 32>    C       14.97205         4.67148        20.77242
| 33>    C       16.21802         4.23125        21.19190
| 34>    C       16.91360         3.26466        20.46662
| 35>    C       16.38716         2.70150        19.31297
| 36>    C       15.14334         3.13758        18.88881
| 37>    C       14.31247         2.72710        17.75423
| 38>    C       14.44931         1.54175        17.07267
| 39>    C       13.46416         1.02861        16.20874
| 40>    N       12.66931         0.55147        15.53082
| 41>    C       15.54315         0.66715        17.21739
| 42>    N       16.42820        -0.06297        17.26771
| 43>    C       13.19969         3.63665        17.68522
| 44>    F       18.12120         2.86918        20.88745
| 45>    C       12.27805         3.91295        16.70507
| 46>    F       16.76137         4.74249        22.30413
| 47>    C       12.32399         3.64341        15.33228
| 48>    S       10.85359         3.83965        14.38285
| 49>    C       11.69788         3.41703        12.96349
| 50>    C       13.06698         3.18316        13.19145
| 51>    C       13.40871         3.29326        14.52081
| 52>    C       11.41119         3.19671        11.60287
| 53>    C       12.58990         2.82288        10.95068
| 54>    C       13.76493         2.82658        11.90071
| 55>    S       10.04999         3.20592        10.55476
| 56>    C       11.07176         2.72183         9.21769
| 57>    C       12.39605         2.55777         9.60580
| 58>    C       10.48617         2.53048         7.92590
| 59>    C       11.21142         2.28787         6.74851
| 60>    C       10.56739         2.02315         5.51200
| 61>    C        9.18163         2.07924         5.34907
| 62>    C        8.43579         2.37222         6.51837
| 63>    C        9.07691         2.57900         7.78126
| 64>    N        7.11290         2.47090         6.60756
| 65>    S        6.70956         2.79561         8.12965
| 66>    N        8.19502         2.82293         8.74720
| 67>    C        8.50397         1.82021         4.11424
| 68>    S        6.78321         1.50709         4.12979
| 69>    C        6.81648         1.25272         2.43269
| 70>    C        8.08586         1.44855         1.87682
| 71>    C        9.03788         1.76183         2.83397
| 72>    C        5.92553         0.86656         1.41200
| 73>    C        6.62602         0.79942         0.19648
| 74>    C        8.06654         1.21395         0.38601
| 75>    S        4.27810         0.45840         1.24611
| 76>    C        4.49180         0.24626        -0.48948
| 77>    C        5.82086         0.45833        -0.86748
| 78>    O       12.56627         2.25749         6.83254
| 79>    O       11.35926         1.64499         4.44566
| 80>    C       13.35050         2.89630         5.82487
| 81>    C       14.46178         3.67383         6.51739
| 82>    C       11.64273         0.24697         4.42724
| 83>    C       12.39058        -0.07499         3.14545
| 84>    C        9.05535         0.11691        -0.03741
| 85>    C        8.82707        -1.19792         0.69924
| 86>    C        8.28311         2.51819        -0.41580
| 87>    C        9.58599         3.24636        -0.11632
| 88>    C       14.45098         1.45312        11.97308
| 89>    C       13.47398         0.32094        12.26651
| 90>    C       14.74200         3.93384        11.44527
| 91>    C       15.89913         4.20377        12.39747
| 92>    H        1.01110        -2.43127        -5.42423
| 93>    H        4.79628         0.62792        -6.50687
| 94>    H        2.55442        -0.57224        -0.70878
| 95>    H       14.43281         5.41807        21.33315
| 96>    H       16.96134         1.95737        18.78533
| 97>    H       11.42888         4.49777        17.04589
| 98>    H       14.40134         3.16784        14.91393
| 99>    H       13.15987         2.23609         8.92604
|100>    H       10.07683         1.94925         2.64092
|101>    H        6.16587         0.31159        -1.87518
|102>    H       12.72827         3.56882         5.22844
|103>    H       13.77970         2.13592         5.16358
|104>    H       14.03973         4.42011         7.18606
|105>    H       15.07680         4.17060         5.77253
|106>    H       15.08646         2.99899         7.09668
|107>    H       10.70077        -0.31708         4.47387
|108>    H       12.24662        -0.01944         5.30564
|109>    H       11.76147         0.12334         2.28223
|110>    H       12.67253        -1.12387         3.14314
|111>    H       13.28670         0.53529         3.07035
|112>    H       10.07027         0.46516         0.15775
|113>    H        8.95499        -0.04472        -1.11245
|114>    H        8.94493        -1.06405         1.77220
|115>    H        9.54517        -1.94295         0.36500
|116>    H        7.82567        -1.57787         0.51004
|117>    H        7.44521         3.18704        -0.20767
|118>    H        8.24241         2.26624        -1.47762
|119>    H        9.62088         3.56675         0.92119
|120>    H        9.65427         4.12972        -0.74655
|121>    H       10.45009         2.61959        -0.32128
|122>    H       15.20976         1.47713        12.75606
|123>    H       14.95039         1.26820        11.01946
|124>    H       12.98993         0.46616        13.22953
|125>    H       14.00620        -0.62672        12.29561
|126>    H       12.70733         0.26128        11.49754
|127>    H       14.17017         4.85606        11.31394
|128>    H       15.13601         3.64626        10.46825
|129>    H       15.53527         4.55664        13.35855
|130>    H       16.54101         4.97447        11.97662
|131>    H       16.50060         3.31260        12.55341
|132> *
|133>
|134>                          ****END OF INPUT****

CARTESIAN COORDINATES (ANGSTROEM)
---------------------------------
  C      2.168530   -1.005810   -3.204000
  O      1.298000   -1.601170   -2.611760
  C      2.448730   -1.026920   -4.659400
  C      1.831930   -1.768420   -5.646740
  C      2.304020   -1.632880   -6.943070
  C      3.365630   -0.774670   -7.228010
  C      3.978530   -0.020550   -6.237680
  C      3.510840   -0.150540   -4.940670
  C      3.913030    0.515260   -3.698220
  C      4.614770    1.694620   -3.640670
  C      4.753400    2.477060   -2.478020
  N      4.874600    3.173200   -1.572940
  C      5.221520    2.307090   -4.755220
  N      5.764600    2.834980   -5.618020
  C      3.217950   -0.137670   -2.619130
  F      3.811160   -0.675350   -8.486020
  C      3.386260   -0.140060   -1.257350
  F      1.737920   -2.336430   -7.931610
  C     13.171980    4.428270   18.936580
  O     12.308040    5.192310   19.302020
  C     14.452980    4.120710   19.618350
  C     14.972050    4.671480   20.772420
  C     16.218020    4.231250   21.191900
  C     16.913600    3.264660   20.466620
  C     16.387160    2.701500   19.312970
  C     15.143340    3.137580   18.888810
  C     14.312470    2.727100   17.754230
  C     14.449310    1.541750   17.072670
  C     13.464160    1.028610   16.208740
  N     12.669310    0.551470   15.530820
  C     15.543150    0.667150   17.217390
  N     16.428200   -0.062970   17.267710
  C     13.199690    3.636650   17.685220
  F     18.121200    2.869180   20.887450
  C     12.278050    3.912950   16.705070
  F     16.761370    4.742490   22.304130
  C     12.323990    3.643410   15.332280
  S     10.853590    3.839650   14.382850
  C     11.697880    3.417030   12.963490
  C     13.066980    3.183160   13.191450
  C     13.408710    3.293260   14.520810
  C     11.411190    3.196710   11.602870
  C     12.589900    2.822880   10.950680
  C     13.764930    2.826580   11.900710
  S     10.049990    3.205920   10.554760
  C     11.071760    2.721830    9.217690
  C     12.396050    2.557770    9.605800
  C     10.486170    2.530480    7.925900
  C     11.211420    2.287870    6.748510
  C     10.567390    2.023150    5.512000
  C      9.181630    2.079240    5.349070
  C      8.435790    2.372220    6.518370
  C      9.076910    2.579000    7.781260
  N      7.112900    2.470900    6.607560
  S      6.709560    2.795610    8.129650
  N      8.195020    2.822930    8.747200
  C      8.503970    1.820210    4.114240
  S      6.783210    1.507090    4.129790
  C      6.816480    1.252720    2.432690
  C      8.085860    1.448550    1.876820
  C      9.037880    1.761830    2.833970
  C      5.925530    0.866560    1.412000
  C      6.626020    0.799420    0.196480
  C      8.066540    1.213950    0.386010
  S      4.278100    0.458400    1.246110
  C      4.491800    0.246260   -0.489480
  C      5.820860    0.458330   -0.867480
  O     12.566270    2.257490    6.832540
  O     11.359260    1.644990    4.445660
  C     13.350500    2.896300    5.824870
  C     14.461780    3.673830    6.517390
  C     11.642730    0.246970    4.427240
  C     12.390580   -0.074990    3.145450
  C      9.055350    0.116910   -0.037410
  C      8.827070   -1.197920    0.699240
  C      8.283110    2.518190   -0.415800
  C      9.585990    3.246360   -0.116320
  C     14.450980    1.453120   11.973080
  C     13.473980    0.320940   12.266510
  C     14.742000    3.933840   11.445270
  C     15.899130    4.203770   12.397470
  H      1.011100   -2.431270   -5.424230
  H      4.796280    0.627920   -6.506870
  H      2.554420   -0.572240   -0.708780
  H     14.432810    5.418070   21.333150
  H     16.961340    1.957370   18.785330
  H     11.428880    4.497770   17.045890
  H     14.401340    3.167840   14.913930
  H     13.159870    2.236090    8.926040
  H     10.076830    1.949250    2.640920
  H      6.165870    0.311590   -1.875180
  H     12.728270    3.568820    5.228440
  H     13.779700    2.135920    5.163580
  H     14.039730    4.420110    7.186060
  H     15.076800    4.170600    5.772530
  H     15.086460    2.998990    7.096680
  H     10.700770   -0.317080    4.473870
  H     12.246620   -0.019440    5.305640
  H     11.761470    0.123340    2.282230
  H     12.672530   -1.123870    3.143140
  H     13.286700    0.535290    3.070350
  H     10.070270    0.465160    0.157750
  H      8.954990   -0.044720   -1.112450
  H      8.944930   -1.064050    1.772200
  H      9.545170   -1.942950    0.365000
  H      7.825670   -1.577870    0.510040
  H      7.445210    3.187040   -0.207670
  H      8.242410    2.266240   -1.477620
  H      9.620880    3.566750    0.921190
  H      9.654270    4.129720   -0.746550
  H     10.450090    2.619590   -0.321280
  H     15.209760    1.477130   12.756060
  H     14.950390    1.268200   11.019460
  H     12.989930    0.466160   13.229530
  H     14.006200   -0.626720   12.295610
  H     12.707330    0.261280   11.497540
  H     14.170170    4.856060   11.313940
  H     15.136010    3.646260   10.468250
  H     15.535270    4.556640   13.358550
  H     16.541010    4.974470   11.976620
  H     16.500600    3.312600   12.553410

 Total Charge           Charge          ....    0
 Multiplicity           Mult            ....    1
 Number of Electrons    NEL             ....  602
 Basis Dimension        Dim             .... 1354

ORBITAL ENERGIES
----------------

  NO   OCC          E(Eh)            E(eV)
   0   2.0000     -92.051409     -2504.8462
   1   2.0000     -91.986643     -2503.0838
   2   2.0000     -91.981866     -2502.9538
   3   2.0000     -91.978199     -2502.8540
   4   2.0000     -91.970018     -2502.6314
   5   2.0000     -26.333516      -716.5714
   6   2.0000     -26.332756      -716.5507
   7   2.0000     -26.330118      -716.4789
   8   2.0000     -26.329362      -716.4584
   9   2.0000     -20.612519      -560.8952
  10   2.0000     -20.609607      -560.8159
  11   2.0000     -20.562757      -559.5411
  12   2.0000     -20.557668      -559.4026
  13   2.0000     -15.631063      -425.3428
  14   2.0000     -15.626609      -425.2217
  15   2.0000     -15.590240      -424.2320
  16   2.0000     -15.590038      -424.2265
  17   2.0000     -15.585860      -424.1128
  18   2.0000     -15.585548      -424.1043
  19   2.0000     -11.376440      -309.5687
  20   2.0000     -11.375238      -309.5360
  21   2.0000     -11.372617      -309.4646
  22   2.0000     -11.371424      -309.4322
  23   2.0000     -11.361593      -309.1647
  24   2.0000     -11.357079      -309.0418
  25   2.0000     -11.356802      -309.0343
  26   2.0000     -11.350018      -308.8497
  27   2.0000     -11.342903      -308.6561
  28   2.0000     -11.337760      -308.5161
  29   2.0000     -11.323824      -308.1369
  30   2.0000     -11.322853      -308.1105
  31   2.0000     -11.320401      -308.0438
  32   2.0000     -11.319691      -308.0245
  33   2.0000     -11.318794      -308.0000
  34   2.0000     -11.317836      -307.9740
  35   2.0000     -11.314716      -307.8891
  36   2.0000     -11.313877      -307.8662
  37   2.0000     -11.313535      -307.8569
  38   2.0000     -11.313094      -307.8450
  39   2.0000     -11.307401      -307.6900
  40   2.0000     -11.303425      -307.5818
  41   2.0000     -11.302693      -307.5619
  42   2.0000     -11.302596      -307.5593
  43   2.0000     -11.301443      -307.5279
  44   2.0000     -11.299348      -307.4709
  45   2.0000     -11.298210      -307.4399
  46   2.0000     -11.297460      -307.4195
  47   2.0000     -11.295928      -307.3778
  48   2.0000     -11.294591      -307.3414
  49   2.0000     -11.294287      -307.3332
  50   2.0000     -11.294041      -307.3265
  51   2.0000     -11.293290      -307.3060
  52   2.0000     -11.291226      -307.2499
  53   2.0000     -11.290528      -307.2309
  54   2.0000     -11.290206      -307.2221
  55   2.0000     -11.289985      -307.2161
  56   2.0000     -11.288436      -307.1740
  57   2.0000     -11.287072      -307.1368
  58   2.0000     -11.286836      -307.1304
  59   2.0000     -11.282729      -307.0187
  60   2.0000     -11.279342      -306.9265
  61   2.0000     -11.274217      -306.7871
  62   2.0000     -11.269309      -306.6535
  63   2.0000     -11.269030      -306.6459
  64   2.0000     -11.268506      -306.6316
  65   2.0000     -11.267172      -306.5953
  66   2.0000     -11.263459      -306.4943
  67   2.0000     -11.262359      -306.4644
  68   2.0000     -11.262306      -306.4629
  69   2.0000     -11.259105      -306.3758
  70   2.0000     -11.257402      -306.3295
  71   2.0000     -11.254470      -306.2497
  72   2.0000     -11.253386      -306.2202
  73   2.0000     -11.248223      -306.0797
  74   2.0000     -11.248216      -306.0795
  75   2.0000     -11.244418      -305.9762
  76   2.0000     -11.240794      -305.8776
  77   2.0000     -11.236049      -305.7484
  78   2.0000     -11.235119      -305.7231
  79   2.0000     -11.232462      -305.6508
  80   2.0000     -11.211441      -305.0788
  81   2.0000      -9.082210      -247.1395
  82   2.0000      -9.021946      -245.4996
  83   2.0000      -9.017261      -245.3721
  84   2.0000      -9.012640      -245.2464
  85   2.0000      -9.004335      -245.0204
  86   2.0000      -6.769444      -184.2059
  87   2.0000      -6.767605      -184.1559
  88   2.0000      -6.766207      -184.1179
  89   2.0000      -6.709397      -182.5720
  90   2.0000      -6.708380      -182.5443
  91   2.0000      -6.706547      -182.4944
  92   2.0000      -6.704714      -182.4445
  93   2.0000      -6.703688      -182.4166
  94   2.0000      -6.701865      -182.3670
  95   2.0000      -6.699915      -182.3140
  96   2.0000      -6.698777      -182.2830
  97   2.0000      -6.696934      -182.2328
  98   2.0000      -6.691614      -182.0881
  99   2.0000      -6.690433      -182.0559
 100   2.0000      -6.688552      -182.0048
 101   2.0000      -1.643162       -44.7127
 102   2.0000      -1.639660       -44.6174
 103   2.0000      -1.628301       -44.3083
 104   2.0000      -1.624813       -44.2134
 105   2.0000      -1.446387       -39.3582
 106   2.0000      -1.416571       -38.5468
 107   2.0000      -1.395770       -37.9808
 108   2.0000      -1.390624       -37.8408
 109   2.0000      -1.377747       -37.4904
 110   2.0000      -1.253860       -34.1193
 111   2.0000      -1.249360       -33.9968
 112   2.0000      -1.247096       -33.9352
 113   2.0000      -1.241523       -33.7836
 114   2.0000      -1.230678       -33.4885
 115   2.0000      -1.226944       -33.3868
 116   2.0000      -1.226434       -33.3730
 117   2.0000      -1.223083       -33.2818
 118   2.0000      -1.220902       -33.2224
 119   2.0000      -1.203308       -32.7437
 120   2.0000      -1.190547       -32.3964
 121   2.0000      -1.178992       -32.0820
 122   2.0000      -1.169300       -31.8183
 123   2.0000      -1.164690       -31.6928
 124   2.0000      -1.140141       -31.0248
 125   2.0000      -1.131194       -30.7814
 126   2.0000      -1.105205       -30.0742
 127   2.0000      -1.100152       -29.9366
 128   2.0000      -1.096314       -29.8322
 129   2.0000      -1.089562       -29.6485
 130   2.0000      -1.082920       -29.4678
 131   2.0000      -1.072863       -29.1941
 132   2.0000      -1.071677       -29.1618
 133   2.0000      -1.067779       -29.0558
 134   2.0000      -1.056428       -28.7469
 135   2.0000      -1.050721       -28.5916
 136   2.0000      -1.032740       -28.1023
 137   2.0000      -1.031833       -28.0776
 138   2.0000      -1.027551       -27.9611
 139   2.0000      -1.027097       -27.9487
 140   2.0000      -1.020007       -27.7558
 141   2.0000      -1.019795       -27.7500
 142   2.0000      -1.013623       -27.5821
 143   2.0000      -1.008149       -27.4331
 144   2.0000      -0.994899       -27.0726
 145   2.0000      -0.984043       -26.7772
 146   2.0000      -0.960253       -26.1298
 147   2.0000      -0.942017       -25.6336
 148   2.0000      -0.937650       -25.5148
 149   2.0000      -0.934495       -25.4289
 150   2.0000      -0.928719       -25.2717
 151   2.0000      -0.925186       -25.1756
 152   2.0000      -0.909576       -24.7508
 153   2.0000      -0.896955       -24.4074
 154   2.0000      -0.890188       -24.2233
 155   2.0000      -0.885413       -24.0933
 156   2.0000      -0.871641       -23.7186
 157   2.0000      -0.861717       -23.4485
 158   2.0000      -0.858475       -23.3603
 159   2.0000      -0.853797       -23.2330
 160   2.0000      -0.846784       -23.0422
 161   2.0000      -0.845906       -23.0183
 162   2.0000      -0.843582       -22.9550
 163   2.0000      -0.832354       -22.6495
 164   2.0000      -0.830460       -22.5980
 165   2.0000      -0.827171       -22.5085
 166   2.0000      -0.822583       -22.3836
 167   2.0000      -0.814000       -22.1501
 168   2.0000      -0.803890       -21.8750
 169   2.0000      -0.788669       -21.4608
 170   2.0000      -0.784250       -21.3405
 171   2.0000      -0.780304       -21.2332
 172   2.0000      -0.779893       -21.2220
 173   2.0000      -0.775178       -21.0937
 174   2.0000      -0.772221       -21.0132
 175   2.0000      -0.769154       -20.9298
 176   2.0000      -0.762548       -20.7500
 177   2.0000      -0.758547       -20.6411
 178   2.0000      -0.753514       -20.5042
 179   2.0000      -0.749570       -20.3968
 180   2.0000      -0.748559       -20.3693
 181   2.0000      -0.743609       -20.2346
 182   2.0000      -0.740561       -20.1517
 183   2.0000      -0.740455       -20.1488
 184   2.0000      -0.737080       -20.0570
 185   2.0000      -0.733127       -19.9494
 186   2.0000      -0.729525       -19.8514
 187   2.0000      -0.722034       -19.6475
 188   2.0000      -0.712435       -19.3863
 189   2.0000      -0.709097       -19.2955
 190   2.0000      -0.707835       -19.2612
 191   2.0000      -0.704256       -19.1638
 192   2.0000      -0.699845       -19.0437
 193   2.0000      -0.695734       -18.9319
 194   2.0000      -0.694564       -18.9000
 195   2.0000      -0.684377       -18.6228
 196   2.0000      -0.679880       -18.5005
 197   2.0000      -0.672479       -18.2991
 198   2.0000      -0.668776       -18.1983
 199   2.0000      -0.666440       -18.1347
 200   2.0000      -0.662702       -18.0330
 201   2.0000      -0.661516       -18.0008
 202   2.0000      -0.660935       -17.9850
 203   2.0000      -0.658575       -17.9207
 204   2.0000      -0.655945       -17.8492
 205   2.0000      -0.653019       -17.7695
 206   2.0000      -0.648841       -17.6559
 207   2.0000      -0.646563       -17.5939
 208   2.0000      -0.644942       -17.5498
 209   2.0000      -0.641401       -17.4534
 210   2.0000      -0.638676       -17.3793
 211   2.0000      -0.634487       -17.2653
 212   2.0000      -0.630161       -17.1475
 213   2.0000      -0.628031       -17.0896
 214   2.0000      -0.625892       -17.0314
 215   2.0000      -0.624839       -17.0027
 216   2.0000      -0.622396       -16.9363
 217   2.0000      -0.620581       -16.8869
 218   2.0000      -0.618807       -16.8386
 219   2.0000      -0.617282       -16.7971
 220   2.0000      -0.613944       -16.7063
 221   2.0000      -0.605266       -16.4701
 222   2.0000      -0.602395       -16.3920
 223   2.0000      -0.596852       -16.2412
 224   2.0000      -0.596164       -16.2225
 225   2.0000      -0.589561       -16.0428
 226   2.0000      -0.589379       -16.0378
 227   2.0000      -0.585512       -15.9326
 228   2.0000      -0.582317       -15.8456
 229   2.0000      -0.581308       -15.8182
 230   2.0000      -0.579258       -15.7624
 231   2.0000      -0.577653       -15.7187
 232   2.0000      -0.574944       -15.6450
 233   2.0000      -0.574347       -15.6288
 234   2.0000      -0.573816       -15.6143
 235   2.0000      -0.573135       -15.5958
 236   2.0000      -0.571478       -15.5507
 237   2.0000      -0.570521       -15.5247
 238   2.0000      -0.569587       -15.4992
 239   2.0000      -0.568023       -15.4567
 240   2.0000      -0.563676       -15.3384
 241   2.0000      -0.561687       -15.2843
 242   2.0000      -0.560679       -15.2569
 243   2.0000      -0.558660       -15.2019
 244   2.0000      -0.557412       -15.1680
 245   2.0000      -0.552478       -15.0337
 246   2.0000      -0.551019       -14.9940
 247   2.0000      -0.550502       -14.9799
 248   2.0000      -0.545986       -14.8570
 249   2.0000      -0.544097       -14.8056
 250   2.0000      -0.540902       -14.7187
 251   2.0000      -0.536274       -14.5927
 252   2.0000      -0.534565       -14.5462
 253   2.0000      -0.530403       -14.4330
 254   2.0000      -0.529877       -14.4187
 255   2.0000      -0.528867       -14.3912
 256   2.0000      -0.526315       -14.3218
 257   2.0000      -0.522759       -14.2250
 258   2.0000      -0.520627       -14.1670
 259   2.0000      -0.519309       -14.1311
 260   2.0000      -0.513189       -13.9646
 261   2.0000      -0.512108       -13.9352
 262   2.0000      -0.510503       -13.8915
 263   2.0000      -0.506264       -13.7761
 264   2.0000      -0.504706       -13.7337
 265   2.0000      -0.501781       -13.6542
 266   2.0000      -0.499322       -13.5872
 267   2.0000      -0.496650       -13.5145
 268   2.0000      -0.495343       -13.4790
 269   2.0000      -0.494596       -13.4586
 270   2.0000      -0.489308       -13.3147
 271   2.0000      -0.484962       -13.1965
 272   2.0000      -0.481337       -13.0978
 273   2.0000      -0.480287       -13.0693
 274   2.0000      -0.476242       -12.9592
 275   2.0000      -0.475420       -12.9368
 276   2.0000      -0.474203       -12.9037
 277   2.0000      -0.473519       -12.8851
 278   2.0000      -0.470197       -12.7947
 279   2.0000      -0.469129       -12.7656
 280   2.0000      -0.466616       -12.6973
 281   2.0000      -0.464404       -12.6371
 282   2.0000      -0.448573       -12.2063
 283   2.0000      -0.445658       -12.1270
 284   2.0000      -0.443540       -12.0693
 285   2.0000      -0.425410       -11.5760
 286   2.0000      -0.417447       -11.3593
 287   2.0000      -0.396414       -10.7870
 288   2.0000      -0.390520       -10.6266
 289   2.0000      -0.386681       -10.5221
 290   2.0000      -0.378624       -10.3029
 291   2.0000      -0.375802       -10.2261
 292   2.0000      -0.372460       -10.1352
 293   2.0000      -0.368010       -10.0141
 294   2.0000      -0.363127        -9.8812
 295   2.0000      -0.361632        -9.8405
 296   2.0000      -0.354539        -9.6475
 297   2.0000      -0.349628        -9.5139
 298   2.0000      -0.326740        -8.8911
 299   2.0000      -0.280734        -7.6392
 300   2.0000      -0.251878        -6.8539
 301   0.0000      -0.040737        -1.1085
 302   0.0000      -0.018842        -0.5127
 303   0.0000      -0.001756        -0.0478
 304   0.0000       0.019365         0.5270
 305   0.0000       0.024632         0.6703

MULLIKEN ATOMIC CHARGES
-----------------------
   0 C :    0.470049
   1 O :   -0.355393
   2 C :   -0.157528
   3 C :   -0.029759
   4 C :    0.342186
   5 C :    0.351869
   6 C :   -0.056861
   7 C :   -0.051511
   8 C :    0.248889
   9 C :   -0.387207
  10 C :    0.038142
  11 N :   -0.056516
  12 C :    0.040470
  13 N :   -0.068769
  14 C :   -0.349768
  15 F :   -0.310846
  16 C :    0.224060
  17 F :   -0.313303
  18 C :    0.472591
  19 O :   -0.357694
  20 C :   -0.157794
  21 C :   -0.031180
  22 C :    0.341446
  23 C :    0.351145
  24 C :   -0.057072
  25 C :   -0.051452
  26 C :    0.249022
  27 C :   -0.396766
  28 C :    0.054585
  29 N :   -0.072285
  30 C :    0.044112
  31 N :   -0.071864
  32 C :   -0.357569
  33 F :   -0.311962
  34 C :    0.227607
  35 F :   -0.314469
  36 C :   -0.260955
  37 S :    0.213668
  38 C :   -0.017859
  39 C :   -0.085901
  40 C :    0.093697
  41 C :   -0.093159
  42 C :    0.007317
  43 C :   -0.320634
  44 S :    0.225606
  45 C :   -0.067468
  46 C :   -0.018502
  47 C :   -0.077437
  48 C :    0.313340
  49 C :    0.176930
  50 C :   -0.000515
  51 C :    0.139435
  52 C :    0.165760
  53 N :   -0.519318
  54 S :    0.658744
  55 N :   -0.538761
  56 C :   -0.094615
  57 S :    0.237159
  58 C :   -0.085601
  59 C :    0.000702
  60 C :   -0.025652
  61 C :   -0.029543
  62 C :   -0.071674
  63 C :   -0.333256
  64 S :    0.214649
  65 C :   -0.252438
  66 C :    0.091112
  67 O :   -0.592790
  68 O :   -0.609950
  69 C :    0.234106
  70 C :   -0.042527
  71 C :    0.214331
  72 C :   -0.033473
  73 C :    0.038134
  74 C :   -0.014388
  75 C :    0.038185
  76 C :   -0.011182
  77 C :    0.031667
  78 C :   -0.029544
  79 C :    0.043880
  80 C :   -0.008549
  81 H :    0.079032
  82 H :    0.092118
  83 H :    0.083053
  84 H :    0.078077
  85 H :    0.091171
  86 H :    0.081202
  87 H :    0.067569
  88 H :    0.059211
  89 H :    0.065623
  90 H :    0.062328
  91 H :    0.045105
  92 H :    0.034281
  93 H :    0.045771
  94 H :    0.040272
  95 H :    0.041075
  96 H :    0.043776
  97 H :    0.044347
  98 H :    0.038939
  99 H :    0.045228
 100 H :    0.041661
 101 H :    0.036042
 102 H :    0.032302
 103 H :    0.039255
 104 H :    0.035068
 105 H :    0.043930
 106 H :    0.067495
 107 H :    0.030741
 108 H :    0.039829
 109 H :    0.044903
 110 H :    0.021004
 111 H :    0.038277
 112 H :    0.025646
 113 H :    0.084759
 114 H :    0.031803
 115 H :    0.035560
 116 H :    0.038045
 117 H :    0.029361
 118 H :    0.032943
 119 H :    0.039434
 120 H :    0.032427
Sum of atomic charges:    0.0000000

LOEWDIN ATOMIC CHARGES
----------------------
   0 C :    0.164118
   1 O :   -0.234824
   2 C :   -0.053497
   3 C :    0.010869
   4 C :    0.120830
   5 C :    0.124452
   6 C :   -0.007011
   7 C :   -0.021245
   8 C :    0.110771
   9 C :   -0.184509
  10 C :    0.014477
  11 N :   -0.085377
  12 C :    0.009342
  13 N :   -0.097137
  14 C :   -0.171265
  15 F :   -0.109956
  16 C :    0.113949
  17 F :   -0.111534
  18 C :    0.163992
  19 O :   -0.237513
  20 C :   -0.052747
  21 C :    0.009959
  22 C :    0.119995
  23 C :    0.123451
  24 C :   -0.007320
  25 C :   -0.021259
  26 C :    0.112259
  27 C :   -0.190297
  28 C :    0.020528
  29 N :   -0.084454
  30 C :    0.009302
  31 N :   -0.100629
  32 C :   -0.177914
  33 F :   -0.110944
  34 C :    0.114991
  35 F :   -0.112604
  36 C :   -0.226064
  37 S :    0.446735
  38 C :   -0.120101
  39 C :   -0.062878
  40 C :    0.038824
  41 C :   -0.222589
  42 C :   -0.010206
  43 C :   -0.034798
  44 S :    0.464476
  45 C :   -0.136374
  46 C :   -0.044924
  47 C :   -0.080560
  48 C :    0.097193
  49 C :    0.064229
  50 C :   -0.055929
  51 C :   -0.030493
  52 C :   -0.019872
  53 N :   -0.330128
  54 S :    0.670901
  55 N :   -0.340344
  56 C :   -0.151356
  57 S :    0.469989
  58 C :   -0.208934
  59 C :   -0.021384
  60 C :   -0.038984
  61 C :   -0.132359
  62 C :   -0.055231
  63 C :   -0.034900
  64 S :    0.447350
  65 C :   -0.220849
  66 C :    0.038069
  67 O :   -0.182060
  68 O :   -0.201849
  69 C :    0.139371
  70 C :   -0.039111
  71 C :    0.131854
  72 C :   -0.034275
  73 C :    0.002290
  74 C :   -0.032591
  75 C :    0.008947
  76 C :   -0.033853
  77 C :    0.001876
  78 C :   -0.035356
  79 C :    0.006748
  80 C :   -0.033344
  81 H :    0.055898
  82 H :    0.053526
  83 H :    0.052030
  84 H :    0.055438
  85 H :    0.053315
  86 H :    0.051369
  87 H :    0.034013
  88 H :    0.030120
  89 H :    0.030931
  90 H :    0.034994
  91 H :    0.013586
  92 H :    0.008913
  93 H :    0.022836
  94 H :    0.024480
  95 H :    0.020041
  96 H :    0.010801
  97 H :    0.009889
  98 H :    0.019698
  99 H :    0.027864
 100 H :    0.021633
 101 H :    0.012284
 102 H :    0.015747
 103 H :    0.015933
 104 H :    0.017782
 105 H :    0.018907
 106 H :    0.028333
 107 H :    0.013875
 108 H :    0.016662
 109 H :    0.024188
 110 H :    0.010638
 111 H :    0.013872
 112 H :    0.011939
 113 H :    0.022778
 114 H :    0.018060
 115 H :    0.014804
 116 H :    0.019606
 117 H :    0.012794
 118 H :    0.014714
 119 H :    0.021678
 120 H :    0.015622

  Mayer bond orders larger than 0.100000
B(  0-C ,  1-O ) :   2.0982 B(  0-C ,  2-C ) :   0.9443 B(  0-C , 14-C ) :   1.0119
B(  2-C ,  3-C ) :   1.3927 B(  2-C ,  7-C ) :   1.3673 B(  3-C ,  4-C ) :   1.3779
B(  3-C , 81-H ) :   1.0134 B(  4-C ,  5-C ) :   1.3431 B(  4-C , 17-F ) :   0.9340
B(  5-C ,  6-C ) :   1.4001 B(  5-C , 15-F ) :   0.9408 B(  6-C ,  7-C ) :   1.3849
B(  6-C , 82-H ) :   0.9927 B(  7-C ,  8-C ) :   1.0414 B(  8-C ,  9-C ) :   1.6592
B(  8-C , 14-C ) :   1.1128 B(  9-C , 10-C ) :   1.0875 B(  9-C , 12-C ) :   1.0526
B( 10-C , 11-N ) :   2.9853 B( 12-C , 13-N ) :   2.9949 B( 14-C , 16-C ) :   1.6211
B( 16-C , 65-C ) :   1.2376 B( 16-C , 83-H ) :   0.9485 B( 18-C , 19-O ) :   2.0973
B( 18-C , 20-C ) :   0.9418 B( 18-C , 32-C ) :   1.0156 B( 20-C , 21-C ) :   1.3952
B( 20-C , 25-C ) :   1.3674 B( 21-C , 22-C ) :   1.3759 B( 21-C , 84-H ) :   1.0135
B( 22-C , 23-C ) :   1.3455 B( 22-C , 35-F ) :   0.9326 B( 23-C , 24-C ) :   1.3974
B( 23-C , 33-F ) :   0.9394 B( 24-C , 25-C ) :   1.3870 B( 24-C , 85-H ) :   0.9934
B( 25-C , 26-C ) :   1.0403 B( 26-C , 27-C ) :   1.6472 B( 26-C , 32-C ) :   1.1269
B( 27-C , 28-C ) :   1.0913 B( 27-C , 30-C ) :   1.0531 B( 28-C , 29-N ) :   2.9524
B( 30-C , 31-N ) :   2.9941 B( 32-C , 34-C ) :   1.5935 B( 34-C , 36-C ) :   1.2609
B( 34-C , 86-H ) :   0.9494 B( 36-C , 37-S ) :   1.0708 B( 36-C , 40-C ) :   1.3735
B( 37-S , 38-C ) :   1.1399 B( 38-C , 39-C ) :   1.4768 B( 38-C , 41-C ) :   1.2953
B( 39-C , 40-C ) :   1.4918 B( 39-C , 43-C ) :   0.9030 B( 40-C , 87-H ) :   0.9895
B( 41-C , 42-C ) :   1.5433 B( 41-C , 44-S ) :   1.0369 B( 42-C , 43-C ) :   0.9428
B( 42-C , 46-C ) :   1.3358 B( 43-C , 77-C ) :   1.0171 B( 43-C , 79-C ) :   1.0097
B( 44-S , 45-C ) :   1.1269 B( 45-C , 46-C ) :   1.5232 B( 45-C , 47-C ) :   1.1268
B( 46-C , 88-H ) :   1.0158 B( 47-C , 48-C ) :   1.5361 B( 47-C , 52-C ) :   1.1795
B( 48-C , 49-C ) :   1.1828 B( 48-C , 67-O ) :   1.0336 B( 49-C , 50-C ) :   1.5615
B( 49-C , 68-O ) :   0.9796 B( 50-C , 51-C ) :   1.1599 B( 50-C , 56-C ) :   1.1190
B( 51-C , 52-C ) :   1.1526 B( 51-C , 53-N ) :   1.4833 B( 52-C , 55-N ) :   1.4714
B( 53-N , 54-S ) :   1.2384 B( 53-N , 55-N ) :   0.1162 B( 54-S , 55-N ) :   1.2289
B( 56-C , 57-S ) :   1.1227 B( 56-C , 60-C ) :   1.5268 B( 57-S , 58-C ) :   1.0552
B( 58-C , 59-C ) :   1.5503 B( 58-C , 61-C ) :   1.2837 B( 59-C , 60-C ) :   1.3425
B( 59-C , 63-C ) :   0.9158 B( 60-C , 89-H ) :   1.0109 B( 61-C , 62-C ) :   1.4971
B( 61-C , 64-S ) :   1.1316 B( 62-C , 63-C ) :   0.9285 B( 62-C , 66-C ) :   1.4651
B( 63-C , 73-C ) :   1.0203 B( 63-C , 75-C ) :   1.0074 B( 64-S , 65-C ) :   1.0784
B( 65-C , 66-C ) :   1.3929 B( 66-C , 90-H ) :   0.9935 B( 67-O , 69-C ) :   0.7949
B( 68-O , 71-C ) :   0.7972 B( 69-C , 70-C ) :   1.0528 B( 69-C , 91-H ) :   0.9780
B( 69-C , 92-H ) :   0.9788 B( 70-C , 93-H ) :   0.9816 B( 70-C , 94-H ) :   0.9812
B( 70-C , 95-H ) :   0.9810 B( 71-C , 72-C ) :   1.0528 B( 71-C , 96-H ) :   0.9722
B( 71-C , 97-H ) :   0.9762 B( 72-C , 98-H ) :   0.9844 B( 72-C , 99-H ) :   0.9805
B( 72-C ,100-H ) :   0.9823 B( 73-C , 74-C ) :   1.0365 B( 73-C ,101-H ) :   0.9745
B( 73-C ,102-H ) :   0.9718 B( 74-C ,103-H ) :   0.9817 B( 74-C ,104-H ) :   0.9873
B( 74-C ,105-H ) :   0.9821 B( 75-C , 76-C ) :   1.0500 B( 75-C ,106-H ) :   0.9685
B( 75-C ,107-H ) :   0.9683 B( 76-C ,108-H ) :   0.9804 B( 76-C ,109-H ) :   0.9848
B( 76-C ,110-H ) :   0.9818 B( 77-C , 78-C ) :   1.0364 B( 77-C ,111-H ) :   0.9720
B( 77-C ,112-H ) :   0.9719 B( 78-C ,113-H ) :   0.9766 B( 78-C ,114-H ) :   0.9847
B( 78-C ,115-H ) :   0.9786 B( 79-C , 80-C ) :   1.0477 B( 79-C ,116-H ) :   0.9706
B( 79-C ,117-H ) :   0.9697 B( 80-C ,118-H ) :   0.9811 B( 80-C ,119-H ) :   0.9853
B( 80-C ,120-H ) :   0.9828

-----------------------------------------------------------------------------
         ABSORPTION SPECTRUM VIA TRANSITION ELECTRIC DIPOLE MOMENTS
-----------------------------------------------------------------------------
State   Energy    Wavelength  fosc         T2        TX        TY        TZ
        (cm-1)      (nm)                 (au**2)    (au)      (au)      (au)
-----------------------------------------------------------------------------
   1   18239.0    548.3   3.045573670  54.97214  -3.14822  -0.59739  -6.68610
   2   22534.1    443.8   0.040167293   0.58682  -0.63380  -0.43016  -0.00911
   3   27712.8    360.8   0.084436499   1.00306   0.01759   1.00049   0.04210

FINAL SINGLE POINT ENERGY     -5379.076280145903

DIPOLE MOMENT
-------------
                                X             Y             Z
Electronic contribution:    -71.77530       2.26320      30.51098
Nuclear contribution   :     73.80578      -2.22317     -32.01280
                        -----------------------------------------
Total Dipole Moment    :      2.03048       0.04003      -1.50182
                        -----------------------------------------
Magnitude (a.u.)       :      2.52585
Magnitude (Debye)      :      6.42019

Rotational constants in cm-1:     0.002936     0.000156     0.000153
Rotational constants in MHz :    88.032623     4.670359     4.579373

                             ****ORCA TERMINATED NORMALLY****
TOTAL RUN TIME: 0 days 18 hours 30 minutes 41 seconds 256 msec
