                         Program Version 4.2.0 -  RELEASE  -
|  1> # ORCA input file
|  2> # BCDT-4Cl.out
|  3> ! Engrad Keepdens
|  4> %maxcore 1000
|  5> %tddft
|  6>   nroots 3
|  7>   # nroots is the number of states to be computed
|  8>   Iroot 1
|  9>   end
| 10> * xyz 0 1
| 11>    C        2.99941         2.33975        -3.77568
| 12>    O        3.85804         3.16064        -3.51980
| 13>    C        1.81129         2.59268        -4.62060
| 14>    C        1.43301         3.77129        -5.22903
| 15>    C        0.25877         3.78044        -5.97129
| 16>    C       -0.50804         2.61710        -6.08853
| 17>    C       -0.11911         1.43043        -5.47574
| 18>    C        1.05170         1.41832        -4.73574
| 19>    C        1.72051         0.35640        -3.98519
| 20>    C        1.31779        -0.95514        -3.96673
| 21>    C        1.97681        -2.02551        -3.32571
| 22>    N        2.44595        -2.96273        -2.85427
| 23>    C        0.17258        -1.43762        -4.63526
| 24>    N       -0.74430        -1.90057        -5.14834
| 25>    C        2.88273         0.93618        -3.33772
| 26>   Cl       -1.96316         2.64277        -7.00158
| 27>    C        3.63799         0.26175        -2.40420
| 28>   Cl       -0.25189         5.22850        -6.74158
| 29>    C       15.10445        -0.36931        17.03653
| 30>    O       14.24196        -1.10613        17.45709
| 31>    C       15.97043         0.54846        17.81294
| 32>    C       15.94894         0.82689        19.16334
| 33>    C       16.84894         1.76442        19.65733
| 34>    C       17.74912         2.40100        18.79738
| 35>    C       17.77656         2.10824        17.43743
| 36>    C       16.88110         1.17594        16.94428
| 37>    C       16.68251         0.64602        15.59436
| 38>    C       17.61157         0.70061        14.58338
| 39>    C       17.51450        -0.05944        13.40268
| 40>    N       17.49043        -0.68573        12.44019
| 41>    C       18.79740         1.45817        14.64036
| 42>    N       19.76086         2.08302        14.61825
| 43>    C       15.48395        -0.15121        15.61953
| 44>   Cl       18.84515         3.56792        19.41990
| 45>    C       14.65448        -0.62923        14.63668
| 46>   Cl       16.85012         2.14121        21.33342
| 47>    C       14.51259        -0.22385        13.30342
| 48>    S       13.50425        -1.19359        12.23432
| 49>    C       13.73692        -0.06947        10.97293
| 50>    C       14.53054         1.02613        11.35790
| 51>    C       14.97492         0.92725        12.65836
| 52>    C       13.34493         0.09093         9.63002
| 53>    C       13.89137         1.28243         9.14275
| 54>    C       14.68909         1.99439        10.21037
| 55>    S       12.37479        -0.71722         8.46619
| 56>    C       12.66948         0.57433         7.32209
| 57>    C       13.50804         1.55260         7.84019
| 58>    C       11.98575         0.60446         6.06898
| 59>    C       11.15381        -0.44151         5.66110
| 60>    C       10.29603        -0.34352         4.54190
| 61>    C       10.35006         0.74538         3.66006
| 62>    C       11.29275         1.76159         3.97587
| 63>    C       12.06951         1.71433         5.18645
| 64>    N       11.54150         2.86711         3.27727
| 65>    S       12.63324         3.75536         4.05493
| 66>    N       12.84514         2.78675         5.32035
| 67>    C        9.45726         0.86908         2.55274
| 68>    S        8.24813        -0.34882         2.22682
| 69>    C        7.62567         0.60526         0.94283
| 70>    C        8.32652         1.80620         0.77144
| 71>    C        9.37262         1.93849         1.66794
| 72>    C        6.58351         0.54465        -0.00130
| 73>    C        6.61247         1.70948        -0.78961
| 74>    C        7.72943         2.62620        -0.34623
| 75>    S        5.31250        -0.50683        -0.43394
| 76>    C        4.77356         0.63563        -1.67828
| 77>    C        5.60196         1.76012        -1.72249
| 78>    O       11.15316        -1.59096         6.42058
| 79>    O        9.37945        -1.31013         4.26381
| 80>    C       11.75643        -2.71932         5.78736
| 81>    C       13.26048        -2.56490         5.60156
| 82>    C        8.61752        -1.87704         5.33270
| 83>    C        7.19297        -2.10384         4.85100
| 84>    C        8.74165         2.89105        -1.47196
| 85>    C        9.27076         1.60710        -2.10015
| 86>    C        7.09095         3.93547         0.16869
| 87>    C        8.06081         4.92286         0.80350
| 88>    C       16.16310         2.16541         9.80683
| 89>    C       16.83311         0.84569         9.44326
| 90>    C       14.00727         3.35396        10.48129
| 91>    C       14.54302         4.12215        11.68177
| 92>    H        2.03453         4.66071        -5.12739
| 93>    H       -0.73910         0.55661        -5.58790
| 94>    H        3.28405        -0.73053        -2.15020
| 95>    H       15.25032         0.33003        19.81763
| 96>    H       18.48205         2.61868        16.80206
| 97>    H       13.93953        -1.36990        14.98290
| 98>    H       15.57264         1.66569        13.16038
| 99>    H       13.79179         2.41467         7.26686
|100>    H       10.06710         2.75539         1.71059
|101>    H        5.43264         2.56008        -2.41875
|102>    H       11.28372        -2.90138         4.81437
|103>    H       11.53795        -3.55302         6.45809
|104>    H       13.48260        -1.70573         4.97105
|105>    H       13.65550        -3.45765         5.12513
|106>    H       13.75138        -2.43141         6.56167
|107>    H        8.62863        -1.20523         6.19650
|108>    H        9.06051        -2.83385         5.62882
|109>    H        6.70938        -1.15847         4.62198
|110>    H        6.62969        -2.61261         5.62799
|111>    H        7.19781        -2.71663         3.95425
|112>    H        9.57903         3.45699        -1.06276
|113>    H        8.25588         3.49799        -2.23803
|114>    H        9.75194         0.98227        -1.35093
|115>    H       10.00132         1.84360        -2.86988
|116>    H        8.46475         1.03800        -2.55743
|117>    H        6.32590         3.67027         0.90296
|118>    H        6.58767         4.41109        -0.67525
|119>    H        8.54287         4.48865         1.67475
|120>    H        7.51430         5.80721         1.12339
|121>    H        8.82485         5.23669         0.09808
|122>    H       16.70717         2.61977        10.63551
|123>    H       16.20635         2.84664         8.95429
|124>    H       16.85812         0.17456        10.29876
|125>    H       17.85746         1.02760         9.12764
|126>    H       16.30499         0.35494         8.62879
|127>    H       12.93886         3.17432        10.62681
|128>    H       14.12057         3.96269         9.58193
|129>    H       14.35298         3.58116        12.60476
|130>    H       14.04018         5.08445        11.74661
|131>    H       15.61019         4.30542        11.59290
|132> *
|133>
|134>                          ****END OF INPUT****

CARTESIAN COORDINATES (ANGSTROEM)
---------------------------------
  C      2.999410    2.339750   -3.775680
  O      3.858040    3.160640   -3.519800
  C      1.811290    2.592680   -4.620600
  C      1.433010    3.771290   -5.229030
  C      0.258770    3.780440   -5.971290
  C     -0.508040    2.617100   -6.088530
  C     -0.119110    1.430430   -5.475740
  C      1.051700    1.418320   -4.735740
  C      1.720510    0.356400   -3.985190
  C      1.317790   -0.955140   -3.966730
  C      1.976810   -2.025510   -3.325710
  N      2.445950   -2.962730   -2.854270
  C      0.172580   -1.437620   -4.635260
  N     -0.744300   -1.900570   -5.148340
  C      2.882730    0.936180   -3.337720
  Cl    -1.963160    2.642770   -7.001580
  C      3.637990    0.261750   -2.404200
  Cl    -0.251890    5.228500   -6.741580
  C     15.104450   -0.369310   17.036530
  O     14.241960   -1.106130   17.457090
  C     15.970430    0.548460   17.812940
  C     15.948940    0.826890   19.163340
  C     16.848940    1.764420   19.657330
  C     17.749120    2.401000   18.797380
  C     17.776560    2.108240   17.437430
  C     16.881100    1.175940   16.944280
  C     16.682510    0.646020   15.594360
  C     17.611570    0.700610   14.583380
  C     17.514500   -0.059440   13.402680
  N     17.490430   -0.685730   12.440190
  C     18.797400    1.458170   14.640360
  N     19.760860    2.083020   14.618250
  C     15.483950   -0.151210   15.619530
  Cl    18.845150    3.567920   19.419900
  C     14.654480   -0.629230   14.636680
  Cl    16.850120    2.141210   21.333420
  C     14.512590   -0.223850   13.303420
  S     13.504250   -1.193590   12.234320
  C     13.736920   -0.069470   10.972930
  C     14.530540    1.026130   11.357900
  C     14.974920    0.927250   12.658360
  C     13.344930    0.090930    9.630020
  C     13.891370    1.282430    9.142750
  C     14.689090    1.994390   10.210370
  S     12.374790   -0.717220    8.466190
  C     12.669480    0.574330    7.322090
  C     13.508040    1.552600    7.840190
  C     11.985750    0.604460    6.068980
  C     11.153810   -0.441510    5.661100
  C     10.296030   -0.343520    4.541900
  C     10.350060    0.745380    3.660060
  C     11.292750    1.761590    3.975870
  C     12.069510    1.714330    5.186450
  N     11.541500    2.867110    3.277270
  S     12.633240    3.755360    4.054930
  N     12.845140    2.786750    5.320350
  C      9.457260    0.869080    2.552740
  S      8.248130   -0.348820    2.226820
  C      7.625670    0.605260    0.942830
  C      8.326520    1.806200    0.771440
  C      9.372620    1.938490    1.667940
  C      6.583510    0.544650   -0.001300
  C      6.612470    1.709480   -0.789610
  C      7.729430    2.626200   -0.346230
  S      5.312500   -0.506830   -0.433940
  C      4.773560    0.635630   -1.678280
  C      5.601960    1.760120   -1.722490
  O     11.153160   -1.590960    6.420580
  O      9.379450   -1.310130    4.263810
  C     11.756430   -2.719320    5.787360
  C     13.260480   -2.564900    5.601560
  C      8.617520   -1.877040    5.332700
  C      7.192970   -2.103840    4.851000
  C      8.741650    2.891050   -1.471960
  C      9.270760    1.607100   -2.100150
  C      7.090950    3.935470    0.168690
  C      8.060810    4.922860    0.803500
  C     16.163100    2.165410    9.806830
  C     16.833110    0.845690    9.443260
  C     14.007270    3.353960   10.481290
  C     14.543020    4.122150   11.681770
  H      2.034530    4.660710   -5.127390
  H     -0.739100    0.556610   -5.587900
  H      3.284050   -0.730530   -2.150200
  H     15.250320    0.330030   19.817630
  H     18.482050    2.618680   16.802060
  H     13.939530   -1.369900   14.982900
  H     15.572640    1.665690   13.160380
  H     13.791790    2.414670    7.266860
  H     10.067100    2.755390    1.710590
  H      5.432640    2.560080   -2.418750
  H     11.283720   -2.901380    4.814370
  H     11.537950   -3.553020    6.458090
  H     13.482600   -1.705730    4.971050
  H     13.655500   -3.457650    5.125130
  H     13.751380   -2.431410    6.561670
  H      8.628630   -1.205230    6.196500
  H      9.060510   -2.833850    5.628820
  H      6.709380   -1.158470    4.621980
  H      6.629690   -2.612610    5.627990
  H      7.197810   -2.716630    3.954250
  H      9.579030    3.456990   -1.062760
  H      8.255880    3.497990   -2.238030
  H      9.751940    0.982270   -1.350930
  H     10.001320    1.843600   -2.869880
  H      8.464750    1.038000   -2.557430
  H      6.325900    3.670270    0.902960
  H      6.587670    4.411090   -0.675250
  H      8.542870    4.488650    1.674750
  H      7.514300    5.807210    1.123390
  H      8.824850    5.236690    0.098080
  H     16.707170    2.619770   10.635510
  H     16.206350    2.846640    8.954290
  H     16.858120    0.174560   10.298760
  H     17.857460    1.027600    9.127640
  H     16.304990    0.354940    8.628790
  H     12.938860    3.174320   10.626810
  H     14.120570    3.962690    9.581930
  H     14.352980    3.581160   12.604760
  H     14.040180    5.084450   11.746610
  H     15.610190    4.305420   11.592900

 Total Charge           Charge          ....    0
 Multiplicity           Mult            ....    1
 Number of Electrons    NEL             ....  634
 Basis Dimension        Dim             .... 1370

ORBITAL ENERGIES
----------------

  NO   OCC          E(Eh)            E(eV)
   0   2.0000    -104.821113     -2852.3275
   1   2.0000    -104.820087     -2852.2996
   2   2.0000    -104.818935     -2852.2682
   3   2.0000    -104.816060     -2852.1900
   4   2.0000     -92.053449     -2504.9017
   5   2.0000     -91.986620     -2503.0832
   6   2.0000     -91.980816     -2502.9252
   7   2.0000     -91.978284     -2502.8564
   8   2.0000     -91.975113     -2502.7701
   9   2.0000     -20.619991      -561.0985
  10   2.0000     -20.615065      -560.9644
  11   2.0000     -20.563787      -559.5691
  12   2.0000     -20.561065      -559.4950
  13   2.0000     -15.634296      -425.4308
  14   2.0000     -15.631254      -425.3480
  15   2.0000     -15.590030      -424.2263
  16   2.0000     -15.589063      -424.2000
  17   2.0000     -15.584539      -424.0769
  18   2.0000     -15.579902      -423.9507
  19   2.0000     -11.362736      -309.1958
  20   2.0000     -11.359863      -309.1176
  21   2.0000     -11.359002      -309.0942
  22   2.0000     -11.352001      -308.9036
  23   2.0000     -11.342823      -308.6539
  24   2.0000     -11.341643      -308.6218
  25   2.0000     -11.340756      -308.5977
  26   2.0000     -11.339459      -308.5624
  27   2.0000     -11.337920      -308.5205
  28   2.0000     -11.334708      -308.4331
  29   2.0000     -11.329409      -308.2889
  30   2.0000     -11.328440      -308.2625
  31   2.0000     -11.319733      -308.0256
  32   2.0000     -11.318113      -307.9815
  33   2.0000     -11.318070      -307.9803
  34   2.0000     -11.317512      -307.9652
  35   2.0000     -11.316502      -307.9377
  36   2.0000     -11.314896      -307.8940
  37   2.0000     -11.313666      -307.8605
  38   2.0000     -11.310573      -307.7763
  39   2.0000     -11.306734      -307.6719
  40   2.0000     -11.305000      -307.6247
  41   2.0000     -11.303867      -307.5939
  42   2.0000     -11.300228      -307.4948
  43   2.0000     -11.299919      -307.4864
  44   2.0000     -11.299036      -307.4624
  45   2.0000     -11.296914      -307.4046
  46   2.0000     -11.295828      -307.3751
  47   2.0000     -11.293869      -307.3218
  48   2.0000     -11.293644      -307.3157
  49   2.0000     -11.292815      -307.2931
  50   2.0000     -11.292336      -307.2801
  51   2.0000     -11.291827      -307.2662
  52   2.0000     -11.290866      -307.2401
  53   2.0000     -11.289124      -307.1927
  54   2.0000     -11.288712      -307.1815
  55   2.0000     -11.288149      -307.1662
  56   2.0000     -11.287502      -307.1485
  57   2.0000     -11.283553      -307.0411
  58   2.0000     -11.282972      -307.0253
  59   2.0000     -11.279511      -306.9311
  60   2.0000     -11.275926      -306.8336
  61   2.0000     -11.272791      -306.7482
  62   2.0000     -11.269825      -306.6675
  63   2.0000     -11.267641      -306.6081
  64   2.0000     -11.267142      -306.5945
  65   2.0000     -11.266220      -306.5694
  66   2.0000     -11.266025      -306.5641
  67   2.0000     -11.264224      -306.5151
  68   2.0000     -11.264171      -306.5137
  69   2.0000     -11.257753      -306.3390
  70   2.0000     -11.256734      -306.3113
  71   2.0000     -11.250474      -306.1410
  72   2.0000     -11.246145      -306.0232
  73   2.0000     -11.246004      -306.0193
  74   2.0000     -11.245610      -306.0086
  75   2.0000     -11.243742      -305.9578
  76   2.0000     -11.243308      -305.9460
  77   2.0000     -11.237360      -305.7841
  78   2.0000     -11.232293      -305.6462
  79   2.0000     -11.226807      -305.4969
  80   2.0000     -11.215464      -305.1883
  81   2.0000     -10.584891      -288.0295
  82   2.0000     -10.583892      -288.0024
  83   2.0000     -10.582718      -287.9704
  84   2.0000     -10.579862      -287.8927
  85   2.0000      -9.084675      -247.2066
  86   2.0000      -9.021997      -245.5010
  87   2.0000      -9.016167      -245.3424
  88   2.0000      -9.012425      -245.2405
  89   2.0000      -9.009268      -245.1546
  90   2.0000      -8.059996      -219.3236
  91   2.0000      -8.058995      -219.2964
  92   2.0000      -8.057825      -219.2646
  93   2.0000      -8.056215      -219.2208
  94   2.0000      -8.056206      -219.2205
  95   2.0000      -8.055209      -219.1934
  96   2.0000      -8.055193      -219.1929
  97   2.0000      -8.054965      -219.1867
  98   2.0000      -8.054049      -219.1618
  99   2.0000      -8.054043      -219.1616
 100   2.0000      -8.051182      -219.0838
 101   2.0000      -8.051165      -219.0833
 102   2.0000      -6.771949      -184.2741
 103   2.0000      -6.770070      -184.2230
 104   2.0000      -6.768685      -184.1853
 105   2.0000      -6.709455      -182.5736
 106   2.0000      -6.708431      -182.5457
 107   2.0000      -6.706611      -182.4962
 108   2.0000      -6.703615      -182.4146
 109   2.0000      -6.702547      -182.3856
 110   2.0000      -6.700755      -182.3368
 111   2.0000      -6.699786      -182.3105
 112   2.0000      -6.698609      -182.2784
 113   2.0000      -6.696740      -182.2276
 114   2.0000      -6.696590      -182.2235
 115   2.0000      -6.695425      -182.1918
 116   2.0000      -6.693571      -182.1413
 117   2.0000      -1.452557       -39.5261
 118   2.0000      -1.424353       -38.7586
 119   2.0000      -1.395920       -37.9849
 120   2.0000      -1.393840       -37.9283
 121   2.0000      -1.379432       -37.5363
 122   2.0000      -1.255975       -34.1768
 123   2.0000      -1.250821       -34.0366
 124   2.0000      -1.247425       -33.9442
 125   2.0000      -1.242871       -33.8202
 126   2.0000      -1.242136       -33.8002
 127   2.0000      -1.237405       -33.6715
 128   2.0000      -1.226319       -33.3698
 129   2.0000      -1.220215       -33.2037
 130   2.0000      -1.218838       -33.1663
 131   2.0000      -1.208551       -32.8864
 132   2.0000      -1.204657       -32.7804
 133   2.0000      -1.202028       -32.7088
 134   2.0000      -1.190419       -32.3929
 135   2.0000      -1.177716       -32.0473
 136   2.0000      -1.159147       -31.5420
 137   2.0000      -1.155873       -31.4529
 138   2.0000      -1.145196       -31.1624
 139   2.0000      -1.137921       -30.9644
 140   2.0000      -1.130501       -30.7625
 141   2.0000      -1.126496       -30.6535
 142   2.0000      -1.102311       -29.9954
 143   2.0000      -1.097709       -29.8702
 144   2.0000      -1.093410       -29.7532
 145   2.0000      -1.075386       -29.2627
 146   2.0000      -1.071559       -29.1586
 147   2.0000      -1.066612       -29.0240
 148   2.0000      -1.049981       -28.5714
 149   2.0000      -1.046298       -28.4712
 150   2.0000      -1.045721       -28.4555
 151   2.0000      -1.043431       -28.3932
 152   2.0000      -1.030036       -28.0287
 153   2.0000      -1.028694       -27.9922
 154   2.0000      -1.026461       -27.9314
 155   2.0000      -1.022567       -27.8255
 156   2.0000      -1.021293       -27.7908
 157   2.0000      -1.019906       -27.7530
 158   2.0000      -1.014399       -27.6032
 159   2.0000      -1.010395       -27.4942
 160   2.0000      -0.984850       -26.7991
 161   2.0000      -0.969559       -26.3830
 162   2.0000      -0.952923       -25.9304
 163   2.0000      -0.933221       -25.3942
 164   2.0000      -0.931538       -25.3484
 165   2.0000      -0.927873       -25.2487
 166   2.0000      -0.925220       -25.1765
 167   2.0000      -0.915884       -24.9225
 168   2.0000      -0.906812       -24.6756
 169   2.0000      -0.896706       -24.4006
 170   2.0000      -0.887907       -24.1612
 171   2.0000      -0.872271       -23.7357
 172   2.0000      -0.869284       -23.6544
 173   2.0000      -0.853040       -23.2124
 174   2.0000      -0.848792       -23.0968
 175   2.0000      -0.846993       -23.0479
 176   2.0000      -0.838577       -22.8188
 177   2.0000      -0.835043       -22.7227
 178   2.0000      -0.833172       -22.6718
 179   2.0000      -0.830674       -22.6038
 180   2.0000      -0.824460       -22.4347
 181   2.0000      -0.820745       -22.3336
 182   2.0000      -0.815461       -22.1898
 183   2.0000      -0.800653       -21.7869
 184   2.0000      -0.786814       -21.4103
 185   2.0000      -0.777235       -21.1496
 186   2.0000      -0.775733       -21.1088
 187   2.0000      -0.771439       -20.9919
 188   2.0000      -0.759485       -20.6666
 189   2.0000      -0.757630       -20.6162
 190   2.0000      -0.755617       -20.5614
 191   2.0000      -0.752733       -20.4829
 192   2.0000      -0.746439       -20.3116
 193   2.0000      -0.744974       -20.2718
 194   2.0000      -0.741717       -20.1831
 195   2.0000      -0.729823       -19.8595
 196   2.0000      -0.719928       -19.5902
 197   2.0000      -0.714814       -19.4511
 198   2.0000      -0.710183       -19.3251
 199   2.0000      -0.708743       -19.2859
 200   2.0000      -0.696944       -18.9648
 201   2.0000      -0.694739       -18.9048
 202   2.0000      -0.693020       -18.8580
 203   2.0000      -0.688287       -18.7292
 204   2.0000      -0.677356       -18.4318
 205   2.0000      -0.673809       -18.3353
 206   2.0000      -0.671877       -18.2827
 207   2.0000      -0.668082       -18.1794
 208   2.0000      -0.665299       -18.1037
 209   2.0000      -0.659449       -17.9445
 210   2.0000      -0.654030       -17.7971
 211   2.0000      -0.653551       -17.7840
 212   2.0000      -0.650664       -17.7055
 213   2.0000      -0.647989       -17.6327
 214   2.0000      -0.647298       -17.6139
 215   2.0000      -0.645929       -17.5766
 216   2.0000      -0.643717       -17.5164
 217   2.0000      -0.641279       -17.4501
 218   2.0000      -0.636104       -17.3093
 219   2.0000      -0.634795       -17.2736
 220   2.0000      -0.628394       -17.0995
 221   2.0000      -0.626247       -17.0410
 222   2.0000      -0.625048       -17.0084
 223   2.0000      -0.624707       -16.9991
 224   2.0000      -0.623881       -16.9767
 225   2.0000      -0.620274       -16.8785
 226   2.0000      -0.619630       -16.8610
 227   2.0000      -0.611733       -16.6461
 228   2.0000      -0.606278       -16.4977
 229   2.0000      -0.603783       -16.4298
 230   2.0000      -0.595554       -16.2058
 231   2.0000      -0.593420       -16.1478
 232   2.0000      -0.593019       -16.1369
 233   2.0000      -0.588085       -16.0026
 234   2.0000      -0.585535       -15.9332
 235   2.0000      -0.583774       -15.8853
 236   2.0000      -0.583235       -15.8706
 237   2.0000      -0.580193       -15.7879
 238   2.0000      -0.578441       -15.7402
 239   2.0000      -0.577355       -15.7106
 240   2.0000      -0.574174       -15.6241
 241   2.0000      -0.572424       -15.5764
 242   2.0000      -0.570860       -15.5339
 243   2.0000      -0.570537       -15.5251
 244   2.0000      -0.570370       -15.5206
 245   2.0000      -0.569070       -15.4852
 246   2.0000      -0.567975       -15.4554
 247   2.0000      -0.566755       -15.4222
 248   2.0000      -0.566482       -15.4148
 249   2.0000      -0.565233       -15.3808
 250   2.0000      -0.564406       -15.3583
 251   2.0000      -0.562349       -15.3023
 252   2.0000      -0.561758       -15.2862
 253   2.0000      -0.559213       -15.2170
 254   2.0000      -0.557245       -15.1634
 255   2.0000      -0.555524       -15.1166
 256   2.0000      -0.553190       -15.0531
 257   2.0000      -0.549524       -14.9533
 258   2.0000      -0.545663       -14.8482
 259   2.0000      -0.540701       -14.7132
 260   2.0000      -0.539062       -14.6686
 261   2.0000      -0.537058       -14.6141
 262   2.0000      -0.527954       -14.3664
 263   2.0000      -0.526801       -14.3350
 264   2.0000      -0.524435       -14.2706
 265   2.0000      -0.521612       -14.1938
 266   2.0000      -0.516377       -14.0513
 267   2.0000      -0.514742       -14.0068
 268   2.0000      -0.513225       -13.9656
 269   2.0000      -0.510011       -13.8781
 270   2.0000      -0.508061       -13.8251
 271   2.0000      -0.506578       -13.7847
 272   2.0000      -0.506036       -13.7699
 273   2.0000      -0.504964       -13.7408
 274   2.0000      -0.502451       -13.6724
 275   2.0000      -0.498629       -13.5684
 276   2.0000      -0.498029       -13.5521
 277   2.0000      -0.497859       -13.5474
 278   2.0000      -0.496186       -13.5019
 279   2.0000      -0.495024       -13.4703
 280   2.0000      -0.494042       -13.4436
 281   2.0000      -0.492303       -13.3963
 282   2.0000      -0.491056       -13.3623
 283   2.0000      -0.489262       -13.3135
 284   2.0000      -0.489202       -13.3119
 285   2.0000      -0.485230       -13.2038
 286   2.0000      -0.481026       -13.0894
 287   2.0000      -0.479764       -13.0550
 288   2.0000      -0.478135       -13.0107
 289   2.0000      -0.477424       -12.9914
 290   2.0000      -0.476022       -12.9532
 291   2.0000      -0.471595       -12.8328
 292   2.0000      -0.469607       -12.7787
 293   2.0000      -0.464412       -12.6373
 294   2.0000      -0.462389       -12.5822
 295   2.0000      -0.461881       -12.5684
 296   2.0000      -0.461154       -12.5486
 297   2.0000      -0.458716       -12.4823
 298   2.0000      -0.455441       -12.3932
 299   2.0000      -0.444620       -12.0987
 300   2.0000      -0.441204       -12.0058
 301   2.0000      -0.424706       -11.5568
 302   2.0000      -0.415881       -11.3167
 303   2.0000      -0.392357       -10.6766
 304   2.0000      -0.380505       -10.3541
 305   2.0000      -0.379539       -10.3278
 306   2.0000      -0.377501       -10.2723
 307   2.0000      -0.374686       -10.1957
 308   2.0000      -0.370907       -10.0929
 309   2.0000      -0.369817       -10.0632
 310   2.0000      -0.366844        -9.9823
 311   2.0000      -0.359410        -9.7800
 312   2.0000      -0.348618        -9.4864
 313   2.0000      -0.344554        -9.3758
 314   2.0000      -0.326293        -8.8789
 315   2.0000      -0.281396        -7.6572
 316   2.0000      -0.252082        -6.8595
 317   0.0000      -0.042169        -1.1475
 318   0.0000      -0.018253        -0.4967
 319   0.0000      -0.002050        -0.0558
 320   0.0000       0.016841         0.4583
 321   0.0000       0.019610         0.5336

MULLIKEN ATOMIC CHARGES
-----------------------
   0 C :    0.520971
   1 O :   -0.392415
   2 C :   -0.175010
   3 C :    0.049795
   4 C :    0.050609
   5 C :    0.039068
   6 C :    0.036816
   7 C :   -0.036370
   8 C :    0.261404
   9 C :   -0.385932
  10 C :    0.029228
  11 N :   -0.069993
  12 C :    0.031551
  13 N :   -0.073788
  14 C :   -0.313605
  15 Cl:   -0.075148
  16 C :    0.154730
  17 Cl:   -0.082140
  18 C :    0.474605
  19 O :   -0.356313
  20 C :   -0.164153
  21 C :    0.056060
  22 C :    0.045000
  23 C :    0.041279
  24 C :    0.031969
  25 C :   -0.055040
  26 C :    0.249164
  27 C :   -0.395201
  28 C :    0.049557
  29 N :   -0.066495
  30 C :    0.044447
  31 N :   -0.068373
  32 C :   -0.350717
  33 Cl:   -0.075315
  34 C :    0.223002
  35 Cl:   -0.080169
  36 C :   -0.251206
  37 S :    0.211253
  38 C :   -0.027938
  39 C :   -0.082196
  40 C :    0.092188
  41 C :   -0.090797
  42 C :    0.005260
  43 C :   -0.327657
  44 S :    0.206460
  45 C :   -0.101181
  46 C :    0.005597
  47 C :   -0.006677
  48 C :    0.170439
  49 C :    0.317804
  50 C :   -0.085107
  51 C :    0.169368
  52 C :    0.148303
  53 N :   -0.519548
  54 S :    0.642775
  55 N :   -0.509012
  56 C :   -0.073037
  57 S :    0.209007
  58 C :   -0.097860
  59 C :    0.018100
  60 C :   -0.024760
  61 C :   -0.020234
  62 C :   -0.091016
  63 C :   -0.323811
  64 S :    0.194918
  65 C :   -0.263591
  66 C :    0.100021
  67 O :   -0.613547
  68 O :   -0.607253
  69 C :    0.194367
  70 C :   -0.059159
  71 C :    0.222198
  72 C :   -0.035619
  73 C :    0.032822
  74 C :   -0.013717
  75 C :    0.037185
  76 C :   -0.008391
  77 C :    0.036128
  78 C :   -0.031295
  79 C :    0.040447
  80 C :   -0.010804
  81 H :    0.062251
  82 H :    0.080688
  83 H :    0.082231
  84 H :    0.065982
  85 H :    0.076764
  86 H :    0.081505
  87 H :    0.070075
  88 H :    0.073652
  89 H :    0.080742
  90 H :    0.099274
  91 H :    0.058106
  92 H :    0.054386
  93 H :    0.049048
  94 H :    0.046308
  95 H :    0.060710
  96 H :    0.048798
  97 H :    0.040209
  98 H :    0.044828
  99 H :    0.041410
 100 H :    0.048824
 101 H :    0.040627
 102 H :    0.037789
 103 H :    0.042731
 104 H :    0.035222
 105 H :    0.044376
 106 H :    0.038064
 107 H :    0.040181
 108 H :    0.035998
 109 H :    0.038689
 110 H :    0.028361
 111 H :    0.040135
 112 H :    0.029995
 113 H :    0.082818
 114 H :    0.034014
 115 H :    0.033030
 116 H :    0.039179
 117 H :    0.033387
 118 H :    0.033322
 119 H :    0.041145
 120 H :    0.032837
Sum of atomic charges:    0.0000000

LOEWDIN ATOMIC CHARGES
----------------------
   0 C :    0.171185
   1 O :   -0.243619
   2 C :   -0.049201
   3 C :    0.012354
   4 C :   -0.118602
   5 C :   -0.116669
   6 C :    0.002962
   7 C :   -0.022151
   8 C :    0.121218
   9 C :   -0.185192
  10 C :    0.009374
  11 N :   -0.098463
  12 C :    0.012948
  13 N :   -0.099617
  14 C :   -0.175411
  15 Cl:    0.132200
  16 C :    0.108114
  17 Cl:    0.128853
  18 C :    0.164294
  19 O :   -0.235757
  20 C :   -0.051721
  21 C :    0.015791
  22 C :   -0.119658
  23 C :   -0.115485
  24 C :   -0.002062
  25 C :   -0.020126
  26 C :    0.110977
  27 C :   -0.187312
  28 C :    0.019470
  29 N :   -0.083868
  30 C :    0.008833
  31 N :   -0.097032
  32 C :   -0.172014
  33 Cl:    0.132895
  34 C :    0.112724
  35 Cl:    0.130107
  36 C :   -0.221750
  37 S :    0.445036
  38 C :   -0.127847
  39 C :   -0.058925
  40 C :    0.038844
  41 C :   -0.215449
  42 C :   -0.012802
  43 C :   -0.035046
  44 S :    0.456552
  45 C :   -0.148398
  46 C :   -0.031884
  47 C :   -0.054890
  48 C :    0.056379
  49 C :    0.085503
  50 C :   -0.077807
  51 C :   -0.008934
  52 C :   -0.017409
  53 N :   -0.320962
  54 S :    0.657724
  55 N :   -0.314703
  56 C :   -0.141231
  57 S :    0.468723
  58 C :   -0.223813
  59 C :   -0.011458
  60 C :   -0.047983
  61 C :   -0.126451
  62 C :   -0.068801
  63 C :   -0.035204
  64 S :    0.434574
  65 C :   -0.219944
  66 C :    0.048414
  67 O :   -0.204963
  68 O :   -0.195705
  69 C :    0.128251
  70 C :   -0.047287
  71 C :    0.139875
  72 C :   -0.041740
  73 C :    0.003082
  74 C :   -0.031621
  75 C :    0.007200
  76 C :   -0.033939
  77 C :    0.003477
  78 C :   -0.035205
  79 C :    0.006570
  80 C :   -0.033261
  81 H :    0.047353
  82 H :    0.046804
  83 H :    0.044621
  84 H :    0.048972
  85 H :    0.045906
  86 H :    0.051560
  87 H :    0.034322
  88 H :    0.033314
  89 H :    0.030354
  90 H :    0.042542
  91 H :    0.012016
  92 H :    0.020381
  93 H :    0.021346
  94 H :    0.027777
  95 H :    0.019638
  96 H :    0.014795
  97 H :    0.011071
  98 H :    0.016803
  99 H :    0.024767
 100 H :    0.021936
 101 H :    0.014964
 102 H :    0.017412
 103 H :    0.018533
 104 H :    0.018340
 105 H :    0.018295
 106 H :    0.019874
 107 H :    0.017379
 108 H :    0.016717
 109 H :    0.021289
 110 H :    0.014280
 111 H :    0.014591
 112 H :    0.013722
 113 H :    0.022656
 114 H :    0.019123
 115 H :    0.013743
 116 H :    0.019927
 117 H :    0.014972
 118 H :    0.014350
 119 H :    0.022636
 120 H :    0.015787

  Mayer bond orders larger than 0.100000
B(  0-C ,  1-O ) :   2.0089 B(  0-C ,  2-C ) :   0.9743 B(  0-C , 14-C ) :   0.9916
B(  2-C ,  3-C ) :   1.4228 B(  2-C ,  7-C ) :   1.3581 B(  3-C ,  4-C ) :   1.3929
B(  3-C , 81-H ) :   1.0160 B(  4-C ,  5-C ) :   1.4268 B(  4-C , 17-Cl) :   1.0099
B(  5-C ,  6-C ) :   1.4147 B(  5-C , 15-Cl) :   1.0370 B(  6-C ,  7-C ) :   1.4139
B(  6-C , 82-H ) :   0.9912 B(  7-C ,  8-C ) :   1.0295 B(  8-C ,  9-C ) :   1.6499
B(  8-C , 14-C ) :   1.1368 B(  9-C , 10-C ) :   1.0698 B(  9-C , 12-C ) :   1.0691
B( 10-C , 11-N ) :   2.9815 B( 12-C , 13-N ) :   2.9787 B( 14-C , 16-C ) :   1.5689
B( 16-C , 65-C ) :   1.3257 B( 16-C , 83-H ) :   0.9401 B( 18-C , 19-O ) :   2.0971
B( 18-C , 20-C ) :   0.9386 B( 18-C , 32-C ) :   1.0125 B( 20-C , 21-C ) :   1.4261
B( 20-C , 25-C ) :   1.3494 B( 21-C , 22-C ) :   1.3916 B( 21-C , 84-H ) :   1.0150
B( 22-C , 23-C ) :   1.4308 B( 22-C , 35-Cl) :   1.0119 B( 23-C , 24-C ) :   1.4099
B( 23-C , 33-Cl) :   1.0315 B( 24-C , 25-C ) :   1.4222 B( 24-C , 85-H ) :   0.9947
B( 25-C , 26-C ) :   1.0360 B( 26-C , 27-C ) :   1.6522 B( 26-C , 32-C ) :   1.1184
B( 27-C , 28-C ) :   1.0913 B( 27-C , 30-C ) :   1.0535 B( 28-C , 29-N ) :   2.9613
B( 30-C , 31-N ) :   2.9922 B( 32-C , 34-C ) :   1.6131 B( 34-C , 36-C ) :   1.2478
B( 34-C , 86-H ) :   0.9487 B( 36-C , 37-S ) :   1.0763 B( 36-C , 40-C ) :   1.3843
B( 37-S , 38-C ) :   1.1347 B( 38-C , 39-C ) :   1.4903 B( 38-C , 41-C ) :   1.2920
B( 39-C , 40-C ) :   1.4809 B( 39-C , 43-C ) :   0.9028 B( 40-C , 87-H ) :   0.9881
B( 41-C , 42-C ) :   1.5542 B( 41-C , 44-S ) :   1.0267 B( 42-C , 43-C ) :   0.9410
B( 42-C , 46-C ) :   1.3339 B( 43-C , 77-C ) :   1.0138 B( 43-C , 79-C ) :   1.0133
B( 44-S , 45-C ) :   1.1052 B( 45-C , 46-C ) :   1.5371 B( 45-C , 47-C ) :   1.1424
B( 46-C , 88-H ) :   0.9977 B( 47-C , 48-C ) :   1.5542 B( 47-C , 52-C ) :   1.1671
B( 48-C , 49-C ) :   1.1821 B( 48-C , 67-O ) :   0.9742 B( 49-C , 50-C ) :   1.5334
B( 49-C , 68-O ) :   1.0106 B( 50-C , 51-C ) :   1.1834 B( 50-C , 56-C ) :   1.1441
B( 51-C , 52-C ) :   1.1420 B( 51-C , 53-N ) :   1.4993 B( 52-C , 55-N ) :   1.5035
B( 53-N , 54-S ) :   1.2257 B( 53-N , 55-N ) :   0.1137 B( 54-S , 55-N ) :   1.2317
B( 56-C , 57-S ) :   1.1132 B( 56-C , 60-C ) :   1.5331 B( 57-S , 58-C ) :   1.0342
B( 58-C , 59-C ) :   1.5463 B( 58-C , 61-C ) :   1.2937 B( 59-C , 60-C ) :   1.3486
B( 59-C , 63-C ) :   0.9156 B( 60-C , 89-H ) :   0.9945 B( 61-C , 62-C ) :   1.4700
B( 61-C , 64-S ) :   1.1366 B( 62-C , 63-C ) :   0.9302 B( 62-C , 66-C ) :   1.4394
B( 63-C , 73-C ) :   1.0167 B( 63-C , 75-C ) :   1.0121 B( 64-S , 65-C ) :   1.0649
B( 65-C , 66-C ) :   1.3706 B( 66-C , 90-H ) :   0.9885 B( 67-O , 69-C ) :   0.7825
B( 68-O , 71-C ) :   0.7858 B( 69-C , 70-C ) :   1.0496 B( 69-C , 91-H ) :   0.9774
B( 69-C , 92-H ) :   0.9787 B( 70-C , 93-H ) :   0.9798 B( 70-C , 94-H ) :   0.9804
B( 70-C , 95-H ) :   0.9789 B( 71-C , 72-C ) :   1.0582 B( 71-C , 96-H ) :   0.9764
B( 71-C , 97-H ) :   0.9789 B( 72-C , 98-H ) :   0.9795 B( 72-C , 99-H ) :   0.9801
B( 72-C ,100-H ) :   0.9808 B( 73-C , 74-C ) :   1.0380 B( 73-C ,101-H ) :   0.9733
B( 73-C ,102-H ) :   0.9730 B( 74-C ,103-H ) :   0.9836 B( 74-C ,104-H ) :   0.9872
B( 74-C ,105-H ) :   0.9808 B( 75-C , 76-C ) :   1.0484 B( 75-C ,106-H ) :   0.9711
B( 75-C ,107-H ) :   0.9691 B( 76-C ,108-H ) :   0.9810 B( 76-C ,109-H ) :   0.9853
B( 76-C ,110-H ) :   0.9821 B( 77-C , 78-C ) :   1.0356 B( 77-C ,111-H ) :   0.9719
B( 77-C ,112-H ) :   0.9729 B( 78-C ,113-H ) :   0.9752 B( 78-C ,114-H ) :   0.9850
B( 78-C ,115-H ) :   0.9807 B( 79-C , 80-C ) :   1.0490 B( 79-C ,116-H ) :   0.9710
B( 79-C ,117-H ) :   0.9693 B( 80-C ,118-H ) :   0.9806 B( 80-C ,119-H ) :   0.9849
B( 80-C ,120-H ) :   0.9832

-----------------------------------------------------------------------------
         ABSORPTION SPECTRUM VIA TRANSITION ELECTRIC DIPOLE MOMENTS
-----------------------------------------------------------------------------
State   Energy    Wavelength  fosc         T2        TX        TY        TZ
        (cm-1)      (nm)                 (au**2)    (au)      (au)      (au)
-----------------------------------------------------------------------------
   1   18182.6    550.0   3.310119764  59.93258   4.53844  -0.05446   6.27154
   2   23270.5    429.7   0.153845490   2.17648  -1.45591  -0.23433  -0.04357
   3   28359.2    352.6   0.212051652   2.46164  -1.44873  -0.51695  -0.30917

FINAL SINGLE POINT ENERGY     -6819.084926739015

DIPOLE MOMENT
-------------
                                X             Y             Z
Electronic contribution:    -42.60286       6.31432      19.92873
Nuclear contribution   :     43.67330      -4.11858     -19.47915
                        -----------------------------------------
Total Dipole Moment    :      1.07044       2.19574       0.44959
                        -----------------------------------------
Magnitude (a.u.)       :      2.48379
Magnitude (Debye)      :      6.31330

Rotational constants in cm-1:     0.002009     0.000131     0.000129
Rotational constants in MHz :    60.229643     3.922566     3.881010

                             ****ORCA TERMINATED NORMALLY****
TOTAL RUN TIME: 0 days 15 hours 32 minutes 10 seconds 378 msec
