                         Program Version 4.2.0 -  RELEASE  -
|  1> # ORCA input file
|  2> # BCDT-4Cl.out: Geometry 185
|  3> ! Engrad Keepdens
|  4> %maxcore 1000
|  5> %tddft
|  6>   nroots 3
|  7>   # nroots is the number of states to be computed
|  8>   Iroot 1
|  9>   end
| 10> * xyz 0 1
| 11>    C        3.64646         1.33005        -4.75212
| 12>    O        4.47663         2.20989        -4.59179
| 13>    C        2.89895         1.10779        -6.01378
| 14>    C        2.98957         1.84600        -7.18234
| 15>    C        2.17621         1.47913        -8.25894
| 16>    C        1.29127         0.38665        -8.13265
| 17>    C        1.21673        -0.35560        -6.94631
| 18>    C        2.03304         0.00904        -5.87214
| 19>    C        2.19168        -0.54498        -4.50342
| 20>    C        1.53882        -1.67951        -4.04693
| 21>    C        1.69235        -2.22556        -2.73432
| 22>    N        1.79209        -2.70082        -1.67764
| 23>    C        0.65683        -2.44838        -4.86951
| 24>    N       -0.05720        -3.09522        -5.51994
| 25>    C        3.16304         0.29709        -3.79718
| 26>   Cl        0.26641        -0.06188        -9.45438
| 27>    C        3.53735         0.13926        -2.47169
| 28>   Cl        2.26579         2.37648        -9.73575
| 29>    C       16.31282        -1.77057        16.47900
| 30>    O       15.45633        -2.58278        16.76222
| 31>    C       17.36799        -1.23467        17.37868
| 32>    C       17.55556        -1.49331        18.72694
| 33>    C       18.61138        -0.85235        19.38565
| 34>    C       19.46204         0.01605        18.66820
| 35>    C       19.26780         0.26361        17.30221
| 36>    C       18.20407        -0.36328        16.65138
| 37>    C       17.75368        -0.33907        15.23394
| 38>    C       18.51893         0.12192        14.17085
| 39>    C       18.22463        -0.21326        12.81830
| 40>    N       18.01116        -0.49942        11.71204
| 41>    C       19.72924         0.85918        14.35144
| 42>    N       20.70383         1.47934        14.48242
| 43>    C       16.50058        -1.06205        15.16875
| 44>   Cl       20.78267         0.80278        19.46526
| 45>    C       15.45200        -1.14169        14.27051
| 46>   Cl       18.85865        -1.13380        21.07599
| 47>    C       15.04326        -0.37992        13.15460
| 48>    S       13.66613        -1.02545        12.23635
| 49>    C       13.69544         0.32776        11.19310
| 50>    C       14.69009         1.26909        11.52753
| 51>    C       15.44918         0.86661        12.62714
| 52>    C       13.03362         0.74298        10.00271
| 53>    C       13.60489         1.93160         9.54182
| 54>    C       14.65855         2.44194        10.53743
| 55>    S       11.75035         0.17234         9.01731
| 56>    C       12.01215         1.50525         7.87427
| 57>    C       13.03947         2.35229         8.32090
| 58>    C       11.19590         1.62772         6.67811
| 59>    C       10.03000         0.88467         6.48527
| 60>    C        9.13692         1.08375         5.38321
| 61>    C        9.43272         1.87304         4.27269
| 62>    C       10.69511         2.57512         4.36769
| 63>    C       11.53134         2.49759         5.57124
| 64>    N       11.22346         3.35118         3.42450
| 65>    S       12.64393         3.94526         3.99524
| 66>    N       12.63851         3.22975         5.47257
| 67>    C        8.56127         1.94802         3.11341
| 68>    S        7.14493         0.88392         2.96584
| 69>    C        6.81381         1.51739         1.40270
| 70>    C        7.71484         2.51026         1.00168
| 71>    C        8.70937         2.74603         1.97004
| 72>    C        5.90078         1.24596         0.34133
| 73>    C        6.22253         2.06782        -0.75761
| 74>    C        7.39075         2.99092        -0.41624
| 75>    S        4.61470         0.17009         0.01314
| 76>    C        4.48613         0.79389        -1.65438
| 77>    C        5.43049         1.82170        -1.87467
| 78>    O        9.68611        -0.05566         7.40195
| 79>    O        7.95511         0.41084         5.43570
| 80>    C        9.65638        -1.43608         6.95153
| 81>    C       10.93023        -1.85319         6.23616
| 82>    C        6.96782         0.97421         6.32931
| 83>    C        5.81640         0.00439         6.45822
| 84>    C        8.57819         2.79113        -1.38698
| 85>    C        9.08937         1.35491        -1.48653
| 86>    C        6.87953         4.45819        -0.43797
| 87>    C        7.90558         5.53100        -0.08474
| 88>    C       16.03053         2.70824         9.88179
| 89>    C       16.60939         1.51535         9.12533
| 90>    C       14.08539         3.71712        11.22727
| 91>    C       14.93906         4.32270        12.33948
| 92>    H        3.67385         2.69218        -7.25457
| 93>    H        0.52246        -1.19043        -6.90592
| 94>    H        3.01365        -0.65423        -1.93853
| 95>    H       16.89297        -2.17488        19.26223
| 96>    H       19.95446         0.93910        16.79713
| 97>    H       14.74804        -1.93284        14.56424
| 98>    H       16.26059         1.44352        13.06488
| 99>    H       13.34705         3.22325         7.74562
|100>    H        9.54458         3.43495         1.87070
|101>    H        5.49285         2.31384        -2.84312
|102>    H        8.77727        -1.57637         6.30678
|103>    H        9.51065        -2.00989         7.87704
|104>    H       11.10323        -1.24737         5.33404
|105>    H       10.84175        -2.90257         5.91461
|106>    H       11.80970        -1.76045         6.88910
|107>    H        6.63525         1.93833         5.90681
|108>    H        7.44069         1.16353         7.30568
|109>    H        5.36869        -0.21081         5.47676
|110>    H        5.03860         0.43793         7.10560
|111>    H        6.14980        -0.94317         6.90744
|112>    H        9.39962         3.45282        -1.06784
|113>    H        8.25679         3.15063        -2.38035
|114>    H        9.43766         0.98533        -0.50948
|115>    H        9.93375         1.28615        -2.18903
|116>    H        8.30350         0.67205        -1.84309
|117>    H        6.02375         4.52361         0.25307
|118>    H        6.47512         4.65220        -1.44584
|119>    H        8.33852         5.37225         0.91552
|120>    H        7.42387         6.52152        -0.08523
|121>    H        8.73519         5.57055        -0.80604
|122>    H       16.73637         3.02332        10.66756
|123>    H       15.91806         3.57384         9.20587
|124>    H       16.82566         0.67677         9.80284
|125>    H       17.55399         1.79605         8.63454
|126>    H       15.91949         1.16247         8.34290
|127>    H       13.09248         3.45675        11.62900
|128>    H       13.91195         4.47166        10.44176
|129>    H       15.15522         3.59131        13.13295
|130>    H       14.40560         5.16375        12.80925
|131>    H       15.89787         4.71171        11.96539
|132> *
|133>
|134>                          ****END OF INPUT****

CARTESIAN COORDINATES (ANGSTROEM)
---------------------------------
  C      3.646460    1.330050   -4.752120
  O      4.476630    2.209890   -4.591790
  C      2.898950    1.107790   -6.013780
  C      2.989570    1.846000   -7.182340
  C      2.176210    1.479130   -8.258940
  C      1.291270    0.386650   -8.132650
  C      1.216730   -0.355600   -6.946310
  C      2.033040    0.009040   -5.872140
  C      2.191680   -0.544980   -4.503420
  C      1.538820   -1.679510   -4.046930
  C      1.692350   -2.225560   -2.734320
  N      1.792090   -2.700820   -1.677640
  C      0.656830   -2.448380   -4.869510
  N     -0.057200   -3.095220   -5.519940
  C      3.163040    0.297090   -3.797180
  Cl     0.266410   -0.061880   -9.454380
  C      3.537350    0.139260   -2.471690
  Cl     2.265790    2.376480   -9.735750
  C     16.312820   -1.770570   16.479000
  O     15.456330   -2.582780   16.762220
  C     17.367990   -1.234670   17.378680
  C     17.555560   -1.493310   18.726940
  C     18.611380   -0.852350   19.385650
  C     19.462040    0.016050   18.668200
  C     19.267800    0.263610   17.302210
  C     18.204070   -0.363280   16.651380
  C     17.753680   -0.339070   15.233940
  C     18.518930    0.121920   14.170850
  C     18.224630   -0.213260   12.818300
  N     18.011160   -0.499420   11.712040
  C     19.729240    0.859180   14.351440
  N     20.703830    1.479340   14.482420
  C     16.500580   -1.062050   15.168750
  Cl    20.782670    0.802780   19.465260
  C     15.452000   -1.141690   14.270510
  Cl    18.858650   -1.133800   21.075990
  C     15.043260   -0.379920   13.154600
  S     13.666130   -1.025450   12.236350
  C     13.695440    0.327760   11.193100
  C     14.690090    1.269090   11.527530
  C     15.449180    0.866610   12.627140
  C     13.033620    0.742980   10.002710
  C     13.604890    1.931600    9.541820
  C     14.658550    2.441940   10.537430
  S     11.750350    0.172340    9.017310
  C     12.012150    1.505250    7.874270
  C     13.039470    2.352290    8.320900
  C     11.195900    1.627720    6.678110
  C     10.030000    0.884670    6.485270
  C      9.136920    1.083750    5.383210
  C      9.432720    1.873040    4.272690
  C     10.695110    2.575120    4.367690
  C     11.531340    2.497590    5.571240
  N     11.223460    3.351180    3.424500
  S     12.643930    3.945260    3.995240
  N     12.638510    3.229750    5.472570
  C      8.561270    1.948020    3.113410
  S      7.144930    0.883920    2.965840
  C      6.813810    1.517390    1.402700
  C      7.714840    2.510260    1.001680
  C      8.709370    2.746030    1.970040
  C      5.900780    1.245960    0.341330
  C      6.222530    2.067820   -0.757610
  C      7.390750    2.990920   -0.416240
  S      4.614700    0.170090    0.013140
  C      4.486130    0.793890   -1.654380
  C      5.430490    1.821700   -1.874670
  O      9.686110   -0.055660    7.401950
  O      7.955110    0.410840    5.435700
  C      9.656380   -1.436080    6.951530
  C     10.930230   -1.853190    6.236160
  C      6.967820    0.974210    6.329310
  C      5.816400    0.004390    6.458220
  C      8.578190    2.791130   -1.386980
  C      9.089370    1.354910   -1.486530
  C      6.879530    4.458190   -0.437970
  C      7.905580    5.531000   -0.084740
  C     16.030530    2.708240    9.881790
  C     16.609390    1.515350    9.125330
  C     14.085390    3.717120   11.227270
  C     14.939060    4.322700   12.339480
  H      3.673850    2.692180   -7.254570
  H      0.522460   -1.190430   -6.905920
  H      3.013650   -0.654230   -1.938530
  H     16.892970   -2.174880   19.262230
  H     19.954460    0.939100   16.797130
  H     14.748040   -1.932840   14.564240
  H     16.260590    1.443520   13.064880
  H     13.347050    3.223250    7.745620
  H      9.544580    3.434950    1.870700
  H      5.492850    2.313840   -2.843120
  H      8.777270   -1.576370    6.306780
  H      9.510650   -2.009890    7.877040
  H     11.103230   -1.247370    5.334040
  H     10.841750   -2.902570    5.914610
  H     11.809700   -1.760450    6.889100
  H      6.635250    1.938330    5.906810
  H      7.440690    1.163530    7.305680
  H      5.368690   -0.210810    5.476760
  H      5.038600    0.437930    7.105600
  H      6.149800   -0.943170    6.907440
  H      9.399620    3.452820   -1.067840
  H      8.256790    3.150630   -2.380350
  H      9.437660    0.985330   -0.509480
  H      9.933750    1.286150   -2.189030
  H      8.303500    0.672050   -1.843090
  H      6.023750    4.523610    0.253070
  H      6.475120    4.652200   -1.445840
  H      8.338520    5.372250    0.915520
  H      7.423870    6.521520   -0.085230
  H      8.735190    5.570550   -0.806040
  H     16.736370    3.023320   10.667560
  H     15.918060    3.573840    9.205870
  H     16.825660    0.676770    9.802840
  H     17.553990    1.796050    8.634540
  H     15.919490    1.162470    8.342900
  H     13.092480    3.456750   11.629000
  H     13.911950    4.471660   10.441760
  H     15.155220    3.591310   13.132950
  H     14.405600    5.163750   12.809250
  H     15.897870    4.711710   11.965390

 Total Charge           Charge          ....    0
 Multiplicity           Mult            ....    1
 Number of Electrons    NEL             ....  634
 Basis Dimension        Dim             .... 1370

ORBITAL ENERGIES
----------------

  NO   OCC          E(Eh)            E(eV)
   0   2.0000    -104.821457     -2852.3369
   1   2.0000    -104.821061     -2852.3261
   2   2.0000    -104.818921     -2852.2678
   3   2.0000    -104.818413     -2852.2540
   4   2.0000     -92.042996     -2504.6172
   5   2.0000     -91.986096     -2503.0689
   6   2.0000     -91.985530     -2503.0535
   7   2.0000     -91.980237     -2502.9095
   8   2.0000     -91.977982     -2502.8481
   9   2.0000     -20.609772      -560.8204
  10   2.0000     -20.608416      -560.7835
  11   2.0000     -20.568235      -559.6901
  12   2.0000     -20.562617      -559.5373
  13   2.0000     -15.637435      -425.5162
  14   2.0000     -15.636267      -425.4845
  15   2.0000     -15.594555      -424.3494
  16   2.0000     -15.593685      -424.3257
  17   2.0000     -15.593120      -424.3104
  18   2.0000     -15.589583      -424.2141
  19   2.0000     -11.368217      -309.3449
  20   2.0000     -11.362282      -309.1834
  21   2.0000     -11.352766      -308.9245
  22   2.0000     -11.351787      -308.8978
  23   2.0000     -11.347143      -308.7715
  24   2.0000     -11.346601      -308.7567
  25   2.0000     -11.345924      -308.7383
  26   2.0000     -11.345764      -308.7339
  27   2.0000     -11.344662      -308.7040
  28   2.0000     -11.344260      -308.6930
  29   2.0000     -11.336001      -308.4683
  30   2.0000     -11.335123      -308.4444
  31   2.0000     -11.324414      -308.1530
  32   2.0000     -11.323254      -308.1214
  33   2.0000     -11.322770      -308.1082
  34   2.0000     -11.322372      -308.0974
  35   2.0000     -11.319963      -308.0318
  36   2.0000     -11.319149      -308.0097
  37   2.0000     -11.319130      -308.0092
  38   2.0000     -11.315635      -307.9141
  39   2.0000     -11.315152      -307.9009
  40   2.0000     -11.313725      -307.8621
  41   2.0000     -11.307060      -307.6808
  42   2.0000     -11.306701      -307.6710
  43   2.0000     -11.305780      -307.6459
  44   2.0000     -11.304704      -307.6166
  45   2.0000     -11.303591      -307.5864
  46   2.0000     -11.303045      -307.5715
  47   2.0000     -11.302741      -307.5632
  48   2.0000     -11.301883      -307.5399
  49   2.0000     -11.299815      -307.4836
  50   2.0000     -11.298864      -307.4577
  51   2.0000     -11.298689      -307.4530
  52   2.0000     -11.294983      -307.3521
  53   2.0000     -11.294810      -307.3474
  54   2.0000     -11.294552      -307.3404
  55   2.0000     -11.294277      -307.3329
  56   2.0000     -11.293361      -307.3080
  57   2.0000     -11.289346      -307.1987
  58   2.0000     -11.286622      -307.1246
  59   2.0000     -11.285109      -307.0834
  60   2.0000     -11.284366      -307.0632
  61   2.0000     -11.281402      -306.9825
  62   2.0000     -11.280860      -306.9678
  63   2.0000     -11.276799      -306.8573
  64   2.0000     -11.275067      -306.8102
  65   2.0000     -11.273556      -306.7690
  66   2.0000     -11.272893      -306.7510
  67   2.0000     -11.272827      -306.7492
  68   2.0000     -11.271815      -306.7217
  69   2.0000     -11.269047      -306.6464
  70   2.0000     -11.266189      -306.5686
  71   2.0000     -11.253796      -306.2313
  72   2.0000     -11.253475      -306.2226
  73   2.0000     -11.252330      -306.1915
  74   2.0000     -11.251176      -306.1601
  75   2.0000     -11.249157      -306.1051
  76   2.0000     -11.246182      -306.0242
  77   2.0000     -11.241415      -305.8945
  78   2.0000     -11.240953      -305.8819
  79   2.0000     -11.234898      -305.7171
  80   2.0000     -11.220320      -305.3204
  81   2.0000     -10.584836      -288.0280
  82   2.0000     -10.584396      -288.0161
  83   2.0000     -10.582307      -287.9592
  84   2.0000     -10.581784      -287.9450
  85   2.0000      -9.073917      -246.9138
  86   2.0000      -9.021234      -245.4803
  87   2.0000      -9.020470      -245.4595
  88   2.0000      -9.013905      -245.2808
  89   2.0000      -9.011755      -245.2223
  90   2.0000      -8.059924      -219.3217
  91   2.0000      -8.059484      -219.3097
  92   2.0000      -8.057391      -219.2528
  93   2.0000      -8.056868      -219.2385
  94   2.0000      -8.056163      -219.2194
  95   2.0000      -8.056160      -219.2192
  96   2.0000      -8.055723      -219.2074
  97   2.0000      -8.055715      -219.2072
  98   2.0000      -8.053631      -219.1504
  99   2.0000      -8.053612      -219.1499
 100   2.0000      -8.053106      -219.1361
 101   2.0000      -8.053086      -219.1356
 102   2.0000      -6.761109      -183.9791
 103   2.0000      -6.759330      -183.9307
 104   2.0000      -6.757716      -183.8868
 105   2.0000      -6.708681      -182.5525
 106   2.0000      -6.707891      -182.5310
 107   2.0000      -6.707597      -182.5230
 108   2.0000      -6.706794      -182.5012
 109   2.0000      -6.705811      -182.4744
 110   2.0000      -6.705047      -182.4536
 111   2.0000      -6.701276      -182.3510
 112   2.0000      -6.700151      -182.3204
 113   2.0000      -6.699148      -182.2931
 114   2.0000      -6.698303      -182.2701
 115   2.0000      -6.698004      -182.2620
 116   2.0000      -6.696167      -182.2120
 117   2.0000      -1.445866       -39.3440
 118   2.0000      -1.413507       -38.4635
 119   2.0000      -1.396190       -37.9923
 120   2.0000      -1.392094       -37.8808
 121   2.0000      -1.361944       -37.0604
 122   2.0000      -1.246432       -33.9171
 123   2.0000      -1.246211       -33.9111
 124   2.0000      -1.238740       -33.7078
 125   2.0000      -1.237986       -33.6873
 126   2.0000      -1.233544       -33.5664
 127   2.0000      -1.233275       -33.5591
 128   2.0000      -1.219035       -33.1716
 129   2.0000      -1.217976       -33.1428
 130   2.0000      -1.215284       -33.0696
 131   2.0000      -1.199611       -32.6431
 132   2.0000      -1.199094       -32.6290
 133   2.0000      -1.192230       -32.4422
 134   2.0000      -1.184315       -32.2268
 135   2.0000      -1.168501       -31.7965
 136   2.0000      -1.154310       -31.4104
 137   2.0000      -1.154284       -31.4097
 138   2.0000      -1.137782       -30.9606
 139   2.0000      -1.132053       -30.8047
 140   2.0000      -1.124552       -30.6006
 141   2.0000      -1.121848       -30.5270
 142   2.0000      -1.095384       -29.8069
 143   2.0000      -1.094663       -29.7873
 144   2.0000      -1.087947       -29.6045
 145   2.0000      -1.069581       -29.1048
 146   2.0000      -1.062885       -28.9226
 147   2.0000      -1.060085       -28.8464
 148   2.0000      -1.044350       -28.4182
 149   2.0000      -1.043949       -28.4073
 150   2.0000      -1.041505       -28.3408
 151   2.0000      -1.039717       -28.2921
 152   2.0000      -1.026217       -27.9248
 153   2.0000      -1.023771       -27.8582
 154   2.0000      -1.022046       -27.8113
 155   2.0000      -1.019521       -27.7426
 156   2.0000      -1.017566       -27.6894
 157   2.0000      -1.014231       -27.5986
 158   2.0000      -1.007755       -27.4224
 159   2.0000      -1.006488       -27.3879
 160   2.0000      -0.981838       -26.7172
 161   2.0000      -0.968469       -26.3534
 162   2.0000      -0.948073       -25.7984
 163   2.0000      -0.929198       -25.2848
 164   2.0000      -0.926562       -25.2130
 165   2.0000      -0.924166       -25.1478
 166   2.0000      -0.920176       -25.0393
 167   2.0000      -0.913140       -24.8478
 168   2.0000      -0.901641       -24.5349
 169   2.0000      -0.890690       -24.2369
 170   2.0000      -0.879078       -23.9209
 171   2.0000      -0.867951       -23.6181
 172   2.0000      -0.858526       -23.3617
 173   2.0000      -0.849741       -23.1226
 174   2.0000      -0.847276       -23.0556
 175   2.0000      -0.843661       -22.9572
 176   2.0000      -0.835859       -22.7449
 177   2.0000      -0.832928       -22.6651
 178   2.0000      -0.828802       -22.5529
 179   2.0000      -0.826182       -22.4815
 180   2.0000      -0.820668       -22.3315
 181   2.0000      -0.820118       -22.3165
 182   2.0000      -0.811908       -22.0931
 183   2.0000      -0.798294       -21.7227
 184   2.0000      -0.787564       -21.4307
 185   2.0000      -0.774196       -21.0669
 186   2.0000      -0.771343       -20.9893
 187   2.0000      -0.768495       -20.9118
 188   2.0000      -0.757968       -20.6254
 189   2.0000      -0.754986       -20.5442
 190   2.0000      -0.751098       -20.4384
 191   2.0000      -0.748147       -20.3581
 192   2.0000      -0.741996       -20.1907
 193   2.0000      -0.739979       -20.1359
 194   2.0000      -0.737417       -20.0661
 195   2.0000      -0.722285       -19.6544
 196   2.0000      -0.713032       -19.4026
 197   2.0000      -0.709446       -19.3050
 198   2.0000      -0.704347       -19.1662
 199   2.0000      -0.696011       -18.9394
 200   2.0000      -0.693893       -18.8818
 201   2.0000      -0.690204       -18.7814
 202   2.0000      -0.685770       -18.6607
 203   2.0000      -0.677291       -18.4300
 204   2.0000      -0.673508       -18.3271
 205   2.0000      -0.670889       -18.2558
 206   2.0000      -0.669226       -18.2106
 207   2.0000      -0.663215       -18.0470
 208   2.0000      -0.663174       -18.0459
 209   2.0000      -0.654921       -17.8213
 210   2.0000      -0.650297       -17.6955
 211   2.0000      -0.648556       -17.6481
 212   2.0000      -0.646889       -17.6028
 213   2.0000      -0.645735       -17.5713
 214   2.0000      -0.642834       -17.4924
 215   2.0000      -0.640767       -17.4362
 216   2.0000      -0.639372       -17.3982
 217   2.0000      -0.637380       -17.3440
 218   2.0000      -0.636020       -17.3070
 219   2.0000      -0.630321       -17.1519
 220   2.0000      -0.629586       -17.1319
 221   2.0000      -0.622805       -16.9474
 222   2.0000      -0.622334       -16.9346
 223   2.0000      -0.620682       -16.8896
 224   2.0000      -0.619898       -16.8683
 225   2.0000      -0.619374       -16.8540
 226   2.0000      -0.617311       -16.7979
 227   2.0000      -0.614698       -16.7268
 228   2.0000      -0.606688       -16.5088
 229   2.0000      -0.597701       -16.2643
 230   2.0000      -0.590797       -16.0764
 231   2.0000      -0.589241       -16.0341
 232   2.0000      -0.584151       -15.8955
 233   2.0000      -0.581985       -15.8366
 234   2.0000      -0.580100       -15.7853
 235   2.0000      -0.579875       -15.7792
 236   2.0000      -0.578578       -15.7439
 237   2.0000      -0.576795       -15.6954
 238   2.0000      -0.574991       -15.6463
 239   2.0000      -0.573407       -15.6032
 240   2.0000      -0.572102       -15.5677
 241   2.0000      -0.569882       -15.5073
 242   2.0000      -0.569298       -15.4914
 243   2.0000      -0.567667       -15.4470
 244   2.0000      -0.566583       -15.4175
 245   2.0000      -0.565699       -15.3935
 246   2.0000      -0.565169       -15.3790
 247   2.0000      -0.564154       -15.3514
 248   2.0000      -0.563739       -15.3401
 249   2.0000      -0.561131       -15.2692
 250   2.0000      -0.559445       -15.2233
 251   2.0000      -0.557430       -15.1684
 252   2.0000      -0.556876       -15.1534
 253   2.0000      -0.555726       -15.1221
 254   2.0000      -0.552396       -15.0315
 255   2.0000      -0.550917       -14.9912
 256   2.0000      -0.548194       -14.9171
 257   2.0000      -0.545523       -14.8444
 258   2.0000      -0.541369       -14.7314
 259   2.0000      -0.540280       -14.7018
 260   2.0000      -0.537135       -14.6162
 261   2.0000      -0.535823       -14.5805
 262   2.0000      -0.529662       -14.4128
 263   2.0000      -0.527958       -14.3665
 264   2.0000      -0.523956       -14.2576
 265   2.0000      -0.518190       -14.1007
 266   2.0000      -0.516082       -14.0433
 267   2.0000      -0.513200       -13.9649
 268   2.0000      -0.510575       -13.8934
 269   2.0000      -0.506876       -13.7928
 270   2.0000      -0.506684       -13.7876
 271   2.0000      -0.505262       -13.7489
 272   2.0000      -0.503902       -13.7119
 273   2.0000      -0.500627       -13.6227
 274   2.0000      -0.498034       -13.5522
 275   2.0000      -0.497777       -13.5452
 276   2.0000      -0.497182       -13.5290
 277   2.0000      -0.494957       -13.4685
 278   2.0000      -0.494312       -13.4509
 279   2.0000      -0.493528       -13.4296
 280   2.0000      -0.491841       -13.3837
 281   2.0000      -0.491278       -13.3684
 282   2.0000      -0.489345       -13.3158
 283   2.0000      -0.488606       -13.2957
 284   2.0000      -0.487375       -13.2621
 285   2.0000      -0.483844       -13.1661
 286   2.0000      -0.481063       -13.0904
 287   2.0000      -0.480161       -13.0659
 288   2.0000      -0.477441       -12.9918
 289   2.0000      -0.475810       -12.9474
 290   2.0000      -0.473407       -12.8821
 291   2.0000      -0.472798       -12.8655
 292   2.0000      -0.472046       -12.8450
 293   2.0000      -0.465765       -12.6741
 294   2.0000      -0.464011       -12.6264
 295   2.0000      -0.462388       -12.5822
 296   2.0000      -0.462232       -12.5780
 297   2.0000      -0.459579       -12.5058
 298   2.0000      -0.455240       -12.3877
 299   2.0000      -0.444131       -12.0854
 300   2.0000      -0.443385       -12.0651
 301   2.0000      -0.424381       -11.5480
 302   2.0000      -0.414742       -11.2857
 303   2.0000      -0.392267       -10.6741
 304   2.0000      -0.379237       -10.3196
 305   2.0000      -0.378530       -10.3003
 306   2.0000      -0.377471       -10.2715
 307   2.0000      -0.374216       -10.1829
 308   2.0000      -0.370801       -10.0900
 309   2.0000      -0.369123       -10.0444
 310   2.0000      -0.366474        -9.9723
 311   2.0000      -0.358022        -9.7423
 312   2.0000      -0.348692        -9.4884
 313   2.0000      -0.346264        -9.4223
 314   2.0000      -0.328502        -8.9390
 315   2.0000      -0.285130        -7.7588
 316   2.0000      -0.259574        -7.0634
 317   0.0000      -0.038597        -1.0503
 318   0.0000      -0.021121        -0.5747
 319   0.0000      -0.002268        -0.0617
 320   0.0000       0.014535         0.3955
 321   0.0000       0.018149         0.4939

MULLIKEN ATOMIC CHARGES
-----------------------
   0 C :    0.521925
   1 O :   -0.397175
   2 C :   -0.181027
   3 C :    0.049406
   4 C :    0.048281
   5 C :    0.028551
   6 C :    0.036515
   7 C :   -0.032285
   8 C :    0.248309
   9 C :   -0.355452
  10 C :    0.046241
  11 N :   -0.095214
  12 C :    0.043988
  13 N :   -0.089476
  14 C :   -0.316492
  15 Cl:   -0.073300
  16 C :    0.158669
  17 Cl:   -0.080413
  18 C :    0.463110
  19 O :   -0.363306
  20 C :   -0.164644
  21 C :    0.053813
  22 C :    0.042809
  23 C :    0.030271
  24 C :    0.029268
  25 C :   -0.049699
  26 C :    0.257785
  27 C :   -0.373776
  28 C :    0.043064
  29 N :   -0.073427
  30 C :    0.050689
  31 N :   -0.090192
  32 C :   -0.348537
  33 Cl:   -0.074939
  34 C :    0.206330
  35 Cl:   -0.079490
  36 C :   -0.261205
  37 S :    0.198297
  38 C :   -0.017772
  39 C :   -0.101589
  40 C :    0.130388
  41 C :   -0.094591
  42 C :   -0.011067
  43 C :   -0.314157
  44 S :    0.194178
  45 C :   -0.084559
  46 C :    0.021346
  47 C :   -0.033912
  48 C :    0.217948
  49 C :    0.216031
  50 C :   -0.023924
  51 C :    0.150390
  52 C :    0.150308
  53 N :   -0.496443
  54 S :    0.592548
  55 N :   -0.489206
  56 C :   -0.102323
  57 S :    0.203216
  58 C :   -0.097316
  59 C :    0.000150
  60 C :    0.002551
  61 C :   -0.021443
  62 C :   -0.091571
  63 C :   -0.306653
  64 S :    0.194358
  65 C :   -0.275583
  66 C :    0.103769
  67 O :   -0.599344
  68 O :   -0.607347
  69 C :    0.217501
  70 C :   -0.098307
  71 C :    0.231807
  72 C :   -0.059776
  73 C :    0.009890
  74 C :   -0.027372
  75 C :    0.031973
  76 C :   -0.026317
  77 C :    0.017412
  78 C :   -0.042834
  79 C :    0.037201
  80 C :   -0.026031
  81 H :    0.073678
  82 H :    0.091130
  83 H :    0.090095
  84 H :    0.076356
  85 H :    0.088717
  86 H :    0.093078
  87 H :    0.076466
  88 H :    0.075626
  89 H :    0.086198
  90 H :    0.113780
  91 H :    0.074499
  92 H :    0.053972
  93 H :    0.051662
  94 H :    0.054319
  95 H :    0.062996
  96 H :    0.038510
  97 H :    0.056334
  98 H :    0.055818
  99 H :    0.047312
 100 H :    0.048042
 101 H :    0.045563
 102 H :    0.042674
 103 H :    0.046515
 104 H :    0.041589
 105 H :    0.047015
 106 H :    0.041398
 107 H :    0.043174
 108 H :    0.036570
 109 H :    0.045040
 110 H :    0.037517
 111 H :    0.043293
 112 H :    0.033261
 113 H :    0.082704
 114 H :    0.037967
 115 H :    0.038451
 116 H :    0.041827
 117 H :    0.037719
 118 H :    0.031133
 119 H :    0.045721
 120 H :    0.041483
Sum of atomic charges:   -0.0000000

LOEWDIN ATOMIC CHARGES
----------------------
   0 C :    0.176676
   1 O :   -0.247933
   2 C :   -0.051925
   3 C :    0.010909
   4 C :   -0.112238
   5 C :   -0.111458
   6 C :    0.002254
   7 C :   -0.022662
   8 C :    0.126853
   9 C :   -0.183443
  10 C :    0.017899
  11 N :   -0.103867
  12 C :    0.018781
  13 N :   -0.102758
  14 C :   -0.174833
  15 Cl:    0.125730
  16 C :    0.109469
  17 Cl:    0.123110
  18 C :    0.169829
  19 O :   -0.239062
  20 C :   -0.054064
  21 C :    0.013424
  22 C :   -0.113881
  23 C :   -0.110291
  24 C :   -0.003009
  25 C :   -0.019776
  26 C :    0.118627
  27 C :   -0.189027
  28 C :    0.018633
  29 N :   -0.092359
  30 C :    0.015330
  31 N :   -0.103025
  32 C :   -0.174247
  33 Cl:    0.125016
  34 C :    0.107975
  35 Cl:    0.123091
  36 C :   -0.219751
  37 S :    0.436000
  38 C :   -0.126643
  39 C :   -0.062803
  40 C :    0.045009
  41 C :   -0.218585
  42 C :   -0.013408
  43 C :   -0.026064
  44 S :    0.445672
  45 C :   -0.136171
  46 C :   -0.036237
  47 C :   -0.069093
  48 C :    0.071410
  49 C :    0.065743
  50 C :   -0.064618
  51 C :   -0.010856
  52 C :   -0.009566
  53 N :   -0.310076
  54 S :    0.614474
  55 N :   -0.309721
  56 C :   -0.141989
  57 S :    0.439062
  58 C :   -0.213765
  59 C :   -0.018142
  60 C :   -0.038190
  61 C :   -0.129587
  62 C :   -0.068480
  63 C :   -0.028721
  64 S :    0.434564
  65 C :   -0.217298
  66 C :    0.047420
  67 O :   -0.207410
  68 O :   -0.208603
  69 C :    0.138056
  70 C :   -0.055380
  71 C :    0.139298
  72 C :   -0.039841
  73 C :   -0.003605
  74 C :   -0.036957
  75 C :    0.002220
  76 C :   -0.039144
  77 C :   -0.005195
  78 C :   -0.039756
  79 C :    0.002504
  80 C :   -0.038427
  81 H :    0.051444
  82 H :    0.049255
  83 H :    0.045879
  84 H :    0.052641
  85 H :    0.048659
  86 H :    0.054900
  87 H :    0.037868
  88 H :    0.037289
  89 H :    0.036095
  90 H :    0.047332
  91 H :    0.014951
  92 H :    0.021412
  93 H :    0.022873
  94 H :    0.032067
  95 H :    0.019564
  96 H :    0.008937
  97 H :    0.016005
  98 H :    0.025550
  99 H :    0.029785
 100 H :    0.024980
 101 H :    0.017176
 102 H :    0.019560
 103 H :    0.020413
 104 H :    0.021669
 105 H :    0.019910
 106 H :    0.021447
 107 H :    0.018989
 108 H :    0.017805
 109 H :    0.024216
 110 H :    0.017123
 111 H :    0.017143
 112 H :    0.015484
 113 H :    0.026249
 114 H :    0.021300
 115 H :    0.016586
 116 H :    0.021148
 117 H :    0.016473
 118 H :    0.015461
 119 H :    0.024728
 120 H :    0.018536

  Mayer bond orders larger than 0.100000
B(  0-C ,  1-O ) :   2.0017 B(  0-C ,  2-C ) :   0.9772 B(  0-C , 14-C ) :   0.9905
B(  2-C ,  3-C ) :   1.4204 B(  2-C ,  7-C ) :   1.3660 B(  3-C ,  4-C ) :   1.3974
B(  3-C , 81-H ) :   1.0089 B(  4-C ,  5-C ) :   1.4186 B(  4-C , 17-Cl) :   1.0131
B(  5-C ,  6-C ) :   1.4219 B(  5-C , 15-Cl) :   1.0400 B(  6-C ,  7-C ) :   1.4104
B(  6-C , 82-H ) :   0.9857 B(  7-C ,  8-C ) :   1.0298 B(  8-C ,  9-C ) :   1.6544
B(  8-C , 14-C ) :   1.1305 B(  9-C , 10-C ) :   1.0603 B(  9-C , 12-C ) :   1.0602
B( 10-C , 11-N ) :   2.9640 B( 12-C , 13-N ) :   2.9742 B( 14-C , 16-C ) :   1.5863
B( 16-C , 65-C ) :   1.3079 B( 16-C , 83-H ) :   0.9357 B( 18-C , 19-O ) :   2.0731
B( 18-C , 20-C ) :   0.9430 B( 18-C , 32-C ) :   1.0154 B( 20-C , 21-C ) :   1.4254
B( 20-C , 25-C ) :   1.3560 B( 21-C , 22-C ) :   1.3961 B( 21-C , 84-H ) :   1.0079
B( 22-C , 23-C ) :   1.4242 B( 22-C , 35-Cl) :   1.0141 B( 23-C , 24-C ) :   1.4164
B( 23-C , 33-Cl) :   1.0356 B( 24-C , 25-C ) :   1.4194 B( 24-C , 85-H ) :   0.9876
B( 25-C , 26-C ) :   1.0334 B( 26-C , 27-C ) :   1.6421 B( 26-C , 32-C ) :   1.1218
B( 27-C , 28-C ) :   1.0883 B( 27-C , 30-C ) :   1.0410 B( 28-C , 29-N ) :   2.9745
B( 30-C , 31-N ) :   2.9826 B( 32-C , 34-C ) :   1.6216 B( 34-C , 36-C ) :   1.2528
B( 34-C , 86-H ) :   0.9378 B( 36-C , 37-S ) :   1.0841 B( 36-C , 40-C ) :   1.3786
B( 37-S , 38-C ) :   1.1427 B( 38-C , 39-C ) :   1.4914 B( 38-C , 41-C ) :   1.2491
B( 39-C , 40-C ) :   1.4692 B( 39-C , 43-C ) :   0.9044 B( 40-C , 87-H ) :   0.9839
B( 41-C , 42-C ) :   1.5670 B( 41-C , 44-S ) :   1.0420 B( 42-C , 43-C ) :   0.9497
B( 42-C , 46-C ) :   1.3215 B( 43-C , 77-C ) :   1.0113 B( 43-C , 79-C ) :   0.9989
B( 44-S , 45-C ) :   1.1145 B( 45-C , 46-C ) :   1.5561 B( 45-C , 47-C ) :   1.1207
B( 46-C , 88-H ) :   0.9959 B( 47-C , 48-C ) :   1.6047 B( 47-C , 52-C ) :   1.1421
B( 48-C , 49-C ) :   1.1518 B( 48-C , 67-O ) :   1.0201 B( 49-C , 50-C ) :   1.6100
B( 49-C , 68-O ) :   1.0034 B( 50-C , 51-C ) :   1.1370 B( 50-C , 56-C ) :   1.1239
B( 51-C , 52-C ) :   1.1099 B( 51-C , 53-N ) :   1.5603 B( 52-C , 55-N ) :   1.5641
B( 53-N , 54-S ) :   1.1842 B( 53-N , 55-N ) :   0.1102 B( 54-S , 55-N ) :   1.1860
B( 56-C , 57-S ) :   1.1096 B( 56-C , 60-C ) :   1.5605 B( 57-S , 58-C ) :   1.0359
B( 58-C , 59-C ) :   1.5744 B( 58-C , 61-C ) :   1.2530 B( 59-C , 60-C ) :   1.3191
B( 59-C , 63-C ) :   0.9222 B( 60-C , 89-H ) :   0.9907 B( 61-C , 62-C ) :   1.4822
B( 61-C , 64-S ) :   1.1451 B( 62-C , 63-C ) :   0.9345 B( 62-C , 66-C ) :   1.4165
B( 63-C , 73-C ) :   1.0095 B( 63-C , 75-C ) :   1.0039 B( 64-S , 65-C ) :   1.0744
B( 65-C , 66-C ) :   1.3806 B( 66-C , 90-H ) :   0.9825 B( 67-O , 69-C ) :   0.7660
B( 68-O , 71-C ) :   0.7684 B( 69-C , 70-C ) :   1.0444 B( 69-C , 91-H ) :   0.9746
B( 69-C , 92-H ) :   0.9802 B( 70-C , 93-H ) :   0.9763 B( 70-C , 94-H ) :   0.9799
B( 70-C , 95-H ) :   0.9781 B( 71-C , 72-C ) :   1.0531 B( 71-C , 96-H ) :   0.9738
B( 71-C , 97-H ) :   0.9729 B( 72-C , 98-H ) :   0.9828 B( 72-C , 99-H ) :   0.9801
B( 72-C ,100-H ) :   0.9839 B( 73-C , 74-C ) :   1.0355 B( 73-C ,101-H ) :   0.9718
B( 73-C ,102-H ) :   0.9729 B( 74-C ,103-H ) :   0.9820 B( 74-C ,104-H ) :   0.9871
B( 74-C ,105-H ) :   0.9821 B( 75-C , 76-C ) :   1.0429 B( 75-C ,106-H ) :   0.9711
B( 75-C ,107-H ) :   0.9702 B( 76-C ,108-H ) :   0.9825 B( 76-C ,109-H ) :   0.9855
B( 76-C ,110-H ) :   0.9813 B( 77-C , 78-C ) :   1.0346 B( 77-C ,111-H ) :   0.9704
B( 77-C ,112-H ) :   0.9728 B( 78-C ,113-H ) :   0.9751 B( 78-C ,114-H ) :   0.9857
B( 78-C ,115-H ) :   0.9809 B( 79-C , 80-C ) :   1.0415 B( 79-C ,116-H ) :   0.9714
B( 79-C ,117-H ) :   0.9703 B( 80-C ,118-H ) :   0.9826 B( 80-C ,119-H ) :   0.9855
B( 80-C ,120-H ) :   0.9817

-----------------------------------------------------------------------------
         ABSORPTION SPECTRUM VIA TRANSITION ELECTRIC DIPOLE MOMENTS
-----------------------------------------------------------------------------
State   Energy    Wavelength  fosc         T2        TX        TY        TZ
        (cm-1)      (nm)                 (au**2)    (au)      (au)      (au)
-----------------------------------------------------------------------------
   1   19666.7    508.5   3.456009661  57.85213   4.66532  -0.04474   6.00707
   2   23878.0    418.8   0.188332242   2.59658   0.30364   1.51153   0.46869
   3   29322.5    341.0   0.131985522   1.48184  -0.98388  -0.70562  -0.12614

FINAL SINGLE POINT ENERGY     -6819.090670301669

DIPOLE MOMENT
-------------
                                X             Y             Z
Electronic contribution:    -10.95651     -33.50939       0.56992
Nuclear contribution   :     10.82400      36.73592      -0.09929
                        -----------------------------------------
Total Dipole Moment    :     -0.13251       3.22654       0.47063
                        -----------------------------------------
Magnitude (a.u.)       :      3.26337
Magnitude (Debye)      :      8.29483

Rotational constants in cm-1:     0.002464     0.000124     0.000121
Rotational constants in MHz :    73.870570     3.730545     3.616832

                             ****ORCA TERMINATED NORMALLY****
TOTAL RUN TIME: 0 days 16 hours 40 minutes 21 seconds 595 msec
