                         Program Version 4.2.0 -  RELEASE  -
|  1> # ORCA input file
|  2> # BDTN-BF.out: Geometry 82
|  3> ! Engrad Keepdens
|  4> %maxcore 1000
|  5> %tddft
|  6>   nroots 3
|  7>   # nroots is the number of states to be computed
|  8>   Iroot 1
|  9>   end
| 10> * xyz 0 1
| 11>    C        3.93011         2.07820         0.29023
| 12>    O        3.63391         0.89970         0.19207
| 13>    C        3.00847         3.21845         0.07316
| 14>    C        1.67110         3.16179        -0.29983
| 15>    C        1.00811         4.36848        -0.48873
| 16>    C        1.68160         5.58878        -0.30056
| 17>    C        3.01898         5.64112         0.08614
| 18>    C        3.69866         4.42908         0.27303
| 19>    C        5.10379         4.12063         0.64904
| 20>    C        6.08081         5.07421         0.88405
| 21>    C        7.43729         4.76367         1.21222
| 22>    N        8.54960         4.55090         1.47610
| 23>    C        5.83943         6.47994         0.78984
| 24>    N        5.68055         7.62903         0.71658
| 25>    C        5.24252         2.66321         0.65419
| 26>    F        1.00360         6.71474        -0.50811
| 27>    C        6.39147         1.94259         0.92253
| 28>    F       -0.26801         4.39680        -0.86216
| 29>    C       12.81899       -16.15866         0.87892
| 30>    O       11.89562       -16.94166         0.94482
| 31>    C       14.09956       -16.19373         1.64901
| 32>    C       14.46336       -17.05367         2.68079
| 33>    C       15.68519       -16.82332         3.30671
| 34>    C       16.52061       -15.76911         2.89442
| 35>    C       16.17205       -14.92628         1.84278
| 36>    C       14.93628       -15.13962         1.22197
| 37>    C       14.26429       -14.42352         0.11475
| 38>    C       14.88649       -13.64371        -0.84166
| 39>    C       14.21986       -13.24752        -2.04317
| 40>    N       13.69694       -12.95514        -3.03855
| 41>    C       16.25823       -13.25812        -0.73946
| 42>    N       17.36962       -12.93168        -0.64313
| 43>    C       12.88618       -14.89088         0.08136
| 44>    F       17.66462       -15.57929         3.54680
| 45>    C       11.71762       -14.29354        -0.32438
| 46>    F       16.08688       -17.58538         4.32014
| 47>    C        6.73786         0.57759         0.76650
| 48>    C        8.06162         0.15510         1.01789
| 49>    C        8.28136        -1.16374         0.61192
| 50>    C        7.12239        -1.77041         0.06693
| 51>    S        5.74219        -0.72973         0.07430
| 52>    N        9.35341        -2.04451         0.54499
| 53>    C        8.87981        -3.22564        -0.02340
| 54>    C        7.50348        -3.05954        -0.32184
| 55>    C        9.34187        -4.57125        -0.31051
| 56>    C        8.25153        -5.34029        -0.84754
| 57>    S        6.72732        -4.46828        -0.98180
| 58>    C       10.56264        -5.25975        -0.09841
| 59>    C       10.59483        -6.64265        -0.29972
| 60>    C        9.50300        -7.40000        -0.85335
| 61>    C        8.33185        -6.69113        -1.18164
| 62>    S       11.97746        -7.63126         0.18095
| 63>    C       11.13233        -9.05307        -0.36116
| 64>    C        9.84357        -8.80131        -0.89053
| 65>    C       11.33695       -10.43662        -0.39299
| 66>    C       10.16079       -11.01016        -0.93757
| 67>    N        9.24994       -10.00967        -1.23460
| 68>    S       12.51140       -11.62955         0.01593
| 69>    C       11.42334       -12.91991        -0.53919
| 70>    C       10.20423       -12.41267        -1.00906
| 71>    O       11.68526        -4.63107         0.36867
| 72>    O        7.24259        -7.29910        -1.74205
| 73>    C       12.57051        -4.07856        -0.62750
| 74>    C       13.50903        -5.07281        -1.28212
| 75>    C        7.00022        -7.01392        -3.13483
| 76>    C        5.53885        -7.26911        -3.42441
| 77>    C        7.95596       -10.29853        -1.84539
| 78>    C        6.94375       -11.03083        -0.93944
| 79>    C        6.23258       -10.10362         0.05915
| 80>    C        7.11479        -9.44070         1.11444
| 81>    C        5.93627       -11.76684        -1.84296
| 82>    C        4.97990       -12.70757        -1.11188
| 83>    C       10.71503        -1.62659         0.85974
| 84>    C       11.49986        -0.89450        -0.25615
| 85>    C       10.73648         0.22339        -0.99366
| 86>    C        9.84204        -0.26015        -2.13592
| 87>    C       12.79971        -0.36945         0.38083
| 88>    C       13.88574         0.02472        -0.61874
| 89>    H        1.16317         2.20860        -0.45443
| 90>    H        3.47570         6.61929         0.22263
| 91>    H        7.24536         2.51893         1.27991
| 92>    H       13.81337       -17.86732         3.00763
| 93>    H       16.85889       -14.12942         1.56131
| 94>    H       10.85031       -14.96547        -0.33748
| 95>    H        8.80241         0.83145         1.44224
| 96>    H        9.40584       -13.06321        -1.36432
| 97>    H       13.14675        -3.31430        -0.08687
| 98>    H       11.96327        -3.57110        -1.39358
| 99>    H       14.11929        -5.60215        -0.53575
|100>    H       14.18674        -4.51964        -1.95376
|101>    H       12.97045        -5.81910        -1.88242
|102>    H        7.65648        -7.65700        -3.74820
|103>    H        7.26990        -5.96678        -3.34570
|104>    H        5.27289        -8.32032        -3.23363
|105>    H        5.31281        -7.03824        -4.47682
|106>    H        4.90811        -6.63512        -2.78552
|107>    H        8.15763       -10.91895        -2.73405
|108>    H        7.52555        -9.35377        -2.18209
|109>    H        7.49327       -11.79927        -0.36459
|110>    H        5.46021       -10.69270         0.57873
|111>    H        5.69445        -9.32676        -0.51204
|112>    H        7.71908       -10.18303         1.66234
|113>    H        6.49507        -8.90579         1.85135
|114>    H        7.80392        -8.70498         0.68312
|115>    H        6.50147       -12.35085        -2.59056
|116>    H        5.35923       -11.01961        -2.41949
|117>    H        5.53711       -13.43379        -0.49631
|118>    H        4.36587       -13.27884        -1.82579
|119>    H        4.28887       -12.16846        -0.44577
|120>    H       11.27018        -2.51574         1.18396
|121>    H       10.63980        -0.95988         1.73340
|122>    H       11.77338        -1.63962        -1.01725
|123>    H       11.47735         0.91990        -1.41746
|124>    H       10.15922         0.82640        -0.27669
|125>    H       10.44316        -0.77685        -2.90248
|126>    H        9.33426         0.58482        -2.62608
|127>    H        9.06491        -0.96079        -1.80250
|128>    H       13.20611        -1.13563         1.06509
|129>    H       12.54644         0.49383         1.02205
|130>    H       14.21435        -0.84473        -1.21284
|131>    H       14.76957         0.42960        -0.10182
|132>    H       13.54136         0.79461        -1.32651
|133> *
|134>
|135>                          ****END OF INPUT****

CARTESIAN COORDINATES (ANGSTROEM)
---------------------------------
  C      3.930110    2.078200    0.290230
  O      3.633910    0.899700    0.192070
  C      3.008470    3.218450    0.073160
  C      1.671100    3.161790   -0.299830
  C      1.008110    4.368480   -0.488730
  C      1.681600    5.588780   -0.300560
  C      3.018980    5.641120    0.086140
  C      3.698660    4.429080    0.273030
  C      5.103790    4.120630    0.649040
  C      6.080810    5.074210    0.884050
  C      7.437290    4.763670    1.212220
  N      8.549600    4.550900    1.476100
  C      5.839430    6.479940    0.789840
  N      5.680550    7.629030    0.716580
  C      5.242520    2.663210    0.654190
  F      1.003600    6.714740   -0.508110
  C      6.391470    1.942590    0.922530
  F     -0.268010    4.396800   -0.862160
  C     12.818990  -16.158660    0.878920
  O     11.895620  -16.941660    0.944820
  C     14.099560  -16.193730    1.649010
  C     14.463360  -17.053670    2.680790
  C     15.685190  -16.823320    3.306710
  C     16.520610  -15.769110    2.894420
  C     16.172050  -14.926280    1.842780
  C     14.936280  -15.139620    1.221970
  C     14.264290  -14.423520    0.114750
  C     14.886490  -13.643710   -0.841660
  C     14.219860  -13.247520   -2.043170
  N     13.696940  -12.955140   -3.038550
  C     16.258230  -13.258120   -0.739460
  N     17.369620  -12.931680   -0.643130
  C     12.886180  -14.890880    0.081360
  F     17.664620  -15.579290    3.546800
  C     11.717620  -14.293540   -0.324380
  F     16.086880  -17.585380    4.320140
  C      6.737860    0.577590    0.766500
  C      8.061620    0.155100    1.017890
  C      8.281360   -1.163740    0.611920
  C      7.122390   -1.770410    0.066930
  S      5.742190   -0.729730    0.074300
  N      9.353410   -2.044510    0.544990
  C      8.879810   -3.225640   -0.023400
  C      7.503480   -3.059540   -0.321840
  C      9.341870   -4.571250   -0.310510
  C      8.251530   -5.340290   -0.847540
  S      6.727320   -4.468280   -0.981800
  C     10.562640   -5.259750   -0.098410
  C     10.594830   -6.642650   -0.299720
  C      9.503000   -7.400000   -0.853350
  C      8.331850   -6.691130   -1.181640
  S     11.977460   -7.631260    0.180950
  C     11.132330   -9.053070   -0.361160
  C      9.843570   -8.801310   -0.890530
  C     11.336950  -10.436620   -0.392990
  C     10.160790  -11.010160   -0.937570
  N      9.249940  -10.009670   -1.234600
  S     12.511400  -11.629550    0.015930
  C     11.423340  -12.919910   -0.539190
  C     10.204230  -12.412670   -1.009060
  O     11.685260   -4.631070    0.368670
  O      7.242590   -7.299100   -1.742050
  C     12.570510   -4.078560   -0.627500
  C     13.509030   -5.072810   -1.282120
  C      7.000220   -7.013920   -3.134830
  C      5.538850   -7.269110   -3.424410
  C      7.955960  -10.298530   -1.845390
  C      6.943750  -11.030830   -0.939440
  C      6.232580  -10.103620    0.059150
  C      7.114790   -9.440700    1.114440
  C      5.936270  -11.766840   -1.842960
  C      4.979900  -12.707570   -1.111880
  C     10.715030   -1.626590    0.859740
  C     11.499860   -0.894500   -0.256150
  C     10.736480    0.223390   -0.993660
  C      9.842040   -0.260150   -2.135920
  C     12.799710   -0.369450    0.380830
  C     13.885740    0.024720   -0.618740
  H      1.163170    2.208600   -0.454430
  H      3.475700    6.619290    0.222630
  H      7.245360    2.518930    1.279910
  H     13.813370  -17.867320    3.007630
  H     16.858890  -14.129420    1.561310
  H     10.850310  -14.965470   -0.337480
  H      8.802410    0.831450    1.442240
  H      9.405840  -13.063210   -1.364320
  H     13.146750   -3.314300   -0.086870
  H     11.963270   -3.571100   -1.393580
  H     14.119290   -5.602150   -0.535750
  H     14.186740   -4.519640   -1.953760
  H     12.970450   -5.819100   -1.882420
  H      7.656480   -7.657000   -3.748200
  H      7.269900   -5.966780   -3.345700
  H      5.272890   -8.320320   -3.233630
  H      5.312810   -7.038240   -4.476820
  H      4.908110   -6.635120   -2.785520
  H      8.157630  -10.918950   -2.734050
  H      7.525550   -9.353770   -2.182090
  H      7.493270  -11.799270   -0.364590
  H      5.460210  -10.692700    0.578730
  H      5.694450   -9.326760   -0.512040
  H      7.719080  -10.183030    1.662340
  H      6.495070   -8.905790    1.851350
  H      7.803920   -8.704980    0.683120
  H      6.501470  -12.350850   -2.590560
  H      5.359230  -11.019610   -2.419490
  H      5.537110  -13.433790   -0.496310
  H      4.365870  -13.278840   -1.825790
  H      4.288870  -12.168460   -0.445770
  H     11.270180   -2.515740    1.183960
  H     10.639800   -0.959880    1.733400
  H     11.773380   -1.639620   -1.017250
  H     11.477350    0.919900   -1.417460
  H     10.159220    0.826400   -0.276690
  H     10.443160   -0.776850   -2.902480
  H      9.334260    0.584820   -2.626080
  H      9.064910   -0.960790   -1.802500
  H     13.206110   -1.135630    1.065090
  H     12.546440    0.493830    1.022050
  H     14.214350   -0.844730   -1.212840
  H     14.769570    0.429600   -0.101820
  H     13.541360    0.794610   -1.326510

 Total Charge           Charge          ....    0
 Multiplicity           Mult            ....    1
 Number of Electrons    NEL             ....  578
 Basis Dimension        Dim             .... 1328

ORBITAL ENERGIES
----------------

  NO   OCC          E(Eh)            E(eV)
   0   2.0000     -91.977595     -2502.8376
   1   2.0000     -91.974471     -2502.7526
   2   2.0000     -91.973169     -2502.7172
   3   2.0000     -91.970094     -2502.6335
   4   2.0000     -26.336938      -716.6645
   5   2.0000     -26.335616      -716.6286
   6   2.0000     -26.334581      -716.6004
   7   2.0000     -26.334028      -716.5853
   8   2.0000     -20.607753      -560.7655
   9   2.0000     -20.604177      -560.6682
  10   2.0000     -20.569434      -559.7227
  11   2.0000     -20.567452      -559.6688
  12   2.0000     -15.649266      -425.8382
  13   2.0000     -15.648079      -425.8059
  14   2.0000     -15.599986      -424.4972
  15   2.0000     -15.596441      -424.4007
  16   2.0000     -15.594002      -424.3344
  17   2.0000     -15.590266      -424.2327
  18   2.0000     -11.378651      -309.6288
  19   2.0000     -11.378103      -309.6139
  20   2.0000     -11.377024      -309.5846
  21   2.0000     -11.376891      -309.5809
  22   2.0000     -11.369617      -309.3830
  23   2.0000     -11.368084      -309.3413
  24   2.0000     -11.351563      -308.8917
  25   2.0000     -11.346221      -308.7464
  26   2.0000     -11.345057      -308.7147
  27   2.0000     -11.342833      -308.6542
  28   2.0000     -11.330621      -308.3219
  29   2.0000     -11.330269      -308.3123
  30   2.0000     -11.327336      -308.2325
  31   2.0000     -11.326563      -308.2114
  32   2.0000     -11.324324      -308.1505
  33   2.0000     -11.322802      -308.1091
  34   2.0000     -11.322101      -308.0900
  35   2.0000     -11.319844      -308.0286
  36   2.0000     -11.313205      -307.8480
  37   2.0000     -11.309230      -307.7398
  38   2.0000     -11.308877      -307.7302
  39   2.0000     -11.308157      -307.7106
  40   2.0000     -11.308027      -307.7071
  41   2.0000     -11.307598      -307.6954
  42   2.0000     -11.306737      -307.6719
  43   2.0000     -11.306584      -307.6678
  44   2.0000     -11.306447      -307.6641
  45   2.0000     -11.305619      -307.6415
  46   2.0000     -11.305427      -307.6363
  47   2.0000     -11.304317      -307.6061
  48   2.0000     -11.304263      -307.6046
  49   2.0000     -11.303503      -307.5840
  50   2.0000     -11.300924      -307.5138
  51   2.0000     -11.300712      -307.5080
  52   2.0000     -11.300707      -307.5079
  53   2.0000     -11.298810      -307.4563
  54   2.0000     -11.298099      -307.4369
  55   2.0000     -11.297749      -307.4274
  56   2.0000     -11.297747      -307.4273
  57   2.0000     -11.297278      -307.4146
  58   2.0000     -11.296778      -307.4010
  59   2.0000     -11.295812      -307.3747
  60   2.0000     -11.292313      -307.2794
  61   2.0000     -11.291820      -307.2661
  62   2.0000     -11.290689      -307.2353
  63   2.0000     -11.290044      -307.2177
  64   2.0000     -11.279275      -306.9247
  65   2.0000     -11.279249      -306.9240
  66   2.0000     -11.255162      -306.2685
  67   2.0000     -11.254125      -306.2403
  68   2.0000     -11.253105      -306.2126
  69   2.0000     -11.249941      -306.1265
  70   2.0000     -11.248680      -306.0921
  71   2.0000     -11.247835      -306.0691
  72   2.0000     -11.243996      -305.9647
  73   2.0000     -11.242579      -305.9261
  74   2.0000     -11.240204      -305.8615
  75   2.0000     -11.236746      -305.7674
  76   2.0000     -11.235472      -305.7327
  77   2.0000     -11.228612      -305.5461
  78   2.0000      -9.012226      -245.2351
  79   2.0000      -9.007924      -245.1181
  80   2.0000      -9.007775      -245.1140
  81   2.0000      -9.004648      -245.0289
  82   2.0000      -6.699812      -182.3111
  83   2.0000      -6.698801      -182.2836
  84   2.0000      -6.696647      -182.2250
  85   2.0000      -6.695603      -182.1966
  86   2.0000      -6.694963      -182.1792
  87   2.0000      -6.694628      -182.1701
  88   2.0000      -6.693889      -182.1500
  89   2.0000      -6.692277      -182.1061
  90   2.0000      -6.692219      -182.1045
  91   2.0000      -6.691774      -182.0924
  92   2.0000      -6.691332      -182.0804
  93   2.0000      -6.688898      -182.0142
  94   2.0000      -1.649386       -44.8821
  95   2.0000      -1.648956       -44.8704
  96   2.0000      -1.633140       -44.4400
  97   2.0000      -1.632881       -44.4329
  98   2.0000      -1.424999       -38.7762
  99   2.0000      -1.419335       -38.6221
 100   2.0000      -1.398104       -38.0443
 101   2.0000      -1.396815       -38.0093
 102   2.0000      -1.334506       -36.3137
 103   2.0000      -1.333986       -36.2996
 104   2.0000      -1.246211       -33.9111
 105   2.0000      -1.244195       -33.8563
 106   2.0000      -1.226479       -33.3742
 107   2.0000      -1.223203       -33.2850
 108   2.0000      -1.221244       -33.2318
 109   2.0000      -1.217160       -33.1206
 110   2.0000      -1.213389       -33.0180
 111   2.0000      -1.194762       -32.5111
 112   2.0000      -1.192891       -32.4602
 113   2.0000      -1.180207       -32.1151
 114   2.0000      -1.164123       -31.6774
 115   2.0000      -1.163557       -31.6620
 116   2.0000      -1.131930       -30.8014
 117   2.0000      -1.118460       -30.4349
 118   2.0000      -1.103691       -30.0330
 119   2.0000      -1.100626       -29.9496
 120   2.0000      -1.097585       -29.8668
 121   2.0000      -1.088429       -29.6177
 122   2.0000      -1.080548       -29.4032
 123   2.0000      -1.079643       -29.3786
 124   2.0000      -1.067446       -29.0467
 125   2.0000      -1.067320       -29.0433
 126   2.0000      -1.055869       -28.7317
 127   2.0000      -1.046027       -28.4638
 128   2.0000      -1.031999       -28.0821
 129   2.0000      -1.027875       -27.9699
 130   2.0000      -1.023926       -27.8624
 131   2.0000      -1.021167       -27.7874
 132   2.0000      -1.017962       -27.7002
 133   2.0000      -1.015600       -27.6359
 134   2.0000      -1.012484       -27.5511
 135   2.0000      -0.992009       -26.9939
 136   2.0000      -0.979819       -26.6622
 137   2.0000      -0.970804       -26.4169
 138   2.0000      -0.957216       -26.0472
 139   2.0000      -0.943971       -25.6868
 140   2.0000      -0.939827       -25.5740
 141   2.0000      -0.936859       -25.4932
 142   2.0000      -0.932498       -25.3746
 143   2.0000      -0.909435       -24.7470
 144   2.0000      -0.893642       -24.3172
 145   2.0000      -0.890618       -24.2350
 146   2.0000      -0.886358       -24.1190
 147   2.0000      -0.885304       -24.0903
 148   2.0000      -0.865636       -23.5552
 149   2.0000      -0.863915       -23.5083
 150   2.0000      -0.858082       -23.3496
 151   2.0000      -0.850199       -23.1351
 152   2.0000      -0.847313       -23.0566
 153   2.0000      -0.844130       -22.9699
 154   2.0000      -0.831348       -22.6221
 155   2.0000      -0.821035       -22.3415
 156   2.0000      -0.820058       -22.3149
 157   2.0000      -0.810531       -22.0557
 158   2.0000      -0.806222       -21.9384
 159   2.0000      -0.802579       -21.8393
 160   2.0000      -0.796268       -21.6675
 161   2.0000      -0.791052       -21.5256
 162   2.0000      -0.785593       -21.3771
 163   2.0000      -0.783838       -21.3293
 164   2.0000      -0.783269       -21.3138
 165   2.0000      -0.781106       -21.2550
 166   2.0000      -0.775427       -21.1005
 167   2.0000      -0.768362       -20.9082
 168   2.0000      -0.765863       -20.8402
 169   2.0000      -0.755241       -20.5512
 170   2.0000      -0.750139       -20.4123
 171   2.0000      -0.743919       -20.2431
 172   2.0000      -0.743528       -20.2324
 173   2.0000      -0.741510       -20.1775
 174   2.0000      -0.736412       -20.0388
 175   2.0000      -0.727882       -19.8067
 176   2.0000      -0.726447       -19.7676
 177   2.0000      -0.724094       -19.7036
 178   2.0000      -0.715485       -19.4693
 179   2.0000      -0.715191       -19.4613
 180   2.0000      -0.714681       -19.4475
 181   2.0000      -0.708158       -19.2700
 182   2.0000      -0.704100       -19.1595
 183   2.0000      -0.697457       -18.9788
 184   2.0000      -0.695311       -18.9204
 185   2.0000      -0.691438       -18.8150
 186   2.0000      -0.686101       -18.6698
 187   2.0000      -0.679688       -18.4953
 188   2.0000      -0.677215       -18.4280
 189   2.0000      -0.676131       -18.3985
 190   2.0000      -0.672339       -18.2953
 191   2.0000      -0.670495       -18.2451
 192   2.0000      -0.663173       -18.0459
 193   2.0000      -0.662037       -18.0150
 194   2.0000      -0.661098       -17.9894
 195   2.0000      -0.655098       -17.8261
 196   2.0000      -0.648514       -17.6470
 197   2.0000      -0.642647       -17.4873
 198   2.0000      -0.640775       -17.4364
 199   2.0000      -0.639417       -17.3994
 200   2.0000      -0.636299       -17.3146
 201   2.0000      -0.632731       -17.2175
 202   2.0000      -0.630830       -17.1657
 203   2.0000      -0.624045       -16.9811
 204   2.0000      -0.621953       -16.9242
 205   2.0000      -0.621189       -16.9034
 206   2.0000      -0.619368       -16.8539
 207   2.0000      -0.617787       -16.8109
 208   2.0000      -0.616517       -16.7763
 209   2.0000      -0.615186       -16.7401
 210   2.0000      -0.611715       -16.6456
 211   2.0000      -0.609213       -16.5775
 212   2.0000      -0.608054       -16.5460
 213   2.0000      -0.605543       -16.4777
 214   2.0000      -0.601871       -16.3777
 215   2.0000      -0.596886       -16.2421
 216   2.0000      -0.591991       -16.1089
 217   2.0000      -0.591167       -16.0865
 218   2.0000      -0.587269       -15.9804
 219   2.0000      -0.585879       -15.9426
 220   2.0000      -0.582615       -15.8538
 221   2.0000      -0.579954       -15.7814
 222   2.0000      -0.579130       -15.7589
 223   2.0000      -0.577024       -15.7016
 224   2.0000      -0.573363       -15.6020
 225   2.0000      -0.573016       -15.5926
 226   2.0000      -0.572452       -15.5772
 227   2.0000      -0.570901       -15.5350
 228   2.0000      -0.569057       -15.4848
 229   2.0000      -0.568726       -15.4758
 230   2.0000      -0.564916       -15.3721
 231   2.0000      -0.562879       -15.3167
 232   2.0000      -0.561356       -15.2753
 233   2.0000      -0.558768       -15.2048
 234   2.0000      -0.553704       -15.0670
 235   2.0000      -0.552838       -15.0435
 236   2.0000      -0.549063       -14.9408
 237   2.0000      -0.547079       -14.8868
 238   2.0000      -0.543868       -14.7994
 239   2.0000      -0.541503       -14.7350
 240   2.0000      -0.540121       -14.6975
 241   2.0000      -0.537334       -14.6216
 242   2.0000      -0.533932       -14.5290
 243   2.0000      -0.531963       -14.4754
 244   2.0000      -0.530923       -14.4471
 245   2.0000      -0.525210       -14.2917
 246   2.0000      -0.520752       -14.1704
 247   2.0000      -0.518731       -14.1154
 248   2.0000      -0.515245       -14.0205
 249   2.0000      -0.512615       -13.9490
 250   2.0000      -0.511293       -13.9130
 251   2.0000      -0.507737       -13.8162
 252   2.0000      -0.505607       -13.7583
 253   2.0000      -0.503310       -13.6958
 254   2.0000      -0.498258       -13.5583
 255   2.0000      -0.498099       -13.5540
 256   2.0000      -0.496529       -13.5112
 257   2.0000      -0.495226       -13.4758
 258   2.0000      -0.489962       -13.3325
 259   2.0000      -0.488611       -13.2958
 260   2.0000      -0.487100       -13.2547
 261   2.0000      -0.485089       -13.1999
 262   2.0000      -0.481465       -13.1013
 263   2.0000      -0.479246       -13.0409
 264   2.0000      -0.476408       -12.9637
 265   2.0000      -0.475325       -12.9343
 266   2.0000      -0.474682       -12.9168
 267   2.0000      -0.472130       -12.8473
 268   2.0000      -0.466481       -12.6936
 269   2.0000      -0.465903       -12.6779
 270   2.0000      -0.461589       -12.5605
 271   2.0000      -0.457323       -12.4444
 272   2.0000      -0.450158       -12.2494
 273   2.0000      -0.447204       -12.1690
 274   2.0000      -0.443156       -12.0589
 275   2.0000      -0.422042       -11.4844
 276   2.0000      -0.410638       -11.1740
 277   2.0000      -0.406784       -11.0691
 278   2.0000      -0.390643       -10.6299
 279   2.0000      -0.389715       -10.6047
 280   2.0000      -0.379579       -10.3289
 281   2.0000      -0.366778        -9.9805
 282   2.0000      -0.355788        -9.6815
 283   2.0000      -0.352629        -9.5955
 284   2.0000      -0.349578        -9.5125
 285   2.0000      -0.330511        -8.9936
 286   2.0000      -0.303313        -8.2536
 287   2.0000      -0.301150        -8.1947
 288   2.0000      -0.263502        -7.1703
 289   0.0000      -0.033538        -0.9126
 290   0.0000      -0.018033        -0.4907
 291   0.0000       0.013320         0.3625
 292   0.0000       0.020585         0.5601
 293   0.0000       0.051369         1.3978

MULLIKEN ATOMIC CHARGES
-----------------------
   0 C :    0.510538
   1 O :   -0.380029
   2 C :   -0.184699
   3 C :   -0.035871
   4 C :    0.344212
   5 C :    0.343160
   6 C :   -0.055478
   7 C :   -0.029066
   8 C :    0.251686
   9 C :   -0.356379
  10 C :    0.049862
  11 N :   -0.103448
  12 C :    0.042183
  13 N :   -0.084445
  14 C :   -0.308006
  15 F :   -0.302889
  16 C :    0.082929
  17 F :   -0.304147
  18 C :    0.473788
  19 O :   -0.354215
  20 C :   -0.173045
  21 C :   -0.033282
  22 C :    0.335880
  23 C :    0.344391
  24 C :   -0.055223
  25 C :   -0.040228
  26 C :    0.205834
  27 C :   -0.321242
  28 C :    0.053172
  29 N :   -0.067492
  30 C :    0.043667
  31 N :   -0.082371
  32 C :   -0.319782
  33 F :   -0.303011
  34 C :    0.159285
  35 F :   -0.304758
  36 C :   -0.151771
  37 C :   -0.025202
  38 C :    0.220611
  39 C :   -0.101784
  40 S :    0.255999
  41 N :   -0.603726
  42 C :    0.270911
  43 C :   -0.163634
  44 C :   -0.050318
  45 C :   -0.131456
  46 S :    0.195161
  47 C :    0.269947
  48 C :   -0.120493
  49 C :   -0.062008
  50 C :    0.274522
  51 S :    0.209120
  52 C :   -0.144724
  53 C :    0.257024
  54 C :   -0.109359
  55 C :    0.217058
  56 N :   -0.601863
  57 S :    0.177173
  58 C :   -0.180169
  59 C :    0.030497
  60 O :   -0.609886
  61 O :   -0.625880
  62 C :    0.192149
  63 C :   -0.056067
  64 C :    0.193548
  65 C :   -0.040727
  66 C :    0.286633
  67 C :   -0.248834
  68 C :   -0.063442
  69 C :   -0.016958
  70 C :   -0.079362
  71 C :   -0.020550
  72 C :    0.271221
  73 C :   -0.253651
  74 C :   -0.048400
  75 C :   -0.030364
  76 C :   -0.082913
  77 C :   -0.013697
  78 H :    0.087984
  79 H :    0.105535
  80 H :    0.089736
  81 H :    0.089225
  82 H :    0.102219
  83 H :    0.089486
  84 H :    0.081059
  85 H :    0.066326
  86 H :    0.054513
  87 H :    0.047681
  88 H :    0.059425
  89 H :    0.044857
  90 H :    0.057933
  91 H :    0.035633
  92 H :    0.059328
  93 H :    0.042877
  94 H :    0.048380
  95 H :    0.054970
  96 H :    0.043751
  97 H :    0.074740
  98 H :    0.037569
  99 H :    0.037958
 100 H :    0.038941
 101 H :    0.028913
 102 H :    0.037582
 103 H :    0.053705
 104 H :    0.029253
 105 H :    0.031980
 106 H :    0.030150
 107 H :    0.041264
 108 H :    0.042331
 109 H :    0.085599
 110 H :    0.042572
 111 H :    0.029464
 112 H :    0.041472
 113 H :    0.023406
 114 H :    0.026548
 115 H :    0.041747
 116 H :    0.059980
 117 H :    0.032876
 118 H :    0.037278
 119 H :    0.025089
 120 H :    0.045105
 121 H :    0.037747
Sum of atomic charges:   -0.0000000

LOEWDIN ATOMIC CHARGES
----------------------
   0 C :    0.167386
   1 O :   -0.247614
   2 C :   -0.052171
   3 C :    0.003473
   4 C :    0.120567
   5 C :    0.119678
   6 C :   -0.007048
   7 C :   -0.023602
   8 C :    0.128002
   9 C :   -0.182846
  10 C :    0.022807
  11 N :   -0.110939
  12 C :    0.017050
  13 N :   -0.100510
  14 C :   -0.174674
  15 F :   -0.102815
  16 C :    0.115494
  17 F :   -0.102548
  18 C :    0.172335
  19 O :   -0.233971
  20 C :   -0.055914
  21 C :    0.004563
  22 C :    0.117255
  23 C :    0.122358
  24 C :   -0.010433
  25 C :   -0.018187
  26 C :    0.102470
  27 C :   -0.165059
  28 C :    0.003492
  29 N :   -0.090447
  30 C :    0.017336
  31 N :   -0.095542
  32 C :   -0.155893
  33 F :   -0.102447
  34 C :    0.108045
  35 F :   -0.103480
  36 C :   -0.202890
  37 C :    0.019979
  38 C :   -0.020830
  39 C :   -0.181303
  40 S :    0.446713
  41 N :   -0.034764
  42 C :    0.047208
  43 C :   -0.229083
  44 C :   -0.069190
  45 C :   -0.148677
  46 S :    0.381560
  47 C :    0.059052
  48 C :   -0.148241
  49 C :   -0.066090
  50 C :    0.051353
  51 S :    0.392536
  52 C :   -0.220815
  53 C :    0.035198
  54 C :   -0.184038
  55 C :   -0.011140
  56 N :   -0.027606
  57 S :    0.413748
  58 C :   -0.196591
  59 C :    0.012777
  60 O :   -0.215214
  61 O :   -0.213335
  62 C :    0.132999
  63 C :   -0.052440
  64 C :    0.130854
  65 C :   -0.040435
  66 C :    0.087843
  67 C :   -0.037338
  68 C :   -0.020046
  69 C :   -0.036750
  70 C :   -0.021470
  71 C :   -0.035393
  72 C :    0.084881
  73 C :   -0.037248
  74 C :   -0.022995
  75 C :   -0.037270
  76 C :   -0.020921
  77 C :   -0.034363
  78 H :    0.059111
  79 H :    0.057163
  80 H :    0.051760
  81 H :    0.059116
  82 H :    0.057172
  83 H :    0.058268
  84 H :    0.042372
  85 H :    0.041899
  86 H :    0.017755
  87 H :    0.006858
  88 H :    0.024369
  89 H :    0.028672
  90 H :    0.021169
  91 H :    0.006818
  92 H :    0.010044
  93 H :    0.021345
  94 H :    0.029256
  95 H :    0.027412
  96 H :    0.017089
  97 H :    0.026702
  98 H :    0.008763
  99 H :    0.015347
 100 H :    0.015660
 101 H :    0.016424
 102 H :    0.021179
 103 H :    0.015315
 104 H :    0.011306
 105 H :    0.013280
 106 H :    0.016888
 107 H :    0.021313
 108 H :    0.017702
 109 H :    0.029596
 110 H :    0.020893
 111 H :    0.007579
 112 H :    0.019470
 113 H :    0.010370
 114 H :    0.014128
 115 H :    0.021872
 116 H :    0.018424
 117 H :    0.012564
 118 H :    0.016756
 119 H :    0.013676
 120 H :    0.023260
 121 H :    0.017494

  Mayer bond orders larger than 0.100000
B(  0-C ,  1-O ) :   2.0426 B(  0-C ,  2-C ) :   0.9774 B(  0-C , 14-C ) :   0.9878
B(  2-C ,  3-C ) :   1.3805 B(  2-C ,  7-C ) :   1.3892 B(  3-C ,  4-C ) :   1.3916
B(  3-C , 78-H ) :   1.0065 B(  4-C ,  5-C ) :   1.3247 B(  4-C , 17-F ) :   0.9421
B(  5-C ,  6-C ) :   1.4234 B(  5-C , 15-F ) :   0.9477 B(  6-C ,  7-C ) :   1.3615
B(  6-C , 79-H ) :   0.9847 B(  7-C ,  8-C ) :   1.0400 B(  8-C ,  9-C ) :   1.6580
B(  8-C , 14-C ) :   1.1276 B(  9-C , 10-C ) :   1.0625 B(  9-C , 12-C ) :   1.0585
B( 10-C , 11-N ) :   2.9670 B( 12-C , 13-N ) :   2.9796 B( 14-C , 16-C ) :   1.5771
B( 16-C , 36-C ) :   1.3158 B( 16-C , 80-H ) :   0.9578 B( 18-C , 19-O ) :   2.0948
B( 18-C , 20-C ) :   0.9416 B( 18-C , 32-C ) :   0.9970 B( 20-C , 21-C ) :   1.3810
B( 20-C , 25-C ) :   1.3777 B( 21-C , 22-C ) :   1.3996 B( 21-C , 81-H ) :   1.0052
B( 22-C , 23-C ) :   1.3256 B( 22-C , 35-F ) :   0.9407 B( 23-C , 24-C ) :   1.4189
B( 23-C , 33-F ) :   0.9461 B( 24-C , 25-C ) :   1.3718 B( 24-C , 82-H ) :   0.9878
B( 25-C , 26-C ) :   1.0399 B( 26-C , 27-C ) :   1.7191 B( 26-C , 32-C ) :   1.0681
B( 27-C , 28-C ) :   1.0619 B( 27-C , 30-C ) :   1.0426 B( 28-C , 29-N ) :   3.0180
B( 30-C , 31-N ) :   2.9932 B( 32-C , 34-C ) :   1.6935 B( 34-C , 58-C ) :   1.2054
B( 34-C , 83-H ) :   0.9585 B( 36-C , 37-C ) :   1.4384 B( 36-C , 40-S ) :   1.0275
B( 37-C , 38-C ) :   1.3150 B( 37-C , 84-H ) :   1.0016 B( 38-C , 39-C ) :   1.3784
B( 38-C , 41-N ) :   1.0529 B( 39-C , 40-S ) :   1.0128 B( 39-C , 43-C ) :   1.5215
B( 41-N , 42-C ) :   1.1241 B( 41-N , 72-C ) :   0.8475 B( 42-C , 43-C ) :   1.4993
B( 42-C , 44-C ) :   1.1435 B( 43-C , 46-S ) :   0.9417 B( 44-C , 45-C ) :   1.3317
B( 44-C , 47-C ) :   1.3453 B( 45-C , 46-S ) :   1.0342 B( 45-C , 50-C ) :   1.4699
B( 47-C , 48-C ) :   1.4952 B( 47-C , 60-O ) :   1.0395 B( 48-C , 49-C ) :   1.3156
B( 48-C , 51-S ) :   1.0349 B( 49-C , 50-C ) :   1.3803 B( 49-C , 53-C ) :   1.1556
B( 50-C , 61-O ) :   1.0083 B( 51-S , 52-C ) :   0.9388 B( 52-C , 53-C ) :   1.4916
B( 52-C , 54-C ) :   1.5278 B( 53-C , 56-N ) :   1.1287 B( 54-C , 55-C ) :   1.3950
B( 54-C , 57-S ) :   1.0317 B( 55-C , 56-N ) :   1.0723 B( 55-C , 59-C ) :   1.2798
B( 56-N , 66-C ) :   0.8338 B( 57-S , 58-C ) :   1.0498 B( 58-C , 59-C ) :   1.4963
B( 59-C , 85-H ) :   1.0022 B( 60-O , 62-C ) :   0.7893 B( 61-O , 64-C ) :   0.7814
B( 62-C , 63-C ) :   1.0587 B( 62-C , 86-H ) :   0.9775 B( 62-C , 87-H ) :   0.9641
B( 63-C , 88-H ) :   0.9782 B( 63-C , 89-H ) :   0.9768 B( 63-C , 90-H ) :   0.9782
B( 64-C , 65-C ) :   1.0513 B( 64-C , 91-H ) :   0.9770 B( 64-C , 92-H ) :   0.9738
B( 65-C , 93-H ) :   0.9854 B( 65-C , 94-H ) :   0.9810 B( 65-C , 95-H ) :   0.9777
B( 66-C , 67-C ) :   0.9849 B( 66-C , 96-H ) :   0.9846 B( 66-C , 97-H ) :   0.9658
B( 67-C , 68-C ) :   0.9878 B( 67-C , 70-C ) :   1.0155 B( 67-C , 98-H ) :   0.9657
B( 68-C , 69-C ) :   1.0448 B( 68-C , 99-H ) :   0.9770 B( 68-C ,100-H ) :   0.9673
B( 69-C ,101-H ) :   0.9818 B( 69-C ,102-H ) :   0.9853 B( 69-C ,103-H ) :   0.9877
B( 70-C , 71-C ) :   1.0436 B( 70-C ,104-H ) :   0.9772 B( 70-C ,105-H ) :   0.9675
B( 71-C ,106-H ) :   0.9841 B( 71-C ,107-H ) :   0.9870 B( 71-C ,108-H ) :   0.9833
B( 72-C , 73-C ) :   0.9955 B( 72-C ,109-H ) :   0.9722 B( 72-C ,110-H ) :   0.9762
B( 73-C , 74-C ) :   0.9699 B( 73-C , 76-C ) :   1.0094 B( 73-C ,111-H ) :   0.9583
B( 74-C , 75-C ) :   1.0371 B( 74-C ,112-H ) :   0.9782 B( 74-C ,113-H ) :   0.9712
B( 75-C ,114-H ) :   0.9825 B( 75-C ,115-H ) :   0.9863 B( 75-C ,116-H ) :   0.9885
B( 76-C , 77-C ) :   1.0393 B( 76-C ,117-H ) :   0.9785 B( 76-C ,118-H ) :   0.9673
B( 77-C ,119-H ) :   0.9840 B( 77-C ,120-H ) :   0.9861 B( 77-C ,121-H ) :   0.9840

-----------------------------------------------------------------------------
         ABSORPTION SPECTRUM VIA TRANSITION ELECTRIC DIPOLE MOMENTS
-----------------------------------------------------------------------------
State   Energy    Wavelength  fosc         T2        TX        TY        TZ
        (cm-1)      (nm)                 (au**2)    (au)      (au)      (au)
-----------------------------------------------------------------------------
   1   22089.5    452.7   3.108613129  46.32933   3.42499  -5.88196  -0.03607
   2   26089.8    383.3   0.221130769   2.79032  -0.04726   1.61458   0.42571
   3   33444.9    299.0   0.174587379   1.71853  -1.11024   0.18814  -0.67119

FINAL SINGLE POINT ENERGY     -4908.380273084608

DIPOLE MOMENT
-------------
                                X             Y             Z
Electronic contribution:      1.23768       1.45496      36.02914
Nuclear contribution   :     -3.01810      -2.33158     -37.09981
                        -----------------------------------------
Total Dipole Moment    :     -1.78042      -0.87663      -1.07067
                        -----------------------------------------
Magnitude (a.u.)       :      2.25493
Magnitude (Debye)      :      5.73158

Rotational constants in cm-1:     0.001715     0.000230     0.000212
Rotational constants in MHz :    51.408464     6.883863     6.354363

                             ****ORCA TERMINATED NORMALLY****
TOTAL RUN TIME: 0 days 17 hours 10 minutes 11 seconds 836 msec
