                         Program Version 4.2.0 -  RELEASE  -
|  1> # ORCA input file
|  2> # BDTN-Th.out: Geometry 94
|  3> ! Engrad Keepdens
|  4> %maxcore 1000
|  5> %tddft
|  6>   nroots 3
|  7>   # nroots is the number of states to be computed
|  8>   Iroot 1
|  9>   end
| 10> * xyz 0 1
| 11>    C        4.04773         3.62165         1.38163
| 12>    O        4.28809         4.30183         0.40761
| 13>    C        3.81223         4.06102         2.78038
| 14>    C        3.52430         2.91413         3.59437
| 15>    C        3.48288         1.71533         2.74205
| 16>    C        2.87850         0.52168         3.11075
| 17>    C        2.47439         0.29657         4.46165
| 18>    N        2.18187         0.12519         5.57395
| 19>    C        2.52052        -0.48228         2.16710
| 20>    N        2.20750        -1.29318         1.39505
| 21>    C        3.98754         2.11022         1.43512
| 22>    C        4.54172         1.42294         0.37368
| 23>    C       13.16907       -14.68822         1.56074
| 24>    O       12.68498       -13.83857         2.28691
| 25>    C       13.98682       -15.85554         1.96280
| 26>    C       14.38215       -16.58190         0.79128
| 27>    C       13.81530       -15.92984        -0.39955
| 28>    C       14.03779       -16.36880        -1.69613
| 29>    C       14.87843       -17.49603        -1.94757
| 30>    N       15.57182       -18.41150        -2.12965
| 31>    C       13.48142       -15.74987        -2.85565
| 32>    N       13.02271       -15.25175        -3.80136
| 33>    C       13.04787       -14.77435         0.07614
| 34>    C       12.30646       -13.91766        -0.71297
| 35>    C        5.05719         0.10713         0.26203
| 36>    C        5.34663        -0.83295         1.26028
| 37>    C        6.01115        -1.94981         0.74955
| 38>    C        6.23187        -1.90824        -0.65662
| 39>    S        5.62472        -0.44168        -1.33783
| 40>    N        6.50273        -3.13772         1.27706
| 41>    C        7.04761        -3.82925         0.20633
| 42>    C        6.85463        -3.12902        -0.99611
| 43>    C        7.69621        -5.09424         0.05318
| 44>    C        7.78107        -5.44963        -1.33598
| 45>    S        7.32989        -4.06912        -2.39194
| 46>    C        8.28795        -5.91591         1.02850
| 47>    C        8.81950        -7.13215         0.61789
| 48>    C        8.75169        -7.59557        -0.73819
| 49>    C        8.23631        -6.71735        -1.73450
| 50>    S        9.63701        -8.21887         1.73542
| 51>    C        9.90409        -9.33183         0.42125
| 52>    C        9.35568        -8.90650        -0.81677
| 53>    C       10.53322       -10.57205         0.21626
| 54>    C       10.34046       -10.87958        -1.15309
| 55>    N        9.61214        -9.87789        -1.77999
| 56>    S       11.43486       -11.79799         1.04832
| 57>    C       11.58186       -12.72510        -0.46935
| 58>    C       10.92760       -12.08281        -1.54098
| 59>    O        8.36973        -5.55512         2.34230
| 60>    O        8.24859        -7.17044        -3.01444
| 61>    C        9.25243        -4.45870         2.65948
| 62>    C       10.71011        -4.87900         2.69193
| 63>    C        7.29489        -6.68516        -3.96964
| 64>    C        7.02000        -7.75016        -5.01232
| 65>    C        8.87007       -10.18907        -3.00118
| 66>    C        7.64653       -11.08257        -2.72567
| 67>    C        6.55712       -10.33080        -1.91694
| 68>    C        6.48376       -10.71094        -0.43780
| 69>    C        7.09850       -11.70190        -4.02373
| 70>    C        6.19986       -12.91025        -3.75981
| 71>    C        5.86357        -3.82184         2.41516
| 72>    C        4.88176        -4.91813         1.95985
| 73>    C        4.30349        -5.65814         3.17531
| 74>    C        5.31406        -6.49022         3.96837
| 75>    C        3.79473        -4.35151         1.03429
| 76>    C        2.96179        -5.40382         0.30554
| 77>    C        3.82201         5.23940         3.47431
| 78>    S        3.49213         4.94707         5.15377
| 79>    C        3.32163         3.23610         4.91589
| 80>    C       14.44697       -16.39347         3.13147
| 81>    S       15.38539       -17.81669         2.80116
| 82>    C       15.16144       -17.67818         1.08624
| 83>    H        4.70926         2.07296        -0.49573
| 84>    H       12.25572       -14.18162        -1.76977
| 85>    H        5.12227        -0.66783         2.31137
| 86>    H       10.93576       -12.50137        -2.54704
| 87>    H        8.92101        -4.10608         3.64788
| 88>    H        9.08987        -3.63790         1.94236
| 89>    H       10.86998        -5.69410         3.41309
| 90>    H       11.33707        -4.02404         2.99140
| 91>    H       11.05110        -5.22395         1.70398
| 92>    H        7.69927        -5.77693        -4.44725
| 93>    H        6.36355        -6.41289        -3.45003
| 94>    H        7.94679        -8.08807        -5.50053
| 95>    H        6.35963        -7.33286        -5.78827
| 96>    H        6.51814        -8.62165        -4.56876
| 97>    H        9.56973       -10.70457        -3.67733
| 98>    H        8.58307        -9.24794        -3.47195
| 99>    H        8.01049       -11.92437        -2.10999
|100>    H        5.57183       -10.51319        -2.37748
|101>    H        6.72375        -9.24483        -2.00725
|102>    H        6.20614       -11.77080        -0.31687
|103>    H        5.73378       -10.10595         0.09428
|104>    H        7.44676       -10.56038         0.07207
|105>    H        7.93959       -12.01567        -4.66596
|106>    H        6.54507       -10.93716        -4.59731
|107>    H        6.76223       -13.70811        -3.24670
|108>    H        5.79663       -13.33179        -4.69349
|109>    H        5.34378       -12.64876        -3.11823
|110>    H        5.33530        -3.05192         2.99609
|111>    H        6.63984        -4.25832         3.05140
|112>    H        5.46732        -5.65380         1.37973
|113>    H        3.50406        -6.32773         2.82020
|114>    H        3.80556        -4.92808         3.84003
|115>    H        5.86019        -7.18736         3.31165
|116>    H        4.80585        -7.08535         4.74324
|117>    H        6.06905        -5.87056         4.47542
|118>    H        4.26346        -3.71522         0.26786
|119>    H        3.13313        -3.67813         1.60352
|120>    H        3.60392        -6.08469        -0.28037
|121>    H        2.26232        -4.91667        -0.39161
|122>    H        2.35924        -6.02200         0.99005
|123>    H        4.00485         6.24578         3.10176
|124>    H        3.08294         2.58717         5.75536
|125>    H       14.29077       -16.03839         4.14887
|126>    H       15.60839       -18.40856         0.41642
|127> *
|128>
|129>                          ****END OF INPUT****

CARTESIAN COORDINATES (ANGSTROEM)
---------------------------------
  C      4.047730    3.621650    1.381630
  O      4.288090    4.301830    0.407610
  C      3.812230    4.061020    2.780380
  C      3.524300    2.914130    3.594370
  C      3.482880    1.715330    2.742050
  C      2.878500    0.521680    3.110750
  C      2.474390    0.296570    4.461650
  N      2.181870    0.125190    5.573950
  C      2.520520   -0.482280    2.167100
  N      2.207500   -1.293180    1.395050
  C      3.987540    2.110220    1.435120
  C      4.541720    1.422940    0.373680
  C     13.169070  -14.688220    1.560740
  O     12.684980  -13.838570    2.286910
  C     13.986820  -15.855540    1.962800
  C     14.382150  -16.581900    0.791280
  C     13.815300  -15.929840   -0.399550
  C     14.037790  -16.368800   -1.696130
  C     14.878430  -17.496030   -1.947570
  N     15.571820  -18.411500   -2.129650
  C     13.481420  -15.749870   -2.855650
  N     13.022710  -15.251750   -3.801360
  C     13.047870  -14.774350    0.076140
  C     12.306460  -13.917660   -0.712970
  C      5.057190    0.107130    0.262030
  C      5.346630   -0.832950    1.260280
  C      6.011150   -1.949810    0.749550
  C      6.231870   -1.908240   -0.656620
  S      5.624720   -0.441680   -1.337830
  N      6.502730   -3.137720    1.277060
  C      7.047610   -3.829250    0.206330
  C      6.854630   -3.129020   -0.996110
  C      7.696210   -5.094240    0.053180
  C      7.781070   -5.449630   -1.335980
  S      7.329890   -4.069120   -2.391940
  C      8.287950   -5.915910    1.028500
  C      8.819500   -7.132150    0.617890
  C      8.751690   -7.595570   -0.738190
  C      8.236310   -6.717350   -1.734500
  S      9.637010   -8.218870    1.735420
  C      9.904090   -9.331830    0.421250
  C      9.355680   -8.906500   -0.816770
  C     10.533220  -10.572050    0.216260
  C     10.340460  -10.879580   -1.153090
  N      9.612140   -9.877890   -1.779990
  S     11.434860  -11.797990    1.048320
  C     11.581860  -12.725100   -0.469350
  C     10.927600  -12.082810   -1.540980
  O      8.369730   -5.555120    2.342300
  O      8.248590   -7.170440   -3.014440
  C      9.252430   -4.458700    2.659480
  C     10.710110   -4.879000    2.691930
  C      7.294890   -6.685160   -3.969640
  C      7.020000   -7.750160   -5.012320
  C      8.870070  -10.189070   -3.001180
  C      7.646530  -11.082570   -2.725670
  C      6.557120  -10.330800   -1.916940
  C      6.483760  -10.710940   -0.437800
  C      7.098500  -11.701900   -4.023730
  C      6.199860  -12.910250   -3.759810
  C      5.863570   -3.821840    2.415160
  C      4.881760   -4.918130    1.959850
  C      4.303490   -5.658140    3.175310
  C      5.314060   -6.490220    3.968370
  C      3.794730   -4.351510    1.034290
  C      2.961790   -5.403820    0.305540
  C      3.822010    5.239400    3.474310
  S      3.492130    4.947070    5.153770
  C      3.321630    3.236100    4.915890
  C     14.446970  -16.393470    3.131470
  S     15.385390  -17.816690    2.801160
  C     15.161440  -17.678180    1.086240
  H      4.709260    2.072960   -0.495730
  H     12.255720  -14.181620   -1.769770
  H      5.122270   -0.667830    2.311370
  H     10.935760  -12.501370   -2.547040
  H      8.921010   -4.106080    3.647880
  H      9.089870   -3.637900    1.942360
  H     10.869980   -5.694100    3.413090
  H     11.337070   -4.024040    2.991400
  H     11.051100   -5.223950    1.703980
  H      7.699270   -5.776930   -4.447250
  H      6.363550   -6.412890   -3.450030
  H      7.946790   -8.088070   -5.500530
  H      6.359630   -7.332860   -5.788270
  H      6.518140   -8.621650   -4.568760
  H      9.569730  -10.704570   -3.677330
  H      8.583070   -9.247940   -3.471950
  H      8.010490  -11.924370   -2.109990
  H      5.571830  -10.513190   -2.377480
  H      6.723750   -9.244830   -2.007250
  H      6.206140  -11.770800   -0.316870
  H      5.733780  -10.105950    0.094280
  H      7.446760  -10.560380    0.072070
  H      7.939590  -12.015670   -4.665960
  H      6.545070  -10.937160   -4.597310
  H      6.762230  -13.708110   -3.246700
  H      5.796630  -13.331790   -4.693490
  H      5.343780  -12.648760   -3.118230
  H      5.335300   -3.051920    2.996090
  H      6.639840   -4.258320    3.051400
  H      5.467320   -5.653800    1.379730
  H      3.504060   -6.327730    2.820200
  H      3.805560   -4.928080    3.840030
  H      5.860190   -7.187360    3.311650
  H      4.805850   -7.085350    4.743240
  H      6.069050   -5.870560    4.475420
  H      4.263460   -3.715220    0.267860
  H      3.133130   -3.678130    1.603520
  H      3.603920   -6.084690   -0.280370
  H      2.262320   -4.916670   -0.391610
  H      2.359240   -6.022000    0.990050
  H      4.004850    6.245780    3.101760
  H      3.082940    2.587170    5.755360
  H     14.290770  -16.038390    4.148870
  H     15.608390  -18.408560    0.416420

 Total Charge           Charge          ....    0
 Multiplicity           Mult            ....    1
 Number of Electrons    NEL             ....  550
 Basis Dimension        Dim             .... 1252

ORBITAL ENERGIES
----------------

  NO   OCC          E(Eh)            E(eV)
   0   2.0000     -91.991622     -2503.2193
   1   2.0000     -91.985457     -2503.0515
   2   2.0000     -91.981341     -2502.9395
   3   2.0000     -91.976052     -2502.7956
   4   2.0000     -91.967927     -2502.5745
   5   2.0000     -91.966427     -2502.5337
   6   2.0000     -20.610924      -560.8518
   7   2.0000     -20.598722      -560.5197
   8   2.0000     -20.560031      -559.4669
   9   2.0000     -20.556058      -559.3588
  10   2.0000     -15.639015      -425.5592
  11   2.0000     -15.635261      -425.4571
  12   2.0000     -15.594662      -424.3523
  13   2.0000     -15.594423      -424.3458
  14   2.0000     -15.588940      -424.1966
  15   2.0000     -15.583122      -424.0383
  16   2.0000     -11.364671      -309.2484
  17   2.0000     -11.358802      -309.0887
  18   2.0000     -11.353531      -308.9453
  19   2.0000     -11.347568      -308.7830
  20   2.0000     -11.339515      -308.5639
  21   2.0000     -11.333574      -308.4022
  22   2.0000     -11.323786      -308.1359
  23   2.0000     -11.323636      -308.1318
  24   2.0000     -11.320857      -308.0562
  25   2.0000     -11.320359      -308.0426
  26   2.0000     -11.317171      -307.9559
  27   2.0000     -11.316046      -307.9253
  28   2.0000     -11.314002      -307.8696
  29   2.0000     -11.313341      -307.8517
  30   2.0000     -11.312947      -307.8409
  31   2.0000     -11.312287      -307.8230
  32   2.0000     -11.311085      -307.7903
  33   2.0000     -11.308173      -307.7110
  34   2.0000     -11.308037      -307.7073
  35   2.0000     -11.307437      -307.6910
  36   2.0000     -11.306466      -307.6646
  37   2.0000     -11.306399      -307.6628
  38   2.0000     -11.305107      -307.6276
  39   2.0000     -11.304620      -307.6144
  40   2.0000     -11.304071      -307.5994
  41   2.0000     -11.303187      -307.5753
  42   2.0000     -11.300576      -307.5043
  43   2.0000     -11.297706      -307.4262
  44   2.0000     -11.297063      -307.4087
  45   2.0000     -11.296671      -307.3981
  46   2.0000     -11.295393      -307.3633
  47   2.0000     -11.294196      -307.3307
  48   2.0000     -11.294072      -307.3273
  49   2.0000     -11.293786      -307.3196
  50   2.0000     -11.291940      -307.2693
  51   2.0000     -11.290646      -307.2341
  52   2.0000     -11.288911      -307.1869
  53   2.0000     -11.287238      -307.1414
  54   2.0000     -11.284346      -307.0627
  55   2.0000     -11.281076      -306.9737
  56   2.0000     -11.278455      -306.9024
  57   2.0000     -11.274846      -306.8042
  58   2.0000     -11.270571      -306.6878
  59   2.0000     -11.267297      -306.5987
  60   2.0000     -11.255368      -306.2741
  61   2.0000     -11.245759      -306.0127
  62   2.0000     -11.243432      -305.9493
  63   2.0000     -11.242600      -305.9267
  64   2.0000     -11.238840      -305.8244
  65   2.0000     -11.238113      -305.8046
  66   2.0000     -11.234964      -305.7189
  67   2.0000     -11.231682      -305.6296
  68   2.0000     -11.228143      -305.5333
  69   2.0000     -11.225451      -305.4600
  70   2.0000     -11.222437      -305.3780
  71   2.0000     -11.221395      -305.3497
  72   2.0000      -9.027211      -245.6429
  73   2.0000      -9.021077      -245.4760
  74   2.0000      -9.015674      -245.3290
  75   2.0000      -9.009848      -245.1704
  76   2.0000      -9.000905      -244.9271
  77   2.0000      -9.000820      -244.9248
  78   2.0000      -6.714522      -182.7114
  79   2.0000      -6.713360      -182.6798
  80   2.0000      -6.711837      -182.6384
  81   2.0000      -6.708395      -182.5447
  82   2.0000      -6.707232      -182.5131
  83   2.0000      -6.705716      -182.4718
  84   2.0000      -6.703200      -182.4034
  85   2.0000      -6.702215      -182.3765
  86   2.0000      -6.700138      -182.3200
  87   2.0000      -6.697524      -182.2489
  88   2.0000      -6.696583      -182.2233
  89   2.0000      -6.694089      -182.1554
  90   2.0000      -6.688435      -182.0016
  91   2.0000      -6.688068      -181.9916
  92   2.0000      -6.687502      -181.9762
  93   2.0000      -6.687023      -181.9631
  94   2.0000      -6.685108      -181.9110
  95   2.0000      -6.684936      -181.9064
  96   2.0000      -1.428666       -38.8760
  97   2.0000      -1.415497       -38.5176
  98   2.0000      -1.390281       -37.8315
  99   2.0000      -1.384969       -37.6869
 100   2.0000      -1.334147       -36.3040
 101   2.0000      -1.325781       -36.0763
 102   2.0000      -1.243312       -33.8322
 103   2.0000      -1.235745       -33.6263
 104   2.0000      -1.223654       -33.2973
 105   2.0000      -1.219935       -33.1961
 106   2.0000      -1.218248       -33.1502
 107   2.0000      -1.211220       -32.9590
 108   2.0000      -1.209267       -32.9058
 109   2.0000      -1.193551       -32.4782
 110   2.0000      -1.183851       -32.2142
 111   2.0000      -1.175035       -31.9743
 112   2.0000      -1.160085       -31.5675
 113   2.0000      -1.152974       -31.3740
 114   2.0000      -1.125037       -30.6138
 115   2.0000      -1.109469       -30.1902
 116   2.0000      -1.095356       -29.8062
 117   2.0000      -1.092824       -29.7373
 118   2.0000      -1.086469       -29.5643
 119   2.0000      -1.079055       -29.3626
 120   2.0000      -1.072597       -29.1868
 121   2.0000      -1.063625       -28.9427
 122   2.0000      -1.047079       -28.4925
 123   2.0000      -1.038772       -28.2664
 124   2.0000      -1.026978       -27.9455
 125   2.0000      -1.022453       -27.8224
 126   2.0000      -1.020571       -27.7711
 127   2.0000      -1.016126       -27.6502
 128   2.0000      -1.015307       -27.6279
 129   2.0000      -1.013706       -27.5843
 130   2.0000      -1.007199       -27.4073
 131   2.0000      -1.006684       -27.3933
 132   2.0000      -0.998816       -27.1792
 133   2.0000      -0.975361       -26.5409
 134   2.0000      -0.973014       -26.4771
 135   2.0000      -0.958758       -26.0891
 136   2.0000      -0.939848       -25.5746
 137   2.0000      -0.936936       -25.4953
 138   2.0000      -0.918209       -24.9857
 139   2.0000      -0.903078       -24.5740
 140   2.0000      -0.898169       -24.4404
 141   2.0000      -0.890518       -24.2322
 142   2.0000      -0.887331       -24.1455
 143   2.0000      -0.880987       -23.9729
 144   2.0000      -0.870051       -23.6753
 145   2.0000      -0.858456       -23.3598
 146   2.0000      -0.839418       -22.8417
 147   2.0000      -0.836154       -22.7529
 148   2.0000      -0.830584       -22.6013
 149   2.0000      -0.824706       -22.4414
 150   2.0000      -0.816661       -22.2225
 151   2.0000      -0.810494       -22.0547
 152   2.0000      -0.802780       -21.8448
 153   2.0000      -0.799351       -21.7514
 154   2.0000      -0.796792       -21.6818
 155   2.0000      -0.789747       -21.4901
 156   2.0000      -0.788766       -21.4634
 157   2.0000      -0.783601       -21.3229
 158   2.0000      -0.771734       -21.0000
 159   2.0000      -0.764980       -20.8162
 160   2.0000      -0.762365       -20.7450
 161   2.0000      -0.757839       -20.6218
 162   2.0000      -0.757072       -20.6010
 163   2.0000      -0.738204       -20.0875
 164   2.0000      -0.734339       -19.9824
 165   2.0000      -0.731230       -19.8978
 166   2.0000      -0.720194       -19.5975
 167   2.0000      -0.716455       -19.4957
 168   2.0000      -0.713337       -19.4109
 169   2.0000      -0.704476       -19.1698
 170   2.0000      -0.701846       -19.0982
 171   2.0000      -0.699053       -19.0222
 172   2.0000      -0.690751       -18.7963
 173   2.0000      -0.684988       -18.6395
 174   2.0000      -0.677468       -18.4348
 175   2.0000      -0.668544       -18.1920
 176   2.0000      -0.667636       -18.1673
 177   2.0000      -0.665589       -18.1116
 178   2.0000      -0.661237       -17.9932
 179   2.0000      -0.654660       -17.8142
 180   2.0000      -0.648314       -17.6415
 181   2.0000      -0.643522       -17.5111
 182   2.0000      -0.640391       -17.4259
 183   2.0000      -0.639062       -17.3897
 184   2.0000      -0.631281       -17.1780
 185   2.0000      -0.626886       -17.0584
 186   2.0000      -0.624051       -16.9813
 187   2.0000      -0.618476       -16.8296
 188   2.0000      -0.614246       -16.7145
 189   2.0000      -0.614015       -16.7082
 190   2.0000      -0.612128       -16.6569
 191   2.0000      -0.609075       -16.5738
 192   2.0000      -0.604516       -16.4497
 193   2.0000      -0.602436       -16.3931
 194   2.0000      -0.599579       -16.3154
 195   2.0000      -0.596720       -16.2376
 196   2.0000      -0.593438       -16.1483
 197   2.0000      -0.591595       -16.0981
 198   2.0000      -0.589991       -16.0545
 199   2.0000      -0.585444       -15.9307
 200   2.0000      -0.583922       -15.8893
 201   2.0000      -0.582930       -15.8623
 202   2.0000      -0.581718       -15.8294
 203   2.0000      -0.580101       -15.7853
 204   2.0000      -0.577376       -15.7112
 205   2.0000      -0.577026       -15.7017
 206   2.0000      -0.576546       -15.6886
 207   2.0000      -0.575562       -15.6618
 208   2.0000      -0.574492       -15.6327
 209   2.0000      -0.571673       -15.5560
 210   2.0000      -0.571261       -15.5448
 211   2.0000      -0.567281       -15.4365
 212   2.0000      -0.566427       -15.4133
 213   2.0000      -0.564246       -15.3539
 214   2.0000      -0.563038       -15.3210
 215   2.0000      -0.561988       -15.2925
 216   2.0000      -0.561704       -15.2847
 217   2.0000      -0.557600       -15.1731
 218   2.0000      -0.554287       -15.0829
 219   2.0000      -0.549657       -14.9569
 220   2.0000      -0.545378       -14.8405
 221   2.0000      -0.543188       -14.7809
 222   2.0000      -0.541637       -14.7387
 223   2.0000      -0.538440       -14.6517
 224   2.0000      -0.535286       -14.5659
 225   2.0000      -0.531581       -14.4651
 226   2.0000      -0.528665       -14.3857
 227   2.0000      -0.525792       -14.3075
 228   2.0000      -0.523010       -14.2318
 229   2.0000      -0.519731       -14.1426
 230   2.0000      -0.517333       -14.0774
 231   2.0000      -0.514000       -13.9867
 232   2.0000      -0.513001       -13.9595
 233   2.0000      -0.512246       -13.9389
 234   2.0000      -0.510832       -13.9005
 235   2.0000      -0.505036       -13.7427
 236   2.0000      -0.503813       -13.7095
 237   2.0000      -0.500722       -13.6253
 238   2.0000      -0.499431       -13.5902
 239   2.0000      -0.498794       -13.5729
 240   2.0000      -0.494679       -13.4609
 241   2.0000      -0.493896       -13.4396
 242   2.0000      -0.491980       -13.3874
 243   2.0000      -0.490035       -13.3345
 244   2.0000      -0.489003       -13.3065
 245   2.0000      -0.486601       -13.2411
 246   2.0000      -0.481814       -13.1108
 247   2.0000      -0.478433       -13.0188
 248   2.0000      -0.476147       -12.9566
 249   2.0000      -0.472587       -12.8597
 250   2.0000      -0.471275       -12.8240
 251   2.0000      -0.469626       -12.7792
 252   2.0000      -0.468406       -12.7460
 253   2.0000      -0.463645       -12.6164
 254   2.0000      -0.462238       -12.5781
 255   2.0000      -0.456713       -12.4278
 256   2.0000      -0.455721       -12.4008
 257   2.0000      -0.452003       -12.2996
 258   2.0000      -0.442351       -12.0370
 259   2.0000      -0.438502       -11.9322
 260   2.0000      -0.429130       -11.6772
 261   2.0000      -0.417294       -11.3552
 262   2.0000      -0.404234       -10.9998
 263   2.0000      -0.398754       -10.8506
 264   2.0000      -0.377712       -10.2781
 265   2.0000      -0.374521       -10.1912
 266   2.0000      -0.368857       -10.0371
 267   2.0000      -0.364593        -9.9211
 268   2.0000      -0.349411        -9.5080
 269   2.0000      -0.349016        -9.4972
 270   2.0000      -0.339276        -9.2322
 271   2.0000      -0.329002        -8.9526
 272   2.0000      -0.301869        -8.2143
 273   2.0000      -0.295971        -8.0538
 274   2.0000      -0.256929        -6.9914
 275   0.0000      -0.032235        -0.8772
 276   0.0000      -0.014204        -0.3865
 277   0.0000       0.033527         0.9123
 278   0.0000       0.047755         1.2995
 279   0.0000       0.059678         1.6239

MULLIKEN ATOMIC CHARGES
-----------------------
   0 C :    0.481810
   1 O :   -0.358244
   2 C :   -0.151694
   3 C :   -0.087488
   4 C :    0.256075
   5 C :   -0.387241
   6 C :    0.056919
   7 N :   -0.094274
   8 C :    0.050714
   9 N :   -0.073974
  10 C :   -0.346681
  11 C :    0.203791
  12 C :    0.536054
  13 O :   -0.379764
  14 C :   -0.172657
  15 C :   -0.071420
  16 C :    0.264871
  17 C :   -0.363167
  18 C :    0.049110
  19 N :   -0.100619
  20 C :    0.054860
  21 N :   -0.112218
  22 C :   -0.317971
  23 C :    0.066374
  24 C :   -0.234412
  25 C :    0.071124
  26 C :    0.160491
  27 C :   -0.112763
  28 S :    0.199146
  29 N :   -0.587207
  30 C :    0.213679
  31 C :   -0.116359
  32 C :   -0.074430
  33 C :   -0.142409
  34 S :    0.171724
  35 C :    0.259745
  36 C :   -0.084574
  37 C :   -0.096818
  38 C :    0.334814
  39 S :    0.223642
  40 C :   -0.190178
  41 C :    0.275526
  42 C :   -0.092939
  43 C :    0.225437
  44 N :   -0.590397
  45 S :    0.264458
  46 C :   -0.147857
  47 C :   -0.038544
  48 O :   -0.613025
  49 O :   -0.604818
  50 C :    0.193108
  51 C :   -0.063774
  52 C :    0.184596
  53 C :   -0.075377
  54 C :    0.266444
  55 C :   -0.249345
  56 C :   -0.072668
  57 C :   -0.032329
  58 C :   -0.058382
  59 C :   -0.026692
  60 C :    0.282277
  61 C :   -0.284016
  62 C :   -0.057848
  63 C :   -0.022584
  64 C :   -0.068971
  65 C :   -0.018751
  66 C :   -0.055433
  67 S :    0.112557
  68 C :   -0.068489
  69 C :   -0.057051
  70 S :    0.111146
  71 C :   -0.062871
  72 H :    0.095217
  73 H :    0.089156
  74 H :    0.082709
  75 H :    0.074840
  76 H :    0.047207
  77 H :    0.057197
  78 H :    0.057139
  79 H :    0.043958
  80 H :    0.054608
  81 H :    0.059564
  82 H :    0.060512
  83 H :    0.057531
  84 H :    0.054917
  85 H :    0.053923
  86 H :    0.039534
  87 H :    0.083385
  88 H :    0.050414
  89 H :    0.035040
  90 H :    0.039065
  91 H :    0.032851
  92 H :    0.034875
  93 H :    0.062192
  94 H :    0.030535
  95 H :    0.030911
  96 H :    0.034154
  97 H :    0.041677
  98 H :    0.032581
  99 H :    0.038380
 100 H :    0.078620
 101 H :    0.058492
 102 H :    0.039599
 103 H :    0.029379
 104 H :    0.037798
 105 H :    0.036966
 106 H :    0.029006
 107 H :    0.059118
 108 H :    0.057303
 109 H :    0.017970
 110 H :    0.043748
 111 H :    0.031414
 112 H :    0.105031
 113 H :    0.122191
 114 H :    0.101938
 115 H :    0.125588
Sum of atomic charges:    0.0000000

LOEWDIN ATOMIC CHARGES
----------------------
   0 C :    0.170942
   1 O :   -0.236776
   2 C :   -0.108359
   3 C :   -0.080002
   4 C :    0.119813
   5 C :   -0.192669
   6 C :    0.018776
   7 N :   -0.109446
   8 C :    0.013355
   9 N :   -0.090851
  10 C :   -0.158027
  11 C :    0.111360
  12 C :    0.168902
  13 O :   -0.250518
  14 C :   -0.106333
  15 C :   -0.082449
  16 C :    0.131776
  17 C :   -0.194682
  18 C :    0.023587
  19 N :   -0.115170
  20 C :    0.022549
  21 N :   -0.119563
  22 C :   -0.170258
  23 C :    0.112814
  24 C :   -0.203194
  25 C :    0.022402
  26 C :   -0.010272
  27 C :   -0.181982
  28 S :    0.407630
  29 N :   -0.042745
  30 C :    0.029729
  31 C :   -0.217695
  32 C :   -0.064482
  33 C :   -0.168690
  34 S :    0.363605
  35 C :    0.043732
  36 C :   -0.139565
  37 C :   -0.073937
  38 C :    0.081315
  39 S :    0.389812
  40 C :   -0.232350
  41 C :    0.051900
  42 C :   -0.178597
  43 C :   -0.022008
  44 N :   -0.036256
  45 S :    0.447518
  46 C :   -0.202433
  47 C :    0.015302
  48 O :   -0.210320
  49 O :   -0.194839
  50 C :    0.134178
  51 C :   -0.049973
  52 C :    0.125134
  53 C :   -0.042941
  54 C :    0.088171
  55 C :   -0.036792
  56 C :   -0.023968
  57 C :   -0.035889
  58 C :   -0.020595
  59 C :   -0.034777
  60 C :    0.094909
  61 C :   -0.039510
  62 C :   -0.019311
  63 C :   -0.036219
  64 C :   -0.024199
  65 C :   -0.033718
  66 C :   -0.117145
  67 S :    0.444728
  68 C :   -0.128610
  69 C :   -0.120092
  70 S :    0.443272
  71 C :   -0.122386
  72 H :    0.056741
  73 H :    0.051882
  74 H :    0.040564
  75 H :    0.044515
  76 H :    0.017077
  77 H :    0.011490
  78 H :    0.025043
  79 H :    0.027471
  80 H :    0.024439
  81 H :    0.008629
  82 H :    0.011243
  83 H :    0.026942
  84 H :    0.031863
  85 H :    0.021214
  86 H :    0.016925
  87 H :    0.023122
  88 H :    0.012964
  89 H :    0.013596
  90 H :    0.010430
  91 H :    0.015771
  92 H :    0.018565
  93 H :    0.019644
  94 H :    0.013494
  95 H :    0.011093
  96 H :    0.017851
  97 H :    0.020365
  98 H :    0.016079
  99 H :    0.019020
 100 H :    0.021081
 101 H :    0.013574
 102 H :    0.018464
 103 H :    0.013487
 104 H :    0.019183
 105 H :    0.019157
 106 H :    0.012224
 107 H :    0.017976
 108 H :    0.018489
 109 H :    0.010973
 110 H :    0.022859
 111 H :    0.012747
 112 H :    0.044225
 113 H :    0.043493
 114 H :    0.043435
 115 H :    0.043977

  Mayer bond orders larger than 0.100000
B(  0-C ,  1-O ) :   2.0824 B(  0-C ,  2-C ) :   0.9349 B(  0-C , 10-C ) :   0.9988
B(  2-C ,  3-C ) :   1.1989 B(  2-C , 66-C ) :   1.6484 B(  3-C ,  4-C ) :   1.0403
B(  3-C , 68-C ) :   1.6169 B(  4-C ,  5-C ) :   1.6519 B(  4-C , 10-C ) :   1.0911
B(  5-C ,  6-C ) :   1.0444 B(  5-C ,  8-C ) :   1.0838 B(  6-C ,  7-N ) :   2.9937
B(  8-C ,  9-N ) :   2.9662 B( 10-C , 11-C ) :   1.6739 B( 11-C , 24-C ) :   1.2106
B( 11-C , 72-H ) :   0.9430 B( 12-C , 13-O ) :   2.0468 B( 12-C , 14-C ) :   0.9602
B( 12-C , 22-C ) :   0.9746 B( 14-C , 15-C ) :   1.2067 B( 14-C , 69-C ) :   1.6470
B( 15-C , 16-C ) :   1.0386 B( 15-C , 71-C ) :   1.6106 B( 16-C , 17-C ) :   1.6389
B( 16-C , 22-C ) :   1.1219 B( 17-C , 18-C ) :   1.0655 B( 17-C , 20-C ) :   1.0626
B( 18-C , 19-N ) :   2.9840 B( 20-C , 21-N ) :   2.9658 B( 22-C , 23-C ) :   1.5870
B( 23-C , 46-C ) :   1.3226 B( 23-C , 73-H ) :   0.9604 B( 24-C , 25-C ) :   1.4523
B( 24-C , 28-S ) :   1.0720 B( 25-C , 26-C ) :   1.3535 B( 25-C , 74-H ) :   0.9860
B( 26-C , 27-C ) :   1.3994 B( 26-C , 29-N ) :   1.0596 B( 27-C , 28-S ) :   1.0438
B( 27-C , 31-C ) :   1.4801 B( 29-N , 30-C ) :   1.1184 B( 29-N , 60-C ) :   0.8381
B( 30-C , 31-C ) :   1.5294 B( 30-C , 32-C ) :   1.1656 B( 31-C , 34-S ) :   0.9485
B( 32-C , 33-C ) :   1.3047 B( 32-C , 35-C ) :   1.3648 B( 33-C , 34-S ) :   0.9831
B( 33-C , 38-C ) :   1.4994 B( 35-C , 36-C ) :   1.4790 B( 35-C , 48-O ) :   1.0289
B( 36-C , 37-C ) :   1.3631 B( 36-C , 39-S ) :   1.0325 B( 37-C , 38-C ) :   1.3627
B( 37-C , 41-C ) :   1.1584 B( 38-C , 49-O ) :   1.0119 B( 39-S , 40-C ) :   0.9364
B( 40-C , 41-C ) :   1.5084 B( 40-C , 42-C ) :   1.5201 B( 41-C , 44-N ) :   1.1199
B( 42-C , 43-C ) :   1.3759 B( 42-C , 45-S ) :   1.0118 B( 43-C , 44-N ) :   1.0501
B( 43-C , 47-C ) :   1.3175 B( 44-N , 54-C ) :   0.8621 B( 45-S , 46-C ) :   1.0245
B( 46-C , 47-C ) :   1.4366 B( 47-C , 75-H ) :   1.0077 B( 48-O , 50-C ) :   0.7952
B( 49-O , 52-C ) :   0.8102 B( 50-C , 51-C ) :   1.0525 B( 50-C , 76-H ) :   0.9759
B( 50-C , 77-H ) :   0.9765 B( 51-C , 78-H ) :   0.9794 B( 51-C , 79-H ) :   0.9782
B( 51-C , 80-H ) :   0.9819 B( 52-C , 53-C ) :   1.0616 B( 52-C , 81-H ) :   0.9725
B( 52-C , 82-H ) :   0.9728 B( 53-C , 83-H ) :   0.9768 B( 53-C , 84-H ) :   0.9786
B( 53-C , 85-H ) :   0.9814 B( 54-C , 55-C ) :   1.0022 B( 54-C , 86-H ) :   0.9802
B( 54-C , 87-H ) :   0.9687 B( 55-C , 56-C ) :   0.9300 B( 55-C , 58-C ) :   1.0124
B( 55-C , 88-H ) :   0.9694 B( 56-C , 57-C ) :   1.0395 B( 56-C , 89-H ) :   0.9819
B( 56-C , 90-H ) :   0.9783 B( 57-C , 91-H ) :   0.9841 B( 57-C , 92-H ) :   0.9864
B( 57-C , 93-H ) :   0.9865 B( 58-C , 59-C ) :   1.0425 B( 58-C , 94-H ) :   0.9764
B( 58-C , 95-H ) :   0.9692 B( 59-C , 96-H ) :   0.9840 B( 59-C , 97-H ) :   0.9874
B( 59-C , 98-H ) :   0.9856 B( 60-C , 61-C ) :   1.0026 B( 60-C , 99-H ) :   0.9720
B( 60-C ,100-H ) :   0.9783 B( 61-C , 62-C ) :   1.0047 B( 61-C , 64-C ) :   0.9979
B( 61-C ,101-H ) :   0.9527 B( 62-C , 63-C ) :   1.0382 B( 62-C ,102-H ) :   0.9775
B( 62-C ,103-H ) :   0.9696 B( 63-C ,104-H ) :   0.9830 B( 63-C ,105-H ) :   0.9870
B( 63-C ,106-H ) :   0.9831 B( 64-C , 65-C ) :   1.0491 B( 64-C ,107-H ) :   0.9757
B( 64-C ,108-H ) :   0.9655 B( 65-C ,109-H ) :   0.9831 B( 65-C ,110-H ) :   0.9873
B( 65-C ,111-H ) :   0.9841 B( 66-C , 67-S ) :   1.1780 B( 66-C ,112-H ) :   0.9694
B( 67-S , 68-C ) :   1.1752 B( 68-C ,113-H ) :   0.9597 B( 69-C , 70-S ) :   1.1747
B( 69-C ,114-H ) :   0.9692 B( 70-S , 71-C ) :   1.1787 B( 71-C ,115-H ) :   0.9567

-----------------------------------------------------------------------------
         ABSORPTION SPECTRUM VIA TRANSITION ELECTRIC DIPOLE MOMENTS
-----------------------------------------------------------------------------
State   Energy    Wavelength  fosc         T2        TX        TY        TZ
        (cm-1)      (nm)                 (au**2)    (au)      (au)      (au)
-----------------------------------------------------------------------------
   1   21482.7    465.5   2.942180151  45.08743  -3.53795   5.64241   0.85649
   2   25753.0    388.3   0.374817108   4.79146   0.92516  -1.71166   1.00287
   3   33569.9    297.9   0.305477180   2.99574  -0.17269  -0.38978   1.67750

FINAL SINGLE POINT ENERGY     -5154.382960327407

DIPOLE MOMENT
-------------
                                X             Y             Z
Electronic contribution:     49.65126      25.74909      24.04786
Nuclear contribution   :    -49.61477     -24.54806     -23.91198
                        -----------------------------------------
Total Dipole Moment    :      0.03649       1.20104       0.13588
                        -----------------------------------------
Magnitude (a.u.)       :      1.20925
Magnitude (Debye)      :      3.07366

Rotational constants in cm-1:     0.002157     0.000270     0.000255
Rotational constants in MHz :    64.678422     8.080913     7.654116

                             ****ORCA TERMINATED NORMALLY****
TOTAL RUN TIME: 0 days 16 hours 59 minutes 34 seconds 237 msec
