                         Program Version 4.2.0 -  RELEASE  -
|  1> # ORCA input file
|  2> # BDTN-BF.out
|  3> ! Engrad Keepdens
|  4> %maxcore 1000
|  5> %tddft
|  6>   nroots 3
|  7>   # nroots is the number of states to be computed
|  8>   Iroot 1
|  9>   end
| 10> * xyz 0 1
| 11>    C        4.20765         2.22270        -1.24381
| 12>    O        4.12158         1.11940        -1.74872
| 13>    C        3.28610         3.35637        -1.47093
| 14>    C        2.17610         3.40671        -2.28988
| 15>    C        1.46967         4.59764        -2.34039
| 16>    C        1.87691         5.69712        -1.58474
| 17>    C        2.99199         5.64449        -0.76105
| 18>    C        3.70476         4.45702        -0.70518
| 19>    C        4.90570         4.08059         0.04392
| 20>    C        5.58523         4.90541         0.90339
| 21>    C        6.74258         4.56533         1.63447
| 22>    N        7.68568         4.37355         2.26219
| 23>    C        5.21149         6.23735         1.18259
| 24>    N        4.96380         7.32448         1.45492
| 25>    C        5.21740         2.70837        -0.29969
| 26>    F        1.17712         6.83529        -1.65365
| 27>    C        6.29110         1.99009         0.17040
| 28>    F        0.38740         4.69459        -3.12226
| 29>    C       13.15198       -15.99610         0.52972
| 30>    O       12.31345       -16.82019         0.81264
| 31>    C       14.61564       -16.07663         0.75438
| 32>    C       15.33814       -17.06552         1.39222
| 33>    C       16.70909       -16.89314         1.50020
| 34>    C       17.32934       -15.75689         0.97955
| 35>    C       16.60700       -14.76822         0.32797
| 36>    C       15.23673       -14.93496         0.21679
| 37>    C       14.21801       -14.11116        -0.43260
| 38>    C       14.45385       -13.20239        -1.43102
| 39>    C       13.43247       -12.68000        -2.25244
| 40>    N       12.63456       -12.28945        -2.97959
| 41>    C       15.73925       -12.77329        -1.81647
| 42>    N       16.76367       -12.38185        -2.15497
| 43>    C       12.93111       -14.65627        -0.06459
| 44>    F       18.65275       -15.61283         1.11279
| 45>    C       11.67495       -14.12403        -0.11315
| 46>    F       17.44733       -17.82644         2.11412
| 47>    C        6.71346         0.68590        -0.10982
| 48>    C        7.88595         0.16957         0.45604
| 49>    C        8.15997        -1.11360         0.02140
| 50>    C        7.15475        -1.60885        -0.85144
| 51>    S        5.91330        -0.46782        -1.17823
| 52>    N        9.12404        -2.07470         0.22976
| 53>    C        8.73032        -3.18805        -0.47634
| 54>    C        7.51235        -2.92243        -1.12863
| 55>    C        9.14427        -4.54329        -0.62619
| 56>    C        8.13739        -5.31012        -1.28943
| 57>    S        6.80693        -4.30502        -1.87761
| 58>    C       10.33448        -5.19030        -0.26125
| 59>    C       10.35957        -6.57216        -0.31393
| 60>    C        9.29679        -7.36227        -0.82422
| 61>    C        8.20738        -6.69256        -1.42651
| 62>    S       11.75455        -7.47753         0.22613
| 63>    C       10.93005        -8.93845        -0.18696
| 64>    C        9.62875        -8.74508        -0.70736
| 65>    C       11.16606       -10.30530        -0.15000
| 66>    C        9.98366       -10.92331        -0.62128
| 67>    N        9.06233        -9.96756        -0.95763
| 68>    S       12.37927       -11.45502         0.24949
| 69>    C       11.29659       -12.77076        -0.22446
| 70>    C       10.05143       -12.31185        -0.62702
| 71>    O       11.48281        -4.51814         0.08786
| 72>    O        7.31347        -7.47924        -2.07681
| 73>    C       12.21070        -4.03866        -1.04400
| 74>    C       12.67304        -5.11957        -2.01260
| 75>    C        6.46553        -6.96838        -3.09655
| 76>    C        5.98020        -8.14700        -3.92750
| 77>    C        7.70470       -10.31265        -1.28947
| 78>    C        6.88280       -10.72275        -0.05367
| 79>    C        6.85421        -9.59462         0.99122
| 80>    C        7.87877        -9.78002         2.10581
| 81>    C        5.46989       -11.10612        -0.51314
| 82>    C        4.71592       -11.92335         0.52933
| 83>    C       10.09284        -2.00574         1.30235
| 84>    C       11.44858        -1.34506         0.99052
| 85>    C       11.34540         0.08130         0.43961
| 86>    C       11.11646         0.13585        -1.06723
| 87>    C       12.27505        -1.37341         2.28694
| 88>    C       13.77449        -1.26420         2.03754
| 89>    H        1.86686         2.55348        -2.87221
| 90>    H        3.26266         6.52307        -0.19914
| 91>    H        6.94476         2.50386         0.86463
| 92>    H       14.85922       -17.94406         1.79414
| 93>    H       17.12548       -13.90532        -0.05748
| 94>    H       10.86493       -14.83335         0.02778
| 95>    H        8.47157         0.74704         1.14724
| 96>    H        9.27195       -12.97832        -0.94830
| 97>    H       13.08289        -3.54459        -0.61095
| 98>    H       11.59882        -3.30233        -1.58514
| 99>    H       13.29245        -5.85088        -1.50086
|100>    H       13.25756        -4.65442        -2.80188
|101>    H       11.82505        -5.62991        -2.46473
|102>    H        7.02098        -6.26752        -3.72817
|103>    H        5.60901        -6.44915        -2.65188
|104>    H        6.82543        -8.68362        -4.35044
|105>    H        5.35296        -7.78149        -4.73478
|106>    H        5.40026        -8.83124        -3.31395
|107>    H        7.73921       -11.14377        -2.00072
|108>    H        7.23599        -9.45612        -1.76536
|109>    H        7.34988       -11.60585         0.39559
|110>    H        5.86387        -9.54926         1.44644
|111>    H        7.02240        -8.63691         0.49502
|112>    H        7.69321       -10.70931         2.64062
|113>    H        7.81220        -8.95961         2.81700
|114>    H        8.89404        -9.80774         1.71926
|115>    H        5.53824       -11.69413        -1.43161
|116>    H        4.91111       -10.19666        -0.74414
|117>    H        5.23801       -12.85603         0.73119
|118>    H        3.71727       -12.16129         0.17143
|119>    H        4.61994       -11.37816         1.46476
|120>    H       10.28878        -3.02971         1.62890
|121>    H        9.62134        -1.46105         2.12741
|122>    H       11.96302        -1.95521         0.25090
|123>    H       12.28061         0.60150         0.65263
|124>    H       10.55757         0.62506         0.96004
|125>    H       11.94268        -0.34230        -1.59008
|126>    H       11.05817         1.16992        -1.39930
|127>    H       10.19543        -0.36233        -1.35582
|128>    H       12.08598        -2.31278         2.81018
|129>    H       11.94966        -0.55914         2.93817
|130>    H       14.12259        -2.11132         1.45094
|131>    H       14.31137        -1.26205         2.98287
|132>    H       14.02617        -0.35075         1.50469
|133> *
|134>
|135>                          ****END OF INPUT****

CARTESIAN COORDINATES (ANGSTROEM)
---------------------------------
  C      4.207650    2.222700   -1.243810
  O      4.121580    1.119400   -1.748720
  C      3.286100    3.356370   -1.470930
  C      2.176100    3.406710   -2.289880
  C      1.469670    4.597640   -2.340390
  C      1.876910    5.697120   -1.584740
  C      2.991990    5.644490   -0.761050
  C      3.704760    4.457020   -0.705180
  C      4.905700    4.080590    0.043920
  C      5.585230    4.905410    0.903390
  C      6.742580    4.565330    1.634470
  N      7.685680    4.373550    2.262190
  C      5.211490    6.237350    1.182590
  N      4.963800    7.324480    1.454920
  C      5.217400    2.708370   -0.299690
  F      1.177120    6.835290   -1.653650
  C      6.291100    1.990090    0.170400
  F      0.387400    4.694590   -3.122260
  C     13.151980  -15.996100    0.529720
  O     12.313450  -16.820190    0.812640
  C     14.615640  -16.076630    0.754380
  C     15.338140  -17.065520    1.392220
  C     16.709090  -16.893140    1.500200
  C     17.329340  -15.756890    0.979550
  C     16.607000  -14.768220    0.327970
  C     15.236730  -14.934960    0.216790
  C     14.218010  -14.111160   -0.432600
  C     14.453850  -13.202390   -1.431020
  C     13.432470  -12.680000   -2.252440
  N     12.634560  -12.289450   -2.979590
  C     15.739250  -12.773290   -1.816470
  N     16.763670  -12.381850   -2.154970
  C     12.931110  -14.656270   -0.064590
  F     18.652750  -15.612830    1.112790
  C     11.674950  -14.124030   -0.113150
  F     17.447330  -17.826440    2.114120
  C      6.713460    0.685900   -0.109820
  C      7.885950    0.169570    0.456040
  C      8.159970   -1.113600    0.021400
  C      7.154750   -1.608850   -0.851440
  S      5.913300   -0.467820   -1.178230
  N      9.124040   -2.074700    0.229760
  C      8.730320   -3.188050   -0.476340
  C      7.512350   -2.922430   -1.128630
  C      9.144270   -4.543290   -0.626190
  C      8.137390   -5.310120   -1.289430
  S      6.806930   -4.305020   -1.877610
  C     10.334480   -5.190300   -0.261250
  C     10.359570   -6.572160   -0.313930
  C      9.296790   -7.362270   -0.824220
  C      8.207380   -6.692560   -1.426510
  S     11.754550   -7.477530    0.226130
  C     10.930050   -8.938450   -0.186960
  C      9.628750   -8.745080   -0.707360
  C     11.166060  -10.305300   -0.150000
  C      9.983660  -10.923310   -0.621280
  N      9.062330   -9.967560   -0.957630
  S     12.379270  -11.455020    0.249490
  C     11.296590  -12.770760   -0.224460
  C     10.051430  -12.311850   -0.627020
  O     11.482810   -4.518140    0.087860
  O      7.313470   -7.479240   -2.076810
  C     12.210700   -4.038660   -1.044000
  C     12.673040   -5.119570   -2.012600
  C      6.465530   -6.968380   -3.096550
  C      5.980200   -8.147000   -3.927500
  C      7.704700  -10.312650   -1.289470
  C      6.882800  -10.722750   -0.053670
  C      6.854210   -9.594620    0.991220
  C      7.878770   -9.780020    2.105810
  C      5.469890  -11.106120   -0.513140
  C      4.715920  -11.923350    0.529330
  C     10.092840   -2.005740    1.302350
  C     11.448580   -1.345060    0.990520
  C     11.345400    0.081300    0.439610
  C     11.116460    0.135850   -1.067230
  C     12.275050   -1.373410    2.286940
  C     13.774490   -1.264200    2.037540
  H      1.866860    2.553480   -2.872210
  H      3.262660    6.523070   -0.199140
  H      6.944760    2.503860    0.864630
  H     14.859220  -17.944060    1.794140
  H     17.125480  -13.905320   -0.057480
  H     10.864930  -14.833350    0.027780
  H      8.471570    0.747040    1.147240
  H      9.271950  -12.978320   -0.948300
  H     13.082890   -3.544590   -0.610950
  H     11.598820   -3.302330   -1.585140
  H     13.292450   -5.850880   -1.500860
  H     13.257560   -4.654420   -2.801880
  H     11.825050   -5.629910   -2.464730
  H      7.020980   -6.267520   -3.728170
  H      5.609010   -6.449150   -2.651880
  H      6.825430   -8.683620   -4.350440
  H      5.352960   -7.781490   -4.734780
  H      5.400260   -8.831240   -3.313950
  H      7.739210  -11.143770   -2.000720
  H      7.235990   -9.456120   -1.765360
  H      7.349880  -11.605850    0.395590
  H      5.863870   -9.549260    1.446440
  H      7.022400   -8.636910    0.495020
  H      7.693210  -10.709310    2.640620
  H      7.812200   -8.959610    2.817000
  H      8.894040   -9.807740    1.719260
  H      5.538240  -11.694130   -1.431610
  H      4.911110  -10.196660   -0.744140
  H      5.238010  -12.856030    0.731190
  H      3.717270  -12.161290    0.171430
  H      4.619940  -11.378160    1.464760
  H     10.288780   -3.029710    1.628900
  H      9.621340   -1.461050    2.127410
  H     11.963020   -1.955210    0.250900
  H     12.280610    0.601500    0.652630
  H     10.557570    0.625060    0.960040
  H     11.942680   -0.342300   -1.590080
  H     11.058170    1.169920   -1.399300
  H     10.195430   -0.362330   -1.355820
  H     12.085980   -2.312780    2.810180
  H     11.949660   -0.559140    2.938170
  H     14.122590   -2.111320    1.450940
  H     14.311370   -1.262050    2.982870
  H     14.026170   -0.350750    1.504690

 Total Charge           Charge          ....    0
 Multiplicity           Mult            ....    1
 Number of Electrons    NEL             ....  578
 Basis Dimension        Dim             .... 1328

ORBITAL ENERGIES
----------------

  NO   OCC          E(Eh)            E(eV)
   0   2.0000     -91.973984     -2502.7394
   1   2.0000     -91.971691     -2502.6770
   2   2.0000     -91.971463     -2502.6708
   3   2.0000     -91.966724     -2502.5418
   4   2.0000     -26.335207      -716.6174
   5   2.0000     -26.332967      -716.5565
   6   2.0000     -26.332842      -716.5531
   7   2.0000     -26.332588      -716.5462
   8   2.0000     -20.615516      -560.9767
   9   2.0000     -20.602441      -560.6209
  10   2.0000     -20.570483      -559.7513
  11   2.0000     -20.565000      -559.6021
  12   2.0000     -15.645729      -425.7419
  13   2.0000     -15.643177      -425.6725
  14   2.0000     -15.594047      -424.3356
  15   2.0000     -15.589687      -424.2170
  16   2.0000     -15.587792      -424.1654
  17   2.0000     -15.583933      -424.0604
  18   2.0000     -11.377782      -309.6052
  19   2.0000     -11.376567      -309.5721
  20   2.0000     -11.376245      -309.5634
  21   2.0000     -11.374959      -309.5284
  22   2.0000     -11.368220      -309.3450
  23   2.0000     -11.364078      -309.2323
  24   2.0000     -11.352424      -308.9152
  25   2.0000     -11.343606      -308.6752
  26   2.0000     -11.339465      -308.5625
  27   2.0000     -11.333487      -308.3999
  28   2.0000     -11.322956      -308.1133
  29   2.0000     -11.321549      -308.0750
  30   2.0000     -11.321170      -308.0647
  31   2.0000     -11.321143      -308.0640
  32   2.0000     -11.319596      -308.0219
  33   2.0000     -11.318339      -307.9877
  34   2.0000     -11.316420      -307.9354
  35   2.0000     -11.311970      -307.8143
  36   2.0000     -11.309707      -307.7528
  37   2.0000     -11.305583      -307.6405
  38   2.0000     -11.303139      -307.5741
  39   2.0000     -11.302672      -307.5613
  40   2.0000     -11.302123      -307.5464
  41   2.0000     -11.300772      -307.5096
  42   2.0000     -11.299510      -307.4753
  43   2.0000     -11.299450      -307.4737
  44   2.0000     -11.299198      -307.4668
  45   2.0000     -11.298006      -307.4344
  46   2.0000     -11.297642      -307.4245
  47   2.0000     -11.297586      -307.4229
  48   2.0000     -11.297240      -307.4135
  49   2.0000     -11.295479      -307.3656
  50   2.0000     -11.295327      -307.3615
  51   2.0000     -11.294755      -307.3459
  52   2.0000     -11.294622      -307.3423
  53   2.0000     -11.294436      -307.3372
  54   2.0000     -11.294241      -307.3319
  55   2.0000     -11.293646      -307.3157
  56   2.0000     -11.293337      -307.3073
  57   2.0000     -11.292870      -307.2946
  58   2.0000     -11.292016      -307.2714
  59   2.0000     -11.288362      -307.1719
  60   2.0000     -11.287277      -307.1424
  61   2.0000     -11.286443      -307.1197
  62   2.0000     -11.284939      -307.0788
  63   2.0000     -11.283464      -307.0387
  64   2.0000     -11.273201      -306.7594
  65   2.0000     -11.272983      -306.7535
  66   2.0000     -11.252098      -306.1852
  67   2.0000     -11.245393      -306.0027
  68   2.0000     -11.243724      -305.9573
  69   2.0000     -11.241265      -305.8904
  70   2.0000     -11.238736      -305.8216
  71   2.0000     -11.238159      -305.8058
  72   2.0000     -11.237389      -305.7849
  73   2.0000     -11.234223      -305.6988
  74   2.0000     -11.233438      -305.6774
  75   2.0000     -11.231057      -305.6126
  76   2.0000     -11.229186      -305.5617
  77   2.0000     -11.225107      -305.4507
  78   2.0000      -9.008986      -245.1470
  79   2.0000      -9.006762      -245.0864
  80   2.0000      -9.005387      -245.0491
  81   2.0000      -9.002030      -244.9577
  82   2.0000      -6.696606      -182.2239
  83   2.0000      -6.695594      -182.1964
  84   2.0000      -6.694491      -182.1664
  85   2.0000      -6.693497      -182.1393
  86   2.0000      -6.693445      -182.1379
  87   2.0000      -6.692512      -182.1125
  88   2.0000      -6.691266      -182.0786
  89   2.0000      -6.690965      -182.0704
  90   2.0000      -6.689686      -182.0356
  91   2.0000      -6.689145      -182.0209
  92   2.0000      -6.688743      -182.0099
  93   2.0000      -6.686299      -181.9434
  94   2.0000      -1.644191       -44.7407
  95   2.0000      -1.642872       -44.7048
  96   2.0000      -1.629226       -44.3335
  97   2.0000      -1.627968       -44.2993
  98   2.0000      -1.437859       -39.1261
  99   2.0000      -1.420471       -38.6530
 100   2.0000      -1.404819       -38.2271
 101   2.0000      -1.397533       -38.0288
 102   2.0000      -1.344466       -36.5848
 103   2.0000      -1.344097       -36.5747
 104   2.0000      -1.253999       -34.1231
 105   2.0000      -1.251442       -34.0535
 106   2.0000      -1.233484       -33.5648
 107   2.0000      -1.229445       -33.4549
 108   2.0000      -1.226787       -33.3826
 109   2.0000      -1.223327       -33.2884
 110   2.0000      -1.220575       -33.2135
 111   2.0000      -1.199825       -32.6489
 112   2.0000      -1.198316       -32.6078
 113   2.0000      -1.186631       -32.2899
 114   2.0000      -1.170988       -31.8642
 115   2.0000      -1.169023       -31.8107
 116   2.0000      -1.136233       -30.9185
 117   2.0000      -1.121011       -30.5043
 118   2.0000      -1.106666       -30.1139
 119   2.0000      -1.105122       -30.0719
 120   2.0000      -1.103045       -30.0154
 121   2.0000      -1.093951       -29.7679
 122   2.0000      -1.085683       -29.5429
 123   2.0000      -1.082630       -29.4599
 124   2.0000      -1.072649       -29.1883
 125   2.0000      -1.071305       -29.1517
 126   2.0000      -1.060612       -28.8607
 127   2.0000      -1.048211       -28.5233
 128   2.0000      -1.032778       -28.1033
 129   2.0000      -1.029256       -28.0075
 130   2.0000      -1.026063       -27.9206
 131   2.0000      -1.024147       -27.8685
 132   2.0000      -1.021357       -27.7925
 133   2.0000      -1.018946       -27.7269
 134   2.0000      -1.016085       -27.6491
 135   2.0000      -0.995332       -27.0843
 136   2.0000      -0.983536       -26.7634
 137   2.0000      -0.975152       -26.5352
 138   2.0000      -0.959171       -26.1004
 139   2.0000      -0.946666       -25.7601
 140   2.0000      -0.944547       -25.7024
 141   2.0000      -0.942147       -25.6371
 142   2.0000      -0.936058       -25.4714
 143   2.0000      -0.911641       -24.8070
 144   2.0000      -0.901290       -24.5253
 145   2.0000      -0.890729       -24.2380
 146   2.0000      -0.888469       -24.1765
 147   2.0000      -0.886216       -24.1152
 148   2.0000      -0.872205       -23.7339
 149   2.0000      -0.864910       -23.5354
 150   2.0000      -0.861527       -23.4433
 151   2.0000      -0.851665       -23.1750
 152   2.0000      -0.844857       -22.9897
 153   2.0000      -0.844327       -22.9753
 154   2.0000      -0.833855       -22.6904
 155   2.0000      -0.825257       -22.4564
 156   2.0000      -0.820560       -22.3286
 157   2.0000      -0.810942       -22.0668
 158   2.0000      -0.806753       -21.9529
 159   2.0000      -0.803220       -21.8567
 160   2.0000      -0.796906       -21.6849
 161   2.0000      -0.793578       -21.5944
 162   2.0000      -0.790356       -21.5067
 163   2.0000      -0.785376       -21.3712
 164   2.0000      -0.784033       -21.3346
 165   2.0000      -0.781694       -21.2710
 166   2.0000      -0.774468       -21.0743
 167   2.0000      -0.772135       -21.0109
 168   2.0000      -0.768250       -20.9052
 169   2.0000      -0.756979       -20.5985
 170   2.0000      -0.750062       -20.4102
 171   2.0000      -0.742239       -20.1974
 172   2.0000      -0.741370       -20.1737
 173   2.0000      -0.740128       -20.1399
 174   2.0000      -0.739282       -20.1169
 175   2.0000      -0.728373       -19.8200
 176   2.0000      -0.725559       -19.7435
 177   2.0000      -0.722784       -19.6680
 178   2.0000      -0.715951       -19.4820
 179   2.0000      -0.713244       -19.4084
 180   2.0000      -0.712154       -19.3787
 181   2.0000      -0.712033       -19.3754
 182   2.0000      -0.709131       -19.2964
 183   2.0000      -0.704861       -19.1802
 184   2.0000      -0.698554       -19.0086
 185   2.0000      -0.696957       -18.9652
 186   2.0000      -0.693069       -18.8594
 187   2.0000      -0.687540       -18.7089
 188   2.0000      -0.682621       -18.5751
 189   2.0000      -0.677552       -18.4371
 190   2.0000      -0.675521       -18.3819
 191   2.0000      -0.673345       -18.3226
 192   2.0000      -0.667355       -18.1596
 193   2.0000      -0.665717       -18.1151
 194   2.0000      -0.664683       -18.0870
 195   2.0000      -0.662918       -18.0389
 196   2.0000      -0.650834       -17.7101
 197   2.0000      -0.647828       -17.6283
 198   2.0000      -0.643716       -17.5164
 199   2.0000      -0.637798       -17.3554
 200   2.0000      -0.634996       -17.2791
 201   2.0000      -0.632264       -17.2048
 202   2.0000      -0.629863       -17.1394
 203   2.0000      -0.627063       -17.0633
 204   2.0000      -0.625710       -17.0264
 205   2.0000      -0.624063       -16.9816
 206   2.0000      -0.622399       -16.9363
 207   2.0000      -0.620821       -16.8934
 208   2.0000      -0.618218       -16.8226
 209   2.0000      -0.616658       -16.7801
 210   2.0000      -0.613608       -16.6971
 211   2.0000      -0.610675       -16.6173
 212   2.0000      -0.610063       -16.6007
 213   2.0000      -0.605527       -16.4772
 214   2.0000      -0.603076       -16.4105
 215   2.0000      -0.600509       -16.3407
 216   2.0000      -0.594722       -16.1832
 217   2.0000      -0.590808       -16.0767
 218   2.0000      -0.587201       -15.9786
 219   2.0000      -0.586263       -15.9530
 220   2.0000      -0.584313       -15.9000
 221   2.0000      -0.582451       -15.8493
 222   2.0000      -0.580468       -15.7953
 223   2.0000      -0.579383       -15.7658
 224   2.0000      -0.578964       -15.7544
 225   2.0000      -0.577204       -15.7065
 226   2.0000      -0.574951       -15.6452
 227   2.0000      -0.573883       -15.6162
 228   2.0000      -0.572007       -15.5651
 229   2.0000      -0.571122       -15.5410
 230   2.0000      -0.567302       -15.4371
 231   2.0000      -0.564105       -15.3501
 232   2.0000      -0.563348       -15.3295
 233   2.0000      -0.560783       -15.2597
 234   2.0000      -0.558982       -15.2107
 235   2.0000      -0.556089       -15.1320
 236   2.0000      -0.551326       -15.0024
 237   2.0000      -0.549060       -14.9407
 238   2.0000      -0.545656       -14.8481
 239   2.0000      -0.542040       -14.7497
 240   2.0000      -0.540740       -14.7143
 241   2.0000      -0.536468       -14.5980
 242   2.0000      -0.534600       -14.5472
 243   2.0000      -0.533594       -14.5198
 244   2.0000      -0.527877       -14.3643
 245   2.0000      -0.523191       -14.2368
 246   2.0000      -0.521847       -14.2002
 247   2.0000      -0.517720       -14.0879
 248   2.0000      -0.515684       -14.0325
 249   2.0000      -0.514661       -14.0046
 250   2.0000      -0.510892       -13.9021
 251   2.0000      -0.510532       -13.8923
 252   2.0000      -0.508760       -13.8441
 253   2.0000      -0.507391       -13.8068
 254   2.0000      -0.502947       -13.6859
 255   2.0000      -0.500179       -13.6106
 256   2.0000      -0.499783       -13.5998
 257   2.0000      -0.496584       -13.5127
 258   2.0000      -0.495453       -13.4820
 259   2.0000      -0.491518       -13.3749
 260   2.0000      -0.487956       -13.2780
 261   2.0000      -0.483891       -13.1673
 262   2.0000      -0.481267       -13.0959
 263   2.0000      -0.478847       -13.0301
 264   2.0000      -0.476787       -12.9740
 265   2.0000      -0.476083       -12.9549
 266   2.0000      -0.471337       -12.8257
 267   2.0000      -0.469436       -12.7740
 268   2.0000      -0.466520       -12.6946
 269   2.0000      -0.466029       -12.6813
 270   2.0000      -0.462051       -12.5731
 271   2.0000      -0.457047       -12.4369
 272   2.0000      -0.449533       -12.2324
 273   2.0000      -0.447034       -12.1644
 274   2.0000      -0.436764       -11.8850
 275   2.0000      -0.423050       -11.5118
 276   2.0000      -0.408208       -11.1079
 277   2.0000      -0.404356       -11.0031
 278   2.0000      -0.392758       -10.6875
 279   2.0000      -0.391182       -10.6446
 280   2.0000      -0.381266       -10.3748
 281   2.0000      -0.369033       -10.0419
 282   2.0000      -0.356979        -9.7139
 283   2.0000      -0.351318        -9.5598
 284   2.0000      -0.348578        -9.4853
 285   2.0000      -0.328552        -8.9404
 286   2.0000      -0.301674        -8.2090
 287   2.0000      -0.298625        -8.1260
 288   2.0000      -0.257153        -6.9975
 289   0.0000      -0.032634        -0.8880
 290   0.0000      -0.015780        -0.4294
 291   0.0000       0.013655         0.3716
 292   0.0000       0.021539         0.5861
 293   0.0000       0.051751         1.4082

MULLIKEN ATOMIC CHARGES
-----------------------
   0 C :    0.531217
   1 O :   -0.392462
   2 C :   -0.175360
   3 C :   -0.031886
   4 C :    0.345959
   5 C :    0.353699
   6 C :   -0.052531
   7 C :   -0.029471
   8 C :    0.267957
   9 C :   -0.383966
  10 C :    0.038075
  11 N :   -0.080994
  12 C :    0.030514
  13 N :   -0.066702
  14 C :   -0.320159
  15 F :   -0.309521
  16 C :    0.085593
  17 F :   -0.312568
  18 C :    0.476159
  19 O :   -0.351590
  20 C :   -0.165307
  21 C :   -0.027944
  22 C :    0.340595
  23 C :    0.353242
  24 C :   -0.052145
  25 C :   -0.046465
  26 C :    0.226247
  27 C :   -0.331980
  28 C :    0.043430
  29 N :   -0.059919
  30 C :    0.032693
  31 N :   -0.064354
  32 C :   -0.332656
  33 F :   -0.310014
  34 C :    0.174461
  35 F :   -0.313398
  36 C :   -0.143176
  37 C :   -0.041795
  38 C :    0.230068
  39 C :   -0.077822
  40 S :    0.254112
  41 N :   -0.584455
  42 C :    0.254275
  43 C :   -0.142905
  44 C :   -0.033913
  45 C :   -0.126293
  46 S :    0.144964
  47 C :    0.196474
  48 C :   -0.086433
  49 C :   -0.071735
  50 C :    0.323282
  51 S :    0.214793
  52 C :   -0.156103
  53 C :    0.249778
  54 C :   -0.102191
  55 C :    0.210806
  56 N :   -0.565228
  57 S :    0.174660
  58 C :   -0.210323
  59 C :    0.051723
  60 O :   -0.605898
  61 O :   -0.615051
  62 C :    0.165444
  63 C :   -0.031253
  64 C :    0.170866
  65 C :   -0.039379
  66 C :    0.263505
  67 C :   -0.254788
  68 C :   -0.050083
  69 C :   -0.019550
  70 C :   -0.061222
  71 C :    0.002691
  72 C :    0.285461
  73 C :   -0.245816
  74 C :   -0.047305
  75 C :   -0.013527
  76 C :   -0.059452
  77 C :   -0.003559
  78 H :    0.077707
  79 H :    0.096692
  80 H :    0.081384
  81 H :    0.079141
  82 H :    0.092160
  83 H :    0.082680
  84 H :    0.067147
  85 H :    0.050812
  86 H :    0.058603
  87 H :    0.044361
  88 H :    0.059988
  89 H :    0.043107
  90 H :    0.055230
  91 H :    0.056363
  92 H :    0.062499
  93 H :    0.049883
  94 H :    0.049350
  95 H :    0.045904
  96 H :    0.037783
  97 H :    0.099638
  98 H :    0.030994
  99 H :    0.031760
 100 H :    0.040225
 101 H :    0.026096
 102 H :    0.031795
 103 H :    0.054074
 104 H :    0.023127
 105 H :    0.031749
 106 H :    0.025783
 107 H :    0.035140
 108 H :    0.028341
 109 H :    0.071779
 110 H :    0.039141
 111 H :    0.037250
 112 H :    0.036584
 113 H :    0.011982
 114 H :    0.024398
 115 H :    0.035297
 116 H :    0.049144
 117 H :    0.033389
 118 H :    0.029767
 119 H :    0.026150
 120 H :    0.037082
 121 H :    0.026427
Sum of atomic charges:   -0.0000000

LOEWDIN ATOMIC CHARGES
----------------------
   0 C :    0.167201
   1 O :   -0.250694
   2 C :   -0.050763
   3 C :    0.009563
   4 C :    0.123256
   5 C :    0.123998
   6 C :   -0.001284
   7 C :   -0.023134
   8 C :    0.122571
   9 C :   -0.181535
  10 C :    0.015040
  11 N :   -0.101454
  12 C :    0.011841
  13 N :   -0.094693
  14 C :   -0.176514
  15 F :   -0.109003
  16 C :    0.115499
  17 F :   -0.110724
  18 C :    0.165640
  19 O :   -0.231872
  20 C :   -0.055867
  21 C :    0.011722
  22 C :    0.120143
  23 C :    0.126713
  24 C :   -0.006246
  25 C :   -0.018018
  26 C :    0.099387
  27 C :   -0.165707
  28 C :    0.000775
  29 N :   -0.091701
  30 C :    0.011111
  31 N :   -0.090485
  32 C :   -0.158542
  33 F :   -0.108975
  34 C :    0.112841
  35 F :   -0.111724
  36 C :   -0.206386
  37 C :    0.015348
  38 C :   -0.021363
  39 C :   -0.180848
  40 S :    0.469894
  41 N :   -0.025900
  42 C :    0.044266
  43 C :   -0.233267
  44 C :   -0.064841
  45 C :   -0.169060
  46 S :    0.379516
  47 C :    0.041105
  48 C :   -0.141630
  49 C :   -0.072094
  50 C :    0.077635
  51 S :    0.402052
  52 C :   -0.228093
  53 C :    0.036072
  54 C :   -0.183255
  55 C :   -0.015818
  56 N :   -0.004711
  57 S :    0.418345
  58 C :   -0.202022
  59 C :    0.020944
  60 O :   -0.211186
  61 O :   -0.184691
  62 C :    0.123357
  63 C :   -0.047700
  64 C :    0.119257
  65 C :   -0.034494
  66 C :    0.080181
  67 C :   -0.033676
  68 C :   -0.018180
  69 C :   -0.031188
  70 C :   -0.017541
  71 C :   -0.029205
  72 C :    0.087646
  73 C :   -0.031591
  74 C :   -0.018710
  75 C :   -0.034037
  76 C :   -0.013510
  77 C :   -0.029107
  78 H :    0.055550
  79 H :    0.054881
  80 H :    0.050721
  81 H :    0.055832
  82 H :    0.054192
  83 H :    0.055412
  84 H :    0.037833
  85 H :    0.038046
  86 H :    0.016335
  87 H :    0.005498
  88 H :    0.018127
  89 H :    0.026831
  90 H :    0.021975
  91 H :    0.009480
  92 H :    0.005520
  93 H :    0.024807
  94 H :    0.027953
  95 H :    0.021208
  96 H :    0.014823
  97 H :    0.024379
  98 H :    0.005825
  99 H :    0.013022
 100 H :    0.013444
 101 H :    0.013081
 102 H :    0.017112
 103 H :    0.017158
 104 H :    0.009929
 105 H :    0.012186
 106 H :    0.014559
 107 H :    0.018202
 108 H :    0.014566
 109 H :    0.028320
 110 H :    0.017924
 111 H :    0.013306
 112 H :    0.016937
 113 H :    0.005315
 114 H :    0.012573
 115 H :    0.018426
 116 H :    0.014450
 117 H :    0.015085
 118 H :    0.012814
 119 H :    0.013755
 120 H :    0.019754
 121 H :    0.012974

  Mayer bond orders larger than 0.100000
B(  0-C ,  1-O ) :   2.0050 B(  0-C ,  2-C ) :   0.9838 B(  0-C , 14-C ) :   0.9963
B(  2-C ,  3-C ) :   1.3915 B(  2-C ,  7-C ) :   1.3711 B(  3-C ,  4-C ) :   1.3762
B(  3-C , 78-H ) :   1.0139 B(  4-C ,  5-C ) :   1.3408 B(  4-C , 17-F ) :   0.9345
B(  5-C ,  6-C ) :   1.4017 B(  5-C , 15-F ) :   0.9437 B(  6-C ,  7-C ) :   1.3766
B(  6-C , 79-H ) :   0.9901 B(  7-C ,  8-C ) :   1.0391 B(  8-C ,  9-C ) :   1.6577
B(  8-C , 14-C ) :   1.1311 B(  9-C , 10-C ) :   1.0718 B(  9-C , 12-C ) :   1.0663
B( 10-C , 11-N ) :   2.9691 B( 12-C , 13-N ) :   2.9840 B( 14-C , 16-C ) :   1.5493
B( 16-C , 36-C ) :   1.3407 B( 16-C , 80-H ) :   0.9610 B( 18-C , 19-O ) :   2.1082
B( 18-C , 20-C ) :   0.9471 B( 18-C , 32-C ) :   0.9973 B( 20-C , 21-C ) :   1.3875
B( 20-C , 25-C ) :   1.3649 B( 21-C , 22-C ) :   1.3845 B( 21-C , 81-H ) :   1.0130
B( 22-C , 23-C ) :   1.3385 B( 22-C , 35-F ) :   0.9339 B( 23-C , 24-C ) :   1.4024
B( 23-C , 33-F ) :   0.9409 B( 24-C , 25-C ) :   1.3837 B( 24-C , 82-H ) :   0.9934
B( 25-C , 26-C ) :   1.0433 B( 26-C , 27-C ) :   1.7092 B( 26-C , 32-C ) :   1.0751
B( 27-C , 28-C ) :   1.0664 B( 27-C , 30-C ) :   1.0567 B( 28-C , 29-N ) :   3.0180
B( 30-C , 31-N ) :   2.9982 B( 32-C , 34-C ) :   1.6774 B( 34-C , 58-C ) :   1.1989
B( 34-C , 83-H ) :   0.9623 B( 36-C , 37-C ) :   1.4154 B( 36-C , 40-S ) :   1.0228
B( 37-C , 38-C ) :   1.3335 B( 37-C , 84-H ) :   1.0149 B( 38-C , 39-C ) :   1.3545
B( 38-C , 41-N ) :   1.0584 B( 39-C , 40-S ) :   1.0216 B( 39-C , 43-C ) :   1.5100
B( 41-N , 42-C ) :   1.1413 B( 41-N , 72-C ) :   0.8356 B( 42-C , 43-C ) :   1.4885
B( 42-C , 44-C ) :   1.1626 B( 43-C , 46-S ) :   0.9516 B( 44-C , 45-C ) :   1.3067
B( 44-C , 47-C ) :   1.3487 B( 45-C , 46-S ) :   0.9872 B( 45-C , 50-C ) :   1.4851
B( 47-C , 48-C ) :   1.4691 B( 47-C , 60-O ) :   1.0525 B( 48-C , 49-C ) :   1.3600
B( 48-C , 51-S ) :   1.0422 B( 49-C , 50-C ) :   1.3626 B( 49-C , 53-C ) :   1.1495
B( 50-C , 61-O ) :   1.0036 B( 51-S , 52-C ) :   0.9292 B( 52-C , 53-C ) :   1.4826
B( 52-C , 54-C ) :   1.5658 B( 53-C , 56-N ) :   1.1485 B( 54-C , 55-C ) :   1.3909
B( 54-C , 57-S ) :   1.0138 B( 55-C , 56-N ) :   1.0805 B( 55-C , 59-C ) :   1.2869
B( 56-N , 66-C ) :   0.8477 B( 57-S , 58-C ) :   1.0513 B( 58-C , 59-C ) :   1.4877
B( 59-C , 85-H ) :   1.0062 B( 60-O , 62-C ) :   0.8087 B( 61-O , 64-C ) :   0.8164
B( 62-C , 63-C ) :   1.0483 B( 62-C , 86-H ) :   0.9695 B( 62-C , 87-H ) :   0.9762
B( 63-C , 88-H ) :   0.9754 B( 63-C , 89-H ) :   0.9778 B( 63-C , 90-H ) :   0.9810
B( 64-C , 65-C ) :   1.0565 B( 64-C , 91-H ) :   0.9753 B( 64-C , 92-H ) :   0.9674
B( 65-C , 93-H ) :   0.9827 B( 65-C , 94-H ) :   0.9811 B( 65-C , 95-H ) :   0.9818
B( 66-C , 67-C ) :   1.0129 B( 66-C , 96-H ) :   0.9767 B( 66-C , 97-H ) :   0.9608
B( 67-C , 68-C ) :   0.9409 B( 67-C , 70-C ) :   1.0163 B( 67-C , 98-H ) :   0.9678
B( 68-C , 69-C ) :   1.0404 B( 68-C , 99-H ) :   0.9819 B( 68-C ,100-H ) :   0.9761
B( 69-C ,101-H ) :   0.9849 B( 69-C ,102-H ) :   0.9865 B( 69-C ,103-H ) :   0.9864
B( 70-C , 71-C ) :   1.0444 B( 70-C ,104-H ) :   0.9777 B( 70-C ,105-H ) :   0.9674
B( 71-C ,106-H ) :   0.9840 B( 71-C ,107-H ) :   0.9869 B( 71-C ,108-H ) :   0.9850
B( 72-C , 73-C ) :   1.0119 B( 72-C ,109-H ) :   0.9763 B( 72-C ,110-H ) :   0.9759
B( 73-C , 74-C ) :   0.9683 B( 73-C , 76-C ) :   1.0161 B( 73-C ,111-H ) :   0.9590
B( 74-C , 75-C ) :   1.0407 B( 74-C ,112-H ) :   0.9772 B( 74-C ,113-H ) :   0.9732
B( 75-C ,114-H ) :   0.9815 B( 75-C ,115-H ) :   0.9859 B( 75-C ,116-H ) :   0.9877
B( 76-C , 77-C ) :   1.0460 B( 76-C ,117-H ) :   0.9783 B( 76-C ,118-H ) :   0.9690
B( 77-C ,119-H ) :   0.9845 B( 77-C ,120-H ) :   0.9857 B( 77-C ,121-H ) :   0.9842

-----------------------------------------------------------------------------
         ABSORPTION SPECTRUM VIA TRANSITION ELECTRIC DIPOLE MOMENTS
-----------------------------------------------------------------------------
State   Energy    Wavelength  fosc         T2        TX        TY        TZ
        (cm-1)      (nm)                 (au**2)    (au)      (au)      (au)
-----------------------------------------------------------------------------
   1   21440.0    466.4   3.005823074  46.15453  -3.50338   5.81947   0.12100
   2   25812.4    387.4   0.299002095   3.81349  -0.27964   1.93265   0.01235
   3   32823.1    304.7   0.191803692   1.92377   0.90934  -0.04937   1.04615

FINAL SINGLE POINT ENERGY     -4908.377919865271

DIPOLE MOMENT
-------------
                                X             Y             Z
Electronic contribution:      3.53639       7.91871      -7.68418
Nuclear contribution   :     -5.57548      -9.15199       7.19561
                        -----------------------------------------
Total Dipole Moment    :     -2.03909      -1.23328      -0.48856
                        -----------------------------------------
Magnitude (a.u.)       :      2.43260
Magnitude (Debye)      :      6.18318

Rotational constants in cm-1:     0.001877     0.000231     0.000214
Rotational constants in MHz :    56.265972     6.927801     6.420128

                             ****ORCA TERMINATED NORMALLY****
TOTAL RUN TIME: 0 days 17 hours 24 minutes 34 seconds 751 msec
