                         Program Version 4.2.0 -  RELEASE  -
|  1> # ORCA input file
|  2> # BDTN-Th.out
|  3> ! Engrad Keepdens
|  4> %maxcore 1000
|  5> %tddft
|  6>   nroots 3
|  7>   # nroots is the number of states to be computed
|  8>   Iroot 1
|  9>   end
| 10> * xyz 0 1
| 11>    C        2.60451         2.77279         1.26833
| 12>    O        2.67041         3.58666         0.37659
| 13>    C        2.15387         2.96298         2.65663
| 14>    C        2.19193         1.70569         3.34559
| 15>    C        2.60741         0.67219         2.41667
| 16>    C        2.38898        -0.67045         2.60135
| 17>    C        1.95896        -1.18529         3.83869
| 18>    N        1.65167        -1.62710         4.85301
| 19>    C        2.49412        -1.63443         1.58274
| 20>    N        2.51532        -2.44888         0.77350
| 21>    C        3.02442         1.34263         1.20392
| 22>    C        3.75727         0.90654         0.13720
| 23>    C       12.47364       -14.61491         1.71233
| 24>    O       12.32805       -13.54023         2.26350
| 25>    C       13.05731       -15.83414         2.28656
| 26>    C       13.04462       -16.87185         1.29933
| 27>    C       12.45700       -16.35564         0.07743
| 28>    C       12.28987       -17.09382        -1.06791
| 29>    C       12.69583       -18.44218        -1.13124
| 30>    N       13.02287       -19.54025        -1.20261
| 31>    C       11.72270       -16.64478        -2.27442
| 32>    N       11.26706       -16.34715        -3.28696
| 33>    C       12.10580       -14.97077         0.33011
| 34>    C       11.52047       -14.13382        -0.58778
| 35>    C        4.58397        -0.23245         0.04888
| 36>    C        5.20296        -0.93715         1.07066
| 37>    C        5.98527        -1.97882         0.58395
| 38>    C        5.94566        -2.09190        -0.82772
| 39>    S        4.99385        -0.85875        -1.54795
| 40>    N        6.77951        -2.96404         1.11188
| 41>    C        7.22506        -3.72480         0.05763
| 42>    C        6.70563        -3.21119        -1.14463
| 43>    C        7.99360        -4.90672        -0.13609
| 44>    C        7.93872        -5.33467        -1.49686
| 45>    S        7.08197        -4.17405        -2.52515
| 46>    C        8.75761        -5.65385         0.76952
| 47>    C        9.20078        -6.89940         0.36439
| 48>    C        9.02018        -7.40949        -0.94785
| 49>    C        8.47394        -6.54425        -1.92552
| 50>    S       10.03133        -7.97073         1.46522
| 51>    C       10.09044        -9.16157         0.21295
| 52>    C        9.52064        -8.74388        -1.01152
| 53>    C       10.51715       -10.47629         0.06425
| 54>    C       10.18083       -10.83654        -1.26598
| 55>    N        9.58776        -9.77956        -1.90889
| 56>    S       11.26265       -11.76026         0.93364
| 57>    C       11.11728       -12.79655        -0.48960
| 58>    C       10.52039       -12.14046        -1.57253
| 59>    O        9.08657        -5.20842         2.02775
| 60>    O        8.51645        -6.99738        -3.20421
| 61>    C       10.12359        -4.23171         2.03965
| 62>    C       11.46619        -4.77067         1.56325
| 63>    C        8.38275        -6.12341        -4.31500
| 64>    C        8.90303        -6.85465        -5.54377
| 65>    C        8.99807        -9.92727        -3.21374
| 66>    C        7.66315       -10.69383        -3.18099
| 67>    C        6.63127        -9.97599        -2.29554
| 68>    C        6.55855       -10.53521        -0.87851
| 69>    C        7.15754       -10.85599        -4.62073
| 70>    C        6.11050       -11.95549        -4.75390
| 71>    C        6.81103        -3.27955         2.52108
| 72>    C        6.02809        -4.55699         2.87019
| 73>    C        6.10569        -4.82137         4.37834
| 74>    C        7.52022        -5.04825         4.90221
| 75>    C        4.56869        -4.44889         2.41257
| 76>    C        3.85829        -5.79527         2.34913
| 77>    C        1.71828         3.98321         3.43687
| 78>    S        1.35552         3.42560         5.02955
| 79>    C        1.78229         1.79986         4.63881
| 80>    C       13.58970       -16.22640         3.47034
| 81>    S       14.08704       -17.87773         3.39771
| 82>    C       13.57226       -18.03887         1.75846
| 83>    H        3.74616         1.56107        -0.72860
| 84>    H       11.32284       -14.56236        -1.56356
| 85>    H        5.11021        -0.65989         2.10536
| 86>    H       10.35978       -12.63007        -2.51633
| 87>    H       10.19503        -3.92415         3.08575
| 88>    H        9.83097        -3.36723         1.42604
| 89>    H       11.75257        -5.63641         2.15448
| 90>    H       12.22318        -3.99903         1.67249
| 91>    H       11.41377        -5.06362         0.51651
| 92>    H        8.96616        -5.21199        -4.14611
| 93>    H        7.33076        -5.85335        -4.46114
| 94>    H        9.93828        -7.15098        -5.39575
| 95>    H        8.84272        -6.19625        -6.40503
| 96>    H        8.30778        -7.74295        -5.73748
| 97>    H        9.71459       -10.47090        -3.83819
| 98>    H        8.83788        -8.93939        -3.63599
| 99>    H        7.84833       -11.69101        -2.76765
|100>    H        5.64232       -10.06928        -2.74679
|101>    H        6.86656        -8.91107        -2.25702
|102>    H        6.27755       -11.58620        -0.89987
|103>    H        5.81162        -9.99535        -0.30051
|104>    H        7.51048       -10.44893        -0.36176
|105>    H        8.00000       -11.10003        -5.27243
|106>    H        6.74031        -9.90577        -4.96152
|107>    H        6.53115       -12.91631        -4.46602
|108>    H        5.76791       -12.02717        -5.78331
|109>    H        5.24826       -11.75812        -4.12212
|110>    H        6.37858        -2.42776         3.05006
|111>    H        7.84456        -3.40234         2.83960
|112>    H        6.50192        -5.39296         2.34634
|113>    H        5.51399        -5.71185         4.59187
|114>    H        5.64525        -3.98665         4.91321
|115>    H        8.05791        -5.74031         4.25954
|116>    H        7.48132        -5.46563         5.90561
|117>    H        8.08050        -4.11766         4.95277
|118>    H        4.52439        -4.00259         1.41709
|119>    H        4.02573        -3.78511         3.09049
|120>    H        4.39560        -6.47729         1.69307
|121>    H        2.85374        -5.65996         1.95679
|122>    H        3.77994        -6.25161         3.33226
|123>    H        1.58265         5.01592         3.18573
|124>    H        1.70885         1.03822         5.38924
|125>    H       13.72226       -15.66334         4.37222
|126>    H       13.69681       -18.97836         1.25858
|127> *
|128>
|129>                          ****END OF INPUT****

CARTESIAN COORDINATES (ANGSTROEM)
---------------------------------
  C      2.604510    2.772790    1.268330
  O      2.670410    3.586660    0.376590
  C      2.153870    2.962980    2.656630
  C      2.191930    1.705690    3.345590
  C      2.607410    0.672190    2.416670
  C      2.388980   -0.670450    2.601350
  C      1.958960   -1.185290    3.838690
  N      1.651670   -1.627100    4.853010
  C      2.494120   -1.634430    1.582740
  N      2.515320   -2.448880    0.773500
  C      3.024420    1.342630    1.203920
  C      3.757270    0.906540    0.137200
  C     12.473640  -14.614910    1.712330
  O     12.328050  -13.540230    2.263500
  C     13.057310  -15.834140    2.286560
  C     13.044620  -16.871850    1.299330
  C     12.457000  -16.355640    0.077430
  C     12.289870  -17.093820   -1.067910
  C     12.695830  -18.442180   -1.131240
  N     13.022870  -19.540250   -1.202610
  C     11.722700  -16.644780   -2.274420
  N     11.267060  -16.347150   -3.286960
  C     12.105800  -14.970770    0.330110
  C     11.520470  -14.133820   -0.587780
  C      4.583970   -0.232450    0.048880
  C      5.202960   -0.937150    1.070660
  C      5.985270   -1.978820    0.583950
  C      5.945660   -2.091900   -0.827720
  S      4.993850   -0.858750   -1.547950
  N      6.779510   -2.964040    1.111880
  C      7.225060   -3.724800    0.057630
  C      6.705630   -3.211190   -1.144630
  C      7.993600   -4.906720   -0.136090
  C      7.938720   -5.334670   -1.496860
  S      7.081970   -4.174050   -2.525150
  C      8.757610   -5.653850    0.769520
  C      9.200780   -6.899400    0.364390
  C      9.020180   -7.409490   -0.947850
  C      8.473940   -6.544250   -1.925520
  S     10.031330   -7.970730    1.465220
  C     10.090440   -9.161570    0.212950
  C      9.520640   -8.743880   -1.011520
  C     10.517150  -10.476290    0.064250
  C     10.180830  -10.836540   -1.265980
  N      9.587760   -9.779560   -1.908890
  S     11.262650  -11.760260    0.933640
  C     11.117280  -12.796550   -0.489600
  C     10.520390  -12.140460   -1.572530
  O      9.086570   -5.208420    2.027750
  O      8.516450   -6.997380   -3.204210
  C     10.123590   -4.231710    2.039650
  C     11.466190   -4.770670    1.563250
  C      8.382750   -6.123410   -4.315000
  C      8.903030   -6.854650   -5.543770
  C      8.998070   -9.927270   -3.213740
  C      7.663150  -10.693830   -3.180990
  C      6.631270   -9.975990   -2.295540
  C      6.558550  -10.535210   -0.878510
  C      7.157540  -10.855990   -4.620730
  C      6.110500  -11.955490   -4.753900
  C      6.811030   -3.279550    2.521080
  C      6.028090   -4.556990    2.870190
  C      6.105690   -4.821370    4.378340
  C      7.520220   -5.048250    4.902210
  C      4.568690   -4.448890    2.412570
  C      3.858290   -5.795270    2.349130
  C      1.718280    3.983210    3.436870
  S      1.355520    3.425600    5.029550
  C      1.782290    1.799860    4.638810
  C     13.589700  -16.226400    3.470340
  S     14.087040  -17.877730    3.397710
  C     13.572260  -18.038870    1.758460
  H      3.746160    1.561070   -0.728600
  H     11.322840  -14.562360   -1.563560
  H      5.110210   -0.659890    2.105360
  H     10.359780  -12.630070   -2.516330
  H     10.195030   -3.924150    3.085750
  H      9.830970   -3.367230    1.426040
  H     11.752570   -5.636410    2.154480
  H     12.223180   -3.999030    1.672490
  H     11.413770   -5.063620    0.516510
  H      8.966160   -5.211990   -4.146110
  H      7.330760   -5.853350   -4.461140
  H      9.938280   -7.150980   -5.395750
  H      8.842720   -6.196250   -6.405030
  H      8.307780   -7.742950   -5.737480
  H      9.714590  -10.470900   -3.838190
  H      8.837880   -8.939390   -3.635990
  H      7.848330  -11.691010   -2.767650
  H      5.642320  -10.069280   -2.746790
  H      6.866560   -8.911070   -2.257020
  H      6.277550  -11.586200   -0.899870
  H      5.811620   -9.995350   -0.300510
  H      7.510480  -10.448930   -0.361760
  H      8.000000  -11.100030   -5.272430
  H      6.740310   -9.905770   -4.961520
  H      6.531150  -12.916310   -4.466020
  H      5.767910  -12.027170   -5.783310
  H      5.248260  -11.758120   -4.122120
  H      6.378580   -2.427760    3.050060
  H      7.844560   -3.402340    2.839600
  H      6.501920   -5.392960    2.346340
  H      5.513990   -5.711850    4.591870
  H      5.645250   -3.986650    4.913210
  H      8.057910   -5.740310    4.259540
  H      7.481320   -5.465630    5.905610
  H      8.080500   -4.117660    4.952770
  H      4.524390   -4.002590    1.417090
  H      4.025730   -3.785110    3.090490
  H      4.395600   -6.477290    1.693070
  H      2.853740   -5.659960    1.956790
  H      3.779940   -6.251610    3.332260
  H      1.582650    5.015920    3.185730
  H      1.708850    1.038220    5.389240
  H     13.722260  -15.663340    4.372220
  H     13.696810  -18.978360    1.258580

 Total Charge           Charge          ....    0
 Multiplicity           Mult            ....    1
 Number of Electrons    NEL             ....  550
 Basis Dimension        Dim             .... 1252

ORBITAL ENERGIES
----------------

  NO   OCC          E(Eh)            E(eV)
   0   2.0000     -91.991344     -2503.2117
   1   2.0000     -91.982397     -2502.9683
   2   2.0000     -91.975596     -2502.7832
   3   2.0000     -91.968582     -2502.5923
   4   2.0000     -91.961238     -2502.3925
   5   2.0000     -91.960034     -2502.3597
   6   2.0000     -20.613170      -560.9129
   7   2.0000     -20.599098      -560.5299
   8   2.0000     -20.558843      -559.4346
   9   2.0000     -20.553959      -559.3017
  10   2.0000     -15.642645      -425.6580
  11   2.0000     -15.634705      -425.4419
  12   2.0000     -15.588814      -424.1932
  13   2.0000     -15.585845      -424.1124
  14   2.0000     -15.581223      -423.9866
  15   2.0000     -15.574295      -423.7981
  16   2.0000     -11.361184      -309.1535
  17   2.0000     -11.355654      -309.0030
  18   2.0000     -11.350441      -308.8612
  19   2.0000     -11.340279      -308.5847
  20   2.0000     -11.330062      -308.3066
  21   2.0000     -11.326971      -308.2226
  22   2.0000     -11.318467      -307.9911
  23   2.0000     -11.318239      -307.9850
  24   2.0000     -11.315589      -307.9128
  25   2.0000     -11.314908      -307.8943
  26   2.0000     -11.312552      -307.8302
  27   2.0000     -11.310454      -307.7731
  28   2.0000     -11.310342      -307.7701
  29   2.0000     -11.310113      -307.7638
  30   2.0000     -11.309973      -307.7600
  31   2.0000     -11.304447      -307.6096
  32   2.0000     -11.301754      -307.5364
  33   2.0000     -11.301576      -307.5315
  34   2.0000     -11.301455      -307.5282
  35   2.0000     -11.300585      -307.5045
  36   2.0000     -11.299820      -307.4837
  37   2.0000     -11.298487      -307.4475
  38   2.0000     -11.297606      -307.4235
  39   2.0000     -11.295589      -307.3686
  40   2.0000     -11.293766      -307.3190
  41   2.0000     -11.293507      -307.3119
  42   2.0000     -11.293204      -307.3037
  43   2.0000     -11.291968      -307.2701
  44   2.0000     -11.288890      -307.1863
  45   2.0000     -11.288255      -307.1690
  46   2.0000     -11.287258      -307.1419
  47   2.0000     -11.287105      -307.1377
  48   2.0000     -11.286875      -307.1315
  49   2.0000     -11.285828      -307.1030
  50   2.0000     -11.285736      -307.1005
  51   2.0000     -11.285043      -307.0816
  52   2.0000     -11.281282      -306.9793
  53   2.0000     -11.279019      -306.9177
  54   2.0000     -11.274924      -306.8063
  55   2.0000     -11.274531      -306.7956
  56   2.0000     -11.273803      -306.7758
  57   2.0000     -11.271863      -306.7230
  58   2.0000     -11.262532      -306.4691
  59   2.0000     -11.262241      -306.4612
  60   2.0000     -11.249729      -306.1207
  61   2.0000     -11.238352      -305.8111
  62   2.0000     -11.238025      -305.8022
  63   2.0000     -11.234206      -305.6983
  64   2.0000     -11.232164      -305.6427
  65   2.0000     -11.227062      -305.5039
  66   2.0000     -11.225605      -305.4643
  67   2.0000     -11.225145      -305.4517
  68   2.0000     -11.217943      -305.2557
  69   2.0000     -11.216893      -305.2272
  70   2.0000     -11.216163      -305.2073
  71   2.0000     -11.210953      -305.0655
  72   2.0000      -9.027573      -245.6528
  73   2.0000      -9.018692      -245.4111
  74   2.0000      -9.010668      -245.1927
  75   2.0000      -9.003733      -245.0040
  76   2.0000      -8.996476      -244.8066
  77   2.0000      -8.993582      -244.7278
  78   2.0000      -6.714900      -182.7217
  79   2.0000      -6.713717      -182.6895
  80   2.0000      -6.712184      -182.6478
  81   2.0000      -6.706037      -182.4806
  82   2.0000      -6.704849      -182.4482
  83   2.0000      -6.703308      -182.4063
  84   2.0000      -6.698248      -182.2686
  85   2.0000      -6.697269      -182.2420
  86   2.0000      -6.695120      -182.1835
  87   2.0000      -6.691480      -182.0844
  88   2.0000      -6.690481      -182.0573
  89   2.0000      -6.687948      -181.9883
  90   2.0000      -6.684125      -181.8843
  91   2.0000      -6.683191      -181.8589
  92   2.0000      -6.680759      -181.7927
  93   2.0000      -6.680701      -181.7911
  94   2.0000      -6.679468      -181.7576
  95   2.0000      -6.677329      -181.6994
  96   2.0000      -1.435347       -39.0578
  97   2.0000      -1.418684       -38.6044
  98   2.0000      -1.391921       -37.8761
  99   2.0000      -1.388557       -37.7846
 100   2.0000      -1.342713       -36.5371
 101   2.0000      -1.336332       -36.3635
 102   2.0000      -1.251134       -34.0451
 103   2.0000      -1.241369       -33.7794
 104   2.0000      -1.230917       -33.4950
 105   2.0000      -1.224541       -33.3214
 106   2.0000      -1.223352       -33.2891
 107   2.0000      -1.216346       -33.0985
 108   2.0000      -1.214240       -33.0412
 109   2.0000      -1.198780       -32.6205
 110   2.0000      -1.188608       -32.3437
 111   2.0000      -1.181750       -32.1571
 112   2.0000      -1.167402       -31.7666
 113   2.0000      -1.158382       -31.5212
 114   2.0000      -1.130122       -30.7522
 115   2.0000      -1.113452       -30.2986
 116   2.0000      -1.099238       -29.9118
 117   2.0000      -1.096614       -29.8404
 118   2.0000      -1.090671       -29.6787
 119   2.0000      -1.083653       -29.4877
 120   2.0000      -1.076656       -29.2973
 121   2.0000      -1.068197       -29.0671
 122   2.0000      -1.050723       -28.5916
 123   2.0000      -1.041608       -28.3436
 124   2.0000      -1.029100       -28.0032
 125   2.0000      -1.027279       -27.9537
 126   2.0000      -1.024617       -27.8812
 127   2.0000      -1.018869       -27.7248
 128   2.0000      -1.018388       -27.7117
 129   2.0000      -1.016436       -27.6586
 130   2.0000      -1.008891       -27.4533
 131   2.0000      -1.008741       -27.4492
 132   2.0000      -1.002050       -27.2672
 133   2.0000      -0.978620       -26.6296
 134   2.0000      -0.973829       -26.4992
 135   2.0000      -0.961649       -26.1678
 136   2.0000      -0.941814       -25.6281
 137   2.0000      -0.937311       -25.5055
 138   2.0000      -0.922351       -25.0985
 139   2.0000      -0.909317       -24.7438
 140   2.0000      -0.904283       -24.6068
 141   2.0000      -0.894572       -24.3425
 142   2.0000      -0.891992       -24.2723
 143   2.0000      -0.882245       -24.0071
 144   2.0000      -0.871667       -23.7193
 145   2.0000      -0.860369       -23.4118
 146   2.0000      -0.839233       -22.8367
 147   2.0000      -0.837208       -22.7816
 148   2.0000      -0.829087       -22.5606
 149   2.0000      -0.826596       -22.4928
 150   2.0000      -0.819238       -22.2926
 151   2.0000      -0.814746       -22.1704
 152   2.0000      -0.805791       -21.9267
 153   2.0000      -0.804585       -21.8939
 154   2.0000      -0.801380       -21.8067
 155   2.0000      -0.792901       -21.5759
 156   2.0000      -0.790760       -21.5177
 157   2.0000      -0.785928       -21.3862
 158   2.0000      -0.773614       -21.0511
 159   2.0000      -0.767213       -20.8769
 160   2.0000      -0.764046       -20.7907
 161   2.0000      -0.762215       -20.7409
 162   2.0000      -0.757862       -20.6225
 163   2.0000      -0.742001       -20.1909
 164   2.0000      -0.739199       -20.1146
 165   2.0000      -0.734537       -19.9878
 166   2.0000      -0.724859       -19.7244
 167   2.0000      -0.720834       -19.6149
 168   2.0000      -0.714755       -19.4495
 169   2.0000      -0.708929       -19.2909
 170   2.0000      -0.706376       -19.2215
 171   2.0000      -0.704763       -19.1776
 172   2.0000      -0.694426       -18.8963
 173   2.0000      -0.688084       -18.7237
 174   2.0000      -0.680986       -18.5306
 175   2.0000      -0.676165       -18.3994
 176   2.0000      -0.672611       -18.3027
 177   2.0000      -0.669177       -18.2092
 178   2.0000      -0.661543       -18.0015
 179   2.0000      -0.659024       -17.9330
 180   2.0000      -0.653655       -17.7869
 181   2.0000      -0.648376       -17.6432
 182   2.0000      -0.645244       -17.5580
 183   2.0000      -0.642225       -17.4758
 184   2.0000      -0.632057       -17.1992
 185   2.0000      -0.630230       -17.1494
 186   2.0000      -0.624009       -16.9801
 187   2.0000      -0.619291       -16.8518
 188   2.0000      -0.618607       -16.8331
 189   2.0000      -0.615894       -16.7593
 190   2.0000      -0.615333       -16.7440
 191   2.0000      -0.611707       -16.6454
 192   2.0000      -0.609634       -16.5890
 193   2.0000      -0.607646       -16.5349
 194   2.0000      -0.601101       -16.3568
 195   2.0000      -0.599996       -16.3267
 196   2.0000      -0.595388       -16.2013
 197   2.0000      -0.593457       -16.1488
 198   2.0000      -0.590863       -16.0782
 199   2.0000      -0.588070       -16.0022
 200   2.0000      -0.587205       -15.9787
 201   2.0000      -0.582512       -15.8509
 202   2.0000      -0.581269       -15.8171
 203   2.0000      -0.580380       -15.7929
 204   2.0000      -0.579229       -15.7616
 205   2.0000      -0.576094       -15.6763
 206   2.0000      -0.575409       -15.6577
 207   2.0000      -0.575158       -15.6509
 208   2.0000      -0.574112       -15.6224
 209   2.0000      -0.572848       -15.5880
 210   2.0000      -0.570384       -15.5209
 211   2.0000      -0.569044       -15.4845
 212   2.0000      -0.567857       -15.4522
 213   2.0000      -0.566376       -15.4119
 214   2.0000      -0.565674       -15.3928
 215   2.0000      -0.563227       -15.3262
 216   2.0000      -0.558864       -15.2075
 217   2.0000      -0.556600       -15.1458
 218   2.0000      -0.555743       -15.1225
 219   2.0000      -0.554205       -15.0807
 220   2.0000      -0.546895       -14.8818
 221   2.0000      -0.543892       -14.8001
 222   2.0000      -0.542245       -14.7552
 223   2.0000      -0.539760       -14.6876
 224   2.0000      -0.537122       -14.6158
 225   2.0000      -0.531468       -14.4620
 226   2.0000      -0.529782       -14.4161
 227   2.0000      -0.525577       -14.3017
 228   2.0000      -0.522193       -14.2096
 229   2.0000      -0.520330       -14.1589
 230   2.0000      -0.518845       -14.1185
 231   2.0000      -0.517058       -14.0699
 232   2.0000      -0.513572       -13.9750
 233   2.0000      -0.512927       -13.9575
 234   2.0000      -0.507604       -13.8126
 235   2.0000      -0.505804       -13.7636
 236   2.0000      -0.503722       -13.7070
 237   2.0000      -0.502760       -13.6808
 238   2.0000      -0.501282       -13.6406
 239   2.0000      -0.500246       -13.6124
 240   2.0000      -0.497361       -13.5339
 241   2.0000      -0.493828       -13.4377
 242   2.0000      -0.492580       -13.4038
 243   2.0000      -0.489124       -13.3097
 244   2.0000      -0.487133       -13.2556
 245   2.0000      -0.486676       -13.2431
 246   2.0000      -0.480834       -13.0842
 247   2.0000      -0.475703       -12.9445
 248   2.0000      -0.475043       -12.9266
 249   2.0000      -0.471947       -12.8423
 250   2.0000      -0.470413       -12.8006
 251   2.0000      -0.469361       -12.7720
 252   2.0000      -0.466275       -12.6880
 253   2.0000      -0.465768       -12.6742
 254   2.0000      -0.459791       -12.5115
 255   2.0000      -0.456028       -12.4092
 256   2.0000      -0.453350       -12.3363
 257   2.0000      -0.447526       -12.1778
 258   2.0000      -0.443610       -12.0712
 259   2.0000      -0.439174       -11.9505
 260   2.0000      -0.421160       -11.4603
 261   2.0000      -0.416709       -11.3392
 262   2.0000      -0.404918       -11.0184
 263   2.0000      -0.397920       -10.8280
 264   2.0000      -0.377942       -10.2843
 265   2.0000      -0.376772       -10.2525
 266   2.0000      -0.369201       -10.0465
 267   2.0000      -0.366076        -9.9614
 268   2.0000      -0.349243        -9.5034
 269   2.0000      -0.346060        -9.4168
 270   2.0000      -0.337662        -9.1883
 271   2.0000      -0.322747        -8.7824
 272   2.0000      -0.297203        -8.0873
 273   2.0000      -0.292442        -7.9578
 274   2.0000      -0.251270        -6.8374
 275   0.0000      -0.029627        -0.8062
 276   0.0000      -0.011399        -0.3102
 277   0.0000       0.036757         1.0002
 278   0.0000       0.049900         1.3578
 279   0.0000       0.061058         1.6615

MULLIKEN ATOMIC CHARGES
-----------------------
   0 C :    0.487279
   1 O :   -0.352283
   2 C :   -0.146535
   3 C :   -0.084305
   4 C :    0.248332
   5 C :   -0.386629
   6 C :    0.048249
   7 N :   -0.075345
   8 C :    0.049341
   9 N :   -0.060004
  10 C :   -0.345807
  11 C :    0.222579
  12 C :    0.548988
  13 O :   -0.394448
  14 C :   -0.157868
  15 C :   -0.066020
  16 C :    0.278883
  17 C :   -0.395343
  18 C :    0.037259
  19 N :   -0.082977
  20 C :    0.044072
  21 N :   -0.089779
  22 C :   -0.334533
  23 C :    0.080184
  24 C :   -0.242437
  25 C :    0.031258
  26 C :    0.193461
  27 C :   -0.102898
  28 S :    0.202545
  29 N :   -0.577655
  30 C :    0.240386
  31 C :   -0.124881
  32 C :   -0.022848
  33 C :   -0.126803
  34 S :    0.143555
  35 C :    0.202510
  36 C :   -0.084027
  37 C :   -0.080154
  38 C :    0.325210
  39 S :    0.217568
  40 C :   -0.172782
  41 C :    0.260164
  42 C :   -0.083738
  43 C :    0.228983
  44 N :   -0.573834
  45 S :    0.252029
  46 C :   -0.145255
  47 C :   -0.037022
  48 O :   -0.612690
  49 O :   -0.613091
  50 C :    0.181407
  51 C :   -0.042207
  52 C :    0.169392
  53 C :   -0.038258
  54 C :    0.270770
  55 C :   -0.254197
  56 C :   -0.052673
  57 C :   -0.018567
  58 C :   -0.064165
  59 C :    0.002433
  60 C :    0.300372
  61 C :   -0.254586
  62 C :   -0.061958
  63 C :   -0.016572
  64 C :   -0.087914
  65 C :    0.003266
  66 C :   -0.049024
  67 S :    0.113699
  68 C :   -0.060384
  69 C :   -0.050955
  70 S :    0.109201
  71 C :   -0.056832
  72 H :    0.086344
  73 H :    0.080671
  74 H :    0.068851
  75 H :    0.059968
  76 H :    0.048696
  77 H :    0.042771
  78 H :    0.057758
  79 H :    0.040376
  80 H :    0.052786
  81 H :    0.055189
  82 H :    0.062746
  83 H :    0.047508
  84 H :    0.048735
  85 H :    0.048109
  86 H :    0.034983
  87 H :    0.092509
  88 H :    0.035035
  89 H :    0.031636
  90 H :    0.039753
  91 H :    0.027163
  92 H :    0.032380
  93 H :    0.052953
  94 H :    0.024022
  95 H :    0.030555
  96 H :    0.030545
  97 H :    0.034002
  98 H :    0.027395
  99 H :    0.027380
 100 H :    0.056319
 101 H :    0.056379
 102 H :    0.038967
 103 H :    0.024366
 104 H :    0.052526
 105 H :    0.029916
 106 H :    0.015401
 107 H :    0.078225
 108 H :    0.026035
 109 H :    0.020710
 110 H :    0.042670
 111 H :    0.024214
 112 H :    0.092606
 113 H :    0.107743
 114 H :    0.088738
 115 H :    0.111273
Sum of atomic charges:   -0.0000000

LOEWDIN ATOMIC CHARGES
----------------------
   0 C :    0.163659
   1 O :   -0.233039
   2 C :   -0.107134
   3 C :   -0.079342
   4 C :    0.111257
   5 C :   -0.183362
   6 C :    0.013700
   7 N :   -0.103100
   8 C :    0.013288
   9 N :   -0.083501
  10 C :   -0.151316
  11 C :    0.115170
  12 C :    0.166580
  13 O :   -0.254545
  14 C :   -0.103634
  15 C :   -0.080758
  16 C :    0.126933
  17 C :   -0.195731
  18 C :    0.018639
  19 N :   -0.111031
  20 C :    0.014471
  21 N :   -0.112097
  22 C :   -0.173417
  23 C :    0.113404
  24 C :   -0.201942
  25 C :    0.007858
  26 C :   -0.004367
  27 C :   -0.190902
  28 S :    0.416440
  29 N :   -0.010927
  30 C :    0.024681
  31 C :   -0.219487
  32 C :   -0.056397
  33 C :   -0.174840
  34 S :    0.376248
  35 C :    0.033648
  36 C :   -0.136977
  37 C :   -0.081223
  38 C :    0.083937
  39 S :    0.398196
  40 C :   -0.239339
  41 C :    0.048953
  42 C :   -0.182305
  43 C :   -0.025336
  44 N :   -0.015075
  45 S :    0.466857
  46 C :   -0.206360
  47 C :    0.013124
  48 O :   -0.202077
  49 O :   -0.182324
  50 C :    0.124104
  51 C :   -0.046327
  52 C :    0.118168
  53 C :   -0.034415
  54 C :    0.079657
  55 C :   -0.033309
  56 C :   -0.018763
  57 C :   -0.031042
  58 C :   -0.017679
  59 C :   -0.028961
  60 C :    0.087502
  61 C :   -0.034085
  62 C :   -0.013735
  63 C :   -0.036248
  64 C :   -0.022061
  65 C :   -0.026432
  66 C :   -0.112393
  67 S :    0.452091
  68 C :   -0.126514
  69 C :   -0.115167
  70 S :    0.447292
  71 C :   -0.120006
  72 H :    0.053029
  73 H :    0.050500
  74 H :    0.035191
  75 H :    0.039318
  76 H :    0.016499
  77 H :    0.005676
  78 H :    0.020685
  79 H :    0.025165
  80 H :    0.022011
  81 H :    0.008594
  82 H :    0.005625
  83 H :    0.023998
  84 H :    0.027616
  85 H :    0.021871
  86 H :    0.013775
  87 H :    0.023321
  88 H :    0.007301
  89 H :    0.013122
  90 H :    0.012606
  91 H :    0.013659
  92 H :    0.017192
  93 H :    0.016775
  94 H :    0.010244
  95 H :    0.010743
  96 H :    0.016412
  97 H :    0.017822
  98 H :    0.014157
  99 H :    0.017346
 100 H :    0.019693
 101 H :    0.014709
 102 H :    0.017531
 103 H :    0.010293
 104 H :    0.019522
 105 H :    0.016205
 106 H :    0.005426
 107 H :    0.015740
 108 H :    0.009040
 109 H :    0.012752
 110 H :    0.021848
 111 H :    0.010569
 112 H :    0.037632
 113 H :    0.037629
 114 H :    0.036318
 115 H :    0.038001

  Mayer bond orders larger than 0.100000
B(  0-C ,  1-O ) :   2.1059 B(  0-C ,  2-C ) :   0.9352 B(  0-C , 10-C ) :   0.9920
B(  2-C ,  3-C ) :   1.1946 B(  2-C , 66-C ) :   1.6498 B(  3-C ,  4-C ) :   1.0403
B(  3-C , 68-C ) :   1.6224 B(  4-C ,  5-C ) :   1.6794 B(  4-C , 10-C ) :   1.0785
B(  5-C ,  6-C ) :   1.0595 B(  5-C ,  8-C ) :   1.0852 B(  6-C ,  7-N ) :   2.9923
B(  8-C ,  9-N ) :   2.9680 B( 10-C , 11-C ) :   1.6920 B( 11-C , 24-C ) :   1.1705
B( 11-C , 72-H ) :   0.9508 B( 12-C , 13-O ) :   2.0033 B( 12-C , 14-C ) :   0.9716
B( 12-C , 22-C ) :   0.9866 B( 14-C , 15-C ) :   1.2015 B( 14-C , 69-C ) :   1.6491
B( 15-C , 16-C ) :   1.0351 B( 15-C , 71-C ) :   1.6206 B( 16-C , 17-C ) :   1.6363
B( 16-C , 22-C ) :   1.1302 B( 17-C , 18-C ) :   1.0746 B( 17-C , 20-C ) :   1.0738
B( 18-C , 19-N ) :   2.9911 B( 20-C , 21-N ) :   2.9673 B( 22-C , 23-C ) :   1.5533
B( 23-C , 46-C ) :   1.3426 B( 23-C , 73-H ) :   0.9627 B( 24-C , 25-C ) :   1.4928
B( 24-C , 28-S ) :   1.0681 B( 25-C , 26-C ) :   1.3137 B( 25-C , 74-H ) :   1.0003
B( 26-C , 27-C ) :   1.3913 B( 26-C , 29-N ) :   1.0900 B( 27-C , 28-S ) :   1.0298
B( 27-C , 31-C ) :   1.5212 B( 29-N , 30-C ) :   1.1278 B( 29-N , 60-C ) :   0.8433
B( 30-C , 31-C ) :   1.4944 B( 30-C , 32-C ) :   1.1694 B( 31-C , 34-S ) :   0.9532
B( 32-C , 33-C ) :   1.3060 B( 32-C , 35-C ) :   1.3593 B( 33-C , 34-S ) :   0.9789
B( 33-C , 38-C ) :   1.4954 B( 35-C , 36-C ) :   1.4695 B( 35-C , 48-O ) :   1.0134
B( 36-C , 37-C ) :   1.3631 B( 36-C , 39-S ) :   1.0471 B( 37-C , 38-C ) :   1.3570
B( 37-C , 41-C ) :   1.1530 B( 38-C , 49-O ) :   1.0040 B( 39-S , 40-C ) :   0.9263
B( 40-C , 41-C ) :   1.4858 B( 40-C , 42-C ) :   1.5509 B( 41-C , 44-N ) :   1.1496
B( 42-C , 43-C ) :   1.3515 B( 42-C , 45-S ) :   1.0115 B( 43-C , 44-N ) :   1.0592
B( 43-C , 47-C ) :   1.3332 B( 44-N , 54-C ) :   0.8480 B( 45-S , 46-C ) :   1.0207
B( 46-C , 47-C ) :   1.4147 B( 47-C , 75-H ) :   1.0155 B( 48-O , 50-C ) :   0.8141
B( 49-O , 52-C ) :   0.8192 B( 50-C , 51-C ) :   1.0511 B( 50-C , 76-H ) :   0.9748
B( 50-C , 77-H ) :   0.9762 B( 51-C , 78-H ) :   0.9776 B( 51-C , 79-H ) :   0.9784
B( 51-C , 80-H ) :   0.9814 B( 52-C , 53-C ) :   1.0559 B( 52-C , 81-H ) :   0.9750
B( 52-C , 82-H ) :   0.9676 B( 53-C , 83-H ) :   0.9823 B( 53-C , 84-H ) :   0.9811
B( 53-C , 85-H ) :   0.9820 B( 54-C , 55-C ) :   1.0119 B( 54-C , 86-H ) :   0.9773
B( 54-C , 87-H ) :   0.9622 B( 55-C , 56-C ) :   0.9420 B( 55-C , 58-C ) :   1.0159
B( 55-C , 88-H ) :   0.9682 B( 56-C , 57-C ) :   1.0406 B( 56-C , 89-H ) :   0.9815
B( 56-C , 90-H ) :   0.9761 B( 57-C , 91-H ) :   0.9847 B( 57-C , 92-H ) :   0.9865
B( 57-C , 93-H ) :   0.9864 B( 58-C , 59-C ) :   1.0449 B( 58-C , 94-H ) :   0.9779
B( 58-C , 95-H ) :   0.9667 B( 59-C , 96-H ) :   0.9842 B( 59-C , 97-H ) :   0.9868
B( 59-C , 98-H ) :   0.9848 B( 60-C , 61-C ) :   0.9998 B( 60-C , 99-H ) :   0.9705
B( 60-C ,100-H ) :   0.9810 B( 61-C , 62-C ) :   1.0093 B( 61-C , 64-C ) :   0.9883
B( 61-C ,101-H ) :   0.9558 B( 62-C , 63-C ) :   1.0407 B( 62-C ,102-H ) :   0.9778
B( 62-C ,103-H ) :   0.9708 B( 63-C ,104-H ) :   0.9811 B( 63-C ,105-H ) :   0.9863
B( 63-C ,106-H ) :   0.9809 B( 64-C , 65-C ) :   1.0534 B( 64-C ,107-H ) :   0.9757
B( 64-C ,108-H ) :   0.9673 B( 65-C ,109-H ) :   0.9840 B( 65-C ,110-H ) :   0.9863
B( 65-C ,111-H ) :   0.9844 B( 66-C , 67-S ) :   1.1824 B( 66-C ,112-H ) :   0.9726
B( 67-S , 68-C ) :   1.1744 B( 68-C ,113-H ) :   0.9640 B( 69-C , 70-S ) :   1.1764
B( 69-C ,114-H ) :   0.9730 B( 70-S , 71-C ) :   1.1744 B( 71-C ,115-H ) :   0.9605

-----------------------------------------------------------------------------
         ABSORPTION SPECTRUM VIA TRANSITION ELECTRIC DIPOLE MOMENTS
-----------------------------------------------------------------------------
State   Energy    Wavelength  fosc         T2        TX        TY        TZ
        (cm-1)      (nm)                 (au**2)    (au)      (au)      (au)
-----------------------------------------------------------------------------
   1   21060.8    474.8   2.519072683  39.37689   3.46185  -5.20356  -0.56161
   2   25353.7    394.4   0.731136289   9.49364  -0.23484   2.84710  -1.15434
   3   33278.1    300.5   0.227317812   2.24880  -0.28383   0.24010  -1.45279

FINAL SINGLE POINT ENERGY     -5154.389302971473

DIPOLE MOMENT
-------------
                                X             Y             Z
Electronic contribution:     17.03831       6.36687      21.36790
Nuclear contribution   :    -15.20266      -3.55010     -21.43619
                        -----------------------------------------
Total Dipole Moment    :      1.83565       2.81676      -0.06829
                        -----------------------------------------
Magnitude (a.u.)       :      3.36280
Magnitude (Debye)      :      8.54756

Rotational constants in cm-1:     0.002031     0.000290     0.000271
Rotational constants in MHz :    60.895409     8.686262     8.118279

                             ****ORCA TERMINATED NORMALLY****
TOTAL RUN TIME: 0 days 17 hours 57 minutes 16 seconds 203 msec
