                         Program Version 4.2.0 -  RELEASE  -
|  1> # ORCA input file
|  2> # BT6IC-HD-4Cl.out: Geometry 49
|  3> ! Engrad Keepdens
|  4> %maxcore 1000
|  5> %tddft
|  6>   nroots 3
|  7>   # nroots is the number of states to be computed
|  8>   Iroot 1
|  9>   end
| 10> * xyz 0 1
| 11>    C        3.28537         6.67626        -0.29350
| 12>    O        4.26803         7.38619        -0.35043
| 13>    C        1.86343         7.10164        -0.33313
| 14>    C        1.35529         8.38498        -0.46032
| 15>    C       -0.03336         8.55020        -0.49890
| 16>    C       -0.87818         7.42193        -0.41475
| 17>    C       -0.35319         6.13102        -0.25930
| 18>    C        1.03265         5.96897        -0.21266
| 19>    C        1.88304         4.76988         0.00656
| 20>    C        1.42866         3.56444         0.51665
| 21>    C        2.31219         2.56557         1.02067
| 22>    N        3.01607         1.74930         1.45557
| 23>    C        0.04224         3.25488         0.67175
| 24>    N       -1.07918         2.97165         0.78761
| 25>    C        3.26297         5.17586        -0.20239
| 26>    C        4.48091         4.54320        -0.32426
| 27>    C        4.91899         3.21176        -0.54873
| 28>    S        6.53938         2.85520         0.08768
| 29>    C        6.43645         1.23108        -0.47890
| 30>    C        5.22883         0.99556        -1.17226
| 31>    C        4.36016         2.11089        -1.22765
| 32>    C        3.10591         2.18720        -2.05593
| 33>    C        2.19012         0.96080        -2.00020
| 34>    S        5.11123        -0.66383        -1.77776
| 35>    C        6.67433        -1.01234        -1.08920
| 36>    C        7.24510         0.07656        -0.42277
| 37>    N        8.50884        -0.25261         0.04127
| 38>    C        9.46536         0.83882         0.22118
| 39>    C       10.32562         1.15126        -1.01997
| 40>    C        8.75601        -1.58564        -0.32414
| 41>    C        7.61541        -2.06276        -1.04790
| 42>    C        7.57857        -3.37249        -1.62088
| 43>    N        6.58253        -3.91633        -2.30699
| 44>    S        7.08500        -5.42601        -2.76384
| 45>    N        8.59591        -5.40728        -2.08609
| 46>    C        8.73918        -4.22866        -1.49459
| 47>    C        9.85188        -3.77709        -0.71356
| 48>    C        9.85023        -2.49165        -0.07124
| 49>    N       10.97020        -2.43047         0.76259
| 50>    C       11.38599        -1.44894         1.76047
| 51>    C       12.45919        -0.42607         1.31998
| 52>    C       11.65978        -3.62437         0.64109
| 53>    C       11.01507        -4.45193        -0.28933
| 54>    S       11.82964        -5.97406        -0.54591
| 55>    C       13.04719        -5.50856         0.64951
| 56>    C       12.79237        -4.24099         1.21926
| 57>    S       13.96476        -3.85753         2.42383
| 58>    C       14.83100        -5.38710         2.12949
| 59>    C       14.22429        -6.14625         1.10652
| 60>    C       14.83831        -7.32574         0.40147
| 61>    C       15.22245        -6.99356        -1.05166
| 62>    C       16.04762        -5.50167         2.85162
| 63>    C       16.81742        -6.58786         3.21581
| 64>    C       18.16802        -6.50490         3.77154
| 65>    C       18.97412        -5.38421         3.89010
| 66>    C       18.61551        -4.08124         3.42218
| 67>    N       18.37204        -3.00793         3.04655
| 68>    C       20.26162        -5.42460         4.50986
| 69>    N       21.30344        -5.43798         5.02462
| 70>    C       18.57093        -7.87561         4.15992
| 71>    C       19.77174        -8.38091         4.66253
| 72>    C       19.88698        -9.75788         4.88297
| 73>    C       18.80920       -10.63215         4.62070
| 74>    C       17.59997       -10.12207         4.13349
| 75>    C       17.50409        -8.75795         3.90177
| 76>    C       16.35330        -8.00384         3.32991
| 77>    O       15.25453        -8.45931         3.07707
| 78>   Cl       18.97441       -12.33468         4.88351
| 79>   Cl       -0.69375        10.14323        -0.65005
| 80>    C       13.08272         0.23571         2.55997
| 81>    C       12.09648         0.98085         3.46215
| 82>    C       13.53723        -0.99377         0.39506
| 83>    C        9.51034         1.18197        -2.32144
| 84>    C       10.36402         1.31429        -3.58282
| 85>    C       11.06684         2.46984        -0.77067
| 86>   Cl       -2.59708         7.61383        -0.49317
| 87>   Cl       21.39354       -10.36765         5.47966
| 88>    H        2.02176         9.24559        -0.52851
| 89>    H       -1.04638         5.29701        -0.17658
| 90>    H        5.29978         5.27258        -0.23352
| 91>    H        3.42606         2.35423        -3.10166
| 92>    H        2.54024         3.08377        -1.78105
| 93>    H        2.65854         0.07505        -2.45365
| 94>    H        1.26509         1.15912        -2.56096
| 95>    H        1.91908         0.70377        -0.96698
| 96>    H       10.10001         0.65300         1.09116
| 97>    H        8.87221         1.72492         0.48600
| 98>    H       11.07009         0.34150        -1.12427
| 99>    H       11.77852        -2.02965         2.61113
|100>    H       10.48846        -0.94322         2.13730
|101>    H       11.95501         0.36776         0.75780
|102>    H       14.12944        -8.17039         0.43634
|103>    H       15.72539        -7.66435         0.94004
|104>    H       14.35471        -6.68521        -1.65351
|105>    H       15.67780        -7.87120        -1.53647
|106>    H       15.95479        -6.17154        -1.08139
|107>    H       16.42411        -4.53317         3.18832
|108>    H       20.62874        -7.75234         4.88956
|109>    H       16.75930       -10.78414         3.92113
|110>    H       13.85596         0.94021         2.21187
|111>    H       13.61915        -0.53298         3.14480
|112>    H       11.51201         1.72187         2.89087
|113>    H       12.62693         1.52618         4.25755
|114>    H       11.38071         0.30419         3.95661
|115>    H       14.17512        -1.72647         0.90926
|116>    H       14.18936        -0.17780         0.04913
|117>    H       13.10716        -1.47690        -0.49472
|118>    H        8.77693         2.00615        -2.26809
|119>    H        8.92202         0.25550        -2.40251
|120>    H       10.90735         2.27102        -3.62764
|121>    H        9.73635         1.24961        -4.48485
|122>    H       11.11319         0.50673        -3.64138
|123>    H       10.35388         3.31211        -0.76433
|124>    H       11.81653         2.66937        -1.54900
|125>    H       11.59286         2.46888         0.19719
|126> *
|127>
|128>                          ****END OF INPUT****

CARTESIAN COORDINATES (ANGSTROEM)
---------------------------------
  C      3.285370    6.676260   -0.293500
  O      4.268030    7.386190   -0.350430
  C      1.863430    7.101640   -0.333130
  C      1.355290    8.384980   -0.460320
  C     -0.033360    8.550200   -0.498900
  C     -0.878180    7.421930   -0.414750
  C     -0.353190    6.131020   -0.259300
  C      1.032650    5.968970   -0.212660
  C      1.883040    4.769880    0.006560
  C      1.428660    3.564440    0.516650
  C      2.312190    2.565570    1.020670
  N      3.016070    1.749300    1.455570
  C      0.042240    3.254880    0.671750
  N     -1.079180    2.971650    0.787610
  C      3.262970    5.175860   -0.202390
  C      4.480910    4.543200   -0.324260
  C      4.918990    3.211760   -0.548730
  S      6.539380    2.855200    0.087680
  C      6.436450    1.231080   -0.478900
  C      5.228830    0.995560   -1.172260
  C      4.360160    2.110890   -1.227650
  C      3.105910    2.187200   -2.055930
  C      2.190120    0.960800   -2.000200
  S      5.111230   -0.663830   -1.777760
  C      6.674330   -1.012340   -1.089200
  C      7.245100    0.076560   -0.422770
  N      8.508840   -0.252610    0.041270
  C      9.465360    0.838820    0.221180
  C     10.325620    1.151260   -1.019970
  C      8.756010   -1.585640   -0.324140
  C      7.615410   -2.062760   -1.047900
  C      7.578570   -3.372490   -1.620880
  N      6.582530   -3.916330   -2.306990
  S      7.085000   -5.426010   -2.763840
  N      8.595910   -5.407280   -2.086090
  C      8.739180   -4.228660   -1.494590
  C      9.851880   -3.777090   -0.713560
  C      9.850230   -2.491650   -0.071240
  N     10.970200   -2.430470    0.762590
  C     11.385990   -1.448940    1.760470
  C     12.459190   -0.426070    1.319980
  C     11.659780   -3.624370    0.641090
  C     11.015070   -4.451930   -0.289330
  S     11.829640   -5.974060   -0.545910
  C     13.047190   -5.508560    0.649510
  C     12.792370   -4.240990    1.219260
  S     13.964760   -3.857530    2.423830
  C     14.831000   -5.387100    2.129490
  C     14.224290   -6.146250    1.106520
  C     14.838310   -7.325740    0.401470
  C     15.222450   -6.993560   -1.051660
  C     16.047620   -5.501670    2.851620
  C     16.817420   -6.587860    3.215810
  C     18.168020   -6.504900    3.771540
  C     18.974120   -5.384210    3.890100
  C     18.615510   -4.081240    3.422180
  N     18.372040   -3.007930    3.046550
  C     20.261620   -5.424600    4.509860
  N     21.303440   -5.437980    5.024620
  C     18.570930   -7.875610    4.159920
  C     19.771740   -8.380910    4.662530
  C     19.886980   -9.757880    4.882970
  C     18.809200  -10.632150    4.620700
  C     17.599970  -10.122070    4.133490
  C     17.504090   -8.757950    3.901770
  C     16.353300   -8.003840    3.329910
  O     15.254530   -8.459310    3.077070
  Cl    18.974410  -12.334680    4.883510
  Cl    -0.693750   10.143230   -0.650050
  C     13.082720    0.235710    2.559970
  C     12.096480    0.980850    3.462150
  C     13.537230   -0.993770    0.395060
  C      9.510340    1.181970   -2.321440
  C     10.364020    1.314290   -3.582820
  C     11.066840    2.469840   -0.770670
  Cl    -2.597080    7.613830   -0.493170
  Cl    21.393540  -10.367650    5.479660
  H      2.021760    9.245590   -0.528510
  H     -1.046380    5.297010   -0.176580
  H      5.299780    5.272580   -0.233520
  H      3.426060    2.354230   -3.101660
  H      2.540240    3.083770   -1.781050
  H      2.658540    0.075050   -2.453650
  H      1.265090    1.159120   -2.560960
  H      1.919080    0.703770   -0.966980
  H     10.100010    0.653000    1.091160
  H      8.872210    1.724920    0.486000
  H     11.070090    0.341500   -1.124270
  H     11.778520   -2.029650    2.611130
  H     10.488460   -0.943220    2.137300
  H     11.955010    0.367760    0.757800
  H     14.129440   -8.170390    0.436340
  H     15.725390   -7.664350    0.940040
  H     14.354710   -6.685210   -1.653510
  H     15.677800   -7.871200   -1.536470
  H     15.954790   -6.171540   -1.081390
  H     16.424110   -4.533170    3.188320
  H     20.628740   -7.752340    4.889560
  H     16.759300  -10.784140    3.921130
  H     13.855960    0.940210    2.211870
  H     13.619150   -0.532980    3.144800
  H     11.512010    1.721870    2.890870
  H     12.626930    1.526180    4.257550
  H     11.380710    0.304190    3.956610
  H     14.175120   -1.726470    0.909260
  H     14.189360   -0.177800    0.049130
  H     13.107160   -1.476900   -0.494720
  H      8.776930    2.006150   -2.268090
  H      8.922020    0.255500   -2.402510
  H     10.907350    2.271020   -3.627640
  H      9.736350    1.249610   -4.484850
  H     11.113190    0.506730   -3.641380
  H     10.353880    3.312110   -0.764330
  H     11.816530    2.669370   -1.549000
  H     11.592860    2.468880    0.197190

 Total Charge           Charge          ....    0
 Multiplicity           Mult            ....    1
 Number of Electrons    NEL             ....  606
 Basis Dimension        Dim             .... 1304

ORBITAL ENERGIES
----------------

  NO   OCC          E(Eh)            E(eV)
   0   2.0000    -104.826066     -2852.4623
   1   2.0000    -104.825002     -2852.4333
   2   2.0000    -104.824433     -2852.4178
   3   2.0000    -104.822019     -2852.3521
   4   2.0000     -92.020534     -2504.0060
   5   2.0000     -91.986854     -2503.0895
   6   2.0000     -91.986278     -2503.0739
   7   2.0000     -91.979520     -2502.8900
   8   2.0000     -91.978083     -2502.8509
   9   2.0000     -20.571843      -559.7883
  10   2.0000     -20.570918      -559.7631
  11   2.0000     -15.661556      -426.1726
  12   2.0000     -15.654960      -425.9931
  13   2.0000     -15.621662      -425.0870
  14   2.0000     -15.620127      -425.0453
  15   2.0000     -15.600702      -424.5167
  16   2.0000     -15.599726      -424.4901
  17   2.0000     -15.599479      -424.4834
  18   2.0000     -15.595550      -424.3765
  19   2.0000     -11.371485      -309.4338
  20   2.0000     -11.370518      -309.4075
  21   2.0000     -11.353342      -308.9401
  22   2.0000     -11.352057      -308.9052
  23   2.0000     -11.350993      -308.8762
  24   2.0000     -11.350836      -308.8719
  25   2.0000     -11.350605      -308.8657
  26   2.0000     -11.348199      -308.8002
  27   2.0000     -11.342583      -308.6474
  28   2.0000     -11.338728      -308.5425
  29   2.0000     -11.334583      -308.4297
  30   2.0000     -11.330404      -308.3160
  31   2.0000     -11.329909      -308.3025
  32   2.0000     -11.329111      -308.2808
  33   2.0000     -11.323601      -308.1308
  34   2.0000     -11.318751      -307.9989
  35   2.0000     -11.316829      -307.9466
  36   2.0000     -11.315575      -307.9124
  37   2.0000     -11.314976      -307.8961
  38   2.0000     -11.314286      -307.8774
  39   2.0000     -11.312290      -307.8231
  40   2.0000     -11.312274      -307.8226
  41   2.0000     -11.311980      -307.8146
  42   2.0000     -11.311967      -307.8143
  43   2.0000     -11.311650      -307.8057
  44   2.0000     -11.311379      -307.7983
  45   2.0000     -11.310497      -307.7743
  46   2.0000     -11.308370      -307.7164
  47   2.0000     -11.308106      -307.7092
  48   2.0000     -11.306211      -307.6576
  49   2.0000     -11.305577      -307.6404
  50   2.0000     -11.304317      -307.6061
  51   2.0000     -11.301476      -307.5288
  52   2.0000     -11.301320      -307.5245
  53   2.0000     -11.300378      -307.4989
  54   2.0000     -11.299941      -307.4870
  55   2.0000     -11.299618      -307.4782
  56   2.0000     -11.299198      -307.4668
  57   2.0000     -11.298244      -307.4408
  58   2.0000     -11.295791      -307.3741
  59   2.0000     -11.292119      -307.2742
  60   2.0000     -11.291096      -307.2464
  61   2.0000     -11.285420      -307.0919
  62   2.0000     -11.284490      -307.0666
  63   2.0000     -11.284443      -307.0653
  64   2.0000     -11.282122      -307.0021
  65   2.0000     -11.269799      -306.6668
  66   2.0000     -11.263548      -306.4967
  67   2.0000     -11.261545      -306.4422
  68   2.0000     -11.260618      -306.4170
  69   2.0000     -11.252057      -306.1840
  70   2.0000     -11.251701      -306.1744
  71   2.0000     -11.249145      -306.1048
  72   2.0000     -11.246988      -306.0461
  73   2.0000     -11.245544      -306.0068
  74   2.0000     -11.245470      -306.0048
  75   2.0000     -11.242023      -305.9110
  76   2.0000     -11.239719      -305.8483
  77   2.0000     -10.589396      -288.1521
  78   2.0000     -10.588346      -288.1235
  79   2.0000     -10.587794      -288.1085
  80   2.0000     -10.585381      -288.0429
  81   2.0000      -9.051653      -246.3080
  82   2.0000      -9.021556      -245.4890
  83   2.0000      -9.020930      -245.4720
  84   2.0000      -9.013214      -245.2620
  85   2.0000      -9.011583      -245.2176
  86   2.0000      -8.064480      -219.4457
  87   2.0000      -8.063430      -219.4171
  88   2.0000      -8.062873      -219.4019
  89   2.0000      -8.060710      -219.3431
  90   2.0000      -8.060703      -219.3429
  91   2.0000      -8.060462      -219.3363
  92   2.0000      -8.059658      -219.3144
  93   2.0000      -8.059658      -219.3144
  94   2.0000      -8.059099      -219.2992
  95   2.0000      -8.059085      -219.2988
  96   2.0000      -8.056693      -219.2338
  97   2.0000      -8.056674      -219.2333
  98   2.0000      -6.738819      -183.3726
  99   2.0000      -6.737111      -183.3261
 100   2.0000      -6.735313      -183.2772
 101   2.0000      -6.709168      -182.5657
 102   2.0000      -6.708558      -182.5491
 103   2.0000      -6.708032      -182.5348
 104   2.0000      -6.707438      -182.5187
 105   2.0000      -6.706008      -182.4797
 106   2.0000      -6.705383      -182.4628
 107   2.0000      -6.700711      -182.3356
 108   2.0000      -6.699880      -182.3130
 109   2.0000      -6.699065      -182.2908
 110   2.0000      -6.698225      -182.2680
 111   2.0000      -6.697567      -182.2501
 112   2.0000      -6.695902      -182.2048
 113   2.0000      -1.401214       -38.1290
 114   2.0000      -1.399257       -38.0757
 115   2.0000      -1.351767       -36.7834
 116   2.0000      -1.339138       -36.4398
 117   2.0000      -1.334446       -36.3121
 118   2.0000      -1.253128       -34.0994
 119   2.0000      -1.251210       -34.0471
 120   2.0000      -1.239843       -33.7378
 121   2.0000      -1.238159       -33.6920
 122   2.0000      -1.229298       -33.4509
 123   2.0000      -1.227902       -33.4129
 124   2.0000      -1.223325       -33.2884
 125   2.0000      -1.223082       -33.2817
 126   2.0000      -1.205119       -32.7930
 127   2.0000      -1.203589       -32.7513
 128   2.0000      -1.195614       -32.5343
 129   2.0000      -1.170908       -31.8620
 130   2.0000      -1.159750       -31.5584
 131   2.0000      -1.158476       -31.5237
 132   2.0000      -1.158069       -31.5127
 133   2.0000      -1.149247       -31.2726
 134   2.0000      -1.134258       -30.8647
 135   2.0000      -1.130478       -30.7619
 136   2.0000      -1.116885       -30.3920
 137   2.0000      -1.112123       -30.2624
 138   2.0000      -1.098018       -29.8786
 139   2.0000      -1.095297       -29.8046
 140   2.0000      -1.090137       -29.6641
 141   2.0000      -1.086278       -29.5591
 142   2.0000      -1.072814       -29.1928
 143   2.0000      -1.058315       -28.7982
 144   2.0000      -1.050737       -28.5920
 145   2.0000      -1.048302       -28.5258
 146   2.0000      -1.046480       -28.4762
 147   2.0000      -1.039082       -28.2749
 148   2.0000      -1.031947       -28.0807
 149   2.0000      -1.016829       -27.6693
 150   2.0000      -1.004726       -27.3400
 151   2.0000      -1.002599       -27.2821
 152   2.0000      -0.998318       -27.1656
 153   2.0000      -0.981469       -26.7071
 154   2.0000      -0.977790       -26.6070
 155   2.0000      -0.970948       -26.4208
 156   2.0000      -0.950903       -25.8754
 157   2.0000      -0.946807       -25.7639
 158   2.0000      -0.940466       -25.5914
 159   2.0000      -0.932661       -25.3790
 160   2.0000      -0.926461       -25.2103
 161   2.0000      -0.918225       -24.9862
 162   2.0000      -0.888633       -24.1809
 163   2.0000      -0.884954       -24.0808
 164   2.0000      -0.881605       -23.9897
 165   2.0000      -0.877524       -23.8787
 166   2.0000      -0.874261       -23.7898
 167   2.0000      -0.866852       -23.5882
 168   2.0000      -0.859934       -23.4000
 169   2.0000      -0.849654       -23.1202
 170   2.0000      -0.844252       -22.9733
 171   2.0000      -0.833093       -22.6696
 172   2.0000      -0.831693       -22.6315
 173   2.0000      -0.819390       -22.2967
 174   2.0000      -0.810236       -22.0476
 175   2.0000      -0.808964       -22.0130
 176   2.0000      -0.798547       -21.7296
 177   2.0000      -0.792103       -21.5542
 178   2.0000      -0.785910       -21.3857
 179   2.0000      -0.777909       -21.1680
 180   2.0000      -0.775443       -21.1009
 181   2.0000      -0.773062       -21.0361
 182   2.0000      -0.759414       -20.6647
 183   2.0000      -0.751408       -20.4469
 184   2.0000      -0.747472       -20.3397
 185   2.0000      -0.734109       -19.9761
 186   2.0000      -0.728695       -19.8288
 187   2.0000      -0.720013       -19.5926
 188   2.0000      -0.715124       -19.4595
 189   2.0000      -0.708223       -19.2717
 190   2.0000      -0.705761       -19.2047
 191   2.0000      -0.698456       -19.0059
 192   2.0000      -0.694401       -18.8956
 193   2.0000      -0.692046       -18.8315
 194   2.0000      -0.688567       -18.7368
 195   2.0000      -0.682418       -18.5695
 196   2.0000      -0.677801       -18.4439
 197   2.0000      -0.672873       -18.3098
 198   2.0000      -0.669436       -18.2163
 199   2.0000      -0.668618       -18.1940
 200   2.0000      -0.663822       -18.0635
 201   2.0000      -0.656959       -17.8768
 202   2.0000      -0.652847       -17.7649
 203   2.0000      -0.651213       -17.7204
 204   2.0000      -0.649469       -17.6730
 205   2.0000      -0.645701       -17.5704
 206   2.0000      -0.642640       -17.4871
 207   2.0000      -0.639858       -17.4114
 208   2.0000      -0.637189       -17.3388
 209   2.0000      -0.630907       -17.1679
 210   2.0000      -0.627816       -17.0837
 211   2.0000      -0.626147       -17.0383
 212   2.0000      -0.624923       -17.0050
 213   2.0000      -0.622671       -16.9437
 214   2.0000      -0.617612       -16.8061
 215   2.0000      -0.614886       -16.7319
 216   2.0000      -0.610864       -16.6225
 217   2.0000      -0.608994       -16.5716
 218   2.0000      -0.608866       -16.5681
 219   2.0000      -0.604942       -16.4613
 220   2.0000      -0.603359       -16.4182
 221   2.0000      -0.595328       -16.1997
 222   2.0000      -0.592881       -16.1331
 223   2.0000      -0.591566       -16.0973
 224   2.0000      -0.586550       -15.9608
 225   2.0000      -0.584528       -15.9058
 226   2.0000      -0.583422       -15.8757
 227   2.0000      -0.582719       -15.8566
 228   2.0000      -0.581821       -15.8322
 229   2.0000      -0.581488       -15.8231
 230   2.0000      -0.581267       -15.8171
 231   2.0000      -0.580095       -15.7852
 232   2.0000      -0.578426       -15.7398
 233   2.0000      -0.577790       -15.7225
 234   2.0000      -0.576302       -15.6820
 235   2.0000      -0.572834       -15.5876
 236   2.0000      -0.572028       -15.5657
 237   2.0000      -0.570622       -15.5274
 238   2.0000      -0.568647       -15.4737
 239   2.0000      -0.565633       -15.3917
 240   2.0000      -0.564107       -15.3501
 241   2.0000      -0.561788       -15.2870
 242   2.0000      -0.560347       -15.2478
 243   2.0000      -0.557613       -15.1734
 244   2.0000      -0.550943       -14.9919
 245   2.0000      -0.549508       -14.9529
 246   2.0000      -0.545314       -14.8387
 247   2.0000      -0.542269       -14.7559
 248   2.0000      -0.537493       -14.6259
 249   2.0000      -0.533995       -14.5307
 250   2.0000      -0.532771       -14.4974
 251   2.0000      -0.527524       -14.3546
 252   2.0000      -0.521884       -14.2012
 253   2.0000      -0.520559       -14.1651
 254   2.0000      -0.514645       -14.0042
 255   2.0000      -0.512176       -13.9370
 256   2.0000      -0.511029       -13.9058
 257   2.0000      -0.509950       -13.8764
 258   2.0000      -0.509787       -13.8720
 259   2.0000      -0.507512       -13.8101
 260   2.0000      -0.505173       -13.7464
 261   2.0000      -0.502266       -13.6673
 262   2.0000      -0.501783       -13.6542
 263   2.0000      -0.500795       -13.6273
 264   2.0000      -0.500340       -13.6150
 265   2.0000      -0.498426       -13.5629
 266   2.0000      -0.497859       -13.5474
 267   2.0000      -0.496187       -13.5019
 268   2.0000      -0.494772       -13.4634
 269   2.0000      -0.493406       -13.4263
 270   2.0000      -0.492487       -13.4013
 271   2.0000      -0.491805       -13.3827
 272   2.0000      -0.490288       -13.3414
 273   2.0000      -0.488832       -13.3018
 274   2.0000      -0.485664       -13.2156
 275   2.0000      -0.482920       -13.1409
 276   2.0000      -0.481755       -13.1092
 277   2.0000      -0.479044       -13.0354
 278   2.0000      -0.478122       -13.0104
 279   2.0000      -0.473849       -12.8941
 280   2.0000      -0.471207       -12.8222
 281   2.0000      -0.467681       -12.7263
 282   2.0000      -0.466495       -12.6940
 283   2.0000      -0.465990       -12.6802
 284   2.0000      -0.460734       -12.5372
 285   2.0000      -0.453566       -12.3421
 286   2.0000      -0.451166       -12.2769
 287   2.0000      -0.447859       -12.1869
 288   2.0000      -0.445703       -12.1282
 289   2.0000      -0.411235       -11.1903
 290   2.0000      -0.405796       -11.0423
 291   2.0000      -0.389486       -10.5985
 292   2.0000      -0.385036       -10.4773
 293   2.0000      -0.381622       -10.3845
 294   2.0000      -0.377659       -10.2766
 295   2.0000      -0.358496        -9.7552
 296   2.0000      -0.355821        -9.6824
 297   2.0000      -0.351766        -9.5720
 298   2.0000      -0.345724        -9.4076
 299   2.0000      -0.333692        -9.0802
 300   2.0000      -0.317471        -8.6388
 301   2.0000      -0.310800        -8.4573
 302   2.0000      -0.263125        -7.1600
 303   0.0000      -0.034649        -0.9428
 304   0.0000      -0.021871        -0.5951
 305   0.0000       0.004812         0.1310
 306   0.0000       0.012037         0.3275
 307   0.0000       0.026345         0.7169

MULLIKEN ATOMIC CHARGES
-----------------------
   0 C :    0.456780
   1 O :   -0.358704
   2 C :   -0.158108
   3 C :    0.056608
   4 C :    0.043003
   5 C :    0.030950
   6 C :    0.030415
   7 C :   -0.049692
   8 C :    0.227879
   9 C :   -0.356309
  10 C :    0.047832
  11 N :   -0.062549
  12 C :    0.051534
  13 N :   -0.078043
  14 C :   -0.335228
  15 C :    0.186592
  16 C :   -0.238230
  17 S :    0.167471
  18 C :   -0.010865
  19 C :   -0.109477
  20 C :   -0.060133
  21 C :    0.008975
  22 C :   -0.066764
  23 S :    0.230249
  24 C :    0.023792
  25 C :    0.130647
  26 N :   -0.608246
  27 C :    0.274381
  28 C :   -0.317289
  29 C :    0.249549
  30 C :   -0.221759
  31 C :    0.155500
  32 N :   -0.466183
  33 S :    0.546030
  34 N :   -0.471087
  35 C :    0.170615
  36 C :   -0.239404
  37 C :    0.267632
  38 N :   -0.617994
  39 C :    0.243636
  40 C :   -0.303975
  41 C :    0.134171
  42 C :    0.017367
  43 S :    0.244368
  44 C :   -0.139553
  45 C :   -0.012582
  46 S :    0.166044
  47 C :   -0.244265
  48 C :   -0.038489
  49 C :    0.040233
  50 C :   -0.049725
  51 C :    0.143657
  52 C :   -0.295667
  53 C :    0.237787
  54 C :   -0.345186
  55 C :    0.035557
  56 N :   -0.086278
  57 C :    0.043809
  58 N :   -0.086455
  59 C :   -0.030812
  60 C :    0.034579
  61 C :    0.031176
  62 C :    0.043606
  63 C :    0.050375
  64 C :   -0.185060
  65 C :    0.492635
  66 O :   -0.361416
  67 Cl:   -0.076171
  68 Cl:   -0.076119
  69 C :   -0.055860
  70 C :   -0.054938
  71 C :    0.004323
  72 C :   -0.062474
  73 C :   -0.015517
  74 C :   -0.000598
  75 Cl:   -0.070477
  76 Cl:   -0.070575
  77 H :    0.077347
  78 H :    0.088604
  79 H :    0.099848
  80 H :    0.077587
  81 H :    0.062221
  82 H :    0.059141
  83 H :    0.052089
  84 H :    0.067038
  85 H :    0.037319
  86 H :    0.055751
  87 H :    0.053820
  88 H :    0.058628
  89 H :    0.066123
  90 H :    0.060300
  91 H :    0.071627
  92 H :    0.056062
  93 H :    0.053099
  94 H :    0.050136
  95 H :    0.043459
  96 H :    0.100962
  97 H :    0.092066
  98 H :    0.075970
  99 H :    0.043914
 100 H :    0.042115
 101 H :    0.033420
 102 H :    0.053025
 103 H :    0.037638
 104 H :    0.058291
 105 H :    0.042911
 106 H :    0.054201
 107 H :    0.038585
 108 H :    0.067814
 109 H :    0.035150
 110 H :    0.044168
 111 H :    0.031030
 112 H :    0.039850
 113 H :    0.052938
 114 H :    0.034255
Sum of atomic charges:    0.0000000

LOEWDIN ATOMIC CHARGES
----------------------
   0 C :    0.170216
   1 O :   -0.233712
   2 C :   -0.056914
   3 C :    0.015699
   4 C :   -0.113590
   5 C :   -0.107728
   6 C :   -0.003162
   7 C :   -0.018595
   8 C :    0.107726
   9 C :   -0.168754
  10 C :    0.015276
  11 N :   -0.083290
  12 C :    0.014797
  13 N :   -0.093274
  14 C :   -0.161019
  15 C :    0.106868
  16 C :   -0.211903
  17 S :    0.406576
  18 C :   -0.166401
  19 C :   -0.191815
  20 C :    0.018736
  21 C :   -0.017052
  22 C :   -0.035300
  23 S :    0.413498
  24 C :   -0.161580
  25 C :   -0.018859
  26 N :   -0.038212
  27 C :    0.084528
  28 C :   -0.044720
  29 C :    0.039643
  30 C :   -0.081975
  31 C :   -0.024412
  32 N :   -0.309666
  33 S :    0.587247
  34 N :   -0.314181
  35 C :   -0.020066
  36 C :   -0.095597
  37 C :    0.053771
  38 N :   -0.026772
  39 C :    0.082055
  40 C :   -0.046074
  41 C :   -0.025269
  42 C :   -0.153730
  43 S :    0.410603
  44 C :   -0.200625
  45 C :   -0.163728
  46 S :    0.415538
  47 C :   -0.209834
  48 C :    0.035674
  49 C :   -0.011667
  50 C :   -0.031912
  51 C :    0.112146
  52 C :   -0.165460
  53 C :    0.123485
  54 C :   -0.177694
  55 C :    0.014159
  56 N :   -0.101365
  57 C :    0.018309
  58 N :   -0.098433
  59 C :   -0.025308
  60 C :    0.002448
  61 C :   -0.111058
  62 C :   -0.110361
  63 C :    0.010545
  64 C :   -0.051371
  65 C :    0.162646
  66 O :   -0.227911
  67 Cl:    0.125956
  68 Cl:    0.125668
  69 C :   -0.016889
  70 C :   -0.041757
  71 C :   -0.035445
  72 C :   -0.024769
  73 C :   -0.032992
  74 C :   -0.027799
  75 Cl:    0.128462
  76 Cl:    0.127825
  77 H :    0.053125
  78 H :    0.049075
  79 H :    0.055496
  80 H :    0.041658
  81 H :    0.024030
  82 H :    0.014215
  83 H :    0.027589
  84 H :    0.026630
  85 H :    0.014825
  86 H :    0.016285
  87 H :    0.013032
  88 H :    0.020954
  89 H :    0.024032
  90 H :    0.012036
  91 H :    0.039362
  92 H :    0.026329
  93 H :    0.013709
  94 H :    0.024726
  95 H :    0.021862
  96 H :    0.046246
  97 H :    0.049439
  98 H :    0.052310
  99 H :    0.021389
 100 H :    0.015365
 101 H :    0.013615
 102 H :    0.026598
 103 H :    0.015386
 104 H :    0.007909
 105 H :    0.024121
 106 H :    0.018338
 107 H :    0.013290
 108 H :    0.021067
 109 H :    0.015089
 110 H :    0.022835
 111 H :    0.017474
 112 H :    0.020749
 113 H :    0.024593
 114 H :    0.015114

  Mayer bond orders larger than 0.100000
B(  0-C ,  1-O ) :   2.0773 B(  0-C ,  2-C ) :   0.9490 B(  0-C , 14-C ) :   1.0055
B(  2-C ,  3-C ) :   1.4184 B(  2-C ,  7-C ) :   1.3565 B(  3-C ,  4-C ) :   1.4003
B(  3-C , 77-H ) :   1.0080 B(  4-C ,  5-C ) :   1.4189 B(  4-C , 68-Cl) :   1.0165
B(  5-C ,  6-C ) :   1.4200 B(  5-C , 75-Cl) :   1.0382 B(  6-C ,  7-C ) :   1.4172
B(  6-C , 78-H ) :   0.9885 B(  7-C ,  8-C ) :   1.0333 B(  8-C ,  9-C ) :   1.6842
B(  8-C , 14-C ) :   1.0921 B(  9-C , 10-C ) :   1.0852 B(  9-C , 12-C ) :   1.0408
B( 10-C , 11-N ) :   2.9746 B( 12-C , 13-N ) :   2.9845 B( 14-C , 15-C ) :   1.6919
B( 15-C , 16-C ) :   1.1714 B( 15-C , 79-H ) :   0.9308 B( 16-C , 17-S ) :   1.0722
B( 16-C , 20-C ) :   1.5522 B( 17-S , 18-C ) :   1.0536 B( 18-C , 19-C ) :   1.5159
B( 18-C , 25-C ) :   1.3287 B( 19-C , 20-C ) :   1.3996 B( 19-C , 23-S ) :   0.9996
B( 20-C , 21-C ) :   0.9698 B( 21-C , 22-C ) :   1.0430 B( 21-C , 80-H ) :   0.9534
B( 21-C , 81-H ) :   0.9715 B( 22-C , 82-H ) :   0.9769 B( 22-C , 83-H ) :   0.9840
B( 22-C , 84-H ) :   0.9848 B( 23-S , 24-C ) :   0.9898 B( 24-C , 25-C ) :   1.4856
B( 24-C , 30-C ) :   1.4144 B( 25-C , 26-N ) :   1.0773 B( 26-N , 27-C ) :   0.8608
B( 26-N , 29-C ) :   1.0810 B( 27-C , 28-C ) :   0.9935 B( 27-C , 85-H ) :   0.9853
B( 27-C , 86-H ) :   0.9732 B( 28-C , 72-C ) :   1.0091 B( 28-C , 74-C ) :   1.0086
B( 28-C , 87-H ) :   0.9501 B( 29-C , 30-C ) :   1.4840 B( 29-C , 37-C ) :   1.1446
B( 30-C , 31-C ) :   1.1061 B( 31-C , 32-N ) :   1.6171 B( 31-C , 35-C ) :   1.1047
B( 32-N , 33-S ) :   1.1626 B( 32-N , 34-N ) :   0.1045 B( 33-S , 34-N ) :   1.1612
B( 34-N , 35-C ) :   1.6132 B( 35-C , 36-C ) :   1.1140 B( 36-C , 37-C ) :   1.4492
B( 36-C , 42-C ) :   1.4404 B( 37-C , 38-N ) :   1.1086 B( 38-N , 39-C ) :   0.8377
B( 38-N , 41-C ) :   1.0762 B( 39-C , 40-C ) :   0.9647 B( 39-C , 88-H ) :   0.9772
B( 39-C , 89-H ) :   0.9841 B( 40-C , 69-C ) :   1.0095 B( 40-C , 71-C ) :   1.0396
B( 40-C , 90-H ) :   0.9509 B( 41-C , 42-C ) :   1.4619 B( 41-C , 45-C ) :   1.3232
B( 42-C , 43-S ) :   0.9901 B( 43-S , 44-C ) :   1.0037 B( 44-C , 45-C ) :   1.4852
B( 44-C , 48-C ) :   1.3980 B( 45-C , 46-S ) :   1.0618 B( 46-S , 47-C ) :   1.0640
B( 47-C , 48-C ) :   1.5269 B( 47-C , 51-C ) :   1.2259 B( 48-C , 49-C ) :   0.9812
B( 49-C , 50-C ) :   1.0334 B( 49-C , 91-H ) :   0.9533 B( 49-C , 92-H ) :   0.9646
B( 50-C , 93-H ) :   0.9816 B( 50-C , 94-H ) :   0.9861 B( 50-C , 95-H ) :   0.9802
B( 51-C , 52-C ) :   1.6458 B( 51-C , 96-H ) :   0.9379 B( 52-C , 53-C ) :   1.1085
B( 52-C , 65-C ) :   0.9808 B( 53-C , 54-C ) :   1.6692 B( 53-C , 59-C ) :   1.0343
B( 54-C , 55-C ) :   1.0606 B( 54-C , 57-C ) :   1.0558 B( 55-C , 56-N ) :   2.9790
B( 57-C , 58-N ) :   2.9753 B( 59-C , 60-C ) :   1.4059 B( 59-C , 64-C ) :   1.3600
B( 60-C , 61-C ) :   1.4255 B( 60-C , 97-H ) :   0.9847 B( 61-C , 62-C ) :   1.4153
B( 61-C , 76-Cl) :   1.0425 B( 62-C , 63-C ) :   1.4017 B( 62-C , 67-Cl) :   1.0172
B( 63-C , 64-C ) :   1.4217 B( 63-C , 98-H ) :   1.0081 B( 64-C , 65-C ) :   0.9549
B( 65-C , 66-O ) :   2.0748 B( 69-C , 70-C ) :   1.0319 B( 69-C , 99-H ) :   0.9772
B( 69-C ,100-H ) :   0.9703 B( 70-C ,101-H ) :   0.9813 B( 70-C ,102-H ) :   0.9865
B( 70-C ,103-H ) :   0.9825 B( 71-C ,104-H ) :   0.9777 B( 71-C ,105-H ) :   0.9819
B( 71-C ,106-H ) :   0.9800 B( 72-C , 73-C ) :   1.0462 B( 72-C ,107-H ) :   0.9671
B( 72-C ,108-H ) :   0.9674 B( 73-C ,109-H ) :   0.9854 B( 73-C ,110-H ) :   0.9877
B( 73-C ,111-H ) :   0.9833 B( 74-C ,112-H ) :   0.9792 B( 74-C ,113-H ) :   0.9842
B( 74-C ,114-H ) :   0.9890

-----------------------------------------------------------------------------
         ABSORPTION SPECTRUM VIA TRANSITION ELECTRIC DIPOLE MOMENTS
-----------------------------------------------------------------------------
State   Energy    Wavelength  fosc         T2        TX        TY        TZ
        (cm-1)      (nm)                 (au**2)    (au)      (au)      (au)
-----------------------------------------------------------------------------
   1   21780.7    459.1   2.791921763  42.19956   5.27637  -3.58166   1.23742
   2   26069.4    383.6   0.370347955   4.67686  -0.51952  -0.95524  -1.86935
   3   32340.2    309.2   0.107995368   1.09936   0.37054   0.97689  -0.08802

FINAL SINGLE POINT ENERGY     -6625.799191526216

DIPOLE MOMENT
-------------
                                X             Y             Z
Electronic contribution:    -33.82952     -33.25278      31.43973
Nuclear contribution   :     33.59221      33.87873     -33.74683
                        -----------------------------------------
Total Dipole Moment    :     -0.23731       0.62595      -2.30709
                        -----------------------------------------
Magnitude (a.u.)       :      2.40225
Magnitude (Debye)      :      6.10603

Rotational constants in cm-1:     0.001945     0.000184     0.000176
Rotational constants in MHz :    58.298287     5.501645     5.265529

                             ****ORCA TERMINATED NORMALLY****
TOTAL RUN TIME: 0 days 17 hours 6 minutes 40 seconds 587 msec
