                         Program Version 4.2.0 -  RELEASE  -
|  1> # ORCA input file
|  2> # BT6IC-HD-4Cl.out
|  3> ! Engrad Keepdens
|  4> %maxcore 1000
|  5> %tddft
|  6>   nroots 3
|  7>   # nroots is the number of states to be computed
|  8>   Iroot 1
|  9>   end
| 10> * xyz 0 1
| 11>    C        2.83575         2.53510        -2.10198
| 12>    O        1.78149         2.79335        -1.56953
| 13>    C        3.42985         3.17342        -3.30068
| 14>    C        2.95013         4.22944        -4.04768
| 15>    C        3.70435         4.66947        -5.12911
| 16>    C        4.91812         4.04895        -5.44522
| 17>    C        5.39421         2.97714        -4.69831
| 18>    C        4.64527         2.53958        -3.61984
| 19>    C        4.84727         1.42712        -2.69711
| 20>    C        5.63472         0.32928        -2.93078
| 21>    C        5.49380        -0.87046        -2.19921
| 22>    N        5.34801        -1.87495        -1.66419
| 23>    C        6.61483         0.25272        -3.93762
| 24>    N        7.46955         0.15821        -4.69864
| 25>    C        3.85081         1.54975        -1.65480
| 26>    C        3.79529         1.02752        -0.39546
| 27>    C        4.84338         0.45493         0.35763
| 28>    S        6.52503         0.82726        -0.02083
| 29>    C        7.06667        -0.15868         1.28182
| 30>    C        5.98787        -0.71314         1.98203
| 31>    C        4.73098        -0.36204         1.47622
| 32>    C        3.44974        -0.83428         2.07711
| 33>    C        3.07802         0.03065         3.28473
| 34>    S        6.48009        -1.76019         3.29177
| 35>    C        8.12780        -1.46740         2.86806
| 36>    C        8.29429        -0.59215         1.78764
| 37>    N        9.61834        -0.45132         1.48946
| 38>    C        9.97976         0.28478         0.30088
| 39>    C       10.32991        -0.60248        -0.90728
| 40>    C       10.34015        -1.26287         2.35403
| 41>    C        9.40557        -1.90865         3.22333
| 42>    C        9.79132        -2.88708         4.16187
| 43>    N        9.02633        -3.57745         4.99389
| 44>    S        9.95772        -4.63863         5.78669
| 45>    N       11.36810        -4.26440         5.08485
| 46>    C       11.16625        -3.28263         4.21771
| 47>    C       12.09636        -2.60284         3.40391
| 48>    C       11.72082        -1.56288         2.51293
| 49>    N       12.86701        -1.07130         1.93090
| 50>    C       13.11528         0.16504         1.23220
| 51>    C       12.86163         1.42874         2.07324
| 52>    C       13.96737        -1.77547         2.42085
| 53>    C       13.50091        -2.78335         3.35534
| 54>    S       14.43876        -3.88935         4.14169
| 55>    C       16.46254        -1.37729         1.83393
| 56>    C       15.22488        -1.56507         2.05962
| 57>    S       17.80718        -0.36824         2.36303
| 58>    C       18.36081        -2.85995         1.28697
| 59>    C       17.65889        -1.64747         1.02409
| 60>    C       17.71014        -1.13873        -0.40129
| 61>    C       19.13893        -0.81930        -0.82536
| 62>    C       18.96691        -3.86130         1.54723
| 63>    C       11.73662        -6.51654         2.82602
| 64>    C       10.66820        -5.69106         2.22771
| 65>    C        9.32865        -5.59216         2.38304
| 66>    C        8.60488        -4.63008         1.64569
| 67>    N        8.04476        -3.82593         1.05130
| 68>    C        8.60910        -6.40891         3.28283
| 69>    N        8.03554        -7.08640         4.00712
| 70>    C       11.66789        -5.01436         1.39168
| 71>    C       11.89364        -4.04257         0.45539
| 72>    C       13.23539        -3.87836         0.08860
| 73>    C       14.25401        -4.67081         0.61958
| 74>    C       14.01121        -5.66951         1.57875
| 75>    C       12.70481        -5.80305         1.94899
| 76>    C       11.80195        -7.37789         3.80202
| 77>    O       11.85528        -8.16455         4.64346
| 78>   Cl       15.87370        -4.41740         0.11079
| 79>   Cl        3.13969         5.98256        -6.08151
| 80>    C       13.79822         1.52887         3.28867
| 81>    C       13.28562         0.82249         4.53946
| 82>    C       13.05388         2.64819         1.17021
| 83>    C        9.14989        -1.51426        -1.25970
| 84>    C        9.42254        -2.43071        -2.44681
| 85>    C       10.70652         0.30270        -2.07800
| 86>   Cl        5.84270         4.61253        -6.77834
| 87>   Cl       13.63543        -2.64668        -1.04620
| 88>    H        2.01165         4.69894        -3.79872
| 89>    H        6.33257         2.51834        -4.96567
| 90>    H        2.84630         1.15081         0.11593
| 91>    H        3.58307        -1.86706         2.40504
| 92>    H        2.65030        -0.80857         1.33721
| 93>    H        3.85435        -0.02729         4.04339
| 94>    H        2.14445        -0.31865         3.71691
| 95>    H        2.95659         1.07046         2.98978
| 96>    H       10.78613         0.98098         0.52298
| 97>    H        9.10508         0.88572         0.03601
| 98>    H       11.19224        -1.22893        -0.65392
| 99>    H       12.54359         0.19152         0.30593
|100>    H       14.17173         0.14446         0.94897
|101>    H       11.82857         1.41360         2.43990
|102>    H       17.08627        -0.24548        -0.48340
|103>    H       17.28930        -1.91093        -1.05207
|104>    H       19.55909        -0.04996        -0.18027
|105>    H       19.15514        -0.46024        -1.85098
|106>    H       19.76300        -1.70750        -0.75532
|107>    H       19.48417        -4.74991         1.75440
|108>    H       11.11536        -3.43431         0.02463
|109>    H       14.82412        -6.24711         1.98517
|110>    H       13.92292         2.58638         3.53124
|111>    H       14.78417         1.13873         3.02762
|112>    H       12.27640         1.15241         4.78029
|113>    H       13.92985         1.05859         5.38298
|114>    H       13.27561        -0.25762         4.42884
|115>    H       14.08953         2.71220         0.84415
|116>    H       12.80769         3.56023         1.70755
|117>    H       12.42132         2.59725         0.28574
|118>    H        8.27976        -0.89581        -1.48889
|119>    H        8.89364        -2.13056        -0.39469
|120>    H        9.45914        -1.86777        -3.37532
|121>    H        8.62299        -3.16226        -2.52898
|122>    H       10.36445        -2.96250        -2.32443
|123>    H        9.83576         0.85370        -2.42587
|124>    H       11.09146        -0.28636        -2.90398
|125>    H       11.47502         1.01814        -1.78960
|126> *
|127>
|128>                          ****END OF INPUT****

CARTESIAN COORDINATES (ANGSTROEM)
---------------------------------
  C      2.835750    2.535100   -2.101980
  O      1.781490    2.793350   -1.569530
  C      3.429850    3.173420   -3.300680
  C      2.950130    4.229440   -4.047680
  C      3.704350    4.669470   -5.129110
  C      4.918120    4.048950   -5.445220
  C      5.394210    2.977140   -4.698310
  C      4.645270    2.539580   -3.619840
  C      4.847270    1.427120   -2.697110
  C      5.634720    0.329280   -2.930780
  C      5.493800   -0.870460   -2.199210
  N      5.348010   -1.874950   -1.664190
  C      6.614830    0.252720   -3.937620
  N      7.469550    0.158210   -4.698640
  C      3.850810    1.549750   -1.654800
  C      3.795290    1.027520   -0.395460
  C      4.843380    0.454930    0.357630
  S      6.525030    0.827260   -0.020830
  C      7.066670   -0.158680    1.281820
  C      5.987870   -0.713140    1.982030
  C      4.730980   -0.362040    1.476220
  C      3.449740   -0.834280    2.077110
  C      3.078020    0.030650    3.284730
  S      6.480090   -1.760190    3.291770
  C      8.127800   -1.467400    2.868060
  C      8.294290   -0.592150    1.787640
  N      9.618340   -0.451320    1.489460
  C      9.979760    0.284780    0.300880
  C     10.329910   -0.602480   -0.907280
  C     10.340150   -1.262870    2.354030
  C      9.405570   -1.908650    3.223330
  C      9.791320   -2.887080    4.161870
  N      9.026330   -3.577450    4.993890
  S      9.957720   -4.638630    5.786690
  N     11.368100   -4.264400    5.084850
  C     11.166250   -3.282630    4.217710
  C     12.096360   -2.602840    3.403910
  C     11.720820   -1.562880    2.512930
  N     12.867010   -1.071300    1.930900
  C     13.115280    0.165040    1.232200
  C     12.861630    1.428740    2.073240
  C     13.967370   -1.775470    2.420850
  C     13.500910   -2.783350    3.355340
  S     14.438760   -3.889350    4.141690
  C     16.462540   -1.377290    1.833930
  C     15.224880   -1.565070    2.059620
  S     17.807180   -0.368240    2.363030
  C     18.360810   -2.859950    1.286970
  C     17.658890   -1.647470    1.024090
  C     17.710140   -1.138730   -0.401290
  C     19.138930   -0.819300   -0.825360
  C     18.966910   -3.861300    1.547230
  C     11.736620   -6.516540    2.826020
  C     10.668200   -5.691060    2.227710
  C      9.328650   -5.592160    2.383040
  C      8.604880   -4.630080    1.645690
  N      8.044760   -3.825930    1.051300
  C      8.609100   -6.408910    3.282830
  N      8.035540   -7.086400    4.007120
  C     11.667890   -5.014360    1.391680
  C     11.893640   -4.042570    0.455390
  C     13.235390   -3.878360    0.088600
  C     14.254010   -4.670810    0.619580
  C     14.011210   -5.669510    1.578750
  C     12.704810   -5.803050    1.948990
  C     11.801950   -7.377890    3.802020
  O     11.855280   -8.164550    4.643460
  Cl    15.873700   -4.417400    0.110790
  Cl     3.139690    5.982560   -6.081510
  C     13.798220    1.528870    3.288670
  C     13.285620    0.822490    4.539460
  C     13.053880    2.648190    1.170210
  C      9.149890   -1.514260   -1.259700
  C      9.422540   -2.430710   -2.446810
  C     10.706520    0.302700   -2.078000
  Cl     5.842700    4.612530   -6.778340
  Cl    13.635430   -2.646680   -1.046200
  H      2.011650    4.698940   -3.798720
  H      6.332570    2.518340   -4.965670
  H      2.846300    1.150810    0.115930
  H      3.583070   -1.867060    2.405040
  H      2.650300   -0.808570    1.337210
  H      3.854350   -0.027290    4.043390
  H      2.144450   -0.318650    3.716910
  H      2.956590    1.070460    2.989780
  H     10.786130    0.980980    0.522980
  H      9.105080    0.885720    0.036010
  H     11.192240   -1.228930   -0.653920
  H     12.543590    0.191520    0.305930
  H     14.171730    0.144460    0.948970
  H     11.828570    1.413600    2.439900
  H     17.086270   -0.245480   -0.483400
  H     17.289300   -1.910930   -1.052070
  H     19.559090   -0.049960   -0.180270
  H     19.155140   -0.460240   -1.850980
  H     19.763000   -1.707500   -0.755320
  H     19.484170   -4.749910    1.754400
  H     11.115360   -3.434310    0.024630
  H     14.824120   -6.247110    1.985170
  H     13.922920    2.586380    3.531240
  H     14.784170    1.138730    3.027620
  H     12.276400    1.152410    4.780290
  H     13.929850    1.058590    5.382980
  H     13.275610   -0.257620    4.428840
  H     14.089530    2.712200    0.844150
  H     12.807690    3.560230    1.707550
  H     12.421320    2.597250    0.285740
  H      8.279760   -0.895810   -1.488890
  H      8.893640   -2.130560   -0.394690
  H      9.459140   -1.867770   -3.375320
  H      8.622990   -3.162260   -2.528980
  H     10.364450   -2.962500   -2.324430
  H      9.835760    0.853700   -2.425870
  H     11.091460   -0.286360   -2.903980
  H     11.475020    1.018140   -1.789600

 Total Charge           Charge          ....    0
 Multiplicity           Mult            ....    1
 Number of Electrons    NEL             ....  606
 Basis Dimension        Dim             .... 1304

ORBITAL ENERGIES
----------------

  NO   OCC          E(Eh)            E(eV)
   0   2.0000    -104.826766     -2852.4813
   1   2.0000    -104.825958     -2852.4593
   2   2.0000    -104.825801     -2852.4551
   3   2.0000    -104.822286     -2852.3594
   4   2.0000     -92.019712     -2503.9837
   5   2.0000     -91.983097     -2502.9873
   6   2.0000     -91.974478     -2502.7528
   7   2.0000     -91.947483     -2502.0182
   8   2.0000     -91.868714     -2499.8748
   9   2.0000     -20.668265      -562.4121
  10   2.0000     -20.570504      -559.7519
  11   2.0000     -15.658909      -426.1006
  12   2.0000     -15.636534      -425.4917
  13   2.0000     -15.612449      -424.8363
  14   2.0000     -15.601168      -424.5294
  15   2.0000     -15.599336      -424.4795
  16   2.0000     -15.593014      -424.3075
  17   2.0000     -15.589390      -424.2089
  18   2.0000     -15.588526      -424.1854
  19   2.0000     -11.429499      -311.0125
  20   2.0000     -11.368969      -309.3654
  21   2.0000     -11.355843      -309.0082
  22   2.0000     -11.354917      -308.9830
  23   2.0000     -11.349312      -308.8305
  24   2.0000     -11.347574      -308.7832
  25   2.0000     -11.345153      -308.7173
  26   2.0000     -11.344206      -308.6915
  27   2.0000     -11.335524      -308.4553
  28   2.0000     -11.335327      -308.4499
  29   2.0000     -11.329795      -308.2994
  30   2.0000     -11.327910      -308.2481
  31   2.0000     -11.325053      -308.1703
  32   2.0000     -11.324159      -308.1460
  33   2.0000     -11.318919      -308.0034
  34   2.0000     -11.317072      -307.9532
  35   2.0000     -11.316134      -307.9277
  36   2.0000     -11.312801      -307.8370
  37   2.0000     -11.309172      -307.7382
  38   2.0000     -11.309013      -307.7339
  39   2.0000     -11.306972      -307.6784
  40   2.0000     -11.306181      -307.6568
  41   2.0000     -11.304882      -307.6215
  42   2.0000     -11.304495      -307.6109
  43   2.0000     -11.303956      -307.5963
  44   2.0000     -11.303174      -307.5750
  45   2.0000     -11.301942      -307.5415
  46   2.0000     -11.300403      -307.4996
  47   2.0000     -11.300266      -307.4959
  48   2.0000     -11.298931      -307.4595
  49   2.0000     -11.298747      -307.4545
  50   2.0000     -11.298497      -307.4477
  51   2.0000     -11.297602      -307.4234
  52   2.0000     -11.296259      -307.3868
  53   2.0000     -11.295571      -307.3681
  54   2.0000     -11.294596      -307.3416
  55   2.0000     -11.290687      -307.2352
  56   2.0000     -11.288511      -307.1760
  57   2.0000     -11.288431      -307.1738
  58   2.0000     -11.287147      -307.1389
  59   2.0000     -11.285058      -307.0820
  60   2.0000     -11.284612      -307.0699
  61   2.0000     -11.279926      -306.9424
  62   2.0000     -11.264957      -306.5351
  63   2.0000     -11.259007      -306.3731
  64   2.0000     -11.256233      -306.2977
  65   2.0000     -11.253990      -306.2366
  66   2.0000     -11.253492      -306.2231
  67   2.0000     -11.250270      -306.1354
  68   2.0000     -11.249822      -306.1232
  69   2.0000     -11.246264      -306.0264
  70   2.0000     -11.242567      -305.9258
  71   2.0000     -11.236017      -305.7476
  72   2.0000     -11.235750      -305.7403
  73   2.0000     -11.234894      -305.7170
  74   2.0000     -11.224300      -305.4287
  75   2.0000     -11.223721      -305.4130
  76   2.0000     -11.215970      -305.2021
  77   2.0000     -10.589992      -288.1683
  78   2.0000     -10.589727      -288.1611
  79   2.0000     -10.589605      -288.1578
  80   2.0000     -10.585803      -288.0543
  81   2.0000      -9.051231      -246.2965
  82   2.0000      -9.017918      -245.3900
  83   2.0000      -9.008932      -245.1455
  84   2.0000      -8.983094      -244.4424
  85   2.0000      -8.904660      -242.3081
  86   2.0000      -8.065125      -219.4632
  87   2.0000      -8.064829      -219.4552
  88   2.0000      -8.064704      -219.4518
  89   2.0000      -8.061521      -219.3651
  90   2.0000      -8.061413      -219.3622
  91   2.0000      -8.061040      -219.3520
  92   2.0000      -8.061029      -219.3518
  93   2.0000      -8.060909      -219.3485
  94   2.0000      -8.060897      -219.3482
  95   2.0000      -8.060848      -219.3468
  96   2.0000      -8.057139      -219.2459
  97   2.0000      -8.057073      -219.2441
  98   2.0000      -6.738489      -183.3636
  99   2.0000      -6.736617      -183.3127
 100   2.0000      -6.735069      -183.2706
 101   2.0000      -6.705589      -182.4683
 102   2.0000      -6.704484      -182.4383
 103   2.0000      -6.702426      -182.3823
 104   2.0000      -6.696474      -182.2203
 105   2.0000      -6.695662      -182.1982
 106   2.0000      -6.693285      -182.1335
 107   2.0000      -6.670607      -181.5165
 108   2.0000      -6.668691      -181.4643
 109   2.0000      -6.666197      -181.3965
 110   2.0000      -6.592732      -179.3973
 111   2.0000      -6.590789      -179.3445
 112   2.0000      -6.588771      -179.2896
 113   2.0000      -1.500960       -40.8432
 114   2.0000      -1.402746       -38.1707
 115   2.0000      -1.360392       -37.0182
 116   2.0000      -1.348257       -36.6879
 117   2.0000      -1.338606       -36.4253
 118   2.0000      -1.267598       -34.4931
 119   2.0000      -1.262312       -34.3493
 120   2.0000      -1.248064       -33.9615
 121   2.0000      -1.243920       -33.8488
 122   2.0000      -1.237503       -33.6742
 123   2.0000      -1.228725       -33.4353
 124   2.0000      -1.227876       -33.4122
 125   2.0000      -1.220078       -33.2000
 126   2.0000      -1.213597       -33.0237
 127   2.0000      -1.208601       -32.8877
 128   2.0000      -1.191020       -32.4093
 129   2.0000      -1.175906       -31.9980
 130   2.0000      -1.164716       -31.6935
 131   2.0000      -1.160697       -31.5842
 132   2.0000      -1.160291       -31.5731
 133   2.0000      -1.139744       -31.0140
 134   2.0000      -1.131523       -30.7903
 135   2.0000      -1.127927       -30.6925
 136   2.0000      -1.111961       -30.2580
 137   2.0000      -1.103410       -30.0253
 138   2.0000      -1.097807       -29.8729
 139   2.0000      -1.096322       -29.8324
 140   2.0000      -1.094759       -29.7899
 141   2.0000      -1.079888       -29.3853
 142   2.0000      -1.063897       -28.9501
 143   2.0000      -1.056099       -28.7379
 144   2.0000      -1.051537       -28.6138
 145   2.0000      -1.051215       -28.6050
 146   2.0000      -1.042742       -28.3744
 147   2.0000      -1.031963       -28.0811
 148   2.0000      -1.027912       -27.9709
 149   2.0000      -1.021187       -27.7879
 150   2.0000      -1.009705       -27.4755
 151   2.0000      -1.003013       -27.2934
 152   2.0000      -0.996786       -27.1239
 153   2.0000      -0.980310       -26.6756
 154   2.0000      -0.974337       -26.5131
 155   2.0000      -0.964404       -26.2428
 156   2.0000      -0.943764       -25.6811
 157   2.0000      -0.943366       -25.6703
 158   2.0000      -0.934119       -25.4187
 159   2.0000      -0.931413       -25.3450
 160   2.0000      -0.920056       -25.0360
 161   2.0000      -0.908583       -24.7238
 162   2.0000      -0.894332       -24.3360
 163   2.0000      -0.879198       -23.9242
 164   2.0000      -0.879088       -23.9212
 165   2.0000      -0.878035       -23.8925
 166   2.0000      -0.871507       -23.7149
 167   2.0000      -0.861850       -23.4521
 168   2.0000      -0.857256       -23.3271
 169   2.0000      -0.843155       -22.9434
 170   2.0000      -0.841695       -22.9037
 171   2.0000      -0.834508       -22.7081
 172   2.0000      -0.833059       -22.6687
 173   2.0000      -0.822482       -22.3809
 174   2.0000      -0.809242       -22.0206
 175   2.0000      -0.804089       -21.8804
 176   2.0000      -0.801609       -21.8129
 177   2.0000      -0.789066       -21.4716
 178   2.0000      -0.785529       -21.3753
 179   2.0000      -0.779480       -21.2107
 180   2.0000      -0.770913       -20.9776
 181   2.0000      -0.767320       -20.8798
 182   2.0000      -0.760022       -20.6812
 183   2.0000      -0.757932       -20.6244
 184   2.0000      -0.746998       -20.3268
 185   2.0000      -0.742131       -20.1944
 186   2.0000      -0.735710       -20.0197
 187   2.0000      -0.725094       -19.7308
 188   2.0000      -0.719771       -19.5860
 189   2.0000      -0.714616       -19.4457
 190   2.0000      -0.711530       -19.3617
 191   2.0000      -0.707368       -19.2485
 192   2.0000      -0.703093       -19.1321
 193   2.0000      -0.692751       -18.8507
 194   2.0000      -0.688559       -18.7366
 195   2.0000      -0.686877       -18.6909
 196   2.0000      -0.682057       -18.5597
 197   2.0000      -0.680295       -18.5118
 198   2.0000      -0.675819       -18.3900
 199   2.0000      -0.669340       -18.2137
 200   2.0000      -0.668145       -18.1812
 201   2.0000      -0.664800       -18.0901
 202   2.0000      -0.661747       -18.0070
 203   2.0000      -0.655955       -17.8494
 204   2.0000      -0.652972       -17.7683
 205   2.0000      -0.650154       -17.6916
 206   2.0000      -0.648965       -17.6592
 207   2.0000      -0.643818       -17.5192
 208   2.0000      -0.637435       -17.3455
 209   2.0000      -0.634161       -17.2564
 210   2.0000      -0.630998       -17.1703
 211   2.0000      -0.630671       -17.1614
 212   2.0000      -0.629502       -17.1296
 213   2.0000      -0.626402       -17.0453
 214   2.0000      -0.622415       -16.9368
 215   2.0000      -0.621096       -16.9009
 216   2.0000      -0.615145       -16.7390
 217   2.0000      -0.614265       -16.7150
 218   2.0000      -0.607533       -16.5318
 219   2.0000      -0.605320       -16.4716
 220   2.0000      -0.599029       -16.3004
 221   2.0000      -0.593186       -16.1414
 222   2.0000      -0.591209       -16.0876
 223   2.0000      -0.590367       -16.0647
 224   2.0000      -0.587739       -15.9932
 225   2.0000      -0.585836       -15.9414
 226   2.0000      -0.584380       -15.9018
 227   2.0000      -0.583196       -15.8696
 228   2.0000      -0.580795       -15.8042
 229   2.0000      -0.579702       -15.7745
 230   2.0000      -0.577262       -15.7081
 231   2.0000      -0.575549       -15.6615
 232   2.0000      -0.572683       -15.5835
 233   2.0000      -0.572473       -15.5778
 234   2.0000      -0.570959       -15.5366
 235   2.0000      -0.569267       -15.4905
 236   2.0000      -0.568000       -15.4561
 237   2.0000      -0.565692       -15.3932
 238   2.0000      -0.564434       -15.3590
 239   2.0000      -0.559906       -15.2358
 240   2.0000      -0.551036       -14.9944
 241   2.0000      -0.547555       -14.8997
 242   2.0000      -0.546088       -14.8598
 243   2.0000      -0.545035       -14.8311
 244   2.0000      -0.543713       -14.7952
 245   2.0000      -0.541889       -14.7455
 246   2.0000      -0.538738       -14.6598
 247   2.0000      -0.536225       -14.5914
 248   2.0000      -0.535688       -14.5768
 249   2.0000      -0.527135       -14.3441
 250   2.0000      -0.524576       -14.2744
 251   2.0000      -0.522453       -14.2167
 252   2.0000      -0.521907       -14.2018
 253   2.0000      -0.518085       -14.0978
 254   2.0000      -0.514570       -14.0022
 255   2.0000      -0.512681       -13.9508
 256   2.0000      -0.510003       -13.8779
 257   2.0000      -0.509047       -13.8519
 258   2.0000      -0.508376       -13.8336
 259   2.0000      -0.506681       -13.7875
 260   2.0000      -0.505453       -13.7541
 261   2.0000      -0.504922       -13.7396
 262   2.0000      -0.504149       -13.7186
 263   2.0000      -0.501125       -13.6363
 264   2.0000      -0.498521       -13.5654
 265   2.0000      -0.497353       -13.5337
 266   2.0000      -0.494209       -13.4481
 267   2.0000      -0.492599       -13.4043
 268   2.0000      -0.490166       -13.3381
 269   2.0000      -0.488356       -13.2888
 270   2.0000      -0.486265       -13.2320
 271   2.0000      -0.484557       -13.1855
 272   2.0000      -0.481596       -13.1049
 273   2.0000      -0.478199       -13.0125
 274   2.0000      -0.475442       -12.9374
 275   2.0000      -0.469921       -12.7872
 276   2.0000      -0.467757       -12.7283
 277   2.0000      -0.467367       -12.7177
 278   2.0000      -0.463866       -12.6224
 279   2.0000      -0.460450       -12.5295
 280   2.0000      -0.458790       -12.4843
 281   2.0000      -0.455448       -12.3934
 282   2.0000      -0.454472       -12.3668
 283   2.0000      -0.450387       -12.2556
 284   2.0000      -0.447027       -12.1642
 285   2.0000      -0.444871       -12.1056
 286   2.0000      -0.428145       -11.6504
 287   2.0000      -0.412708       -11.2304
 288   2.0000      -0.411051       -11.1853
 289   2.0000      -0.399133       -10.8610
 290   2.0000      -0.393737       -10.7141
 291   2.0000      -0.387895       -10.5552
 292   2.0000      -0.382607       -10.4113
 293   2.0000      -0.360029        -9.7969
 294   2.0000      -0.356495        -9.7007
 295   2.0000      -0.353742        -9.6258
 296   2.0000      -0.351775        -9.5723
 297   2.0000      -0.344860        -9.3841
 298   2.0000      -0.329847        -8.9756
 299   2.0000      -0.320694        -8.7265
 300   2.0000      -0.318111        -8.6562
 301   2.0000      -0.295136        -8.0310
 302   2.0000      -0.271571        -7.3898
 303   0.0000      -0.038246        -1.0407
 304   0.0000      -0.007620        -0.2073
 305   0.0000       0.009163         0.2493
 306   0.0000       0.015800         0.4299
 307   0.0000       0.047344         1.2883

MULLIKEN ATOMIC CHARGES
-----------------------
   0 C :    0.479392
   1 O :   -0.347357
   2 C :   -0.174279
   3 C :    0.060759
   4 C :    0.043326
   5 C :    0.044901
   6 C :    0.030103
   7 C :   -0.046513
   8 C :    0.225033
   9 C :   -0.339142
  10 C :    0.031122
  11 N :   -0.040794
  12 C :    0.049125
  13 N :   -0.073100
  14 C :   -0.326471
  15 C :    0.161956
  16 C :   -0.226850
  17 S :    0.150149
  18 C :    0.003813
  19 C :   -0.091743
  20 C :   -0.051404
  21 C :    0.012499
  22 C :   -0.018114
  23 S :    0.254430
  24 C :    0.034521
  25 C :    0.139024
  26 N :   -0.599177
  27 C :    0.269879
  28 C :   -0.296935
  29 C :    0.216713
  30 C :   -0.220304
  31 C :    0.156326
  32 N :   -0.475690
  33 S :    0.581082
  34 N :   -0.456948
  35 C :    0.158944
  36 C :   -0.218111
  37 C :    0.364746
  38 N :   -0.647964
  39 C :    0.279032
  40 C :   -0.305049
  41 C :    0.122661
  42 C :    0.044342
  43 S :   -0.185306
  44 C :   -0.056547
  45 C :    0.077620
  46 S :    0.034663
  47 C :    0.363407
  48 C :   -0.352542
  49 C :    0.077831
  50 C :   -0.026851
  51 C :   -0.329880
  52 C :   -0.150230
  53 C :    0.272072
  54 C :   -0.411563
  55 C :    0.071802
  56 N :   -0.065995
  57 C :    0.027266
  58 N :   -0.033551
  59 C :   -0.048950
  60 C :    0.020904
  61 C :    0.016189
  62 C :    0.050470
  63 C :   -0.014891
  64 C :    0.169534
  65 C :    0.313456
  66 O :   -0.148404
  67 Cl:   -0.073250
  68 Cl:   -0.076777
  69 C :   -0.043449
  70 C :   -0.015363
  71 C :    0.029088
  72 C :   -0.130067
  73 C :   -0.004967
  74 C :    0.029351
  75 Cl:   -0.072369
  76 Cl:   -0.096348
  77 H :    0.068055
  78 H :    0.075928
  79 H :    0.085596
  80 H :    0.069573
  81 H :    0.053910
  82 H :    0.046728
  83 H :    0.051768
  84 H :    0.035614
  85 H :    0.049001
  86 H :    0.048399
  87 H :    0.042579
  88 H :    0.039230
  89 H :    0.064898
  90 H :    0.042497
  91 H :    0.038586
  92 H :    0.058350
  93 H :    0.037667
  94 H :    0.042261
  95 H :    0.047803
  96 H :    0.068763
  97 H :    0.061352
  98 H :    0.054914
  99 H :    0.033291
 100 H :    0.035546
 101 H :    0.024498
 102 H :    0.038654
 103 H :    0.056432
 104 H :    0.032464
 105 H :    0.043525
 106 H :    0.021680
 107 H :    0.038693
 108 H :    0.105914
 109 H :    0.046227
 110 H :    0.050184
 111 H :    0.010576
 112 H :    0.034622
 113 H :    0.052176
 114 H :    0.017760
Sum of atomic charges:   -0.0000000

LOEWDIN ATOMIC CHARGES
----------------------
   0 C :    0.165408
   1 O :   -0.227450
   2 C :   -0.054328
   3 C :    0.018587
   4 C :   -0.119585
   5 C :   -0.112599
   6 C :   -0.003554
   7 C :   -0.017714
   8 C :    0.097521
   9 C :   -0.167832
  10 C :   -0.006770
  11 N :   -0.077218
  12 C :    0.013496
  13 N :   -0.092065
  14 C :   -0.152599
  15 C :    0.115701
  16 C :   -0.210256
  17 S :    0.428920
  18 C :   -0.168156
  19 C :   -0.184196
  20 C :    0.021058
  21 C :   -0.009843
  22 C :   -0.020718
  23 S :    0.427292
  24 C :   -0.168469
  25 C :    0.007231
  26 N :   -0.005546
  27 C :    0.081365
  28 C :   -0.043951
  29 C :    0.003990
  30 C :   -0.043333
  31 C :   -0.042407
  32 N :   -0.314671
  33 S :    0.631838
  34 N :   -0.311769
  35 C :   -0.020941
  36 C :   -0.154354
  37 C :    0.120235
  38 N :   -0.055912
  39 C :    0.078874
  40 C :   -0.043539
  41 C :   -0.004209
  42 C :   -0.102429
  43 S :   -0.049043
  44 C :   -0.102130
  45 C :   -0.020546
  46 S :    0.204753
  47 C :   -0.041171
  48 C :   -0.089320
  49 C :   -0.001314
  50 C :   -0.028701
  51 C :   -0.033730
  52 C :   -0.211866
  53 C :    0.154142
  54 C :   -0.171960
  55 C :    0.022513
  56 N :   -0.079244
  57 C :   -0.004707
  58 N :   -0.076765
  59 C :   -0.043633
  60 C :    0.013878
  61 C :   -0.149505
  62 C :   -0.097281
  63 C :   -0.028756
  64 C :    0.062825
  65 C :    0.300880
  66 O :   -0.044270
  67 Cl:    0.162838
  68 Cl:    0.132612
  69 C :   -0.016549
  70 C :   -0.032298
  71 C :   -0.022231
  72 C :   -0.027088
  73 C :   -0.029303
  74 C :   -0.020854
  75 Cl:    0.135315
  76 Cl:    0.128584
  77 H :    0.049859
  78 H :    0.045829
  79 H :    0.054147
  80 H :    0.033950
  81 H :    0.027570
  82 H :    0.019729
  83 H :    0.023990
  84 H :    0.018288
  85 H :    0.016355
  86 H :    0.015245
  87 H :   -0.003388
  88 H :    0.010933
  89 H :    0.028464
  90 H :    0.007701
  91 H :    0.021666
  92 H :    0.024715
  93 H :    0.017635
  94 H :    0.020650
  95 H :    0.022542
  96 H :    0.039203
  97 H :    0.041686
  98 H :    0.040403
  99 H :    0.016290
 100 H :    0.013743
 101 H :    0.013380
 102 H :    0.021050
 103 H :    0.017037
 104 H :    0.019069
 105 H :    0.021286
 106 H :    0.009038
 107 H :    0.003110
 108 H :    0.014514
 109 H :    0.017693
 110 H :    0.025795
 111 H :    0.005953
 112 H :    0.019008
 113 H :    0.025611
 114 H :    0.009072

  Mayer bond orders larger than 0.100000
B(  0-C ,  1-O ) :   2.1081 B(  0-C ,  2-C ) :   0.9422 B(  0-C , 14-C ) :   0.9938
B(  2-C ,  3-C ) :   1.4188 B(  2-C ,  7-C ) :   1.3470 B(  3-C ,  4-C ) :   1.4005
B(  3-C , 77-H ) :   1.0143 B(  4-C ,  5-C ) :   1.4221 B(  4-C , 68-Cl) :   1.0147
B(  5-C ,  6-C ) :   1.4165 B(  5-C , 75-Cl) :   1.0333 B(  6-C ,  7-C ) :   1.4149
B(  6-C , 78-H ) :   0.9953 B(  7-C ,  8-C ) :   1.0427 B(  8-C ,  9-C ) :   1.7043
B(  8-C , 14-C ) :   1.0673 B(  9-C , 10-C ) :   1.0707 B(  9-C , 12-C ) :   1.0636
B( 10-C , 11-N ) :   3.0082 B( 12-C , 13-N ) :   2.9509 B( 14-C , 15-C ) :   1.7043
B( 15-C , 16-C ) :   1.1778 B( 15-C , 79-H ) :   0.9599 B( 16-C , 17-S ) :   1.0636
B( 16-C , 20-C ) :   1.5521 B( 17-S , 18-C ) :   1.0251 B( 18-C , 19-C ) :   1.5307
B( 18-C , 25-C ) :   1.3439 B( 19-C , 20-C ) :   1.4012 B( 19-C , 23-S ) :   1.0016
B( 20-C , 21-C ) :   0.9810 B( 21-C , 22-C ) :   1.0373 B( 21-C , 80-H ) :   0.9649
B( 21-C , 81-H ) :   0.9649 B( 22-C , 82-H ) :   0.9839 B( 22-C , 83-H ) :   0.9870
B( 22-C , 84-H ) :   0.9827 B( 23-S , 24-C ) :   0.9759 B( 24-C , 25-C ) :   1.4356
B( 24-C , 30-C ) :   1.4778 B( 25-C , 26-N ) :   1.1372 B( 26-N , 27-C ) :   0.8449
B( 26-N , 29-C ) :   1.0713 B( 27-C , 28-C ) :   1.0014 B( 27-C , 85-H ) :   0.9841
B( 27-C , 86-H ) :   0.9692 B( 28-C , 72-C ) :   0.9876 B( 28-C , 74-C ) :   1.0150
B( 28-C , 87-H ) :   0.9467 B( 29-C , 30-C ) :   1.4175 B( 29-C , 37-C ) :   1.1856
B( 30-C , 31-C ) :   1.1322 B( 31-C , 32-N ) :   1.5696 B( 31-C , 35-C ) :   1.1447
B( 32-N , 33-S ) :   1.1972 B( 33-S , 34-N ) :   1.1874 B( 34-N , 35-C ) :   1.5623
B( 35-C , 36-C ) :   1.1603 B( 36-C , 37-C ) :   1.4303 B( 36-C , 42-C ) :   1.2208
B( 37-C , 38-N ) :   1.0845 B( 38-N , 39-C ) :   0.8465 B( 38-N , 41-C ) :   0.9707
B( 39-C , 40-C ) :   0.9932 B( 39-C , 88-H ) :   0.9872 B( 39-C , 89-H ) :   0.9622
B( 40-C , 69-C ) :   0.9690 B( 40-C , 71-C ) :   1.0314 B( 40-C , 90-H ) :   0.9612
B( 41-C , 42-C ) :   1.0430 B( 41-C , 45-C ) :   1.6547 B( 42-C , 43-S ) :   1.6282
B( 44-C , 45-C ) :   2.1155 B( 44-C , 46-S ) :   0.8693 B( 44-C , 48-C ) :   0.9193
B( 45-C , 46-S ) :   0.1263 B( 46-S , 48-C ) :   0.9888 B( 47-C , 48-C ) :   0.8760
B( 47-C , 51-C ) :   2.7710 B( 48-C , 49-C ) :   0.9442 B( 49-C , 50-C ) :   1.0411
B( 49-C , 91-H ) :   0.9660 B( 49-C , 92-H ) :   0.9624 B( 50-C , 93-H ) :   0.9813
B( 50-C , 94-H ) :   0.9881 B( 50-C , 95-H ) :   0.9837 B( 51-C , 96-H ) :   1.0452
B( 52-C , 53-C ) :   1.0033 B( 52-C , 64-C ) :   0.9444 B( 52-C , 65-C ) :   1.6724
B( 53-C , 54-C ) :   1.7736 B( 53-C , 59-C ) :   1.0086 B( 54-C , 55-C ) :   1.0757
B( 54-C , 57-C ) :   1.0468 B( 55-C , 56-N ) :   2.9581 B( 57-C , 58-N ) :   3.0250
B( 59-C , 60-C ) :   1.4548 B( 59-C , 64-C ) :   1.3008 B( 60-C , 61-C ) :   1.3761
B( 60-C , 97-H ) :   1.0182 B( 61-C , 62-C ) :   1.4599 B( 61-C , 76-Cl) :   1.0046
B( 62-C , 63-C ) :   1.3611 B( 62-C , 67-Cl) :   1.0230 B( 63-C , 64-C ) :   1.4763
B( 63-C , 98-H ) :   1.0165 B( 65-C , 66-O ) :   2.2986 B( 69-C , 70-C ) :   1.0473
B( 69-C , 99-H ) :   0.9823 B( 69-C ,100-H ) :   0.9693 B( 70-C ,101-H ) :   0.9832
B( 70-C ,102-H ) :   0.9853 B( 70-C ,103-H ) :   0.9849 B( 71-C ,104-H ) :   0.9806
B( 71-C ,105-H ) :   0.9826 B( 71-C ,106-H ) :   0.9891 B( 72-C , 73-C ) :   1.0509
B( 72-C ,107-H ) :   0.9682 B( 72-C ,108-H ) :   0.9639 B( 73-C ,109-H ) :   0.9820
B( 73-C ,110-H ) :   0.9858 B( 73-C ,111-H ) :   0.9823 B( 74-C ,112-H ) :   0.9811
B( 74-C ,113-H ) :   0.9829 B( 74-C ,114-H ) :   0.9866

-----------------------------------------------------------------------------
         ABSORPTION SPECTRUM VIA TRANSITION ELECTRIC DIPOLE MOMENTS
-----------------------------------------------------------------------------
State   Energy    Wavelength  fosc         T2        TX        TY        TZ
        (cm-1)      (nm)                 (au**2)    (au)      (au)      (au)
-----------------------------------------------------------------------------
   1   20283.8    493.0   0.000372487   0.00605  -0.03340   0.06078  -0.03515
   2   22362.1    447.2   1.120842583  16.50087   2.66375  -1.75475   2.51518
   3   25827.0    387.2   0.131963384   1.68211   0.98318   0.81746   0.21732

FINAL SINGLE POINT ENERGY     -6625.558291579146

DIPOLE MOMENT
-------------
                                X             Y             Z
Electronic contribution:    -40.86525     -26.08759     -16.16456
Nuclear contribution   :     42.72594      27.25109      16.34236
                        -----------------------------------------
Total Dipole Moment    :      1.86069       1.16351       0.17780
                        -----------------------------------------
Magnitude (a.u.)       :      2.20171
Magnitude (Debye)      :      5.59631

Rotational constants in cm-1:     0.001211     0.000452     0.000378
Rotational constants in MHz :    36.316482    13.535762    11.335027

                             ****ORCA TERMINATED NORMALLY****
TOTAL RUN TIME: 1 days 1 hours 22 minutes 49 seconds 327 msec
