                         Program Version 4.2.0 -  RELEASE  -
|  1> # ORCA input file
|  2> # BTDT2R.out
|  3> ! Engrad Keepdens
|  4> %maxcore 1000
|  5> %tddft
|  6>   nroots 3
|  7>   # nroots is the number of states to be computed
|  8>   Iroot 1
|  9>   end
| 10> * xyz 0 1
| 11>    C        1.06622         1.91889        -0.01797
| 12>    C        2.28948         1.24158        -0.14673
| 13>    C        2.35738        -0.17822        -0.15810
| 14>    C        1.22552        -0.99446        -0.15792
| 15>    C       -0.01907        -0.32231        -0.06716
| 16>    C       -0.09171         1.10415         0.02443
| 17>    N       -1.22235        -0.88546        -0.03816
| 18>    S       -2.33868         0.25810         0.09811
| 19>    N       -1.34955         1.52863         0.12363
| 20>    O        3.40778         2.00682        -0.21691
| 21>    O        3.61264        -0.76062        -0.12632
| 22>    C        4.06782        -1.02261         1.18978
| 23>    C        4.51087         1.60269        -1.01186
| 24>    C        0.92259         3.34394         0.05948
| 25>    C        1.25176        -2.42893        -0.22113
| 26>    S       -0.66138         4.04829         0.05312
| 27>    C       -0.00013         5.65972         0.15107
| 28>    C        1.38467         5.61789         0.19721
| 29>    C        1.89533         4.32841         0.14876
| 30>    C        2.30754        -3.25617        -0.58093
| 31>    C        1.97318        -4.59660        -0.54526
| 32>    C        0.65502        -4.83470        -0.15834
| 33>    S       -0.17739        -3.33694         0.14827
| 34>    C       -0.88511         6.75736         0.18388
| 35>    C       -0.59114         8.08094         0.25885
| 36>    C        0.11548        -6.13323        -0.06476
| 37>    C       -1.14345        -6.54007         0.25844
| 38>    C       -1.64321         9.09550         0.29173
| 39>    N       -1.08255        10.36144         0.37515
| 40>    C        0.26978        10.44456         0.40673
| 41>    S        0.98387         8.83646         0.33267
| 42>    S       -1.57023        -8.24410         0.28078
| 43>    C       -3.23074        -7.88087         0.72036
| 44>    N       -3.39848        -6.53842         0.83629
| 45>    C       -2.29801        -5.73040         0.60648
| 46>    O       -2.83669         8.89547         0.25478
| 47>    C       -1.91058        11.54069         0.42745
| 48>    S        1.12084        11.83206         0.50046
| 49>    S       -4.40306        -8.98953         0.95794
| 50>    C       -4.67708        -5.97107         1.18703
| 51>    O       -2.34588        -4.51891         0.69925
| 52>    H        3.39113        -1.70516         1.71283
| 53>    H        4.16103        -0.09734         1.76805
| 54>    H        5.04559        -1.48848         1.08361
| 55>    H        4.95744         2.52823        -1.37933
| 56>    H        4.19587         0.98871        -1.85581
| 57>    H        5.25059         1.05639        -0.42368
| 58>    H        2.00147         6.49543         0.26760
| 59>    H        2.94366         4.10588         0.18912
| 60>    H        3.27107        -2.88540        -0.87713
| 61>    H        2.65346        -5.39163        -0.79588
| 62>    H       -1.94427         6.52936         0.14628
| 63>    H        0.82089        -6.92416        -0.29584
| 64>    H       -2.94701        11.20872         0.39080
| 65>    H       -1.68981        12.19081        -0.41984
| 66>    H       -1.72004        12.09017         1.35001
| 67>    H       -5.00196        -6.35271         2.15548
| 68>    H       -5.42215        -6.23972         0.43733
| 69>    H       -4.55154        -4.89020         1.22691
| 70> *
| 71>
| 72>                          ****END OF INPUT****

CARTESIAN COORDINATES (ANGSTROEM)
---------------------------------
  C      1.066220    1.918890   -0.017970
  C      2.289480    1.241580   -0.146730
  C      2.357380   -0.178220   -0.158100
  C      1.225520   -0.994460   -0.157920
  C     -0.019070   -0.322310   -0.067160
  C     -0.091710    1.104150    0.024430
  N     -1.222350   -0.885460   -0.038160
  S     -2.338680    0.258100    0.098110
  N     -1.349550    1.528630    0.123630
  O      3.407780    2.006820   -0.216910
  O      3.612640   -0.760620   -0.126320
  C      4.067820   -1.022610    1.189780
  C      4.510870    1.602690   -1.011860
  C      0.922590    3.343940    0.059480
  C      1.251760   -2.428930   -0.221130
  S     -0.661380    4.048290    0.053120
  C     -0.000130    5.659720    0.151070
  C      1.384670    5.617890    0.197210
  C      1.895330    4.328410    0.148760
  C      2.307540   -3.256170   -0.580930
  C      1.973180   -4.596600   -0.545260
  C      0.655020   -4.834700   -0.158340
  S     -0.177390   -3.336940    0.148270
  C     -0.885110    6.757360    0.183880
  C     -0.591140    8.080940    0.258850
  C      0.115480   -6.133230   -0.064760
  C     -1.143450   -6.540070    0.258440
  C     -1.643210    9.095500    0.291730
  N     -1.082550   10.361440    0.375150
  C      0.269780   10.444560    0.406730
  S      0.983870    8.836460    0.332670
  S     -1.570230   -8.244100    0.280780
  C     -3.230740   -7.880870    0.720360
  N     -3.398480   -6.538420    0.836290
  C     -2.298010   -5.730400    0.606480
  O     -2.836690    8.895470    0.254780
  C     -1.910580   11.540690    0.427450
  S      1.120840   11.832060    0.500460
  S     -4.403060   -8.989530    0.957940
  C     -4.677080   -5.971070    1.187030
  O     -2.345880   -4.518910    0.699250
  H      3.391130   -1.705160    1.712830
  H      4.161030   -0.097340    1.768050
  H      5.045590   -1.488480    1.083610
  H      4.957440    2.528230   -1.379330
  H      4.195870    0.988710   -1.855810
  H      5.250590    1.056390   -0.423680
  H      2.001470    6.495430    0.267600
  H      2.943660    4.105880    0.189120
  H      3.271070   -2.885400   -0.877130
  H      2.653460   -5.391630   -0.795880
  H     -1.944270    6.529360    0.146280
  H      0.820890   -6.924160   -0.295840
  H     -2.947010   11.208720    0.390800
  H     -1.689810   12.190810   -0.419840
  H     -1.720040   12.090170    1.350010
  H     -5.001960   -6.352710    2.155480
  H     -5.422150   -6.239720    0.437330
  H     -4.551540   -4.890200    1.226910

 Total Charge           Charge          ....    0
 Multiplicity           Mult            ....    1
 Number of Electrons    NEL             ....  346
 Basis Dimension        Dim             ....  692

ORBITAL ENERGIES
----------------

  NO   OCC          E(Eh)            E(eV)
   0   2.0000     -92.043198     -2504.6227
   1   2.0000     -91.970561     -2502.6462
   2   2.0000     -91.966877     -2502.5459
   3   2.0000     -91.960779     -2502.3800
   4   2.0000     -91.959445     -2502.3437
   5   2.0000     -91.884052     -2500.2922
   6   2.0000     -91.880942     -2500.2075
   7   2.0000     -20.610069      -560.8285
   8   2.0000     -20.606350      -560.7273
   9   2.0000     -20.557150      -559.3885
  10   2.0000     -20.544503      -559.0444
  11   2.0000     -15.644401      -425.7058
  12   2.0000     -15.637212      -425.5102
  13   2.0000     -15.621805      -425.0909
  14   2.0000     -15.617495      -424.9737
  15   2.0000     -11.396323      -310.1097
  16   2.0000     -11.384600      -309.7907
  17   2.0000     -11.382283      -309.7277
  18   2.0000     -11.377830      -309.6065
  19   2.0000     -11.353358      -308.9406
  20   2.0000     -11.345536      -308.7277
  21   2.0000     -11.315459      -307.9093
  22   2.0000     -11.315238      -307.9033
  23   2.0000     -11.314151      -307.8737
  24   2.0000     -11.311145      -307.7919
  25   2.0000     -11.309869      -307.7572
  26   2.0000     -11.296733      -307.3997
  27   2.0000     -11.296367      -307.3898
  28   2.0000     -11.294643      -307.3428
  29   2.0000     -11.293105      -307.3010
  30   2.0000     -11.290999      -307.2437
  31   2.0000     -11.286534      -307.1222
  32   2.0000     -11.285851      -307.1036
  33   2.0000     -11.285167      -307.0850
  34   2.0000     -11.279597      -306.9334
  35   2.0000     -11.276651      -306.8533
  36   2.0000     -11.274155      -306.7854
  37   2.0000     -11.267009      -306.5909
  38   2.0000     -11.259086      -306.3753
  39   2.0000     -11.254905      -306.2615
  40   2.0000     -11.249379      -306.1112
  41   2.0000      -9.074016      -246.9165
  42   2.0000      -9.007846      -245.1160
  43   2.0000      -9.003764      -245.0049
  44   2.0000      -8.994897      -244.7636
  45   2.0000      -8.994440      -244.7512
  46   2.0000      -8.921605      -242.7692
  47   2.0000      -8.918506      -242.6849
  48   2.0000      -6.761240      -183.9827
  49   2.0000      -6.759400      -183.9326
  50   2.0000      -6.758032      -183.8954
  51   2.0000      -6.695237      -182.1867
  52   2.0000      -6.694093      -182.1555
  53   2.0000      -6.691672      -182.0897
  54   2.0000      -6.691152      -182.0755
  55   2.0000      -6.690021      -182.0447
  56   2.0000      -6.687643      -181.9800
  57   2.0000      -6.681590      -181.8153
  58   2.0000      -6.681474      -181.8121
  59   2.0000      -6.680401      -181.7830
  60   2.0000      -6.680358      -181.7818
  61   2.0000      -6.678647      -181.7352
  62   2.0000      -6.678476      -181.7306
  63   2.0000      -6.609912      -179.8649
  64   2.0000      -6.607162      -179.7900
  65   2.0000      -6.606812      -179.7805
  66   2.0000      -6.605699      -179.7502
  67   2.0000      -6.604083      -179.7062
  68   2.0000      -6.602602      -179.6659
  69   2.0000      -1.441778       -39.2328
  70   2.0000      -1.419221       -38.6190
  71   2.0000      -1.413165       -38.4542
  72   2.0000      -1.406945       -38.2849
  73   2.0000      -1.369683       -37.2710
  74   2.0000      -1.320862       -35.9425
  75   2.0000      -1.312823       -35.7237
  76   2.0000      -1.217524       -33.1305
  77   2.0000      -1.205275       -32.7972
  78   2.0000      -1.190141       -32.3854
  79   2.0000      -1.171444       -31.8766
  80   2.0000      -1.145381       -31.1674
  81   2.0000      -1.136230       -30.9184
  82   2.0000      -1.092888       -29.7390
  83   2.0000      -1.075944       -29.2779
  84   2.0000      -1.065469       -28.9929
  85   2.0000      -1.051460       -28.6117
  86   2.0000      -1.041134       -28.3307
  87   2.0000      -1.027885       -27.9702
  88   2.0000      -1.010641       -27.5009
  89   2.0000      -1.002482       -27.2789
  90   2.0000      -0.984397       -26.7868
  91   2.0000      -0.973903       -26.5013
  92   2.0000      -0.964495       -26.2452
  93   2.0000      -0.956275       -26.0216
  94   2.0000      -0.951462       -25.8906
  95   2.0000      -0.942661       -25.6511
  96   2.0000      -0.905346       -24.6357
  97   2.0000      -0.884432       -24.0666
  98   2.0000      -0.873435       -23.7674
  99   2.0000      -0.853830       -23.2339
 100   2.0000      -0.845215       -22.9995
 101   2.0000      -0.834819       -22.7166
 102   2.0000      -0.828530       -22.5454
 103   2.0000      -0.797231       -21.6938
 104   2.0000      -0.783142       -21.3104
 105   2.0000      -0.774787       -21.0830
 106   2.0000      -0.764173       -20.7942
 107   2.0000      -0.749699       -20.4003
 108   2.0000      -0.741446       -20.1758
 109   2.0000      -0.730118       -19.8675
 110   2.0000      -0.727338       -19.7919
 111   2.0000      -0.705501       -19.1977
 112   2.0000      -0.702463       -19.1150
 113   2.0000      -0.692859       -18.8537
 114   2.0000      -0.691195       -18.8084
 115   2.0000      -0.689913       -18.7735
 116   2.0000      -0.681439       -18.5429
 117   2.0000      -0.676638       -18.4123
 118   2.0000      -0.673611       -18.3299
 119   2.0000      -0.668275       -18.1847
 120   2.0000      -0.667814       -18.1721
 121   2.0000      -0.661628       -18.0038
 122   2.0000      -0.652761       -17.7625
 123   2.0000      -0.642336       -17.4789
 124   2.0000      -0.638946       -17.3866
 125   2.0000      -0.632979       -17.2242
 126   2.0000      -0.623027       -16.9534
 127   2.0000      -0.619218       -16.8498
 128   2.0000      -0.603972       -16.4349
 129   2.0000      -0.598488       -16.2857
 130   2.0000      -0.592789       -16.1306
 131   2.0000      -0.587181       -15.9780
 132   2.0000      -0.581443       -15.8219
 133   2.0000      -0.577356       -15.7107
 134   2.0000      -0.572513       -15.5789
 135   2.0000      -0.567040       -15.4299
 136   2.0000      -0.562659       -15.3107
 137   2.0000      -0.559534       -15.2257
 138   2.0000      -0.557216       -15.1626
 139   2.0000      -0.555050       -15.1037
 140   2.0000      -0.550579       -14.9820
 141   2.0000      -0.543879       -14.7997
 142   2.0000      -0.542396       -14.7594
 143   2.0000      -0.540668       -14.7123
 144   2.0000      -0.529388       -14.4054
 145   2.0000      -0.526143       -14.3171
 146   2.0000      -0.523233       -14.2379
 147   2.0000      -0.519838       -14.1455
 148   2.0000      -0.516305       -14.0494
 149   2.0000      -0.511581       -13.9208
 150   2.0000      -0.510695       -13.8967
 151   2.0000      -0.509639       -13.8680
 152   2.0000      -0.497737       -13.5441
 153   2.0000      -0.486252       -13.2316
 154   2.0000      -0.473020       -12.8715
 155   2.0000      -0.472314       -12.8523
 156   2.0000      -0.462668       -12.5898
 157   2.0000      -0.456202       -12.4139
 158   2.0000      -0.454166       -12.3585
 159   2.0000      -0.445660       -12.1270
 160   2.0000      -0.427402       -11.6302
 161   2.0000      -0.406817       -11.0701
 162   2.0000      -0.394643       -10.7388
 163   2.0000      -0.375386       -10.2148
 164   2.0000      -0.363985        -9.9045
 165   2.0000      -0.360436        -9.8080
 166   2.0000      -0.358010        -9.7419
 167   2.0000      -0.354946        -9.6586
 168   2.0000      -0.344396        -9.3715
 169   2.0000      -0.340949        -9.2777
 170   2.0000      -0.334447        -9.1008
 171   2.0000      -0.298872        -8.1327
 172   2.0000      -0.262823        -7.1518
 173   0.0000      -0.023911        -0.6507
 174   0.0000       0.025277         0.6878
 175   0.0000       0.037988         1.0337
 176   0.0000       0.088022         2.3952
 177   0.0000       0.098249         2.6735

MULLIKEN ATOMIC CHARGES
-----------------------
   0 C :   -0.051613
   1 C :    0.322247
   2 C :    0.155096
   3 C :    0.009147
   4 C :    0.138383
   5 C :    0.166650
   6 N :   -0.496952
   7 S :    0.658970
   8 N :   -0.542065
   9 O :   -0.579361
  10 O :   -0.602123
  11 C :    0.241609
  12 C :    0.271788
  13 C :   -0.093946
  14 C :   -0.105096
  15 S :    0.200803
  16 C :   -0.203362
  17 C :    0.024165
  18 C :   -0.011763
  19 C :   -0.005500
  20 C :    0.018512
  21 C :   -0.159174
  22 S :    0.265700
  23 C :    0.133889
  24 C :   -0.313099
  25 C :    0.128068
  26 C :   -0.370948
  27 C :    0.603383
  28 N :   -0.571578
  29 C :    0.179577
  30 S :    0.095236
  31 S :    0.134747
  32 C :    0.163143
  33 N :   -0.568549
  34 C :    0.642794
  35 O :   -0.398844
  36 C :    0.181581
  37 S :   -0.230148
  38 S :   -0.229022
  39 C :    0.180945
  40 O :   -0.419233
  41 H :    0.052464
  42 H :    0.041823
  43 H :    0.051465
  44 H :    0.044948
  45 H :    0.040865
  46 H :    0.034201
  47 H :    0.061258
  48 H :    0.062844
  49 H :    0.062093
  50 H :    0.038083
  51 H :    0.082641
  52 H :    0.055519
  53 H :    0.083350
  54 H :    0.059334
  55 H :    0.059301
  56 H :    0.061524
  57 H :    0.061033
  58 H :    0.083197
Sum of atomic charges:   -0.0000000

LOEWDIN ATOMIC CHARGES
----------------------
   0 C :   -0.080158
   1 C :    0.101521
   2 C :    0.062622
   3 C :   -0.052095
   4 C :   -0.033446
   5 C :   -0.020122
   6 N :   -0.317733
   7 S :    0.673391
   8 N :   -0.345531
   9 O :   -0.178233
  10 O :   -0.202431
  11 C :    0.134964
  12 C :    0.143754
  13 C :   -0.145919
  14 C :   -0.161646
  15 S :    0.469077
  16 C :   -0.209608
  17 C :   -0.030213
  18 C :   -0.047752
  19 C :   -0.055657
  20 C :   -0.025353
  21 C :   -0.206805
  22 S :    0.534401
  23 C :    0.038911
  24 C :   -0.247385
  25 C :    0.044225
  26 C :   -0.255226
  27 C :    0.171362
  28 N :   -0.096828
  29 C :   -0.172127
  30 S :    0.363822
  31 S :    0.361466
  32 C :   -0.176494
  33 N :   -0.093728
  34 C :    0.170647
  35 O :   -0.269112
  36 C :    0.078933
  37 S :   -0.092791
  38 S :   -0.092839
  39 C :    0.078530
  40 O :   -0.274502
  41 H :    0.014379
  42 H :    0.011628
  43 H :    0.019869
  44 H :    0.016353
  45 H :    0.014785
  46 H :    0.010040
  47 H :    0.019922
  48 H :    0.031826
  49 H :    0.030571
  50 H :    0.028069
  51 H :    0.050279
  52 H :    0.043329
  53 H :    0.034334
  54 H :    0.023893
  55 H :    0.023886
  56 H :    0.024633
  57 H :    0.024713
  58 H :    0.033599

  Mayer bond orders larger than 0.100000
B(  0-C ,  1-C ) :   1.5394 B(  0-C ,  5-C ) :   1.1876 B(  0-C , 13-C ) :   1.1080
B(  1-C ,  2-C ) :   1.1769 B(  1-C ,  9-O ) :   1.0461 B(  2-C ,  3-C ) :   1.5612
B(  2-C , 10-O ) :   0.9818 B(  3-C ,  4-C ) :   1.1617 B(  3-C , 14-C ) :   1.1148
B(  4-C ,  5-C ) :   1.1539 B(  4-C ,  6-N ) :   1.4902 B(  5-C ,  8-N ) :   1.4658
B(  6-N ,  7-S ) :   1.2476 B(  6-N ,  8-N ) :   0.1168 B(  7-S ,  8-N ) :   1.2261
B(  9-O , 12-C ) :   0.8195 B( 10-O , 11-C ) :   0.8203 B( 11-C , 41-H ) :   0.9857
B( 11-C , 42-H ) :   0.9867 B( 11-C , 43-H ) :   0.9926 B( 12-C , 44-H ) :   0.9913
B( 12-C , 45-H ) :   0.9877 B( 12-C , 46-H ) :   0.9907 B( 13-C , 15-S ) :   1.1630
B( 13-C , 18-C ) :   1.5374 B( 14-C , 19-C ) :   1.4985 B( 14-C , 22-S ) :   1.1534
B( 15-S , 16-C ) :   1.1100 B( 16-C , 17-C ) :   1.5025 B( 16-C , 23-C ) :   1.1220
B( 17-C , 18-C ) :   1.3259 B( 17-C , 47-H ) :   0.9903 B( 18-C , 48-H ) :   1.0005
B( 19-C , 20-C ) :   1.3366 B( 19-C , 49-H ) :   1.0036 B( 20-C , 21-C ) :   1.4593
B( 20-C , 50-H ) :   1.0054 B( 21-C , 22-S ) :   1.1024 B( 21-C , 25-C ) :   1.2099
B( 23-C , 24-C ) :   1.8310 B( 23-C , 51-H ) :   0.9640 B( 24-C , 27-C ) :   0.9953
B( 24-C , 30-S ) :   0.9661 B( 25-C , 26-C ) :   1.7695 B( 25-C , 52-H ) :   0.9726
B( 26-C , 31-S ) :   1.0075 B( 26-C , 34-C ) :   0.9697 B( 27-C , 28-N ) :   1.0011
B( 27-C , 35-O ) :   2.0059 B( 28-N , 29-C ) :   1.1063 B( 28-N , 36-C ) :   0.8411
B( 29-C , 30-S ) :   1.0515 B( 29-C , 37-S ) :   1.6631 B( 31-S , 32-C ) :   1.0559
B( 32-C , 33-N ) :   1.0960 B( 32-C , 38-S ) :   1.6581 B( 33-N , 34-C ) :   1.0250
B( 33-N , 39-C ) :   0.8407 B( 34-C , 40-O ) :   1.9373 B( 36-C , 53-H ) :   0.9775
B( 36-C , 54-H ) :   0.9866 B( 36-C , 55-H ) :   0.9866 B( 39-C , 56-H ) :   0.9861
B( 39-C , 57-H ) :   0.9866 B( 39-C , 58-H ) :   0.9770

-----------------------------------------------------------------------------
         ABSORPTION SPECTRUM VIA TRANSITION ELECTRIC DIPOLE MOMENTS
-----------------------------------------------------------------------------
State   Energy    Wavelength  fosc         T2        TX        TY        TZ
        (cm-1)      (nm)                 (au**2)    (au)      (au)      (au)
-----------------------------------------------------------------------------
   1   22876.1    437.1   2.065212864  29.72072   0.53126   5.42571   0.01155
   2   31568.9    316.8   0.421143153   4.39183   1.91344  -0.72750  -0.44870
   3   35689.4    280.2   0.516063399   4.76036  -0.99965  -1.92438   0.24043

FINAL SINGLE POINT ENERGY     -4292.743444173935

DIPOLE MOMENT
-------------
                                X             Y             Z
Electronic contribution:    -15.89869      -7.03050      -0.98063
Nuclear contribution   :     18.67940       5.83881       0.74908
                        -----------------------------------------
Total Dipole Moment    :      2.78070      -1.19169      -0.23155
                        -----------------------------------------
Magnitude (a.u.)       :      3.03415
Magnitude (Debye)      :      7.71219

Rotational constants in cm-1:     0.005295     0.000627     0.000564
Rotational constants in MHz :   158.741716    18.790646    16.898589

                             ****ORCA TERMINATED NORMALLY****
TOTAL RUN TIME: 0 days 2 hours 52 minutes 34 seconds 117 msec
