                         Program Version 4.2.0 -  RELEASE  -
|  1> # ORCA input file
|  2> # BTDT2R.out: Geometry 48
|  3> ! Engrad Keepdens
|  4> %maxcore 1000
|  5> %tddft
|  6>   nroots 3
|  7>   # nroots is the number of states to be computed
|  8>   Iroot 1
|  9>   end
| 10> * xyz 0 1
| 11>    C        0.91670         1.93838         0.46829
| 12>    C        2.08553         1.24232         0.15150
| 13>    C        2.19921        -0.19462         0.18902
| 14>    C        1.11812        -1.04438         0.44719
| 15>    C       -0.11632        -0.35663         0.73379
| 16>    C       -0.20797         1.09456         0.77458
| 17>    N       -1.27495        -0.95096         1.00560
| 18>    S       -2.38959         0.21585         1.28389
| 19>    N       -1.42854         1.52992         1.07757
| 20>    O        3.20180         1.93118        -0.22133
| 21>    O        3.41021        -0.72574        -0.13026
| 22>    C        4.49006        -0.49818         0.77722
| 23>    C        3.49306         1.91962        -1.62117
| 24>    C        0.80898         3.38977         0.44979
| 25>    C        1.19177        -2.50002         0.41016
| 26>    S       -0.73588         4.21206         0.50556
| 27>    C        0.01848         5.78474         0.38677
| 28>    C        1.40614         5.65930         0.34396
| 29>    C        1.84442         4.32671         0.37811
| 30>    C        2.32721        -3.31243         0.31412
| 31>    C        2.02413        -4.67753         0.26911
| 32>    C        0.65422        -4.95838         0.31060
| 33>    S       -0.26510        -3.47759         0.45378
| 34>    C       -0.80113         6.95990         0.35594
| 35>    C       -0.40530         8.26056         0.27157
| 36>    C        0.16675        -6.30319         0.22749
| 37>    C       -1.08031        -6.85869         0.20994
| 38>    C       -1.39849         9.36070         0.21978
| 39>    N       -0.73331        10.59736         0.08974
| 40>    C        0.63822        10.57962         0.05546
| 41>    S        1.22762         8.91003         0.19408
| 42>    S       -1.33902        -8.60447         0.05763
| 43>    C       -3.09628        -8.43080         0.13297
| 44>    N       -3.42739        -7.10405         0.28209
| 45>    C       -2.37745        -6.16856         0.30276
| 46>    O       -2.60445         9.24926         0.27439
| 47>    C       -1.48415        11.83883        -0.01012
| 48>    S        1.63232        11.87653        -0.08603
| 49>    S       -4.14009        -9.69396         0.02861
| 50>    C       -4.80853        -6.66132         0.38313
| 51>    O       -2.56290        -4.96998         0.38897
| 52>    H        4.25139        -0.91346         1.77146
| 53>    H        4.71797         0.57336         0.86611
| 54>    H        5.35712        -1.02732         0.36001
| 55>    H        4.30394         2.64281        -1.77749
| 56>    H        2.60913         2.23761        -2.19876
| 57>    H        3.80944         0.91840        -1.95282
| 58>    H        2.08723         6.50597         0.28252
| 59>    H        2.88810         4.02977         0.35045
| 60>    H        3.33571        -2.91939         0.26406
| 61>    H        2.77778        -5.46340         0.19230
| 62>    H       -1.88823         6.82639         0.38104
| 63>    H        0.98934        -7.02329         0.14705
| 64>    H       -2.54576        11.57200        -0.08096
| 65>    H       -1.15748        12.40046        -0.89703
| 66>    H       -1.30554        12.46659         0.87610
| 67>    H       -5.34734        -7.30948         1.08604
| 68>    H       -5.30910        -6.72269        -0.59511
| 69>    H       -4.79479        -5.62118         0.72985
| 70> *
| 71>
| 72>                          ****END OF INPUT****

CARTESIAN COORDINATES (ANGSTROEM)
---------------------------------
  C      0.916700    1.938380    0.468290
  C      2.085530    1.242320    0.151500
  C      2.199210   -0.194620    0.189020
  C      1.118120   -1.044380    0.447190
  C     -0.116320   -0.356630    0.733790
  C     -0.207970    1.094560    0.774580
  N     -1.274950   -0.950960    1.005600
  S     -2.389590    0.215850    1.283890
  N     -1.428540    1.529920    1.077570
  O      3.201800    1.931180   -0.221330
  O      3.410210   -0.725740   -0.130260
  C      4.490060   -0.498180    0.777220
  C      3.493060    1.919620   -1.621170
  C      0.808980    3.389770    0.449790
  C      1.191770   -2.500020    0.410160
  S     -0.735880    4.212060    0.505560
  C      0.018480    5.784740    0.386770
  C      1.406140    5.659300    0.343960
  C      1.844420    4.326710    0.378110
  C      2.327210   -3.312430    0.314120
  C      2.024130   -4.677530    0.269110
  C      0.654220   -4.958380    0.310600
  S     -0.265100   -3.477590    0.453780
  C     -0.801130    6.959900    0.355940
  C     -0.405300    8.260560    0.271570
  C      0.166750   -6.303190    0.227490
  C     -1.080310   -6.858690    0.209940
  C     -1.398490    9.360700    0.219780
  N     -0.733310   10.597360    0.089740
  C      0.638220   10.579620    0.055460
  S      1.227620    8.910030    0.194080
  S     -1.339020   -8.604470    0.057630
  C     -3.096280   -8.430800    0.132970
  N     -3.427390   -7.104050    0.282090
  C     -2.377450   -6.168560    0.302760
  O     -2.604450    9.249260    0.274390
  C     -1.484150   11.838830   -0.010120
  S      1.632320   11.876530   -0.086030
  S     -4.140090   -9.693960    0.028610
  C     -4.808530   -6.661320    0.383130
  O     -2.562900   -4.969980    0.388970
  H      4.251390   -0.913460    1.771460
  H      4.717970    0.573360    0.866110
  H      5.357120   -1.027320    0.360010
  H      4.303940    2.642810   -1.777490
  H      2.609130    2.237610   -2.198760
  H      3.809440    0.918400   -1.952820
  H      2.087230    6.505970    0.282520
  H      2.888100    4.029770    0.350450
  H      3.335710   -2.919390    0.264060
  H      2.777780   -5.463400    0.192300
  H     -1.888230    6.826390    0.381040
  H      0.989340   -7.023290    0.147050
  H     -2.545760   11.572000   -0.080960
  H     -1.157480   12.400460   -0.897030
  H     -1.305540   12.466590    0.876100
  H     -5.347340   -7.309480    1.086040
  H     -5.309100   -6.722690   -0.595110
  H     -4.794790   -5.621180    0.729850

 Total Charge           Charge          ....    0
 Multiplicity           Mult            ....    1
 Number of Electrons    NEL             ....  346
 Basis Dimension        Dim             ....  692

ORBITAL ENERGIES
----------------

  NO   OCC          E(Eh)            E(eV)
   0   2.0000     -92.035919     -2504.4247
   1   2.0000     -91.973916     -2502.7375
   2   2.0000     -91.970133     -2502.6346
   3   2.0000     -91.969093     -2502.6063
   4   2.0000     -91.960534     -2502.3733
   5   2.0000     -91.889453     -2500.4391
   6   2.0000     -91.884613     -2500.3074
   7   2.0000     -20.605423      -560.7021
   8   2.0000     -20.604784      -560.6847
   9   2.0000     -20.557051      -559.3858
  10   2.0000     -20.556642      -559.3747
  11   2.0000     -15.645100      -425.7248
  12   2.0000     -15.643276      -425.6752
  13   2.0000     -15.627263      -425.2394
  14   2.0000     -15.625735      -425.1979
  15   2.0000     -11.397442      -310.1402
  16   2.0000     -11.396547      -310.1158
  17   2.0000     -11.388255      -309.8902
  18   2.0000     -11.385179      -309.8065
  19   2.0000     -11.348951      -308.8207
  20   2.0000     -11.347974      -308.7941
  21   2.0000     -11.323613      -308.1312
  22   2.0000     -11.322340      -308.0965
  23   2.0000     -11.315865      -307.9203
  24   2.0000     -11.315497      -307.9103
  25   2.0000     -11.309816      -307.7557
  26   2.0000     -11.306462      -307.6645
  27   2.0000     -11.302005      -307.5432
  28   2.0000     -11.299824      -307.4838
  29   2.0000     -11.299652      -307.4792
  30   2.0000     -11.298131      -307.4378
  31   2.0000     -11.297985      -307.4338
  32   2.0000     -11.297344      -307.4163
  33   2.0000     -11.292954      -307.2969
  34   2.0000     -11.288392      -307.1728
  35   2.0000     -11.283680      -307.0445
  36   2.0000     -11.281546      -306.9865
  37   2.0000     -11.270693      -306.6911
  38   2.0000     -11.268739      -306.6380
  39   2.0000     -11.262955      -306.4806
  40   2.0000     -11.256927      -306.3166
  41   2.0000      -9.066509      -246.7122
  42   2.0000      -9.010217      -245.1805
  43   2.0000      -9.005704      -245.0577
  44   2.0000      -9.004574      -245.0269
  45   2.0000      -8.994024      -244.7398
  46   2.0000      -8.926395      -242.8996
  47   2.0000      -8.921554      -242.7678
  48   2.0000      -6.753638      -183.7758
  49   2.0000      -6.751898      -183.7285
  50   2.0000      -6.750332      -183.6859
  51   2.0000      -6.697577      -182.2503
  52   2.0000      -6.696422      -182.2189
  53   2.0000      -6.694072      -182.1550
  54   2.0000      -6.693074      -182.1278
  55   2.0000      -6.691910      -182.0961
  56   2.0000      -6.691771      -182.0923
  57   2.0000      -6.690692      -182.0630
  58   2.0000      -6.689524      -182.0312
  59   2.0000      -6.688970      -182.0161
  60   2.0000      -6.680805      -181.7940
  61   2.0000      -6.679731      -181.7647
  62   2.0000      -6.677946      -181.7161
  63   2.0000      -6.614625      -179.9931
  64   2.0000      -6.611963      -179.9207
  65   2.0000      -6.610468      -179.8800
  66   2.0000      -6.609811      -179.8621
  67   2.0000      -6.607104      -179.7884
  68   2.0000      -6.605654      -179.7490
  69   2.0000      -1.441215       -39.2175
  70   2.0000      -1.410738       -38.3881
  71   2.0000      -1.410407       -38.3791
  72   2.0000      -1.409549       -38.3558
  73   2.0000      -1.355495       -36.8849
  74   2.0000      -1.308957       -35.6185
  75   2.0000      -1.306924       -35.5632
  76   2.0000      -1.212242       -32.9868
  77   2.0000      -1.197662       -32.5900
  78   2.0000      -1.186309       -32.2811
  79   2.0000      -1.162684       -31.6382
  80   2.0000      -1.137280       -30.9470
  81   2.0000      -1.133292       -30.8384
  82   2.0000      -1.087701       -29.5978
  83   2.0000      -1.072165       -29.1751
  84   2.0000      -1.062648       -28.9161
  85   2.0000      -1.040627       -28.3169
  86   2.0000      -1.034346       -28.1460
  87   2.0000      -1.022832       -27.8327
  88   2.0000      -1.005528       -27.3618
  89   2.0000      -0.997832       -27.1524
  90   2.0000      -0.979195       -26.6453
  91   2.0000      -0.972540       -26.4642
  92   2.0000      -0.958213       -26.0743
  93   2.0000      -0.956340       -26.0233
  94   2.0000      -0.949623       -25.8406
  95   2.0000      -0.940111       -25.5817
  96   2.0000      -0.900336       -24.4994
  97   2.0000      -0.880714       -23.9655
  98   2.0000      -0.870642       -23.6914
  99   2.0000      -0.848764       -23.0960
 100   2.0000      -0.838503       -22.8168
 101   2.0000      -0.827873       -22.5276
 102   2.0000      -0.823158       -22.3993
 103   2.0000      -0.791232       -21.5305
 104   2.0000      -0.780046       -21.2261
 105   2.0000      -0.774350       -21.0711
 106   2.0000      -0.762432       -20.7468
 107   2.0000      -0.749072       -20.3833
 108   2.0000      -0.736916       -20.0525
 109   2.0000      -0.727580       -19.7985
 110   2.0000      -0.721246       -19.6261
 111   2.0000      -0.705879       -19.2079
 112   2.0000      -0.698609       -19.0101
 113   2.0000      -0.686417       -18.6783
 114   2.0000      -0.684389       -18.6232
 115   2.0000      -0.683456       -18.5978
 116   2.0000      -0.680903       -18.5283
 117   2.0000      -0.670995       -18.2587
 118   2.0000      -0.670133       -18.2352
 119   2.0000      -0.669711       -18.2238
 120   2.0000      -0.660424       -17.9710
 121   2.0000      -0.659797       -17.9540
 122   2.0000      -0.652837       -17.7646
 123   2.0000      -0.634716       -17.2715
 124   2.0000      -0.631976       -17.1969
 125   2.0000      -0.629486       -17.1292
 126   2.0000      -0.623592       -16.9688
 127   2.0000      -0.621448       -16.9105
 128   2.0000      -0.604048       -16.4370
 129   2.0000      -0.591734       -16.1019
 130   2.0000      -0.587992       -16.0001
 131   2.0000      -0.584672       -15.9097
 132   2.0000      -0.579505       -15.7691
 133   2.0000      -0.578931       -15.7535
 134   2.0000      -0.570848       -15.5336
 135   2.0000      -0.566697       -15.4206
 136   2.0000      -0.559023       -15.2118
 137   2.0000      -0.557424       -15.1683
 138   2.0000      -0.553299       -15.0560
 139   2.0000      -0.550412       -14.9775
 140   2.0000      -0.547019       -14.8852
 141   2.0000      -0.544356       -14.8127
 142   2.0000      -0.540994       -14.7212
 143   2.0000      -0.537984       -14.6393
 144   2.0000      -0.533712       -14.5230
 145   2.0000      -0.519496       -14.1362
 146   2.0000      -0.517213       -14.0741
 147   2.0000      -0.515391       -14.0245
 148   2.0000      -0.514454       -13.9990
 149   2.0000      -0.513080       -13.9616
 150   2.0000      -0.511689       -13.9238
 151   2.0000      -0.506636       -13.7863
 152   2.0000      -0.491861       -13.3842
 153   2.0000      -0.488307       -13.2875
 154   2.0000      -0.473862       -12.8945
 155   2.0000      -0.464990       -12.6530
 156   2.0000      -0.460935       -12.5427
 157   2.0000      -0.459875       -12.5138
 158   2.0000      -0.458556       -12.4780
 159   2.0000      -0.455272       -12.3886
 160   2.0000      -0.438100       -11.9213
 161   2.0000      -0.406973       -11.0743
 162   2.0000      -0.394717       -10.7408
 163   2.0000      -0.375509       -10.2181
 164   2.0000      -0.367806       -10.0085
 165   2.0000      -0.362412        -9.8617
 166   2.0000      -0.357252        -9.7213
 167   2.0000      -0.354180        -9.6377
 168   2.0000      -0.347028        -9.4431
 169   2.0000      -0.342980        -9.3330
 170   2.0000      -0.337309        -9.1786
 171   2.0000      -0.302473        -8.2307
 172   2.0000      -0.268487        -7.3059
 173   0.0000      -0.020782        -0.5655
 174   0.0000       0.023250         0.6327
 175   0.0000       0.035600         0.9687
 176   0.0000       0.084128         2.2892
 177   0.0000       0.092825         2.5259

MULLIKEN ATOMIC CHARGES
-----------------------
   0 C :   -0.001229
   1 C :    0.212723
   2 C :    0.243720
   3 C :   -0.027871
   4 C :    0.137023
   5 C :    0.138703
   6 N :   -0.487141
   7 S :    0.612458
   8 N :   -0.500658
   9 O :   -0.591683
  10 O :   -0.581674
  11 C :    0.215746
  12 C :    0.227483
  13 C :   -0.117044
  14 C :   -0.090778
  15 S :    0.214447
  16 C :   -0.206921
  17 C :    0.007402
  18 C :   -0.015925
  19 C :    0.000745
  20 C :    0.004793
  21 C :   -0.162449
  22 S :    0.266829
  23 C :    0.124189
  24 C :   -0.307621
  25 C :    0.110453
  26 C :   -0.360811
  27 C :    0.617421
  28 N :   -0.600154
  29 C :    0.184934
  30 S :    0.096185
  31 S :    0.134413
  32 C :    0.171676
  33 N :   -0.597254
  34 C :    0.643094
  35 O :   -0.390390
  36 C :    0.168820
  37 S :   -0.215276
  38 S :   -0.222717
  39 C :    0.170400
  40 O :   -0.401780
  41 H :    0.041225
  42 H :    0.072903
  43 H :    0.054649
  44 H :    0.054618
  45 H :    0.045877
  46 H :    0.063456
  47 H :    0.074422
  48 H :    0.077620
  49 H :    0.057142
  50 H :    0.048328
  51 H :    0.094303
  52 H :    0.060122
  53 H :    0.087455
  54 H :    0.065759
  55 H :    0.063495
  56 H :    0.067630
  57 H :    0.062189
  58 H :    0.084523
Sum of atomic charges:   -0.0000000

LOEWDIN ATOMIC CHARGES
----------------------
   0 C :   -0.061458
   1 C :    0.074590
   2 C :    0.080128
   3 C :   -0.063812
   4 C :   -0.022476
   5 C :   -0.023049
   6 N :   -0.312100
   7 S :    0.634581
   8 N :   -0.323269
   9 O :   -0.198289
  10 O :   -0.195618
  11 C :    0.135214
  12 C :    0.139951
  13 C :   -0.152413
  14 C :   -0.147333
  15 S :    0.456458
  16 C :   -0.201095
  17 C :   -0.037358
  18 C :   -0.045130
  19 C :   -0.057517
  20 C :   -0.027225
  21 C :   -0.205291
  22 S :    0.502100
  23 C :    0.032156
  24 C :   -0.239270
  25 C :    0.039820
  26 C :   -0.251457
  27 C :    0.186534
  28 N :   -0.114907
  29 C :   -0.160939
  30 S :    0.356278
  31 S :    0.352367
  32 C :   -0.163751
  33 N :   -0.112847
  34 C :    0.181560
  35 O :   -0.261606
  36 C :    0.079400
  37 S :   -0.090425
  38 S :   -0.099044
  39 C :    0.079354
  40 O :   -0.266606
  41 H :    0.012243
  42 H :    0.016717
  43 H :    0.021690
  44 H :    0.022222
  45 H :    0.015586
  46 H :    0.016440
  47 H :    0.024439
  48 H :    0.036199
  49 H :    0.031288
  50 H :    0.031282
  51 H :    0.054649
  52 H :    0.044970
  53 H :    0.036295
  54 H :    0.026068
  55 H :    0.026415
  56 H :    0.025916
  57 H :    0.026154
  58 H :    0.035223

  Mayer bond orders larger than 0.100000
B(  0-C ,  1-C ) :   1.6138 B(  0-C ,  5-C ) :   1.1439 B(  0-C , 13-C ) :   1.0901
B(  1-C ,  2-C ) :   1.1502 B(  1-C ,  9-O ) :   0.9912 B(  2-C ,  3-C ) :   1.6082
B(  2-C , 10-O ) :   1.0104 B(  3-C ,  4-C ) :   1.1451 B(  3-C , 14-C ) :   1.1018
B(  4-C ,  5-C ) :   1.1224 B(  4-C ,  6-N ) :   1.5461 B(  5-C ,  8-N ) :   1.5410
B(  6-N ,  7-S ) :   1.2014 B(  6-N ,  8-N ) :   0.1145 B(  7-S ,  8-N ) :   1.1953
B(  9-O , 12-C ) :   0.8061 B( 10-O , 11-C ) :   0.8069 B( 11-C , 41-H ) :   0.9831
B( 11-C , 42-H ) :   0.9838 B( 11-C , 43-H ) :   0.9921 B( 12-C , 44-H ) :   0.9928
B( 12-C , 45-H ) :   0.9828 B( 12-C , 46-H ) :   0.9857 B( 13-C , 15-S ) :   1.1571
B( 13-C , 18-C ) :   1.5536 B( 14-C , 19-C ) :   1.5255 B( 14-C , 22-S ) :   1.1451
B( 15-S , 16-C ) :   1.1158 B( 16-C , 17-C ) :   1.5201 B( 16-C , 23-C ) :   1.1006
B( 17-C , 18-C ) :   1.3160 B( 17-C , 47-H ) :   0.9861 B( 18-C , 48-H ) :   0.9952
B( 19-C , 20-C ) :   1.3202 B( 19-C , 49-H ) :   0.9985 B( 20-C , 21-C ) :   1.4850
B( 20-C , 50-H ) :   0.9989 B( 21-C , 22-S ) :   1.0966 B( 21-C , 25-C ) :   1.1907
B( 23-C , 24-C ) :   1.8542 B( 23-C , 51-H ) :   0.9614 B( 24-C , 27-C ) :   0.9836
B( 24-C , 30-S ) :   0.9686 B( 25-C , 26-C ) :   1.8115 B( 25-C , 52-H ) :   0.9687
B( 26-C , 31-S ) :   1.0052 B( 26-C , 34-C ) :   0.9512 B( 27-C , 28-N ) :   0.9824
B( 27-C , 35-O ) :   2.0102 B( 28-N , 29-C ) :   1.0961 B( 28-N , 36-C ) :   0.8348
B( 29-C , 30-S ) :   1.0448 B( 29-C , 37-S ) :   1.6715 B( 31-S , 32-C ) :   1.0526
B( 32-C , 33-N ) :   1.0886 B( 32-C , 38-S ) :   1.6577 B( 33-N , 34-C ) :   0.9977
B( 33-N , 39-C ) :   0.8363 B( 34-C , 40-O ) :   1.9797 B( 36-C , 53-H ) :   0.9783
B( 36-C , 54-H ) :   0.9845 B( 36-C , 55-H ) :   0.9884 B( 39-C , 56-H ) :   0.9825
B( 39-C , 57-H ) :   0.9899 B( 39-C , 58-H ) :   0.9785

-----------------------------------------------------------------------------
         ABSORPTION SPECTRUM VIA TRANSITION ELECTRIC DIPOLE MOMENTS
-----------------------------------------------------------------------------
State   Energy    Wavelength  fosc         T2        TX        TY        TZ
        (cm-1)      (nm)                 (au**2)    (au)      (au)      (au)
-----------------------------------------------------------------------------
   1   24015.6    416.4   2.195913901  30.10211   0.70686   5.44058   0.05063
   2   32135.2    311.2   0.246188788   2.52210   1.44490  -0.62932   0.19574
   3   32219.1    310.4   0.069002544   0.70506  -0.77255   0.32357  -0.05939

FINAL SINGLE POINT ENERGY     -4292.752657338198

DIPOLE MOMENT
-------------
                                X             Y             Z
Electronic contribution:    -14.76416      -9.26245       4.96176
Nuclear contribution   :     17.38693       8.74447      -5.21863
                        -----------------------------------------
Total Dipole Moment    :      2.62277      -0.51798      -0.25687
                        -----------------------------------------
Magnitude (a.u.)       :      2.68574
Magnitude (Debye)      :      6.82661

Rotational constants in cm-1:     0.005786     0.000582     0.000533
Rotational constants in MHz :   173.466136    17.458315    15.993395

                             ****ORCA TERMINATED NORMALLY****
TOTAL RUN TIME: 0 days 3 hours 41 minutes 57 seconds 923 msec
