                         Program Version 4.2.0 -  RELEASE  -
|  1> # ORCA input file
|  2> # BTN-4F.out
|  3> ! Engrad Keepdens
|  4> %maxcore 1000
|  5> %tddft
|  6>   nroots 3
|  7>   # nroots is the number of states to be computed
|  8>   Iroot 1
|  9>   end
| 10> * xyz 0 1
| 11>    C        0.58201        -0.50816         0.07026
| 12>    C        1.33094         0.67444        -0.02338
| 13>    C        2.79271         0.63292        -0.01305
| 14>    C        3.38164        -0.60516         0.17204
| 15>    C        2.64499        -1.81398         0.31162
| 16>    C        1.21909        -1.77036         0.24538
| 17>    N        3.19694        -3.00874         0.48909
| 18>    S        1.86025        -4.03543         0.58295
| 19>    N        0.59417        -2.93359         0.38084
| 20>    N        3.92151         1.52608        -0.13753
| 21>    C        5.11271         0.76843        -0.02893
| 22>    C        4.77600        -0.54996         0.22017
| 23>    C       -0.82319        -0.29359        -0.00469
| 24>    C       -0.94020         1.05869        -0.07294
| 25>    N        0.34019         1.65610        -0.08585
| 26>    N       -2.12617        -0.84360        -0.05968
| 27>    C       -3.08342         0.19449        -0.08985
| 28>    C       -2.33364         1.38529        -0.10676
| 29>    C        6.54091         1.01356        -0.13017
| 30>    C        7.33158        -0.09005         0.11602
| 31>    S        6.24100        -1.39751         0.43817
| 32>    S        7.49867         2.35761        -0.60371
| 33>    C        9.08345         1.40555        -0.49303
| 34>    C        8.75142         0.11498        -0.04160
| 35>    C        0.48557         3.08666        -0.09441
| 36>    C       -4.55690         0.11968        -0.25134
| 37>    C       -5.53120        -0.69131         0.23485
| 38>    C       10.30785         1.81530        -1.24155
| 39>    C       11.65417         1.91873        -0.99377
| 40>    C       -5.28315        -1.95910         1.02498
| 41>    C       -6.34006        -2.90773         0.60739
| 42>    C       -7.31659        -2.23415        -0.13691
| 43>    C       -7.03519        -0.76679        -0.07304
| 44>    C       12.38276         0.96792        -1.99475
| 45>    C       13.23458         0.08606        -1.13490
| 46>    C       13.26613         0.62288         0.16136
| 47>    C       12.75394         1.99436         0.06304
| 48>    C       -6.34670        -4.28634         0.76954
| 49>    C       -7.33746        -5.00516         0.10316
| 50>    C       -8.26909        -4.35768        -0.71342
| 51>    C       -8.26151        -2.96951        -0.84971
| 52>    C       13.72198        -1.17667        -1.41056
| 53>    C       14.10334        -1.95183        -0.31406
| 54>    C       13.98674        -1.46863         1.00062
| 55>    C       13.59150        -0.15686         1.25593
| 56>    O       -4.42176        -2.19731         1.84206
| 57>    C       -8.07607         0.14102        -0.03636
| 58>    C       -7.80643         1.63690        -0.03189
| 59>    C       -9.50634        -0.37340        -0.04702
| 60>    F       -7.36449        -6.34039         0.20851
| 61>    F       -9.17150        -5.07106        -1.40110
| 62>    O       12.24394         0.88423        -3.19483
| 63>    C       13.70330         3.02265         0.06162
| 64>    C       13.25020         4.33089        -0.31552
| 65>    C       15.21654         2.88001         0.07322
| 66>    F       14.20938        -2.29010         2.03584
| 67>    F       14.51897        -3.20884        -0.51907
| 68>    N      -10.69286        -0.80014        -0.05585
| 69>    N       -7.58275         2.87786        -0.02818
| 70>    N       16.47191         2.76168         0.08284
| 71>    N       12.87209         5.37648        -0.62700
| 72>    C        9.62678        -1.08579         0.05593
| 73>    C        3.84108         2.95829        -0.23916
| 74>    C       -2.32625        -2.26499        -0.21084
| 75>    H       -2.76103         2.37748        -0.16273
| 76>    H       -0.50017         3.56169        -0.08672
| 77>    H        1.01126         3.37854        -1.00363
| 78>    H        1.02416         3.38635         0.80570
| 79>    H       -4.91933         0.92587        -0.89194
| 80>    H       10.07470         1.70483        -2.30946
| 81>    H       -5.59081        -4.79895         1.35326
| 82>    H       -8.98053        -2.51980        -1.52800
| 83>    H       13.74187        -1.58307        -2.41446
| 84>    H       13.47299         0.18968         2.27729
| 85>    H       10.68346        -0.82313         0.06126
| 86>    H        9.44831        -1.75418        -0.79468
| 87>    H        9.42354        -1.64296         0.97675
| 88>    H        4.83301         3.40560        -0.25162
| 89>    H        3.30318         3.33231         0.63519
| 90>    H        3.31388         3.21356        -1.16021
| 91>    H       -1.61017        -2.65248        -0.93965
| 92>    H       -3.32074        -2.47165        -0.60445
| 93>    H       -2.18101        -2.74432         0.76055
| 94> *
| 95>
| 96>                          ****END OF INPUT****

CARTESIAN COORDINATES (ANGSTROEM)
---------------------------------
  C      0.582010   -0.508160    0.070260
  C      1.330940    0.674440   -0.023380
  C      2.792710    0.632920   -0.013050
  C      3.381640   -0.605160    0.172040
  C      2.644990   -1.813980    0.311620
  C      1.219090   -1.770360    0.245380
  N      3.196940   -3.008740    0.489090
  S      1.860250   -4.035430    0.582950
  N      0.594170   -2.933590    0.380840
  N      3.921510    1.526080   -0.137530
  C      5.112710    0.768430   -0.028930
  C      4.776000   -0.549960    0.220170
  C     -0.823190   -0.293590   -0.004690
  C     -0.940200    1.058690   -0.072940
  N      0.340190    1.656100   -0.085850
  N     -2.126170   -0.843600   -0.059680
  C     -3.083420    0.194490   -0.089850
  C     -2.333640    1.385290   -0.106760
  C      6.540910    1.013560   -0.130170
  C      7.331580   -0.090050    0.116020
  S      6.241000   -1.397510    0.438170
  S      7.498670    2.357610   -0.603710
  C      9.083450    1.405550   -0.493030
  C      8.751420    0.114980   -0.041600
  C      0.485570    3.086660   -0.094410
  C     -4.556900    0.119680   -0.251340
  C     -5.531200   -0.691310    0.234850
  C     10.307850    1.815300   -1.241550
  C     11.654170    1.918730   -0.993770
  C     -5.283150   -1.959100    1.024980
  C     -6.340060   -2.907730    0.607390
  C     -7.316590   -2.234150   -0.136910
  C     -7.035190   -0.766790   -0.073040
  C     12.382760    0.967920   -1.994750
  C     13.234580    0.086060   -1.134900
  C     13.266130    0.622880    0.161360
  C     12.753940    1.994360    0.063040
  C     -6.346700   -4.286340    0.769540
  C     -7.337460   -5.005160    0.103160
  C     -8.269090   -4.357680   -0.713420
  C     -8.261510   -2.969510   -0.849710
  C     13.721980   -1.176670   -1.410560
  C     14.103340   -1.951830   -0.314060
  C     13.986740   -1.468630    1.000620
  C     13.591500   -0.156860    1.255930
  O     -4.421760   -2.197310    1.842060
  C     -8.076070    0.141020   -0.036360
  C     -7.806430    1.636900   -0.031890
  C     -9.506340   -0.373400   -0.047020
  F     -7.364490   -6.340390    0.208510
  F     -9.171500   -5.071060   -1.401100
  O     12.243940    0.884230   -3.194830
  C     13.703300    3.022650    0.061620
  C     13.250200    4.330890   -0.315520
  C     15.216540    2.880010    0.073220
  F     14.209380   -2.290100    2.035840
  F     14.518970   -3.208840   -0.519070
  N    -10.692860   -0.800140   -0.055850
  N     -7.582750    2.877860   -0.028180
  N     16.471910    2.761680    0.082840
  N     12.872090    5.376480   -0.627000
  C      9.626780   -1.085790    0.055930
  C      3.841080    2.958290   -0.239160
  C     -2.326250   -2.264990   -0.210840
  H     -2.761030    2.377480   -0.162730
  H     -0.500170    3.561690   -0.086720
  H      1.011260    3.378540   -1.003630
  H      1.024160    3.386350    0.805700
  H     -4.919330    0.925870   -0.891940
  H     10.074700    1.704830   -2.309460
  H     -5.590810   -4.798950    1.353260
  H     -8.980530   -2.519800   -1.528000
  H     13.741870   -1.583070   -2.414460
  H     13.472990    0.189680    2.277290
  H     10.683460   -0.823130    0.061260
  H      9.448310   -1.754180   -0.794680
  H      9.423540   -1.642960    0.976750
  H      4.833010    3.405600   -0.251620
  H      3.303180    3.332310    0.635190
  H      3.313880    3.213560   -1.160210
  H     -1.610170   -2.652480   -0.939650
  H     -3.320740   -2.471650   -0.604450
  H     -2.181010   -2.744320    0.760550

 Total Charge           Charge          ....    0
 Multiplicity           Mult            ....    1
 Number of Electrons    NEL             ....  458
 Basis Dimension        Dim             .... 1003

ORBITAL ENERGIES
----------------

  NO   OCC          E(Eh)            E(eV)
   0   2.0000     -92.010300     -2503.7276
   1   2.0000     -91.978572     -2502.8642
   2   2.0000     -91.968322     -2502.5853
   3   2.0000     -26.349573      -717.0083
   4   2.0000     -26.343907      -716.8542
   5   2.0000     -26.343016      -716.8299
   6   2.0000     -26.342515      -716.8163
   7   2.0000     -20.589969      -560.2815
   8   2.0000     -20.585153      -560.1505
   9   2.0000     -15.651336      -425.8945
  10   2.0000     -15.646943      -425.7750
  11   2.0000     -15.641986      -425.6401
  12   2.0000     -15.641337      -425.6224
  13   2.0000     -15.639893      -425.5831
  14   2.0000     -15.633975      -425.4221
  15   2.0000     -15.625472      -425.1907
  16   2.0000     -15.619451      -425.0269
  17   2.0000     -15.608132      -424.7189
  18   2.0000     -11.400323      -310.2186
  19   2.0000     -11.397173      -310.1328
  20   2.0000     -11.390534      -309.9522
  21   2.0000     -11.389333      -309.9195
  22   2.0000     -11.388147      -309.8872
  23   2.0000     -11.384150      -309.7785
  24   2.0000     -11.380945      -309.6913
  25   2.0000     -11.380849      -309.6886
  26   2.0000     -11.378937      -309.6366
  27   2.0000     -11.376205      -309.5623
  28   2.0000     -11.358888      -309.0911
  29   2.0000     -11.356576      -309.0282
  30   2.0000     -11.355117      -308.9885
  31   2.0000     -11.342077      -308.6336
  32   2.0000     -11.337276      -308.5030
  33   2.0000     -11.334788      -308.4353
  34   2.0000     -11.334696      -308.4328
  35   2.0000     -11.333781      -308.4079
  36   2.0000     -11.328743      -308.2708
  37   2.0000     -11.325120      -308.1722
  38   2.0000     -11.320098      -308.0355
  39   2.0000     -11.319674      -308.0240
  40   2.0000     -11.317874      -307.9750
  41   2.0000     -11.315938      -307.9223
  42   2.0000     -11.315302      -307.9050
  43   2.0000     -11.314530      -307.8840
  44   2.0000     -11.314127      -307.8731
  45   2.0000     -11.310474      -307.7736
  46   2.0000     -11.310192      -307.7660
  47   2.0000     -11.308762      -307.7271
  48   2.0000     -11.307894      -307.7034
  49   2.0000     -11.307610      -307.6957
  50   2.0000     -11.306388      -307.6625
  51   2.0000     -11.305823      -307.6471
  52   2.0000     -11.305317      -307.6333
  53   2.0000     -11.305199      -307.6301
  54   2.0000     -11.301225      -307.5220
  55   2.0000     -11.294347      -307.3348
  56   2.0000     -11.282781      -307.0201
  57   2.0000     -11.281672      -306.9899
  58   2.0000     -11.281030      -306.9724
  59   2.0000     -11.275826      -306.8308
  60   2.0000     -11.271598      -306.7158
  61   2.0000     -11.268995      -306.6450
  62   2.0000     -11.267661      -306.6086
  63   2.0000     -11.266615      -306.5802
  64   2.0000      -9.041108      -246.0211
  65   2.0000      -9.012505      -245.2427
  66   2.0000      -9.003356      -244.9938
  67   2.0000      -6.728130      -183.0817
  68   2.0000      -6.726669      -183.0420
  69   2.0000      -6.724681      -182.9879
  70   2.0000      -6.700117      -182.3195
  71   2.0000      -6.699074      -182.2911
  72   2.0000      -6.696962      -182.2336
  73   2.0000      -6.691022      -182.0720
  74   2.0000      -6.690376      -182.0544
  75   2.0000      -6.687918      -181.9875
  76   2.0000      -1.656009       -45.0623
  77   2.0000      -1.651535       -44.9406
  78   2.0000      -1.640977       -44.6533
  79   2.0000      -1.637189       -44.5502
  80   2.0000      -1.419070       -38.6149
  81   2.0000      -1.414607       -38.4934
  82   2.0000      -1.340538       -36.4779
  83   2.0000      -1.327102       -36.1123
  84   2.0000      -1.319310       -35.9003
  85   2.0000      -1.288125       -35.0517
  86   2.0000      -1.263688       -34.3867
  87   2.0000      -1.247753       -33.9531
  88   2.0000      -1.240099       -33.7448
  89   2.0000      -1.222623       -33.2693
  90   2.0000      -1.203452       -32.7476
  91   2.0000      -1.198149       -32.6033
  92   2.0000      -1.194733       -32.5103
  93   2.0000      -1.187429       -32.3116
  94   2.0000      -1.180052       -32.1108
  95   2.0000      -1.170240       -31.8438
  96   2.0000      -1.159248       -31.5447
  97   2.0000      -1.144052       -31.1312
  98   2.0000      -1.112842       -30.2820
  99   2.0000      -1.109705       -30.1966
 100   2.0000      -1.101505       -29.9735
 101   2.0000      -1.095019       -29.7970
 102   2.0000      -1.089701       -29.6523
 103   2.0000      -1.082566       -29.4581
 104   2.0000      -1.073955       -29.2238
 105   2.0000      -1.072347       -29.1800
 106   2.0000      -1.065393       -28.9908
 107   2.0000      -1.038977       -28.2720
 108   2.0000      -1.026363       -27.9288
 109   2.0000      -0.998792       -27.1785
 110   2.0000      -0.994369       -27.0582
 111   2.0000      -0.971137       -26.4260
 112   2.0000      -0.958479       -26.0815
 113   2.0000      -0.955586       -26.0028
 114   2.0000      -0.950439       -25.8628
 115   2.0000      -0.941415       -25.6172
 116   2.0000      -0.938936       -25.5497
 117   2.0000      -0.928259       -25.2592
 118   2.0000      -0.920688       -25.0532
 119   2.0000      -0.906593       -24.6696
 120   2.0000      -0.893298       -24.3079
 121   2.0000      -0.871388       -23.7117
 122   2.0000      -0.864821       -23.5330
 123   2.0000      -0.859907       -23.3993
 124   2.0000      -0.850338       -23.1389
 125   2.0000      -0.832601       -22.6562
 126   2.0000      -0.829900       -22.5827
 127   2.0000      -0.823924       -22.4201
 128   2.0000      -0.811361       -22.0783
 129   2.0000      -0.803090       -21.8532
 130   2.0000      -0.799451       -21.7542
 131   2.0000      -0.791634       -21.5414
 132   2.0000      -0.790812       -21.5191
 133   2.0000      -0.788699       -21.4616
 134   2.0000      -0.782398       -21.2901
 135   2.0000      -0.778009       -21.1707
 136   2.0000      -0.771382       -20.9904
 137   2.0000      -0.759204       -20.6590
 138   2.0000      -0.755097       -20.5472
 139   2.0000      -0.750874       -20.4323
 140   2.0000      -0.749279       -20.3889
 141   2.0000      -0.748701       -20.3732
 142   2.0000      -0.741524       -20.1779
 143   2.0000      -0.734159       -19.9775
 144   2.0000      -0.726928       -19.7807
 145   2.0000      -0.725369       -19.7383
 146   2.0000      -0.721200       -19.6248
 147   2.0000      -0.714842       -19.4518
 148   2.0000      -0.709604       -19.3093
 149   2.0000      -0.706019       -19.2117
 150   2.0000      -0.701792       -19.0967
 151   2.0000      -0.694558       -18.8999
 152   2.0000      -0.690246       -18.7826
 153   2.0000      -0.688242       -18.7280
 154   2.0000      -0.686871       -18.6907
 155   2.0000      -0.682244       -18.5648
 156   2.0000      -0.676578       -18.4106
 157   2.0000      -0.672376       -18.2963
 158   2.0000      -0.669536       -18.2190
 159   2.0000      -0.665925       -18.1207
 160   2.0000      -0.665091       -18.0980
 161   2.0000      -0.657190       -17.8830
 162   2.0000      -0.648708       -17.6523
 163   2.0000      -0.645793       -17.5729
 164   2.0000      -0.644016       -17.5246
 165   2.0000      -0.639882       -17.4121
 166   2.0000      -0.636539       -17.3211
 167   2.0000      -0.635563       -17.2945
 168   2.0000      -0.625475       -17.0200
 169   2.0000      -0.624763       -17.0007
 170   2.0000      -0.624068       -16.9817
 171   2.0000      -0.620998       -16.8982
 172   2.0000      -0.617761       -16.8101
 173   2.0000      -0.614118       -16.7110
 174   2.0000      -0.609040       -16.5728
 175   2.0000      -0.603390       -16.4191
 176   2.0000      -0.599124       -16.3030
 177   2.0000      -0.595656       -16.2086
 178   2.0000      -0.593274       -16.1438
 179   2.0000      -0.592749       -16.1295
 180   2.0000      -0.590974       -16.0812
 181   2.0000      -0.587852       -15.9963
 182   2.0000      -0.587495       -15.9865
 183   2.0000      -0.587012       -15.9734
 184   2.0000      -0.577788       -15.7224
 185   2.0000      -0.572545       -15.5797
 186   2.0000      -0.571159       -15.5420
 187   2.0000      -0.567420       -15.4403
 188   2.0000      -0.566855       -15.4249
 189   2.0000      -0.566042       -15.4028
 190   2.0000      -0.561263       -15.2727
 191   2.0000      -0.559813       -15.2333
 192   2.0000      -0.554965       -15.1014
 193   2.0000      -0.544248       -14.8097
 194   2.0000      -0.543590       -14.7918
 195   2.0000      -0.542008       -14.7488
 196   2.0000      -0.535788       -14.5795
 197   2.0000      -0.527543       -14.3552
 198   2.0000      -0.511764       -13.9258
 199   2.0000      -0.506386       -13.7795
 200   2.0000      -0.505554       -13.7568
 201   2.0000      -0.491894       -13.3851
 202   2.0000      -0.484855       -13.1936
 203   2.0000      -0.483739       -13.1632
 204   2.0000      -0.480774       -13.0825
 205   2.0000      -0.477286       -12.9876
 206   2.0000      -0.475324       -12.9342
 207   2.0000      -0.473437       -12.8829
 208   2.0000      -0.471315       -12.8251
 209   2.0000      -0.470503       -12.8030
 210   2.0000      -0.469288       -12.7700
 211   2.0000      -0.463248       -12.6056
 212   2.0000      -0.460615       -12.5340
 213   2.0000      -0.457428       -12.4472
 214   2.0000      -0.446545       -12.1511
 215   2.0000      -0.442046       -12.0287
 216   2.0000      -0.416223       -11.3260
 217   2.0000      -0.410520       -11.1708
 218   2.0000      -0.397798       -10.8246
 219   2.0000      -0.396232       -10.7820
 220   2.0000      -0.384970       -10.4756
 221   2.0000      -0.377797       -10.2804
 222   2.0000      -0.372423       -10.1341
 223   2.0000      -0.370737       -10.0883
 224   2.0000      -0.360981        -9.8228
 225   2.0000      -0.333973        -9.0879
 226   2.0000      -0.324644        -8.8340
 227   2.0000      -0.308831        -8.4037
 228   2.0000      -0.269229        -7.3261
 229   0.0000      -0.019530        -0.5314
 230   0.0000      -0.012919        -0.3515
 231   0.0000       0.010086         0.2745
 232   0.0000       0.017392         0.4732
 233   0.0000       0.024172         0.6577

MULLIKEN ATOMIC CHARGES
-----------------------
   0 C :   -0.243616
   1 C :    0.316816
   2 C :    0.288504
   3 C :   -0.234136
   4 C :    0.134703
   5 C :    0.277648
   6 N :   -0.452203
   7 S :    0.500472
   8 N :   -0.518621
   9 N :   -0.677752
  10 C :    0.183875
  11 C :   -0.003634
  12 C :    0.283378
  13 C :    0.185817
  14 N :   -0.658965
  15 N :   -0.634321
  16 C :    0.211581
  17 C :   -0.109843
  18 C :   -0.043329
  19 C :   -0.136508
  20 S :    0.218535
  21 S :    0.144845
  22 C :   -0.201205
  23 C :   -0.133944
  24 C :    0.189225
  25 C :    0.078990
  26 C :   -0.191385
  27 C :    0.073088
  28 C :   -0.176624
  29 C :    0.418321
  30 C :   -0.145468
  31 C :   -0.066044
  32 C :    0.209447
  33 C :    0.386494
  34 C :   -0.131839
  35 C :   -0.094074
  36 C :    0.159321
  37 C :   -0.031674
  38 C :    0.342231
  39 C :    0.339892
  40 C :   -0.029759
  41 C :   -0.001537
  42 C :    0.320906
  43 C :    0.353519
  44 C :   -0.040750
  45 O :   -0.335916
  46 C :   -0.215987
  47 C :    0.078314
  48 C :    0.071154
  49 F :   -0.310153
  50 F :   -0.307441
  51 O :   -0.337410
  52 C :   -0.114241
  53 C :    0.030917
  54 C :    0.067502
  55 F :   -0.307972
  56 F :   -0.310604
  57 N :   -0.131785
  58 N :   -0.135534
  59 N :   -0.118272
  60 N :   -0.064980
  61 C :    0.086305
  62 C :    0.186796
  63 C :    0.226138
  64 H :    0.035917
  65 H :    0.060744
  66 H :    0.046623
  67 H :    0.049969
  68 H :    0.086086
  69 H :    0.131534
  70 H :    0.089388
  71 H :    0.092597
  72 H :    0.093746
  73 H :    0.080230
  74 H :    0.049607
  75 H :    0.074090
  76 H :    0.065437
  77 H :    0.066737
  78 H :    0.049110
  79 H :    0.053256
  80 H :    0.054925
  81 H :    0.025570
  82 H :    0.077226
Sum of atomic charges:   -0.0000000

LOEWDIN ATOMIC CHARGES
----------------------
   0 C :   -0.095175
   1 C :    0.049010
   2 C :    0.047575
   3 C :   -0.081718
   4 C :   -0.027802
   5 C :   -0.018303
   6 N :   -0.293241
   7 S :    0.547063
   8 N :   -0.305258
   9 N :   -0.066513
  10 C :    0.001559
  11 C :   -0.189389
  12 C :    0.030211
  13 C :    0.002115
  14 N :   -0.058383
  15 N :   -0.041126
  16 C :    0.018810
  17 C :   -0.071147
  18 C :   -0.209613
  19 C :   -0.213319
  20 S :    0.422419
  21 S :    0.353182
  22 C :   -0.178439
  23 C :   -0.034897
  24 C :    0.080291
  25 C :    0.083092
  26 C :   -0.100208
  27 C :    0.059958
  28 C :   -0.063730
  29 C :    0.162282
  30 C :   -0.056885
  31 C :   -0.025578
  32 C :    0.114640
  33 C :    0.187620
  34 C :   -0.069428
  35 C :   -0.018734
  36 C :    0.091400
  37 C :    0.009288
  38 C :    0.126267
  39 C :    0.128724
  40 C :    0.000039
  41 C :    0.024960
  42 C :    0.114688
  43 C :    0.136492
  44 C :   -0.018218
  45 O :   -0.200437
  46 C :   -0.127462
  47 C :    0.032299
  48 C :    0.035584
  49 F :   -0.109843
  50 F :   -0.107774
  51 O :   -0.212199
  52 C :   -0.097431
  53 C :   -0.003097
  54 C :    0.031162
  55 F :   -0.107809
  56 F :   -0.111392
  57 N :   -0.105643
  58 N :   -0.107705
  59 N :   -0.087506
  60 N :   -0.061272
  61 C :   -0.023730
  62 C :    0.077313
  63 C :    0.077672
  64 H :    0.024376
  65 H :    0.032040
  66 H :    0.016370
  67 H :    0.017510
  68 H :    0.054413
  69 H :    0.060660
  70 H :    0.058752
  71 H :    0.055273
  72 H :    0.061111
  73 H :    0.054396
  74 H :    0.020963
  75 H :    0.040633
  76 H :    0.037158
  77 H :    0.025195
  78 H :    0.019304
  79 H :    0.019285
  80 H :    0.020787
  81 H :    0.008898
  82 H :    0.027570

  Mayer bond orders larger than 0.100000
B(  0-C ,  1-C ) :   1.4847 B(  0-C ,  5-C ) :   1.1125 B(  0-C , 12-C ) :   1.2604
B(  1-C ,  2-C ) :   1.0897 B(  1-C , 14-N ) :   1.0712 B(  2-C ,  3-C ) :   1.5153
B(  2-C ,  9-N ) :   1.0495 B(  3-C ,  4-C ) :   1.1220 B(  3-C , 11-C ) :   1.4071
B(  4-C ,  5-C ) :   1.0925 B(  4-C ,  6-N ) :   1.6277 B(  5-C ,  8-N ) :   1.5551
B(  6-N ,  7-S ) :   1.1487 B(  6-N ,  8-N ) :   0.1155 B(  7-S ,  8-N ) :   1.1471
B(  9-N , 10-C ) :   1.0503 B(  9-N , 62-C ) :   0.8660 B( 10-C , 11-C ) :   1.4851
B( 10-C , 18-C ) :   1.2609 B( 11-C , 20-S ) :   0.9814 B( 12-C , 13-C ) :   1.4340
B( 12-C , 15-N ) :   1.0993 B( 13-C , 14-N ) :   1.0302 B( 13-C , 17-C ) :   1.2543
B( 14-N , 24-C ) :   0.8734 B( 15-N , 16-C ) :   1.0722 B( 15-N , 63-C ) :   0.8512
B( 16-C , 17-C ) :   1.5377 B( 16-C , 25-C ) :   1.0777 B( 17-C , 64-H ) :   1.0165
B( 18-C , 19-C ) :   1.5422 B( 18-C , 21-S ) :   1.0086 B( 19-C , 20-S ) :   1.0369
B( 19-C , 23-C ) :   1.2637 B( 21-S , 22-C ) :   1.0794 B( 22-C , 23-C ) :   1.7127
B( 22-C , 27-C ) :   0.9880 B( 23-C , 61-C ) :   1.0089 B( 24-C , 65-H ) :   0.9881
B( 24-C , 66-H ) :   0.9867 B( 24-C , 67-H ) :   0.9869 B( 25-C , 26-C ) :   1.8466
B( 25-C , 68-H ) :   0.9641 B( 26-C , 29-C ) :   0.9512 B( 26-C , 32-C ) :   1.0043
B( 27-C , 28-C ) :   1.9398 B( 27-C , 69-H ) :   0.9404 B( 28-C , 33-C ) :   0.9304
B( 28-C , 36-C ) :   1.0158 B( 29-C , 30-C ) :   0.9449 B( 29-C , 45-O ) :   2.0935
B( 30-C , 31-C ) :   1.3687 B( 30-C , 37-C ) :   1.3885 B( 31-C , 32-C ) :   1.0136
B( 31-C , 40-C ) :   1.3842 B( 32-C , 46-C ) :   1.8062 B( 33-C , 34-C ) :   0.9138
B( 33-C , 51-O ) :   2.0781 B( 34-C , 35-C ) :   1.3447 B( 34-C , 41-C ) :   1.4206
B( 35-C , 36-C ) :   1.0146 B( 35-C , 44-C ) :   1.4313 B( 36-C , 52-C ) :   1.8419
B( 37-C , 38-C ) :   1.3924 B( 37-C , 70-H ) :   1.0093 B( 38-C , 39-C ) :   1.3280
B( 38-C , 49-F ) :   0.9369 B( 39-C , 40-C ) :   1.4204 B( 39-C , 50-F ) :   0.9440
B( 40-C , 71-H ) :   0.9900 B( 41-C , 42-C ) :   1.3871 B( 41-C , 72-H ) :   1.0060
B( 42-C , 43-C ) :   1.3506 B( 42-C , 56-F ) :   0.9332 B( 43-C , 44-C ) :   1.3730
B( 43-C , 55-F ) :   0.9398 B( 44-C , 73-H ) :   1.0089 B( 46-C , 47-C ) :   1.0055
B( 46-C , 48-C ) :   1.0107 B( 47-C , 58-N ) :   2.9734 B( 48-C , 57-N ) :   2.9631
B( 52-C , 53-C ) :   1.0370 B( 52-C , 54-C ) :   0.9941 B( 53-C , 60-N ) :   3.0262
B( 54-C , 59-N ) :   2.9782 B( 61-C , 74-H ) :   0.9842 B( 61-C , 75-H ) :   0.9696
B( 61-C , 76-H ) :   0.9715 B( 62-C , 77-H ) :   0.9873 B( 62-C , 78-H ) :   0.9861
B( 62-C , 79-H ) :   0.9852 B( 63-C , 80-H ) :   0.9847 B( 63-C , 81-H ) :   0.9830
B( 63-C , 82-H ) :   0.9813

-----------------------------------------------------------------------------
         ABSORPTION SPECTRUM VIA TRANSITION ELECTRIC DIPOLE MOMENTS
-----------------------------------------------------------------------------
State   Energy    Wavelength  fosc         T2        TX        TY        TZ
        (cm-1)      (nm)                 (au**2)    (au)      (au)      (au)
-----------------------------------------------------------------------------
   1   27301.3    366.3   2.175777465  26.23654   5.06046   0.77737  -0.15478
   2   33005.8    303.0   0.012496231   0.12464   0.12743   0.32918   0.00681
   3   36208.4    276.2   0.504076210   4.58313  -2.07103  -0.53292   0.09983

FINAL SINGLE POINT ENERGY     -3979.923405928310

DIPOLE MOMENT
-------------
                                X             Y             Z
Electronic contribution:     10.32008     -26.23239       4.03684
Nuclear contribution   :     -7.96137      26.57389      -4.30435
                        -----------------------------------------
Total Dipole Moment    :      2.35871       0.34150      -0.26751
                        -----------------------------------------
Magnitude (a.u.)       :      2.39827
Magnitude (Debye)      :      6.09591

Rotational constants in cm-1:     0.003311     0.000280     0.000263
Rotational constants in MHz :    99.261792     8.402558     7.882903

                             ****ORCA TERMINATED NORMALLY****
TOTAL RUN TIME: 0 days 9 hours 31 minutes 47 seconds 998 msec
