                         Program Version 4.2.0 -  RELEASE  -
|  1> # ORCA input file
|  2> # BTN-4F.out: Geometry 122
|  3> ! Engrad Keepdens
|  4> %maxcore 1000
|  5> %tddft
|  6>   nroots 3
|  7>   # nroots is the number of states to be computed
|  8>   Iroot 1
|  9>   end
| 10> * xyz 0 1
| 11>    C        0.55913        -0.81636        -0.86291
| 12>    C        1.34847         0.37790        -0.93436
| 13>    C        2.77700         0.27895        -0.86442
| 14>    C        3.37875        -0.96512        -0.49773
| 15>    C        2.59603        -2.15634        -0.36821
| 16>    C        1.16697        -2.09040        -0.61794
| 17>    N        3.03634        -3.37758        -0.09525
| 18>    S        1.72489        -4.38470        -0.14977
| 19>    N        0.56266        -3.26780        -0.52941
| 20>    N        3.79533         1.20753        -1.09403
| 21>    C        5.00485         0.58748        -0.82713
| 22>    C        4.76846        -0.74377        -0.44106
| 23>    C       -0.78906        -0.39020        -0.89436
| 24>    C       -0.80463         1.02153        -0.97731
| 25>    N        0.50193         1.48989        -0.99487
| 26>    N       -2.06279        -0.85255        -0.80981
| 27>    C       -2.91484         0.26299        -0.80240
| 28>    C       -2.13239         1.44648        -0.95688
| 29>    C        6.38693         0.88624        -0.90898
| 30>    C        7.16693        -0.22385        -0.52646
| 31>    S        6.21897        -1.64753        -0.10869
| 32>    S        7.39683         2.21524        -1.37790
| 33>    C        8.86038         1.27670        -1.03095
| 34>    C        8.56091        -0.02190        -0.57975
| 35>    C        0.82097         2.88044        -0.73077
| 36>    C       -4.31801         0.26233        -0.61264
| 37>    C       -5.09947        -0.63903         0.09352
| 38>    C       10.13798         1.82142        -1.35361
| 39>    C       11.35302         1.53072        -0.77930
| 40>    C       -4.57585        -1.52767         1.17291
| 41>    C       -5.75854        -2.21795         1.74489
| 42>    C       -6.92818        -1.78011         1.09657
| 43>    C       -6.55540        -0.75614         0.08549
| 44>    C       12.61057         1.66274        -1.59377
| 45>    C       13.63881         0.88093        -0.85096
| 46>    C       13.10867         0.45359         0.38351
| 47>    C       11.72456         0.96881         0.51267
| 48>    C       -5.76495        -3.17871         2.74788
| 49>    C       -6.98959        -3.73758         3.09333
| 50>    C       -8.16701        -3.32838         2.44186
| 51>    C       -8.15916        -2.34523         1.45508
| 52>    C       14.91684         0.53220        -1.27263
| 53>    C       15.67142        -0.28502        -0.43615
| 54>    C       15.15786        -0.71226         0.80255
| 55>    C       13.88594        -0.34361         1.23308
| 56>    O       -3.43297        -1.63891         1.57531
| 57>    C       -7.45359        -0.08736        -0.73016
| 58>    C       -7.05420         0.87465        -1.70919
| 59>    C       -8.86444        -0.30415        -0.66179
| 60>    F       -7.06372        -4.67577         4.03369
| 61>    F       -9.31383        -3.91042         2.78218
| 62>    O       12.74376         2.22144        -2.66115
| 63>    C       11.01030         1.05523         1.69294
| 64>    C        9.76039         1.73912         1.79112
| 65>    C       11.52089         0.54200         2.92517
| 66>    F       15.91425        -1.49552         1.56795
| 67>    F       16.88431        -0.69107        -0.79724
| 68>    N      -10.01337        -0.47452        -0.61112
| 69>    N       -6.74580         1.66127        -2.50786
| 70>    N       11.94616         0.10855         3.91586
| 71>    N        8.75293         2.30806         1.89503
| 72>    C        9.54015        -1.11858        -0.31029
| 73>    C        3.71944         2.47233        -1.80479
| 74>    C       -2.43722        -2.24947        -0.99084
| 75>    H       -2.54283         2.45305        -0.97854
| 76>    H       -0.02462         3.33660        -0.19686
| 77>    H        0.99530         3.45821        -1.65152
| 78>    H        1.70382         2.95368        -0.08413
| 79>    H       -4.80923         1.12846        -1.05909
| 80>    H       10.19884         2.46821        -2.23906
| 81>    H       -4.84564        -3.49727         3.24161
| 82>    H       -9.10867        -2.06999         1.00179
| 83>    H       15.31347         0.87342        -2.22998
| 84>    H       13.54413        -0.70699         2.19946
| 85>    H       10.46860        -0.98123        -0.87885
| 86>    H        9.09962        -2.08913        -0.58418
| 87>    H        9.81362        -1.16515         0.75662
| 88>    H        4.62197         2.58474        -2.42205
| 89>    H        3.65698         3.33277        -1.12209
| 90>    H        2.85243         2.47573        -2.47620
| 91>    H       -1.81010        -2.68934        -1.77560
| 92>    H       -3.49010        -2.30209        -1.29171
| 93>    H       -2.29296        -2.81368        -0.06389
| 94> *
| 95>
| 96>                          ****END OF INPUT****

CARTESIAN COORDINATES (ANGSTROEM)
---------------------------------
  C      0.559130   -0.816360   -0.862910
  C      1.348470    0.377900   -0.934360
  C      2.777000    0.278950   -0.864420
  C      3.378750   -0.965120   -0.497730
  C      2.596030   -2.156340   -0.368210
  C      1.166970   -2.090400   -0.617940
  N      3.036340   -3.377580   -0.095250
  S      1.724890   -4.384700   -0.149770
  N      0.562660   -3.267800   -0.529410
  N      3.795330    1.207530   -1.094030
  C      5.004850    0.587480   -0.827130
  C      4.768460   -0.743770   -0.441060
  C     -0.789060   -0.390200   -0.894360
  C     -0.804630    1.021530   -0.977310
  N      0.501930    1.489890   -0.994870
  N     -2.062790   -0.852550   -0.809810
  C     -2.914840    0.262990   -0.802400
  C     -2.132390    1.446480   -0.956880
  C      6.386930    0.886240   -0.908980
  C      7.166930   -0.223850   -0.526460
  S      6.218970   -1.647530   -0.108690
  S      7.396830    2.215240   -1.377900
  C      8.860380    1.276700   -1.030950
  C      8.560910   -0.021900   -0.579750
  C      0.820970    2.880440   -0.730770
  C     -4.318010    0.262330   -0.612640
  C     -5.099470   -0.639030    0.093520
  C     10.137980    1.821420   -1.353610
  C     11.353020    1.530720   -0.779300
  C     -4.575850   -1.527670    1.172910
  C     -5.758540   -2.217950    1.744890
  C     -6.928180   -1.780110    1.096570
  C     -6.555400   -0.756140    0.085490
  C     12.610570    1.662740   -1.593770
  C     13.638810    0.880930   -0.850960
  C     13.108670    0.453590    0.383510
  C     11.724560    0.968810    0.512670
  C     -5.764950   -3.178710    2.747880
  C     -6.989590   -3.737580    3.093330
  C     -8.167010   -3.328380    2.441860
  C     -8.159160   -2.345230    1.455080
  C     14.916840    0.532200   -1.272630
  C     15.671420   -0.285020   -0.436150
  C     15.157860   -0.712260    0.802550
  C     13.885940   -0.343610    1.233080
  O     -3.432970   -1.638910    1.575310
  C     -7.453590   -0.087360   -0.730160
  C     -7.054200    0.874650   -1.709190
  C     -8.864440   -0.304150   -0.661790
  F     -7.063720   -4.675770    4.033690
  F     -9.313830   -3.910420    2.782180
  O     12.743760    2.221440   -2.661150
  C     11.010300    1.055230    1.692940
  C      9.760390    1.739120    1.791120
  C     11.520890    0.542000    2.925170
  F     15.914250   -1.495520    1.567950
  F     16.884310   -0.691070   -0.797240
  N    -10.013370   -0.474520   -0.611120
  N     -6.745800    1.661270   -2.507860
  N     11.946160    0.108550    3.915860
  N      8.752930    2.308060    1.895030
  C      9.540150   -1.118580   -0.310290
  C      3.719440    2.472330   -1.804790
  C     -2.437220   -2.249470   -0.990840
  H     -2.542830    2.453050   -0.978540
  H     -0.024620    3.336600   -0.196860
  H      0.995300    3.458210   -1.651520
  H      1.703820    2.953680   -0.084130
  H     -4.809230    1.128460   -1.059090
  H     10.198840    2.468210   -2.239060
  H     -4.845640   -3.497270    3.241610
  H     -9.108670   -2.069990    1.001790
  H     15.313470    0.873420   -2.229980
  H     13.544130   -0.706990    2.199460
  H     10.468600   -0.981230   -0.878850
  H      9.099620   -2.089130   -0.584180
  H      9.813620   -1.165150    0.756620
  H      4.621970    2.584740   -2.422050
  H      3.656980    3.332770   -1.122090
  H      2.852430    2.475730   -2.476200
  H     -1.810100   -2.689340   -1.775600
  H     -3.490100   -2.302090   -1.291710
  H     -2.292960   -2.813680   -0.063890

 Total Charge           Charge          ....    0
 Multiplicity           Mult            ....    1
 Number of Electrons    NEL             ....  458
 Basis Dimension        Dim             .... 1003

ORBITAL ENERGIES
----------------

  NO   OCC          E(Eh)            E(eV)
   0   2.0000     -92.022133     -2504.0496
   1   2.0000     -91.991151     -2503.2065
   2   2.0000     -91.981567     -2502.9457
   3   2.0000     -26.343467      -716.8422
   4   2.0000     -26.341813      -716.7972
   5   2.0000     -26.335249      -716.6186
   6   2.0000     -26.332192      -716.5354
   7   2.0000     -20.578322      -559.9646
   8   2.0000     -20.563657      -559.5656
   9   2.0000     -15.666179      -426.2984
  10   2.0000     -15.653690      -425.9586
  11   2.0000     -15.642595      -425.6567
  12   2.0000     -15.624295      -425.1587
  13   2.0000     -15.620239      -425.0483
  14   2.0000     -15.605028      -424.6344
  15   2.0000     -15.601719      -424.5444
  16   2.0000     -15.594954      -424.3603
  17   2.0000     -15.591714      -424.2721
  18   2.0000     -11.386692      -309.8476
  19   2.0000     -11.385540      -309.8163
  20   2.0000     -11.378668      -309.6293
  21   2.0000     -11.376659      -309.5746
  22   2.0000     -11.374719      -309.5218
  23   2.0000     -11.364991      -309.2571
  24   2.0000     -11.356670      -309.0307
  25   2.0000     -11.347425      -308.7791
  26   2.0000     -11.345235      -308.7195
  27   2.0000     -11.339657      -308.5677
  28   2.0000     -11.338407      -308.5337
  29   2.0000     -11.332924      -308.3845
  30   2.0000     -11.325396      -308.1797
  31   2.0000     -11.324078      -308.1438
  32   2.0000     -11.323214      -308.1203
  33   2.0000     -11.321783      -308.0814
  34   2.0000     -11.321741      -308.0802
  35   2.0000     -11.320750      -308.0533
  36   2.0000     -11.319531      -308.0201
  37   2.0000     -11.318889      -308.0026
  38   2.0000     -11.317145      -307.9552
  39   2.0000     -11.316153      -307.9282
  40   2.0000     -11.312644      -307.8327
  41   2.0000     -11.311492      -307.8014
  42   2.0000     -11.311000      -307.7880
  43   2.0000     -11.307680      -307.6976
  44   2.0000     -11.306914      -307.6768
  45   2.0000     -11.305696      -307.6436
  46   2.0000     -11.305498      -307.6382
  47   2.0000     -11.305263      -307.6318
  48   2.0000     -11.305215      -307.6305
  49   2.0000     -11.304708      -307.6167
  50   2.0000     -11.302306      -307.5514
  51   2.0000     -11.300237      -307.4951
  52   2.0000     -11.300050      -307.4900
  53   2.0000     -11.295047      -307.3538
  54   2.0000     -11.294682      -307.3439
  55   2.0000     -11.294429      -307.3370
  56   2.0000     -11.293356      -307.3078
  57   2.0000     -11.287675      -307.1532
  58   2.0000     -11.287064      -307.1366
  59   2.0000     -11.283955      -307.0520
  60   2.0000     -11.282884      -307.0229
  61   2.0000     -11.279667      -306.9353
  62   2.0000     -11.277368      -306.8728
  63   2.0000     -11.275533      -306.8229
  64   2.0000      -9.053202      -246.3502
  65   2.0000      -9.025497      -245.5963
  66   2.0000      -9.015614      -245.3273
  67   2.0000      -6.740402      -183.4157
  68   2.0000      -6.738682      -183.3689
  69   2.0000      -6.736875      -183.3197
  70   2.0000      -6.713101      -182.6728
  71   2.0000      -6.712059      -182.6444
  72   2.0000      -6.709964      -182.5874
  73   2.0000      -6.703128      -182.4014
  74   2.0000      -6.702286      -182.3785
  75   2.0000      -6.699973      -182.3155
  76   2.0000      -1.656337       -45.0712
  77   2.0000      -1.647314       -44.8257
  78   2.0000      -1.640505       -44.6404
  79   2.0000      -1.631637       -44.3991
  80   2.0000      -1.407241       -38.2930
  81   2.0000      -1.393898       -37.9299
  82   2.0000      -1.356831       -36.9213
  83   2.0000      -1.342696       -36.5366
  84   2.0000      -1.341200       -36.4959
  85   2.0000      -1.306135       -35.5417
  86   2.0000      -1.254258       -34.1301
  87   2.0000      -1.242408       -33.8076
  88   2.0000      -1.233499       -33.5652
  89   2.0000      -1.231200       -33.5027
  90   2.0000      -1.226624       -33.3781
  91   2.0000      -1.222411       -33.2635
  92   2.0000      -1.218544       -33.1583
  93   2.0000      -1.196980       -32.5715
  94   2.0000      -1.177756       -32.0484
  95   2.0000      -1.165052       -31.7027
  96   2.0000      -1.162809       -31.6417
  97   2.0000      -1.149467       -31.2786
  98   2.0000      -1.111466       -30.2445
  99   2.0000      -1.108238       -30.1567
 100   2.0000      -1.105015       -30.0690
 101   2.0000      -1.093647       -29.7596
 102   2.0000      -1.085425       -29.5359
 103   2.0000      -1.079597       -29.3773
 104   2.0000      -1.075513       -29.2662
 105   2.0000      -1.068457       -29.0742
 106   2.0000      -1.065021       -28.9807
 107   2.0000      -1.048569       -28.5330
 108   2.0000      -1.029531       -28.0150
 109   2.0000      -1.010189       -27.4886
 110   2.0000      -0.994941       -27.0737
 111   2.0000      -0.980107       -26.6701
 112   2.0000      -0.969854       -26.3911
 113   2.0000      -0.961379       -26.1605
 114   2.0000      -0.948091       -25.7989
 115   2.0000      -0.945483       -25.7279
 116   2.0000      -0.942694       -25.6520
 117   2.0000      -0.933792       -25.4098
 118   2.0000      -0.929862       -25.3028
 119   2.0000      -0.905290       -24.6342
 120   2.0000      -0.886527       -24.1236
 121   2.0000      -0.874061       -23.7844
 122   2.0000      -0.868634       -23.6367
 123   2.0000      -0.855229       -23.2720
 124   2.0000      -0.847262       -23.0552
 125   2.0000      -0.845541       -23.0083
 126   2.0000      -0.830595       -22.6016
 127   2.0000      -0.822986       -22.3946
 128   2.0000      -0.812252       -22.1025
 129   2.0000      -0.805388       -21.9157
 130   2.0000      -0.797276       -21.6950
 131   2.0000      -0.792288       -21.5593
 132   2.0000      -0.791249       -21.5310
 133   2.0000      -0.788651       -21.4603
 134   2.0000      -0.782012       -21.2796
 135   2.0000      -0.776750       -21.1364
 136   2.0000      -0.767693       -20.8900
 137   2.0000      -0.755927       -20.5698
 138   2.0000      -0.752609       -20.4795
 139   2.0000      -0.750843       -20.4315
 140   2.0000      -0.748782       -20.3754
 141   2.0000      -0.742047       -20.1921
 142   2.0000      -0.740333       -20.1455
 143   2.0000      -0.729464       -19.8497
 144   2.0000      -0.724724       -19.7207
 145   2.0000      -0.722585       -19.6625
 146   2.0000      -0.719297       -19.5731
 147   2.0000      -0.714004       -19.4290
 148   2.0000      -0.713131       -19.4053
 149   2.0000      -0.705761       -19.2047
 150   2.0000      -0.702499       -19.1160
 151   2.0000      -0.698304       -19.0018
 152   2.0000      -0.695167       -18.9164
 153   2.0000      -0.686842       -18.6899
 154   2.0000      -0.679628       -18.4936
 155   2.0000      -0.677467       -18.4348
 156   2.0000      -0.675825       -18.3901
 157   2.0000      -0.671936       -18.2843
 158   2.0000      -0.669409       -18.2155
 159   2.0000      -0.660382       -17.9699
 160   2.0000      -0.658598       -17.9214
 161   2.0000      -0.650056       -17.6889
 162   2.0000      -0.644210       -17.5298
 163   2.0000      -0.640295       -17.4233
 164   2.0000      -0.638773       -17.3819
 165   2.0000      -0.633889       -17.2490
 166   2.0000      -0.632071       -17.1995
 167   2.0000      -0.630730       -17.1630
 168   2.0000      -0.628827       -17.1113
 169   2.0000      -0.626559       -17.0495
 170   2.0000      -0.622589       -16.9415
 171   2.0000      -0.622140       -16.9293
 172   2.0000      -0.620364       -16.8810
 173   2.0000      -0.616820       -16.7845
 174   2.0000      -0.612422       -16.6648
 175   2.0000      -0.609172       -16.5764
 176   2.0000      -0.606657       -16.5080
 177   2.0000      -0.600059       -16.3284
 178   2.0000      -0.593122       -16.1397
 179   2.0000      -0.590182       -16.0597
 180   2.0000      -0.586266       -15.9531
 181   2.0000      -0.581611       -15.8264
 182   2.0000      -0.580163       -15.7870
 183   2.0000      -0.578804       -15.7501
 184   2.0000      -0.577931       -15.7263
 185   2.0000      -0.575092       -15.6491
 186   2.0000      -0.572867       -15.5885
 187   2.0000      -0.570387       -15.5210
 188   2.0000      -0.569831       -15.5059
 189   2.0000      -0.567172       -15.4335
 190   2.0000      -0.564374       -15.3574
 191   2.0000      -0.561074       -15.2676
 192   2.0000      -0.559151       -15.2153
 193   2.0000      -0.556350       -15.1391
 194   2.0000      -0.552611       -15.0373
 195   2.0000      -0.539963       -14.6931
 196   2.0000      -0.539267       -14.6742
 197   2.0000      -0.532482       -14.4896
 198   2.0000      -0.523344       -14.2409
 199   2.0000      -0.515832       -14.0365
 200   2.0000      -0.506362       -13.7788
 201   2.0000      -0.502688       -13.6788
 202   2.0000      -0.501337       -13.6421
 203   2.0000      -0.496470       -13.5096
 204   2.0000      -0.496255       -13.5038
 205   2.0000      -0.494885       -13.4665
 206   2.0000      -0.493106       -13.4181
 207   2.0000      -0.480002       -13.0615
 208   2.0000      -0.478034       -13.0080
 209   2.0000      -0.475402       -12.9363
 210   2.0000      -0.474002       -12.8983
 211   2.0000      -0.469184       -12.7672
 212   2.0000      -0.463965       -12.6251
 213   2.0000      -0.460426       -12.5288
 214   2.0000      -0.453184       -12.3318
 215   2.0000      -0.444497       -12.0954
 216   2.0000      -0.415391       -11.3034
 217   2.0000      -0.408828       -11.1248
 218   2.0000      -0.399141       -10.8612
 219   2.0000      -0.393617       -10.7109
 220   2.0000      -0.386278       -10.5112
 221   2.0000      -0.371535       -10.1100
 222   2.0000      -0.367802       -10.0084
 223   2.0000      -0.360094        -9.7987
 224   2.0000      -0.351189        -9.5563
 225   2.0000      -0.339721        -9.2443
 226   2.0000      -0.318413        -8.6645
 227   2.0000      -0.313787        -8.5386
 228   2.0000      -0.260903        -7.0995
 229   0.0000      -0.034960        -0.9513
 230   0.0000      -0.017031        -0.4634
 231   0.0000       0.007630         0.2076
 232   0.0000       0.017083         0.4649
 233   0.0000       0.032195         0.8761

MULLIKEN ATOMIC CHARGES
-----------------------
   0 C :   -0.184561
   1 C :    0.276552
   2 C :    0.231549
   3 C :   -0.191245
   4 C :    0.134622
   5 C :    0.250712
   6 N :   -0.462836
   7 S :    0.548261
   8 N :   -0.515352
   9 N :   -0.614431
  10 C :    0.141864
  11 C :   -0.004628
  12 C :    0.252504
  13 C :    0.185768
  14 N :   -0.623998
  15 N :   -0.553405
  16 C :    0.130106
  17 C :   -0.062511
  18 C :   -0.017888
  19 C :   -0.140435
  20 S :    0.242087
  21 S :    0.215690
  22 C :   -0.259069
  23 C :   -0.109813
  24 C :    0.170265
  25 C :    0.103671
  26 C :   -0.310248
  27 C :    0.198195
  28 C :   -0.352027
  29 C :    0.477702
  30 C :   -0.175470
  31 C :   -0.021363
  32 C :    0.236648
  33 C :    0.477325
  34 C :   -0.168790
  35 C :   -0.043449
  36 C :    0.209318
  37 C :   -0.041248
  38 C :    0.343334
  39 C :    0.342101
  40 C :   -0.059044
  41 C :   -0.034296
  42 C :    0.340995
  43 C :    0.345017
  44 C :   -0.055001
  45 O :   -0.370402
  46 C :   -0.349739
  47 C :    0.043256
  48 C :    0.044710
  49 F :   -0.305086
  50 F :   -0.303283
  51 O :   -0.345923
  52 C :   -0.351201
  53 C :    0.057624
  54 C :    0.048037
  55 F :   -0.301218
  56 F :   -0.301727
  57 N :   -0.089287
  58 N :   -0.092584
  59 N :   -0.076558
  60 N :   -0.059028
  61 C :    0.100771
  62 C :    0.161485
  63 C :    0.186079
  64 H :    0.053513
  65 H :    0.066149
  66 H :    0.054027
  67 H :    0.064139
  68 H :    0.099355
  69 H :    0.099075
  70 H :    0.086553
  71 H :    0.105479
  72 H :    0.090929
  73 H :    0.103400
  74 H :    0.065249
  75 H :    0.069069
  76 H :    0.083667
  77 H :    0.071151
  78 H :    0.064298
  79 H :    0.068294
  80 H :    0.064118
  81 H :    0.053761
  82 H :    0.088672
Sum of atomic charges:   -0.0000000

LOEWDIN ATOMIC CHARGES
----------------------
   0 C :   -0.109352
   1 C :    0.070380
   2 C :    0.034990
   3 C :   -0.078533
   4 C :   -0.023549
   5 C :   -0.011500
   6 N :   -0.308246
   7 S :    0.583974
   8 N :   -0.317241
   9 N :   -0.040411
  10 C :   -0.010634
  11 C :   -0.164994
  12 C :    0.058718
  13 C :   -0.014691
  14 N :   -0.058111
  15 N :   -0.003469
  16 C :   -0.010585
  17 C :   -0.027655
  18 C :   -0.174765
  19 C :   -0.195012
  20 S :    0.408862
  21 S :    0.409194
  22 C :   -0.206427
  23 C :   -0.004811
  24 C :    0.081956
  25 C :    0.119949
  26 C :   -0.177232
  27 C :    0.106347
  28 C :   -0.144993
  29 C :    0.163891
  30 C :   -0.052388
  31 C :   -0.024480
  32 C :    0.123504
  33 C :    0.170158
  34 C :   -0.057238
  35 C :   -0.022501
  36 C :    0.107433
  37 C :    0.001328
  38 C :    0.119804
  39 C :    0.118190
  40 C :   -0.007047
  41 C :    0.005726
  42 C :    0.120087
  43 C :    0.123441
  44 C :   -0.009398
  45 O :   -0.233052
  46 C :   -0.182990
  47 C :    0.018527
  48 C :    0.018333
  49 F :   -0.103499
  50 F :   -0.103153
  51 O :   -0.226074
  52 C :   -0.162351
  53 C :    0.012271
  54 C :    0.015473
  55 F :   -0.101279
  56 F :   -0.100649
  57 N :   -0.103007
  58 N :   -0.106025
  59 N :   -0.091395
  60 N :   -0.083353
  61 C :   -0.022740
  62 C :    0.081250
  63 C :    0.082977
  64 H :    0.036644
  65 H :    0.031992
  66 H :    0.017606
  67 H :    0.026774
  68 H :    0.054190
  69 H :    0.056084
  70 H :    0.058238
  71 H :    0.056845
  72 H :    0.060031
  73 H :    0.056812
  74 H :    0.034057
  75 H :    0.033626
  76 H :    0.039356
  77 H :    0.027964
  78 H :    0.022303
  79 H :    0.029746
  80 H :    0.024676
  81 H :    0.022000
  82 H :    0.029127

  Mayer bond orders larger than 0.100000
B(  0-C ,  1-C ) :   1.4561 B(  0-C ,  5-C ) :   1.0926 B(  0-C , 12-C ) :   1.2804
B(  1-C ,  2-C ) :   1.1511 B(  1-C , 14-N ) :   1.1063 B(  2-C ,  3-C ) :   1.4608
B(  2-C ,  9-N ) :   1.0888 B(  3-C ,  4-C ) :   1.1181 B(  3-C , 11-C ) :   1.4366
B(  4-C ,  5-C ) :   1.1035 B(  4-C ,  6-N ) :   1.6176 B(  5-C ,  8-N ) :   1.5616
B(  6-N ,  7-S ) :   1.1632 B(  6-N ,  8-N ) :   0.1028 B(  7-S ,  8-N ) :   1.1592
B(  9-N , 10-C ) :   1.0843 B(  9-N , 62-C ) :   0.8588 B( 10-C , 11-C ) :   1.4680
B( 10-C , 18-C ) :   1.3392 B( 11-C , 20-S ) :   0.9882 B( 12-C , 13-C ) :   1.3198
B( 12-C , 15-N ) :   1.2037 B( 13-C , 14-N ) :   1.0178 B( 13-C , 17-C ) :   1.3780
B( 14-N , 24-C ) :   0.8683 B( 15-N , 16-C ) :   1.0652 B( 15-N , 63-C ) :   0.8384
B( 16-C , 17-C ) :   1.3723 B( 16-C , 25-C ) :   1.2789 B( 17-C , 64-H ) :   1.0142
B( 18-C , 19-C ) :   1.5274 B( 18-C , 21-S ) :   1.0331 B( 19-C , 20-S ) :   1.0056
B( 19-C , 23-C ) :   1.3994 B( 21-S , 22-C ) :   1.0731 B( 22-C , 23-C ) :   1.5563
B( 22-C , 27-C ) :   1.1450 B( 23-C , 61-C ) :   1.0057 B( 24-C , 65-H ) :   0.9860
B( 24-C , 66-H ) :   0.9856 B( 24-C , 67-H ) :   0.9864 B( 25-C , 26-C ) :   1.5482
B( 25-C , 68-H ) :   0.9489 B( 26-C , 29-C ) :   0.9978 B( 26-C , 32-C ) :   1.1262
B( 27-C , 28-C ) :   1.7231 B( 27-C , 69-H ) :   0.9454 B( 28-C , 33-C ) :   0.9838
B( 28-C , 36-C ) :   1.0843 B( 29-C , 30-C ) :   0.9671 B( 29-C , 45-O ) :   2.0547
B( 30-C , 31-C ) :   1.3870 B( 30-C , 37-C ) :   1.3833 B( 31-C , 32-C ) :   1.0368
B( 31-C , 40-C ) :   1.3631 B( 32-C , 46-C ) :   1.6618 B( 33-C , 34-C ) :   0.9435
B( 33-C , 51-O ) :   2.1070 B( 34-C , 35-C ) :   1.3798 B( 34-C , 41-C ) :   1.3797
B( 35-C , 36-C ) :   1.0387 B( 35-C , 44-C ) :   1.3667 B( 36-C , 52-C ) :   1.7155
B( 37-C , 38-C ) :   1.3904 B( 37-C , 70-H ) :   1.0071 B( 38-C , 39-C ) :   1.3261
B( 38-C , 49-F ) :   0.9410 B( 39-C , 40-C ) :   1.4210 B( 39-C , 50-F ) :   0.9468
B( 40-C , 71-H ) :   0.9854 B( 41-C , 42-C ) :   1.3970 B( 41-C , 72-H ) :   1.0056
B( 42-C , 43-C ) :   1.3227 B( 42-C , 56-F ) :   0.9440 B( 43-C , 44-C ) :   1.4218
B( 43-C , 55-F ) :   0.9489 B( 44-C , 73-H ) :   0.9876 B( 46-C , 47-C ) :   1.0626
B( 46-C , 48-C ) :   1.0568 B( 47-C , 58-N ) :   2.9762 B( 48-C , 57-N ) :   2.9791
B( 52-C , 53-C ) :   1.0664 B( 52-C , 54-C ) :   1.0426 B( 53-C , 60-N ) :   3.0139
B( 54-C , 59-N ) :   2.9918 B( 61-C , 74-H ) :   0.9662 B( 61-C , 75-H ) :   0.9737
B( 61-C , 76-H ) :   0.9546 B( 62-C , 77-H ) :   0.9857 B( 62-C , 78-H ) :   0.9846
B( 62-C , 79-H ) :   0.9858 B( 63-C , 80-H ) :   0.9855 B( 63-C , 81-H ) :   0.9854
B( 63-C , 82-H ) :   0.9755

-----------------------------------------------------------------------------
         ABSORPTION SPECTRUM VIA TRANSITION ELECTRIC DIPOLE MOMENTS
-----------------------------------------------------------------------------
State   Energy    Wavelength  fosc         T2        TX        TY        TZ
        (cm-1)      (nm)                 (au**2)    (au)      (au)      (au)
-----------------------------------------------------------------------------
   1   21327.7    468.9   2.732107082  42.17256   6.45339   0.72518  -0.02208
   2   26749.0    373.8   0.089031736   1.09575   0.00791  -0.41040  -0.96295
   3   32939.6    303.6   0.029613142   0.29597  -0.01596   0.20465  -0.50382

FINAL SINGLE POINT ENERGY     -3980.269874938865

DIPOLE MOMENT
-------------
                                X             Y             Z
Electronic contribution:     11.02347     -22.29650      16.56035
Nuclear contribution   :     -8.94231      23.09547     -18.41818
                        -----------------------------------------
Total Dipole Moment    :      2.08116       0.79897      -1.85783
                        -----------------------------------------
Magnitude (a.u.)       :      2.90192
Magnitude (Debye)      :      7.37609

Rotational constants in cm-1:     0.003482     0.000299     0.000286
Rotational constants in MHz :   104.381886     8.954823     8.566400

                             ****ORCA TERMINATED NORMALLY****
TOTAL RUN TIME: 0 days 8 hours 50 minutes 6 seconds 33 msec
