                         Program Version 4.2.0 -  RELEASE  -
|  1> # ORCA input file
|  2> # BTP-4Cl.out: Geometry 28
|  3> ! Engrad Keepdens
|  4> %maxcore 1000
|  5> %tddft
|  6>   nroots 3
|  7>   # nroots is the number of states to be computed
|  8>   Iroot 1
|  9>   end
| 10> * xyz 0 1
| 11>    C        4.42603         2.78642         0.99198
| 12>    O        5.18529         2.05917         0.37293
| 13>    C        3.45818         3.72635         0.38338
| 14>    C        3.22616         3.94479        -0.96465
| 15>    C        2.25667         4.88525        -1.32620
| 16>   Cl        1.94216         5.18104        -3.00280
| 17>    C        1.54814         5.57953        -0.32166
| 18>   Cl        0.34360         6.74647        -0.74891
| 19>    C        1.79405         5.34855         1.03826
| 20>    C        2.76199         4.40799         1.39834
| 21>    C        3.24913         3.92702         2.71721
| 22>    C        2.77329         4.38443         3.93611
| 23>    C        3.23669         3.89941         5.19747
| 24>    N        3.59898         3.50901         6.23116
| 25>    C        1.76032         5.38727         4.04273
| 26>    N        0.93697         6.20175         4.14259
| 27>    C        4.27593         2.91561         2.45920
| 28>    C        4.96445         2.17895         3.40823
| 29>    C        5.94140         1.16226         3.33789
| 30>    S        6.72448         0.54772         1.86136
| 31>    C        7.67607        -0.53503         2.80469
| 32>    C        7.38802        -0.45874         4.18549
| 33>    C        6.41588         0.50015         4.50740
| 34>    C        5.89450         0.74507         5.89920
| 35>    C        4.48801         0.17168         6.13735
| 36>    S        8.33194        -1.61096         5.14726
| 37>    C        9.10010        -2.17777         3.68212
| 38>    C        8.64180        -1.52065         2.53168
| 39>    N        9.28213        -2.01019         1.40108
| 40>    C        9.58383        -1.05407         0.32093
| 41>    C       10.96884        -0.43549         0.48252
| 42>    C       10.14277        -3.02605         1.83760
| 43>    C       10.07341        -3.11768         3.26022
| 44>    C       10.95079        -3.99538         3.97754
| 45>    N       11.04168        -4.12821         5.29302
| 46>    S       12.25938        -5.21150         5.58471
| 47>    N       12.69678        -5.53392         4.01937
| 48>    C       11.90926        -4.80535         3.24000
| 49>    C       11.89303        -4.77987         1.80556
| 50>    C       10.98535        -3.92173         1.10422
| 51>    N       11.09193        -4.18208        -0.25845
| 52>    C       10.18617        -3.81451        -1.34666
| 53>    C       10.80885        -2.85931        -2.36090
| 54>    C       12.06173        -5.15253        -0.42712
| 55>    C       12.57793        -5.53156         0.82527
| 56>    S       13.79186        -6.78470         0.71602
| 57>    C       13.59056        -6.79616        -1.04281
| 58>    C       12.62331        -5.87498        -1.50012
| 59>    S       12.45188        -5.90148        -3.22032
| 60>    C       13.71141        -7.15657        -3.34363
| 61>    C       14.21928        -7.52284        -2.06444
| 62>    C       15.24822        -8.58549        -1.78789
| 63>    C       14.61215        -9.94144        -1.43686
| 64>    C       14.20819        -7.73151        -4.53593
| 65>    C       13.94059        -7.54998        -5.88391
| 66>    C       14.60522        -8.23152        -6.99728
| 67>    C       15.59810        -9.19643        -6.94485
| 68>    C       16.17513        -9.78015        -8.11448
| 69>    N       16.65567       -10.26454        -9.05500
| 70>    C       16.14588        -9.70145        -5.72649
| 71>    N       16.60248       -10.12214        -4.74355
| 72>    C       14.02443        -7.69640        -8.25655
| 73>    C       14.28193        -7.97492        -9.60244
| 74>    C       13.55871        -7.28491       -10.58551
| 75>   Cl       13.88540        -7.63270       -12.25090
| 76>    C       12.58335        -6.32423       -10.23967
| 77>   Cl       11.70254        -5.48206       -11.46848
| 78>    C       12.32435        -6.04797        -8.89293
| 79>    C       13.04718        -6.73679        -7.93127
| 80>    C       12.94886        -6.60978        -6.45691
| 81>    O       12.18979        -5.86237        -5.86269
| 82>    H        3.78644         3.39507        -1.72196
| 83>    H        1.21636         5.91331         1.76452
| 84>    H        4.70513         2.40099         4.44026
| 85>    H        5.88278         1.82537         6.11633
| 86>    H        6.59883         0.29694         6.61665
| 87>    H        3.74771         0.64031         5.47433
| 88>    H        4.16871         0.36654         7.17179
| 89>    H        4.46549        -0.91443         5.95672
| 90>    H        8.81144        -0.27483         0.36734
| 91>    H        9.47001        -1.53072        -0.65549
| 92>    H       11.75558        -1.20461         0.43962
| 93>    H       11.05063         0.08203         1.45038
| 94>    H       11.16068         0.29525        -0.31734
| 95>    H        9.27496        -3.40524        -0.89516
| 96>    H        9.88186        -4.74651        -1.85041
| 97>    H       10.06367        -2.57625        -3.11935
| 98>    H       11.65130        -3.33259        -2.88473
| 99>    H       11.18434        -1.94586        -1.87996
|100>    H       15.87247        -8.24236        -0.94584
|101>    H       15.92971        -8.71903        -2.63946
|102>    H       13.92521        -9.85043        -0.58132
|103>    H       15.39201       -10.67261        -1.17905
|104>    H       14.04353       -10.33890        -2.29088
|105>    H       14.98104        -8.46318        -4.31368
|106>    H       15.02146        -8.70332        -9.92506
|107>    H       11.57406        -5.31020        -8.60624
|108> *
|109>
|110>                          ****END OF INPUT****

CARTESIAN COORDINATES (ANGSTROEM)
---------------------------------
  C      4.426030    2.786420    0.991980
  O      5.185290    2.059170    0.372930
  C      3.458180    3.726350    0.383380
  C      3.226160    3.944790   -0.964650
  C      2.256670    4.885250   -1.326200
  Cl     1.942160    5.181040   -3.002800
  C      1.548140    5.579530   -0.321660
  Cl     0.343600    6.746470   -0.748910
  C      1.794050    5.348550    1.038260
  C      2.761990    4.407990    1.398340
  C      3.249130    3.927020    2.717210
  C      2.773290    4.384430    3.936110
  C      3.236690    3.899410    5.197470
  N      3.598980    3.509010    6.231160
  C      1.760320    5.387270    4.042730
  N      0.936970    6.201750    4.142590
  C      4.275930    2.915610    2.459200
  C      4.964450    2.178950    3.408230
  C      5.941400    1.162260    3.337890
  S      6.724480    0.547720    1.861360
  C      7.676070   -0.535030    2.804690
  C      7.388020   -0.458740    4.185490
  C      6.415880    0.500150    4.507400
  C      5.894500    0.745070    5.899200
  C      4.488010    0.171680    6.137350
  S      8.331940   -1.610960    5.147260
  C      9.100100   -2.177770    3.682120
  C      8.641800   -1.520650    2.531680
  N      9.282130   -2.010190    1.401080
  C      9.583830   -1.054070    0.320930
  C     10.968840   -0.435490    0.482520
  C     10.142770   -3.026050    1.837600
  C     10.073410   -3.117680    3.260220
  C     10.950790   -3.995380    3.977540
  N     11.041680   -4.128210    5.293020
  S     12.259380   -5.211500    5.584710
  N     12.696780   -5.533920    4.019370
  C     11.909260   -4.805350    3.240000
  C     11.893030   -4.779870    1.805560
  C     10.985350   -3.921730    1.104220
  N     11.091930   -4.182080   -0.258450
  C     10.186170   -3.814510   -1.346660
  C     10.808850   -2.859310   -2.360900
  C     12.061730   -5.152530   -0.427120
  C     12.577930   -5.531560    0.825270
  S     13.791860   -6.784700    0.716020
  C     13.590560   -6.796160   -1.042810
  C     12.623310   -5.874980   -1.500120
  S     12.451880   -5.901480   -3.220320
  C     13.711410   -7.156570   -3.343630
  C     14.219280   -7.522840   -2.064440
  C     15.248220   -8.585490   -1.787890
  C     14.612150   -9.941440   -1.436860
  C     14.208190   -7.731510   -4.535930
  C     13.940590   -7.549980   -5.883910
  C     14.605220   -8.231520   -6.997280
  C     15.598100   -9.196430   -6.944850
  C     16.175130   -9.780150   -8.114480
  N     16.655670  -10.264540   -9.055000
  C     16.145880   -9.701450   -5.726490
  N     16.602480  -10.122140   -4.743550
  C     14.024430   -7.696400   -8.256550
  C     14.281930   -7.974920   -9.602440
  C     13.558710   -7.284910  -10.585510
  Cl    13.885400   -7.632700  -12.250900
  C     12.583350   -6.324230  -10.239670
  Cl    11.702540   -5.482060  -11.468480
  C     12.324350   -6.047970   -8.892930
  C     13.047180   -6.736790   -7.931270
  C     12.948860   -6.609780   -6.456910
  O     12.189790   -5.862370   -5.862690
  H      3.786440    3.395070   -1.721960
  H      1.216360    5.913310    1.764520
  H      4.705130    2.400990    4.440260
  H      5.882780    1.825370    6.116330
  H      6.598830    0.296940    6.616650
  H      3.747710    0.640310    5.474330
  H      4.168710    0.366540    7.171790
  H      4.465490   -0.914430    5.956720
  H      8.811440   -0.274830    0.367340
  H      9.470010   -1.530720   -0.655490
  H     11.755580   -1.204610    0.439620
  H     11.050630    0.082030    1.450380
  H     11.160680    0.295250   -0.317340
  H      9.274960   -3.405240   -0.895160
  H      9.881860   -4.746510   -1.850410
  H     10.063670   -2.576250   -3.119350
  H     11.651300   -3.332590   -2.884730
  H     11.184340   -1.945860   -1.879960
  H     15.872470   -8.242360   -0.945840
  H     15.929710   -8.719030   -2.639460
  H     13.925210   -9.850430   -0.581320
  H     15.392010  -10.672610   -1.179050
  H     14.043530  -10.338900   -2.290880
  H     14.981040   -8.463180   -4.313680
  H     15.021460   -8.703320   -9.925060
  H     11.574060   -5.310200   -8.606240

 Total Charge           Charge          ....    0
 Multiplicity           Mult            ....    1
 Number of Electrons    NEL             ....  558
 Basis Dimension        Dim             .... 1160

ORBITAL ENERGIES
----------------

  NO   OCC          E(Eh)            E(eV)
   0   2.0000    -104.826174     -2852.4652
   1   2.0000    -104.826112     -2852.4635
   2   2.0000    -104.822752     -2852.3721
   3   2.0000    -104.822500     -2852.3652
   4   2.0000     -92.024621     -2504.1173
   5   2.0000     -91.984893     -2503.0362
   6   2.0000     -91.983773     -2503.0057
   7   2.0000     -91.983510     -2502.9986
   8   2.0000     -91.982373     -2502.9676
   9   2.0000     -20.573063      -559.8215
  10   2.0000     -20.572693      -559.8114
  11   2.0000     -15.663764      -426.2327
  12   2.0000     -15.654909      -425.9917
  13   2.0000     -15.626366      -425.2150
  14   2.0000     -15.625013      -425.1782
  15   2.0000     -15.603462      -424.5918
  16   2.0000     -15.603353      -424.5888
  17   2.0000     -15.595664      -424.3796
  18   2.0000     -15.595538      -424.3762
  19   2.0000     -11.371879      -309.4446
  20   2.0000     -11.371173      -309.4254
  21   2.0000     -11.353484      -308.9440
  22   2.0000     -11.353479      -308.9439
  23   2.0000     -11.351211      -308.8822
  24   2.0000     -11.350958      -308.8753
  25   2.0000     -11.349445      -308.8341
  26   2.0000     -11.349028      -308.8227
  27   2.0000     -11.342724      -308.6512
  28   2.0000     -11.340595      -308.5933
  29   2.0000     -11.329172      -308.2825
  30   2.0000     -11.328959      -308.2766
  31   2.0000     -11.328462      -308.2631
  32   2.0000     -11.327758      -308.2440
  33   2.0000     -11.323208      -308.1201
  34   2.0000     -11.322294      -308.0953
  35   2.0000     -11.321762      -308.0808
  36   2.0000     -11.320967      -308.0592
  37   2.0000     -11.319229      -308.0119
  38   2.0000     -11.317569      -307.9667
  39   2.0000     -11.317442      -307.9633
  40   2.0000     -11.317293      -307.9592
  41   2.0000     -11.316874      -307.9478
  42   2.0000     -11.315556      -307.9119
  43   2.0000     -11.314637      -307.8869
  44   2.0000     -11.314587      -307.8856
  45   2.0000     -11.308620      -307.7232
  46   2.0000     -11.308409      -307.7174
  47   2.0000     -11.308257      -307.7133
  48   2.0000     -11.307966      -307.7054
  49   2.0000     -11.307459      -307.6916
  50   2.0000     -11.307315      -307.6877
  51   2.0000     -11.306475      -307.6648
  52   2.0000     -11.305136      -307.6284
  53   2.0000     -11.300598      -307.5049
  54   2.0000     -11.300111      -307.4916
  55   2.0000     -11.300032      -307.4895
  56   2.0000     -11.299508      -307.4752
  57   2.0000     -11.299493      -307.4748
  58   2.0000     -11.299242      -307.4680
  59   2.0000     -11.291994      -307.2708
  60   2.0000     -11.290655      -307.2343
  61   2.0000     -11.289628      -307.2064
  62   2.0000     -11.287913      -307.1597
  63   2.0000     -11.282247      -307.0056
  64   2.0000     -11.281652      -306.9893
  65   2.0000     -11.269728      -306.6649
  66   2.0000     -11.268266      -306.6251
  67   2.0000     -11.264123      -306.5124
  68   2.0000     -11.264061      -306.5107
  69   2.0000     -11.248485      -306.0868
  70   2.0000     -11.247973      -306.0729
  71   2.0000     -10.589495      -288.1548
  72   2.0000     -10.589466      -288.1540
  73   2.0000     -10.586094      -288.0623
  74   2.0000     -10.585893      -288.0568
  75   2.0000      -9.055748      -246.4194
  76   2.0000      -9.018069      -245.3941
  77   2.0000      -9.017065      -245.3668
  78   2.0000      -9.017051      -245.3664
  79   2.0000      -9.016030      -245.3387
  80   2.0000      -8.064581      -219.4484
  81   2.0000      -8.064551      -219.4476
  82   2.0000      -8.061173      -219.3557
  83   2.0000      -8.060975      -219.3503
  84   2.0000      -8.060814      -219.3459
  85   2.0000      -8.060812      -219.3458
  86   2.0000      -8.060784      -219.3451
  87   2.0000      -8.060781      -219.3450
  88   2.0000      -8.057406      -219.2532
  89   2.0000      -8.057387      -219.2527
  90   2.0000      -8.057206      -219.2477
  91   2.0000      -8.057187      -219.2472
  92   2.0000      -6.742905      -183.4838
  93   2.0000      -6.741192      -183.4372
  94   2.0000      -6.739391      -183.3882
  95   2.0000      -6.705307      -182.4607
  96   2.0000      -6.704564      -182.4404
  97   2.0000      -6.704293      -182.4331
  98   2.0000      -6.704106      -182.4280
  99   2.0000      -6.703747      -182.4182
 100   2.0000      -6.703541      -182.4126
 101   2.0000      -6.703055      -182.3994
 102   2.0000      -6.702719      -182.3903
 103   2.0000      -6.702108      -182.3736
 104   2.0000      -6.701415      -182.3548
 105   2.0000      -6.701085      -182.3458
 106   2.0000      -6.700384      -182.3267
 107   2.0000      -1.401818       -38.1454
 108   2.0000      -1.401762       -38.1439
 109   2.0000      -1.357264       -36.9330
 110   2.0000      -1.343607       -36.5614
 111   2.0000      -1.337869       -36.4053
 112   2.0000      -1.252453       -34.0810
 113   2.0000      -1.252435       -34.0805
 114   2.0000      -1.240864       -33.7656
 115   2.0000      -1.240615       -33.7589
 116   2.0000      -1.230474       -33.4829
 117   2.0000      -1.228374       -33.4257
 118   2.0000      -1.225561       -33.3492
 119   2.0000      -1.225288       -33.3418
 120   2.0000      -1.204342       -32.7718
 121   2.0000      -1.204220       -32.7685
 122   2.0000      -1.200311       -32.6621
 123   2.0000      -1.171552       -31.8796
 124   2.0000      -1.159444       -31.5501
 125   2.0000      -1.158987       -31.5376
 126   2.0000      -1.158574       -31.5264
 127   2.0000      -1.152231       -31.3538
 128   2.0000      -1.133333       -30.8396
 129   2.0000      -1.131173       -30.7808
 130   2.0000      -1.109766       -30.1983
 131   2.0000      -1.096601       -29.8400
 132   2.0000      -1.091073       -29.6896
 133   2.0000      -1.087045       -29.5800
 134   2.0000      -1.081211       -29.4213
 135   2.0000      -1.073253       -29.2047
 136   2.0000      -1.058249       -28.7964
 137   2.0000      -1.053153       -28.6577
 138   2.0000      -1.049297       -28.5528
 139   2.0000      -1.049253       -28.5516
 140   2.0000      -1.039608       -28.2892
 141   2.0000      -1.031748       -28.0753
 142   2.0000      -1.013051       -27.5665
 143   2.0000      -1.006955       -27.4006
 144   2.0000      -0.999348       -27.1936
 145   2.0000      -0.981067       -26.6962
 146   2.0000      -0.968427       -26.3522
 147   2.0000      -0.964503       -26.2455
 148   2.0000      -0.950966       -25.8771
 149   2.0000      -0.930494       -25.3200
 150   2.0000      -0.928117       -25.2554
 151   2.0000      -0.920308       -25.0429
 152   2.0000      -0.906977       -24.6801
 153   2.0000      -0.903588       -24.5879
 154   2.0000      -0.891474       -24.2582
 155   2.0000      -0.879546       -23.9337
 156   2.0000      -0.874367       -23.7927
 157   2.0000      -0.868873       -23.6432
 158   2.0000      -0.862317       -23.4648
 159   2.0000      -0.846121       -23.0241
 160   2.0000      -0.839574       -22.8460
 161   2.0000      -0.835333       -22.7306
 162   2.0000      -0.834126       -22.6977
 163   2.0000      -0.826773       -22.4977
 164   2.0000      -0.808952       -22.0127
 165   2.0000      -0.797422       -21.6990
 166   2.0000      -0.793658       -21.5965
 167   2.0000      -0.785872       -21.3847
 168   2.0000      -0.766324       -20.8527
 169   2.0000      -0.762553       -20.7501
 170   2.0000      -0.755177       -20.5494
 171   2.0000      -0.751318       -20.4444
 172   2.0000      -0.747803       -20.3488
 173   2.0000      -0.746451       -20.3120
 174   2.0000      -0.739571       -20.1248
 175   2.0000      -0.727611       -19.7993
 176   2.0000      -0.717202       -19.5161
 177   2.0000      -0.712367       -19.3845
 178   2.0000      -0.704903       -19.1814
 179   2.0000      -0.702302       -19.1106
 180   2.0000      -0.699863       -19.0442
 181   2.0000      -0.690402       -18.7868
 182   2.0000      -0.683438       -18.5973
 183   2.0000      -0.682125       -18.5616
 184   2.0000      -0.676735       -18.4149
 185   2.0000      -0.670981       -18.2583
 186   2.0000      -0.665287       -18.1034
 187   2.0000      -0.660315       -17.9681
 188   2.0000      -0.657755       -17.8984
 189   2.0000      -0.656898       -17.8751
 190   2.0000      -0.655119       -17.8267
 191   2.0000      -0.653437       -17.7809
 192   2.0000      -0.650935       -17.7128
 193   2.0000      -0.650268       -17.6947
 194   2.0000      -0.640333       -17.4243
 195   2.0000      -0.633668       -17.2430
 196   2.0000      -0.630004       -17.1433
 197   2.0000      -0.629137       -17.1197
 198   2.0000      -0.626388       -17.0449
 199   2.0000      -0.624610       -16.9965
 200   2.0000      -0.624467       -16.9926
 201   2.0000      -0.621070       -16.9002
 202   2.0000      -0.614739       -16.7279
 203   2.0000      -0.613611       -16.6972
 204   2.0000      -0.610251       -16.6058
 205   2.0000      -0.609818       -16.5940
 206   2.0000      -0.597813       -16.2673
 207   2.0000      -0.593550       -16.1513
 208   2.0000      -0.589117       -16.0307
 209   2.0000      -0.586525       -15.9602
 210   2.0000      -0.585756       -15.9392
 211   2.0000      -0.584850       -15.9146
 212   2.0000      -0.583626       -15.8813
 213   2.0000      -0.582773       -15.8581
 214   2.0000      -0.578416       -15.7395
 215   2.0000      -0.577872       -15.7247
 216   2.0000      -0.577518       -15.7151
 217   2.0000      -0.575743       -15.6668
 218   2.0000      -0.574959       -15.6454
 219   2.0000      -0.574574       -15.6350
 220   2.0000      -0.570024       -15.5111
 221   2.0000      -0.568231       -15.4623
 222   2.0000      -0.566186       -15.4067
 223   2.0000      -0.564353       -15.3568
 224   2.0000      -0.563439       -15.3320
 225   2.0000      -0.561773       -15.2866
 226   2.0000      -0.559746       -15.2315
 227   2.0000      -0.558319       -15.1926
 228   2.0000      -0.553095       -15.0505
 229   2.0000      -0.545372       -14.8403
 230   2.0000      -0.541250       -14.7282
 231   2.0000      -0.540191       -14.6993
 232   2.0000      -0.537233       -14.6188
 233   2.0000      -0.530940       -14.4476
 234   2.0000      -0.528817       -14.3898
 235   2.0000      -0.517990       -14.0952
 236   2.0000      -0.515553       -14.0289
 237   2.0000      -0.511611       -13.9217
 238   2.0000      -0.511546       -13.9199
 239   2.0000      -0.511136       -13.9087
 240   2.0000      -0.508730       -13.8433
 241   2.0000      -0.507252       -13.8030
 242   2.0000      -0.504728       -13.7343
 243   2.0000      -0.503731       -13.7072
 244   2.0000      -0.503274       -13.6948
 245   2.0000      -0.499960       -13.6046
 246   2.0000      -0.499018       -13.5790
 247   2.0000      -0.497722       -13.5437
 248   2.0000      -0.495900       -13.4941
 249   2.0000      -0.495095       -13.4722
 250   2.0000      -0.494696       -13.4614
 251   2.0000      -0.486474       -13.2376
 252   2.0000      -0.484749       -13.1907
 253   2.0000      -0.484368       -13.1803
 254   2.0000      -0.479442       -13.0463
 255   2.0000      -0.479047       -13.0355
 256   2.0000      -0.478218       -13.0130
 257   2.0000      -0.475762       -12.9461
 258   2.0000      -0.467278       -12.7153
 259   2.0000      -0.466374       -12.6907
 260   2.0000      -0.465956       -12.6793
 261   2.0000      -0.456822       -12.4308
 262   2.0000      -0.452257       -12.3065
 263   2.0000      -0.444027       -12.0826
 264   2.0000      -0.443304       -12.0629
 265   2.0000      -0.417022       -11.3477
 266   2.0000      -0.415474       -11.3056
 267   2.0000      -0.391407       -10.6507
 268   2.0000      -0.390184       -10.6175
 269   2.0000      -0.381835       -10.3903
 270   2.0000      -0.378780       -10.3071
 271   2.0000      -0.359927        -9.7941
 272   2.0000      -0.357408        -9.7256
 273   2.0000      -0.354150        -9.6369
 274   2.0000      -0.345095        -9.3905
 275   2.0000      -0.337324        -9.1791
 276   2.0000      -0.322382        -8.7725
 277   2.0000      -0.309236        -8.4147
 278   2.0000      -0.266607        -7.2547
 279   0.0000      -0.039305        -1.0695
 280   0.0000      -0.021810        -0.5935
 281   0.0000       0.004690         0.1276
 282   0.0000       0.011379         0.3096
 283   0.0000       0.024488         0.6663

MULLIKEN ATOMIC CHARGES
-----------------------
   0 C :    0.519993
   1 O :   -0.391986
   2 C :   -0.185217
   3 C :    0.051375
   4 C :    0.048898
   5 Cl:   -0.077498
   6 C :    0.026843
   7 Cl:   -0.071206
   8 C :    0.036799
   9 C :   -0.031572
  10 C :    0.253444
  11 C :   -0.356314
  12 C :    0.055922
  13 N :   -0.105741
  14 C :    0.045693
  15 N :   -0.086808
  16 C :   -0.318318
  17 C :    0.077580
  18 C :   -0.170509
  19 S :    0.251146
  20 C :   -0.004220
  21 C :   -0.121584
  22 C :   -0.083155
  23 C :   -0.025796
  24 C :   -0.021794
  25 S :    0.246257
  26 C :    0.023063
  27 C :    0.116859
  28 N :   -0.588660
  29 C :    0.121113
  30 C :   -0.066656
  31 C :    0.220289
  32 C :   -0.202782
  33 C :    0.150101
  34 N :   -0.462583
  35 S :    0.547115
  36 N :   -0.466253
  37 C :    0.160784
  38 C :   -0.222094
  39 C :    0.253362
  40 N :   -0.598979
  41 C :    0.107317
  42 C :   -0.060926
  43 C :    0.122337
  44 C :    0.022724
  45 S :    0.241795
  46 C :   -0.111448
  47 C :   -0.000289
  48 S :    0.251888
  49 C :   -0.174601
  50 C :   -0.091347
  51 C :   -0.029068
  52 C :   -0.019224
  53 C :    0.084477
  54 C :   -0.316961
  55 C :    0.252124
  56 C :   -0.358395
  57 C :    0.045018
  58 N :   -0.085812
  59 C :    0.062130
  60 N :   -0.109566
  61 C :   -0.032867
  62 C :    0.037041
  63 C :    0.028718
  64 Cl:   -0.070888
  65 C :    0.047804
  66 Cl:   -0.077702
  67 C :    0.051406
  68 C :   -0.185181
  69 C :    0.519578
  70 O :   -0.389693
  71 H :    0.074177
  72 H :    0.091653
  73 H :    0.084759
  74 H :    0.083494
  75 H :    0.057630
  76 H :    0.038370
  77 H :    0.063737
  78 H :    0.043659
  79 H :    0.077093
  80 H :    0.049102
  81 H :    0.056389
  82 H :    0.061161
  83 H :    0.058395
  84 H :    0.071556
  85 H :    0.073169
  86 H :    0.058006
  87 H :    0.070121
  88 H :    0.046223
  89 H :    0.062508
  90 H :    0.080785
  91 H :    0.045108
  92 H :    0.062119
  93 H :    0.040683
  94 H :    0.076530
  95 H :    0.092212
  96 H :    0.074061
Sum of atomic charges:    0.0000000

LOEWDIN ATOMIC CHARGES
----------------------
   0 C :    0.169144
   1 O :   -0.256651
   2 C :   -0.052481
   3 C :    0.011970
   4 C :   -0.111235
   5 Cl:    0.124702
   6 C :   -0.110678
   7 Cl:    0.127817
   8 C :    0.002513
   9 C :   -0.022516
  10 C :    0.129098
  11 C :   -0.184723
  12 C :    0.025517
  13 N :   -0.108341
  14 C :    0.018160
  15 N :   -0.099845
  16 C :   -0.177860
  17 C :    0.117929
  18 C :   -0.221599
  19 S :    0.456641
  20 C :   -0.162862
  21 C :   -0.211298
  22 C :    0.029483
  23 C :   -0.019292
  24 C :   -0.021576
  25 S :    0.398281
  26 C :   -0.148913
  27 C :   -0.026633
  28 N :   -0.053512
  29 C :    0.080832
  30 C :   -0.041744
  31 C :    0.045034
  32 C :   -0.080740
  33 C :   -0.024179
  34 N :   -0.307756
  35 S :    0.587988
  36 N :   -0.311110
  37 C :   -0.019697
  38 C :   -0.092534
  39 C :    0.049494
  40 N :   -0.029969
  41 C :    0.075280
  42 C :   -0.045392
  43 C :   -0.026707
  44 C :   -0.149248
  45 S :    0.398372
  46 C :   -0.210407
  47 C :   -0.161233
  48 S :    0.455694
  49 C :   -0.220406
  50 C :    0.030033
  51 C :   -0.018957
  52 C :   -0.021599
  53 C :    0.117649
  54 C :   -0.177917
  55 C :    0.129201
  56 C :   -0.184818
  57 C :    0.017686
  58 N :   -0.099439
  59 C :    0.027403
  60 N :   -0.110166
  61 C :   -0.022825
  62 C :    0.002909
  63 C :   -0.110389
  64 Cl:    0.126966
  65 C :   -0.111220
  66 Cl:    0.124943
  67 C :    0.011549
  68 C :   -0.052045
  69 C :    0.169082
  70 O :   -0.255900
  71 H :    0.051764
  72 H :    0.049281
  73 H :    0.048595
  74 H :    0.037561
  75 H :    0.028024
  76 H :    0.016912
  77 H :    0.031155
  78 H :    0.021228
  79 H :    0.022633
  80 H :    0.017120
  81 H :    0.022362
  82 H :    0.029878
  83 H :    0.029236
  84 H :    0.025422
  85 H :    0.027426
  86 H :    0.031798
  87 H :    0.019782
  88 H :    0.021248
  89 H :    0.030737
  90 H :    0.032303
  91 H :    0.019154
  92 H :    0.029762
  93 H :    0.021422
  94 H :    0.048874
  95 H :    0.049688
  96 H :    0.051673

  Mayer bond orders larger than 0.100000
B(  0-C ,  1-O ) :   2.0279 B(  0-C ,  2-C ) :   0.9772 B(  0-C , 16-C ) :   0.9901
B(  2-C ,  3-C ) :   1.4200 B(  2-C ,  9-C ) :   1.3642 B(  3-C ,  4-C ) :   1.3973
B(  3-C , 71-H ) :   1.0086 B(  4-C ,  5-Cl) :   1.0150 B(  4-C ,  6-C ) :   1.4192
B(  6-C ,  7-Cl) :   1.0419 B(  6-C ,  8-C ) :   1.4206 B(  8-C ,  9-C ) :   1.4116
B(  8-C , 72-H ) :   0.9858 B(  9-C , 10-C ) :   1.0313 B( 10-C , 11-C ) :   1.6545
B( 10-C , 16-C ) :   1.1318 B( 11-C , 12-C ) :   1.0669 B( 11-C , 14-C ) :   1.0577
B( 12-C , 13-N ) :   2.9597 B( 14-C , 15-N ) :   2.9740 B( 16-C , 17-C ) :   1.5678
B( 17-C , 18-C ) :   1.3421 B( 17-C , 73-H ) :   0.9553 B( 18-C , 19-S ) :   1.0280
B( 18-C , 22-C ) :   1.4461 B( 19-S , 20-C ) :   1.0371 B( 20-C , 21-C ) :   1.4648
B( 20-C , 27-C ) :   1.3573 B( 21-C , 22-C ) :   1.5053 B( 21-C , 25-S ) :   0.9838
B( 22-C , 23-C ) :   0.9704 B( 23-C , 24-C ) :   1.0403 B( 23-C , 74-H ) :   0.9562
B( 23-C , 75-H ) :   0.9696 B( 24-C , 76-H ) :   0.9859 B( 24-C , 77-H ) :   0.9846
B( 24-C , 78-H ) :   0.9805 B( 25-S , 26-C ) :   0.9877 B( 26-C , 27-C ) :   1.4819
B( 26-C , 32-C ) :   1.3992 B( 27-C , 28-N ) :   1.0667 B( 28-N , 29-C ) :   0.8524
B( 28-N , 31-C ) :   1.0881 B( 29-C , 30-C ) :   1.0421 B( 29-C , 79-H ) :   0.9761
B( 29-C , 80-H ) :   0.9797 B( 30-C , 81-H ) :   0.9751 B( 30-C , 82-H ) :   0.9803
B( 30-C , 83-H ) :   0.9821 B( 31-C , 32-C ) :   1.4995 B( 31-C , 39-C ) :   1.1588
B( 32-C , 33-C ) :   1.1068 B( 33-C , 34-N ) :   1.6254 B( 33-C , 37-C ) :   1.0968
B( 34-N , 35-S ) :   1.1619 B( 34-N , 36-N ) :   0.1035 B( 35-S , 36-N ) :   1.1594
B( 36-N , 37-C ) :   1.6235 B( 37-C , 38-C ) :   1.1097 B( 38-C , 39-C ) :   1.4499
B( 38-C , 44-C ) :   1.4411 B( 39-C , 40-N ) :   1.1188 B( 40-N , 41-C ) :   0.8265
B( 40-N , 43-C ) :   1.0733 B( 41-C , 42-C ) :   1.0347 B( 41-C , 84-H ) :   0.9853
B( 41-C , 85-H ) :   0.9771 B( 42-C , 86-H ) :   0.9819 B( 42-C , 87-H ) :   0.9764
B( 42-C , 88-H ) :   0.9803 B( 43-C , 44-C ) :   1.4615 B( 43-C , 47-C ) :   1.3508
B( 44-C , 45-S ) :   0.9848 B( 45-S , 46-C ) :   0.9839 B( 46-C , 47-C ) :   1.4726
B( 46-C , 50-C ) :   1.4824 B( 47-C , 48-S ) :   1.0275 B( 48-S , 49-C ) :   1.0277
B( 49-C , 50-C ) :   1.4544 B( 49-C , 53-C ) :   1.3397 B( 50-C , 51-C ) :   0.9842
B( 51-C , 52-C ) :   1.0334 B( 51-C , 89-H ) :   0.9659 B( 51-C , 90-H ) :   0.9584
B( 52-C , 91-H ) :   0.9842 B( 52-C , 92-H ) :   0.9857 B( 52-C , 93-H ) :   0.9823
B( 53-C , 54-C ) :   1.5685 B( 53-C , 94-H ) :   0.9556 B( 54-C , 55-C ) :   1.1324
B( 54-C , 69-C ) :   0.9871 B( 55-C , 56-C ) :   1.6549 B( 55-C , 61-C ) :   1.0320
B( 56-C , 57-C ) :   1.0577 B( 56-C , 59-C ) :   1.0678 B( 57-C , 58-N ) :   2.9744
B( 59-C , 60-N ) :   2.9601 B( 61-C , 62-C ) :   1.4104 B( 61-C , 68-C ) :   1.3648
B( 62-C , 63-C ) :   1.4220 B( 62-C , 95-H ) :   0.9856 B( 63-C , 64-Cl) :   1.0421
B( 63-C , 65-C ) :   1.4169 B( 65-C , 66-Cl) :   1.0156 B( 65-C , 67-C ) :   1.3990
B( 67-C , 68-C ) :   1.4193 B( 67-C , 96-H ) :   1.0087 B( 68-C , 69-C ) :   0.9751
B( 69-C , 70-O ) :   2.0340

-----------------------------------------------------------------------------
         ABSORPTION SPECTRUM VIA TRANSITION ELECTRIC DIPOLE MOMENTS
-----------------------------------------------------------------------------
State   Energy    Wavelength  fosc         T2        TX        TY        TZ
        (cm-1)      (nm)                 (au**2)    (au)      (au)      (au)
-----------------------------------------------------------------------------
   1   21526.6    464.5   2.683426783  41.03840   3.80048  -4.06662  -3.17133
   2   26806.4    373.0   1.039055404  12.76075  -1.24958   1.09739  -3.16149
   3   33093.1    302.2   0.037339537   0.37146  -0.35102   0.40342   0.29240

FINAL SINGLE POINT ENERGY     -6391.809719287980

DIPOLE MOMENT
-------------
                                X             Y             Z
Electronic contribution:    -22.52658      19.68510     -52.12600
Nuclear contribution   :     23.04378     -19.79550      52.73781
                        -----------------------------------------
Total Dipole Moment    :      0.51721      -0.11039       0.61181
                        -----------------------------------------
Magnitude (a.u.)       :      0.80870
Magnitude (Debye)      :      2.05555

Rotational constants in cm-1:     0.000960     0.000268     0.000211
Rotational constants in MHz :    28.768080     8.045106     6.324482

                             ****ORCA TERMINATED NORMALLY****
TOTAL RUN TIME: 0 days 11 hours 28 minutes 23 seconds 48 msec
