                         Program Version 4.2.0 -  RELEASE  -
|  1> # ORCA input file
|  2> # BTP-4Cl.out
|  3> ! Engrad Keepdens
|  4> %maxcore 1000
|  5> %tddft
|  6>   nroots 3
|  7>   # nroots is the number of states to be computed
|  8>   Iroot 1
|  9>   end
| 10> * xyz 0 1
| 11>    C        4.59755         2.87582         1.07531
| 12>    O        5.39216         2.17327         0.47468
| 13>    C        3.70908         3.89109         0.47533
| 14>    C        3.57391         4.24185        -0.85146
| 15>    C        2.65686         5.23304        -1.17927
| 16>   Cl        2.45262         5.69513        -2.82056
| 17>    C        1.89983         5.85060        -0.17863
| 18>   Cl        0.76836         7.07316        -0.59686
| 19>    C        2.04216         5.49383         1.15868
| 20>    C        2.95403         4.50559         1.48910
| 21>    C        3.32675         3.91708         2.77592
| 22>    C        2.81722         4.29679         3.99167
| 23>    C        3.17848         3.75788         5.24374
| 24>    N        3.41935         3.37722         6.30065
| 25>    C        1.84848         5.30859         4.16098
| 26>    N        1.06269         6.11838         4.37028
| 27>    C        4.32407         2.89989         2.51232
| 28>    C        4.89662         2.08581         3.46291
| 29>    C        5.85528         1.07743         3.35102
| 30>    S        6.64672         0.59327         1.84821
| 31>    C        7.55677        -0.59572         2.69830
| 32>    C        7.25364        -0.61134         4.07257
| 33>    C        6.30487         0.32547         4.45375
| 34>    C        5.80635         0.44801         5.85623
| 35>    C        4.51547        -0.35366         6.04658
| 36>    S        8.16234        -1.80782         4.97886
| 37>    C        8.94473        -2.27724         3.51058
| 38>    C        8.51866        -1.55889         2.38639
| 39>    N        9.18295        -1.99302         1.26783
| 40>    C        9.25690        -1.08742         0.14040
| 41>    C       10.32448        -0.01948         0.37118
| 42>    C       10.05313        -2.99516         1.66276
| 43>    C        9.93366        -3.16783         3.07427
| 44>    C       10.78167        -4.03687         3.79696
| 45>    N       10.80824        -4.26982         5.09957
| 46>    S       12.02585        -5.28821         5.41430
| 47>    N       12.56456        -5.47434         3.89922
| 48>    C       11.80900        -4.74598         3.09287
| 49>    C       11.85534        -4.65523         1.68347
| 50>    C       10.93519        -3.84765         0.94858
| 51>    N       11.11326        -4.10315        -0.39544
| 52>    C       10.26531        -3.81843        -1.53109
| 53>    C       10.89990        -2.80332        -2.48147
| 54>    C       12.13337        -5.00696        -0.52327
| 55>    C       12.62224        -5.35378         0.74401
| 56>    S       13.89334        -6.52471         0.70787
| 57>    C       13.75331        -6.57256        -1.04016
| 58>    C       12.76574        -5.70966        -1.55142
| 59>    S       12.64999        -5.80778        -3.26731
| 60>    C       13.93458        -7.01849        -3.29756
| 61>    C       14.42280        -7.30557        -2.00811
| 62>    C       15.47662        -8.31102        -1.67821
| 63>    C       14.88224        -9.71959        -1.59515
| 64>    C       14.41487        -7.64877        -4.44653
| 65>    C       14.04588        -7.52682        -5.76689
| 66>    C       14.61400        -8.28159        -6.86519
| 67>    C       15.59903        -9.23478        -6.80723
| 68>    C       16.09489        -9.92891        -7.93125
| 69>    N       16.54393       -10.53038        -8.79976
| 70>    C       16.26241        -9.66956        -5.64105
| 71>    N       16.85021       -10.08304        -4.74414
| 72>    C       13.93655        -7.84849        -8.08767
| 73>    C       14.07945        -8.24240        -9.40734
| 74>    C       13.27999        -7.64018       -10.37388
| 75>   Cl       13.45007        -8.12485       -12.01281
| 76>    C       12.34786        -6.65460       -10.03384
| 77>   Cl       11.37889        -5.93065       -11.25306
| 78>    C       12.20061        -6.25763        -8.71036
| 79>    C       12.99416        -6.85965        -7.75654
| 80>    C       13.02672        -6.62287        -6.29955
| 81>    O       12.33835        -5.82482        -5.68684
| 82>    H        4.16377         3.75625        -1.61305
| 83>    H        1.43979         5.99214         1.90004
| 84>    H        4.55070         2.23375         4.47666
| 85>    H        5.62745         1.49104         6.12094
| 86>    H        6.57235         0.05162         6.52560
| 87>    H        3.73149         0.01539         5.38949
| 88>    H        4.17499        -0.26244         7.07390
| 89>    H        4.68703        -1.40478         5.82679
| 90>    H        8.27621        -0.61324         0.04796
| 91>    H        9.46774        -1.62151        -0.77782
| 92>    H       11.30499        -0.47782         0.48434
| 93>    H       10.10342         0.55103         1.26974
| 94>    H       10.34946         0.66323        -0.47331
| 95>    H        9.28710        -3.49825        -1.16954
| 96>    H       10.12182        -4.75750        -2.07672
| 97>    H       10.18202        -2.51410        -3.24377
| 98>    H       11.75837        -3.24763        -2.97719
| 99>    H       11.23539        -1.91422        -1.95302
|100>    H       15.90489        -8.04890        -0.70893
|101>    H       16.27616        -8.29871        -2.42000
|102>    H       14.10754        -9.75906        -0.83336
|103>    H       15.66143       -10.43148        -1.33926
|104>    H       14.44899       -10.01306        -2.54805
|105>    H       15.20483        -8.35875        -4.24397
|106>    H       14.78632        -8.99739        -9.70938
|107>    H       11.48517        -5.49955        -8.43370
|108> *
|109>
|110>                          ****END OF INPUT****

CARTESIAN COORDINATES (ANGSTROEM)
---------------------------------
  C      4.597550    2.875820    1.075310
  O      5.392160    2.173270    0.474680
  C      3.709080    3.891090    0.475330
  C      3.573910    4.241850   -0.851460
  C      2.656860    5.233040   -1.179270
  Cl     2.452620    5.695130   -2.820560
  C      1.899830    5.850600   -0.178630
  Cl     0.768360    7.073160   -0.596860
  C      2.042160    5.493830    1.158680
  C      2.954030    4.505590    1.489100
  C      3.326750    3.917080    2.775920
  C      2.817220    4.296790    3.991670
  C      3.178480    3.757880    5.243740
  N      3.419350    3.377220    6.300650
  C      1.848480    5.308590    4.160980
  N      1.062690    6.118380    4.370280
  C      4.324070    2.899890    2.512320
  C      4.896620    2.085810    3.462910
  C      5.855280    1.077430    3.351020
  S      6.646720    0.593270    1.848210
  C      7.556770   -0.595720    2.698300
  C      7.253640   -0.611340    4.072570
  C      6.304870    0.325470    4.453750
  C      5.806350    0.448010    5.856230
  C      4.515470   -0.353660    6.046580
  S      8.162340   -1.807820    4.978860
  C      8.944730   -2.277240    3.510580
  C      8.518660   -1.558890    2.386390
  N      9.182950   -1.993020    1.267830
  C      9.256900   -1.087420    0.140400
  C     10.324480   -0.019480    0.371180
  C     10.053130   -2.995160    1.662760
  C      9.933660   -3.167830    3.074270
  C     10.781670   -4.036870    3.796960
  N     10.808240   -4.269820    5.099570
  S     12.025850   -5.288210    5.414300
  N     12.564560   -5.474340    3.899220
  C     11.809000   -4.745980    3.092870
  C     11.855340   -4.655230    1.683470
  C     10.935190   -3.847650    0.948580
  N     11.113260   -4.103150   -0.395440
  C     10.265310   -3.818430   -1.531090
  C     10.899900   -2.803320   -2.481470
  C     12.133370   -5.006960   -0.523270
  C     12.622240   -5.353780    0.744010
  S     13.893340   -6.524710    0.707870
  C     13.753310   -6.572560   -1.040160
  C     12.765740   -5.709660   -1.551420
  S     12.649990   -5.807780   -3.267310
  C     13.934580   -7.018490   -3.297560
  C     14.422800   -7.305570   -2.008110
  C     15.476620   -8.311020   -1.678210
  C     14.882240   -9.719590   -1.595150
  C     14.414870   -7.648770   -4.446530
  C     14.045880   -7.526820   -5.766890
  C     14.614000   -8.281590   -6.865190
  C     15.599030   -9.234780   -6.807230
  C     16.094890   -9.928910   -7.931250
  N     16.543930  -10.530380   -8.799760
  C     16.262410   -9.669560   -5.641050
  N     16.850210  -10.083040   -4.744140
  C     13.936550   -7.848490   -8.087670
  C     14.079450   -8.242400   -9.407340
  C     13.279990   -7.640180  -10.373880
  Cl    13.450070   -8.124850  -12.012810
  C     12.347860   -6.654600  -10.033840
  Cl    11.378890   -5.930650  -11.253060
  C     12.200610   -6.257630   -8.710360
  C     12.994160   -6.859650   -7.756540
  C     13.026720   -6.622870   -6.299550
  O     12.338350   -5.824820   -5.686840
  H      4.163770    3.756250   -1.613050
  H      1.439790    5.992140    1.900040
  H      4.550700    2.233750    4.476660
  H      5.627450    1.491040    6.120940
  H      6.572350    0.051620    6.525600
  H      3.731490    0.015390    5.389490
  H      4.174990   -0.262440    7.073900
  H      4.687030   -1.404780    5.826790
  H      8.276210   -0.613240    0.047960
  H      9.467740   -1.621510   -0.777820
  H     11.304990   -0.477820    0.484340
  H     10.103420    0.551030    1.269740
  H     10.349460    0.663230   -0.473310
  H      9.287100   -3.498250   -1.169540
  H     10.121820   -4.757500   -2.076720
  H     10.182020   -2.514100   -3.243770
  H     11.758370   -3.247630   -2.977190
  H     11.235390   -1.914220   -1.953020
  H     15.904890   -8.048900   -0.708930
  H     16.276160   -8.298710   -2.420000
  H     14.107540   -9.759060   -0.833360
  H     15.661430  -10.431480   -1.339260
  H     14.448990  -10.013060   -2.548050
  H     15.204830   -8.358750   -4.243970
  H     14.786320   -8.997390   -9.709380
  H     11.485170   -5.499550   -8.433700

 Total Charge           Charge          ....    0
 Multiplicity           Mult            ....    1
 Number of Electrons    NEL             ....  558
 Basis Dimension        Dim             .... 1160

ORBITAL ENERGIES
----------------

  NO   OCC          E(Eh)            E(eV)
   0   2.0000    -104.825877     -2852.4571
   1   2.0000    -104.825838     -2852.4561
   2   2.0000    -104.822976     -2852.3782
   3   2.0000    -104.822933     -2852.3770
   4   2.0000     -92.026628     -2504.1719
   5   2.0000     -91.979367     -2502.8858
   6   2.0000     -91.978946     -2502.8744
   7   2.0000     -91.978836     -2502.8714
   8   2.0000     -91.978514     -2502.8626
   9   2.0000     -20.573125      -559.8232
  10   2.0000     -20.573026      -559.8205
  11   2.0000     -15.660885      -426.1544
  12   2.0000     -15.657891      -426.0729
  13   2.0000     -15.616201      -424.9384
  14   2.0000     -15.615352      -424.9153
  15   2.0000     -15.597078      -424.4181
  16   2.0000     -15.596964      -424.4150
  17   2.0000     -15.588756      -424.1916
  18   2.0000     -15.588754      -424.1915
  19   2.0000     -11.371225      -309.4268
  20   2.0000     -11.371086      -309.4230
  21   2.0000     -11.347355      -308.7772
  22   2.0000     -11.347295      -308.7756
  23   2.0000     -11.345886      -308.7372
  24   2.0000     -11.345823      -308.7355
  25   2.0000     -11.344979      -308.7126
  26   2.0000     -11.344969      -308.7123
  27   2.0000     -11.339699      -308.5689
  28   2.0000     -11.338277      -308.5302
  29   2.0000     -11.323708      -308.1338
  30   2.0000     -11.323598      -308.1308
  31   2.0000     -11.320867      -308.0565
  32   2.0000     -11.320849      -308.0560
  33   2.0000     -11.318399      -307.9893
  34   2.0000     -11.314731      -307.8895
  35   2.0000     -11.313632      -307.8596
  36   2.0000     -11.312796      -307.8368
  37   2.0000     -11.312786      -307.8366
  38   2.0000     -11.311825      -307.8104
  39   2.0000     -11.310833      -307.7834
  40   2.0000     -11.310316      -307.7694
  41   2.0000     -11.308849      -307.7294
  42   2.0000     -11.308799      -307.7281
  43   2.0000     -11.306467      -307.6646
  44   2.0000     -11.306274      -307.6593
  45   2.0000     -11.302949      -307.5689
  46   2.0000     -11.302915      -307.5680
  47   2.0000     -11.300197      -307.4940
  48   2.0000     -11.300172      -307.4933
  49   2.0000     -11.299873      -307.4852
  50   2.0000     -11.299745      -307.4817
  51   2.0000     -11.298416      -307.4455
  52   2.0000     -11.298318      -307.4429
  53   2.0000     -11.297479      -307.4200
  54   2.0000     -11.297390      -307.4176
  55   2.0000     -11.296363      -307.3897
  56   2.0000     -11.296330      -307.3888
  57   2.0000     -11.292639      -307.2883
  58   2.0000     -11.292635      -307.2882
  59   2.0000     -11.288598      -307.1784
  60   2.0000     -11.288510      -307.1760
  61   2.0000     -11.282180      -307.0037
  62   2.0000     -11.280072      -306.9464
  63   2.0000     -11.274565      -306.7965
  64   2.0000     -11.274497      -306.7947
  65   2.0000     -11.264987      -306.5359
  66   2.0000     -11.264891      -306.5333
  67   2.0000     -11.259702      -306.3921
  68   2.0000     -11.256707      -306.3106
  69   2.0000     -11.244354      -305.9744
  70   2.0000     -11.243088      -305.9400
  71   2.0000     -10.589656      -288.1592
  72   2.0000     -10.589619      -288.1582
  73   2.0000     -10.586768      -288.0806
  74   2.0000     -10.586727      -288.0795
  75   2.0000      -9.058456      -246.4931
  76   2.0000      -9.013332      -245.2652
  77   2.0000      -9.013044      -245.2574
  78   2.0000      -9.012864      -245.2525
  79   2.0000      -9.012447      -245.2412
  80   2.0000      -8.064759      -219.4532
  81   2.0000      -8.064723      -219.4523
  82   2.0000      -8.061867      -219.3746
  83   2.0000      -8.061826      -219.3734
  84   2.0000      -8.060973      -219.3502
  85   2.0000      -8.060968      -219.3501
  86   2.0000      -8.060936      -219.3492
  87   2.0000      -8.060931      -219.3491
  88   2.0000      -8.058072      -219.2713
  89   2.0000      -8.058059      -219.2709
  90   2.0000      -8.058031      -219.2702
  91   2.0000      -8.058017      -219.2698
  92   2.0000      -6.745753      -183.5613
  93   2.0000      -6.743925      -183.5115
  94   2.0000      -6.742271      -183.4665
  95   2.0000      -6.700880      -182.3402
  96   2.0000      -6.700592      -182.3324
  97   2.0000      -6.700075      -182.3183
  98   2.0000      -6.700064      -182.3180
  99   2.0000      -6.699775      -182.3101
 100   2.0000      -6.699664      -182.3071
 101   2.0000      -6.698684      -182.2805
 102   2.0000      -6.698274      -182.2693
 103   2.0000      -6.697714      -182.2541
 104   2.0000      -6.697422      -182.2461
 105   2.0000      -6.696634      -182.2247
 106   2.0000      -6.696227      -182.2136
 107   2.0000      -1.406809       -38.2812
 108   2.0000      -1.406730       -38.2791
 109   2.0000      -1.367309       -37.2064
 110   2.0000      -1.355551       -36.8864
 111   2.0000      -1.348933       -36.7063
 112   2.0000      -1.260025       -34.2870
 113   2.0000      -1.259990       -34.2861
 114   2.0000      -1.247599       -33.9489
 115   2.0000      -1.247517       -33.9467
 116   2.0000      -1.236293       -33.6412
 117   2.0000      -1.234495       -33.5923
 118   2.0000      -1.229433       -33.4546
 119   2.0000      -1.229191       -33.4480
 120   2.0000      -1.212391       -32.9908
 121   2.0000      -1.212330       -32.9892
 122   2.0000      -1.199353       -32.6361
 123   2.0000      -1.180141       -32.1133
 124   2.0000      -1.165699       -31.7203
 125   2.0000      -1.163159       -31.6512
 126   2.0000      -1.163128       -31.6503
 127   2.0000      -1.159114       -31.5411
 128   2.0000      -1.138874       -30.9903
 129   2.0000      -1.136521       -30.9263
 130   2.0000      -1.115371       -30.3508
 131   2.0000      -1.102908       -30.0117
 132   2.0000      -1.097453       -29.8632
 133   2.0000      -1.091911       -29.7124
 134   2.0000      -1.086935       -29.5770
 135   2.0000      -1.080179       -29.3932
 136   2.0000      -1.063989       -28.9526
 137   2.0000      -1.058312       -28.7981
 138   2.0000      -1.054270       -28.6881
 139   2.0000      -1.054211       -28.6865
 140   2.0000      -1.044991       -28.4356
 141   2.0000      -1.034233       -28.1429
 142   2.0000      -1.017405       -27.6850
 143   2.0000      -1.010147       -27.4875
 144   2.0000      -1.002528       -27.2802
 145   2.0000      -0.983320       -26.7575
 146   2.0000      -0.971483       -26.4354
 147   2.0000      -0.967395       -26.3242
 148   2.0000      -0.954820       -25.9820
 149   2.0000      -0.937572       -25.5126
 150   2.0000      -0.935710       -25.4620
 151   2.0000      -0.923183       -25.1211
 152   2.0000      -0.913405       -24.8550
 153   2.0000      -0.908012       -24.7083
 154   2.0000      -0.895708       -24.3735
 155   2.0000      -0.882711       -24.0198
 156   2.0000      -0.877362       -23.8742
 157   2.0000      -0.871920       -23.7262
 158   2.0000      -0.865363       -23.5477
 159   2.0000      -0.849490       -23.1158
 160   2.0000      -0.844969       -22.9928
 161   2.0000      -0.840635       -22.8748
 162   2.0000      -0.839745       -22.8506
 163   2.0000      -0.832108       -22.6428
 164   2.0000      -0.810150       -22.0453
 165   2.0000      -0.799300       -21.7501
 166   2.0000      -0.797051       -21.6888
 167   2.0000      -0.790379       -21.5073
 168   2.0000      -0.770035       -20.9537
 169   2.0000      -0.765047       -20.8180
 170   2.0000      -0.761291       -20.7158
 171   2.0000      -0.755777       -20.5657
 172   2.0000      -0.753989       -20.5171
 173   2.0000      -0.751364       -20.4457
 174   2.0000      -0.743463       -20.2307
 175   2.0000      -0.733624       -19.9629
 176   2.0000      -0.721344       -19.6288
 177   2.0000      -0.715251       -19.4630
 178   2.0000      -0.710525       -19.3344
 179   2.0000      -0.706644       -19.2288
 180   2.0000      -0.704513       -19.1708
 181   2.0000      -0.692613       -18.8470
 182   2.0000      -0.687521       -18.7084
 183   2.0000      -0.687046       -18.6955
 184   2.0000      -0.681055       -18.5325
 185   2.0000      -0.672283       -18.2938
 186   2.0000      -0.670510       -18.2455
 187   2.0000      -0.666415       -18.1341
 188   2.0000      -0.662056       -18.0155
 189   2.0000      -0.660160       -17.9639
 190   2.0000      -0.657792       -17.8994
 191   2.0000      -0.657238       -17.8844
 192   2.0000      -0.655637       -17.8408
 193   2.0000      -0.654281       -17.8039
 194   2.0000      -0.644660       -17.5421
 195   2.0000      -0.640769       -17.4362
 196   2.0000      -0.636321       -17.3152
 197   2.0000      -0.635377       -17.2895
 198   2.0000      -0.631459       -17.1829
 199   2.0000      -0.630444       -17.1552
 200   2.0000      -0.628188       -17.0939
 201   2.0000      -0.624986       -17.0067
 202   2.0000      -0.620291       -16.8790
 203   2.0000      -0.618279       -16.8242
 204   2.0000      -0.613445       -16.6927
 205   2.0000      -0.613212       -16.6863
 206   2.0000      -0.599482       -16.3127
 207   2.0000      -0.595492       -16.2042
 208   2.0000      -0.591135       -16.0856
 209   2.0000      -0.589759       -16.0482
 210   2.0000      -0.588820       -16.0226
 211   2.0000      -0.584976       -15.9180
 212   2.0000      -0.583369       -15.8743
 213   2.0000      -0.583140       -15.8681
 214   2.0000      -0.581834       -15.8325
 215   2.0000      -0.580243       -15.7892
 216   2.0000      -0.580041       -15.7837
 217   2.0000      -0.579552       -15.7704
 218   2.0000      -0.576463       -15.6864
 219   2.0000      -0.574987       -15.6462
 220   2.0000      -0.571512       -15.5516
 221   2.0000      -0.569337       -15.4924
 222   2.0000      -0.566780       -15.4229
 223   2.0000      -0.565765       -15.3952
 224   2.0000      -0.565450       -15.3867
 225   2.0000      -0.564446       -15.3593
 226   2.0000      -0.561405       -15.2766
 227   2.0000      -0.560976       -15.2649
 228   2.0000      -0.553202       -15.0534
 229   2.0000      -0.547422       -14.8961
 230   2.0000      -0.544420       -14.8144
 231   2.0000      -0.541632       -14.7385
 232   2.0000      -0.539021       -14.6675
 233   2.0000      -0.534445       -14.5430
 234   2.0000      -0.530067       -14.4239
 235   2.0000      -0.521478       -14.1901
 236   2.0000      -0.521050       -14.1785
 237   2.0000      -0.514304       -13.9949
 238   2.0000      -0.514294       -13.9947
 239   2.0000      -0.513581       -13.9753
 240   2.0000      -0.513152       -13.9636
 241   2.0000      -0.511746       -13.9253
 242   2.0000      -0.506807       -13.7909
 243   2.0000      -0.506717       -13.7885
 244   2.0000      -0.505881       -13.7657
 245   2.0000      -0.502006       -13.6603
 246   2.0000      -0.501316       -13.6415
 247   2.0000      -0.499572       -13.5940
 248   2.0000      -0.498524       -13.5655
 249   2.0000      -0.498304       -13.5595
 250   2.0000      -0.495504       -13.4834
 251   2.0000      -0.488217       -13.2851
 252   2.0000      -0.486051       -13.2261
 253   2.0000      -0.485393       -13.2082
 254   2.0000      -0.478331       -13.0160
 255   2.0000      -0.478098       -13.0097
 256   2.0000      -0.475529       -12.9398
 257   2.0000      -0.472927       -12.8690
 258   2.0000      -0.469384       -12.7726
 259   2.0000      -0.464489       -12.6394
 260   2.0000      -0.464438       -12.6380
 261   2.0000      -0.456615       -12.4251
 262   2.0000      -0.454478       -12.3670
 263   2.0000      -0.437137       -11.8951
 264   2.0000      -0.437034       -11.8923
 265   2.0000      -0.417964       -11.3734
 266   2.0000      -0.416673       -11.3382
 267   2.0000      -0.393192       -10.6993
 268   2.0000      -0.388813       -10.5801
 269   2.0000      -0.384277       -10.4567
 270   2.0000      -0.380555       -10.3554
 271   2.0000      -0.358063        -9.7434
 272   2.0000      -0.357211        -9.7202
 273   2.0000      -0.353711        -9.6250
 274   2.0000      -0.344120        -9.3640
 275   2.0000      -0.333745        -9.0817
 276   2.0000      -0.316628        -8.6159
 277   2.0000      -0.306817        -8.3489
 278   2.0000      -0.262465        -7.1420
 279   0.0000      -0.037729        -1.0267
 280   0.0000      -0.019292        -0.5250
 281   0.0000       0.005485         0.1493
 282   0.0000       0.011113         0.3024
 283   0.0000       0.028593         0.7781

MULLIKEN ATOMIC CHARGES
-----------------------
   0 C :    0.537792
   1 O :   -0.405171
   2 C :   -0.177719
   3 C :    0.054348
   4 C :    0.049709
   5 Cl:   -0.078530
   6 C :    0.039413
   7 Cl:   -0.070870
   8 C :    0.038107
   9 C :   -0.036482
  10 C :    0.270092
  11 C :   -0.385137
  12 C :    0.038966
  13 N :   -0.081782
  14 C :    0.031631
  15 N :   -0.066858
  16 C :   -0.329601
  17 C :    0.082684
  18 C :   -0.164345
  19 S :    0.238540
  20 C :    0.016158
  21 C :   -0.110151
  22 C :   -0.101128
  23 C :   -0.014349
  24 C :   -0.001118
  25 S :    0.237332
  26 C :    0.037364
  27 C :    0.090240
  28 N :   -0.575914
  29 C :    0.118172
  30 C :   -0.035522
  31 C :    0.250470
  32 C :   -0.231836
  33 C :    0.156615
  34 N :   -0.475006
  35 S :    0.580678
  36 N :   -0.477105
  37 C :    0.158782
  38 C :   -0.235850
  39 C :    0.250723
  40 N :   -0.577428
  41 C :    0.098112
  42 C :   -0.042319
  43 C :    0.099253
  44 C :    0.036818
  45 S :    0.236314
  46 C :   -0.111859
  47 C :    0.017408
  48 S :    0.242271
  49 C :   -0.170069
  50 C :   -0.096908
  51 C :   -0.013251
  52 C :    0.000420
  53 C :    0.083070
  54 C :   -0.331183
  55 C :    0.270901
  56 C :   -0.385469
  57 C :    0.031620
  58 N :   -0.066878
  59 C :    0.036983
  60 N :   -0.080685
  61 C :   -0.036549
  62 C :    0.038063
  63 C :    0.039463
  64 Cl:   -0.070804
  65 C :    0.049623
  66 Cl:   -0.078539
  67 C :    0.054604
  68 C :   -0.177683
  69 C :    0.538083
  70 O :   -0.406291
  71 H :    0.063073
  72 H :    0.081576
  73 H :    0.080322
  74 H :    0.075879
  75 H :    0.056743
  76 H :    0.033751
  77 H :    0.057868
  78 H :    0.039550
  79 H :    0.075840
  80 H :    0.044740
  81 H :    0.046857
  82 H :    0.056916
  83 H :    0.049938
  84 H :    0.066268
  85 H :    0.072864
  86 H :    0.051945
  87 H :    0.067023
  88 H :    0.042546
  89 H :    0.056687
  90 H :    0.072364
  91 H :    0.038572
  92 H :    0.058351
  93 H :    0.035072
  94 H :    0.080465
  95 H :    0.081640
  96 H :    0.062719
Sum of atomic charges:   -0.0000000

LOEWDIN ATOMIC CHARGES
----------------------
   0 C :    0.168949
   1 O :   -0.261156
   2 C :   -0.050162
   3 C :    0.014083
   4 C :   -0.117755
   5 Cl:    0.131839
   6 C :   -0.115287
   7 Cl:    0.135614
   8 C :    0.004319
   9 C :   -0.021631
  10 C :    0.122964
  11 C :   -0.183346
  12 C :    0.016595
  13 N :   -0.101977
  14 C :    0.011338
  15 N :   -0.094104
  16 C :   -0.179921
  17 C :    0.118535
  18 C :   -0.222456
  19 S :    0.465917
  20 C :   -0.164787
  21 C :   -0.213900
  22 C :    0.024827
  23 C :   -0.014118
  24 C :   -0.015811
  25 S :    0.407723
  26 C :   -0.151178
  27 C :   -0.031635
  28 N :   -0.025233
  29 C :    0.076040
  30 C :   -0.033345
  31 C :    0.043504
  32 C :   -0.086611
  33 C :   -0.027493
  34 N :   -0.321457
  35 S :    0.619771
  36 N :   -0.323470
  37 C :   -0.025204
  38 C :   -0.093317
  39 C :    0.047949
  40 N :   -0.018159
  41 C :    0.072939
  42 C :   -0.039886
  43 C :   -0.032987
  44 C :   -0.149452
  45 S :    0.407813
  46 C :   -0.214109
  47 C :   -0.163465
  48 S :    0.471802
  49 C :   -0.223899
  50 C :    0.025329
  51 C :   -0.013929
  52 C :   -0.015316
  53 C :    0.118506
  54 C :   -0.180442
  55 C :    0.122897
  56 C :   -0.183490
  57 C :    0.011401
  58 N :   -0.094275
  59 C :    0.016170
  60 N :   -0.101620
  61 C :   -0.021561
  62 C :    0.004309
  63 C :   -0.115216
  64 Cl:    0.135645
  65 C :   -0.117741
  66 Cl:    0.131755
  67 C :    0.014127
  68 C :   -0.050201
  69 C :    0.169080
  70 O :   -0.262089
  71 H :    0.047928
  72 H :    0.047341
  73 H :    0.047788
  74 H :    0.033449
  75 H :    0.026787
  76 H :    0.016948
  77 H :    0.027319
  78 H :    0.019699
  79 H :    0.023079
  80 H :    0.018297
  81 H :    0.021066
  82 H :    0.024996
  83 H :    0.026256
  84 H :    0.022460
  85 H :    0.026124
  86 H :    0.028085
  87 H :    0.018909
  88 H :    0.018317
  89 H :    0.026793
  90 H :    0.032813
  91 H :    0.019196
  92 H :    0.027786
  93 H :    0.017086
  94 H :    0.047761
  95 H :    0.047376
  96 H :    0.047790

  Mayer bond orders larger than 0.100000
B(  0-C ,  1-O ) :   1.9895 B(  0-C ,  2-C ) :   0.9833 B(  0-C , 16-C ) :   1.0003
B(  2-C ,  3-C ) :   1.4225 B(  2-C ,  9-C ) :   1.3545 B(  3-C ,  4-C ) :   1.3914
B(  3-C , 71-H ) :   1.0158 B(  4-C ,  5-Cl) :   1.0127 B(  4-C ,  6-C ) :   1.4271
B(  6-C ,  7-Cl) :   1.0404 B(  6-C ,  8-C ) :   1.4119 B(  8-C ,  9-C ) :   1.4169
B(  8-C , 72-H ) :   0.9909 B(  9-C , 10-C ) :   1.0321 B( 10-C , 11-C ) :   1.6540
B( 10-C , 16-C ) :   1.1351 B( 11-C , 12-C ) :   1.0750 B( 11-C , 14-C ) :   1.0678
B( 12-C , 13-N ) :   2.9714 B( 14-C , 15-N ) :   2.9795 B( 16-C , 17-C ) :   1.5442
B( 17-C , 18-C ) :   1.3554 B( 17-C , 73-H ) :   0.9579 B( 18-C , 19-S ) :   1.0209
B( 18-C , 22-C ) :   1.4430 B( 19-S , 20-C ) :   1.0233 B( 20-C , 21-C ) :   1.4575
B( 20-C , 27-C ) :   1.3727 B( 21-C , 22-C ) :   1.5187 B( 21-C , 25-S ) :   0.9772
B( 22-C , 23-C ) :   0.9802 B( 23-C , 24-C ) :   1.0394 B( 23-C , 74-H ) :   0.9578
B( 23-C , 75-H ) :   0.9673 B( 24-C , 76-H ) :   0.9857 B( 24-C , 77-H ) :   0.9861
B( 24-C , 78-H ) :   0.9817 B( 25-S , 26-C ) :   0.9866 B( 26-C , 27-C ) :   1.4598
B( 26-C , 32-C ) :   1.4316 B( 27-C , 28-N ) :   1.0815 B( 28-N , 29-C ) :   0.8612
B( 28-N , 31-C ) :   1.1077 B( 29-C , 30-C ) :   1.0420 B( 29-C , 79-H ) :   0.9736
B( 29-C , 80-H ) :   0.9816 B( 30-C , 81-H ) :   0.9791 B( 30-C , 82-H ) :   0.9795
B( 30-C , 83-H ) :   0.9847 B( 31-C , 32-C ) :   1.4508 B( 31-C , 39-C ) :   1.1511
B( 32-C , 33-C ) :   1.1224 B( 33-C , 34-N ) :   1.5896 B( 33-C , 37-C ) :   1.1354
B( 34-N , 35-S ) :   1.1935 B( 34-N , 36-N ) :   0.1016 B( 35-S , 36-N ) :   1.1917
B( 36-N , 37-C ) :   1.5887 B( 37-C , 38-C ) :   1.1245 B( 38-C , 39-C ) :   1.4333
B( 38-C , 44-C ) :   1.4444 B( 39-C , 40-N ) :   1.1289 B( 40-N , 41-C ) :   0.8375
B( 40-N , 43-C ) :   1.0822 B( 41-C , 42-C ) :   1.0348 B( 41-C , 84-H ) :   0.9859
B( 41-C , 85-H ) :   0.9774 B( 42-C , 86-H ) :   0.9838 B( 42-C , 87-H ) :   0.9766
B( 42-C , 88-H ) :   0.9807 B( 43-C , 44-C ) :   1.4520 B( 43-C , 47-C ) :   1.3672
B( 44-C , 45-S ) :   0.9874 B( 45-S , 46-C ) :   0.9769 B( 46-C , 47-C ) :   1.4541
B( 46-C , 50-C ) :   1.5209 B( 47-C , 48-S ) :   1.0232 B( 48-S , 49-C ) :   1.0227
B( 49-C , 50-C ) :   1.4382 B( 49-C , 53-C ) :   1.3577 B( 50-C , 51-C ) :   0.9805
B( 51-C , 52-C ) :   1.0399 B( 51-C , 89-H ) :   0.9672 B( 51-C , 90-H ) :   0.9580
B( 52-C , 91-H ) :   0.9813 B( 52-C , 92-H ) :   0.9859 B( 52-C , 93-H ) :   0.9855
B( 53-C , 54-C ) :   1.5418 B( 53-C , 94-H ) :   0.9582 B( 54-C , 55-C ) :   1.1357
B( 54-C , 69-C ) :   1.0010 B( 55-C , 56-C ) :   1.6528 B( 55-C , 61-C ) :   1.0321
B( 56-C , 57-C ) :   1.0681 B( 56-C , 59-C ) :   1.0755 B( 57-C , 58-N ) :   2.9792
B( 59-C , 60-N ) :   2.9708 B( 61-C , 62-C ) :   1.4170 B( 61-C , 68-C ) :   1.3545
B( 62-C , 63-C ) :   1.4118 B( 62-C , 95-H ) :   0.9908 B( 63-C , 64-Cl) :   1.0405
B( 63-C , 65-C ) :   1.4272 B( 65-C , 66-Cl) :   1.0126 B( 65-C , 67-C ) :   1.3914
B( 67-C , 68-C ) :   1.4223 B( 67-C , 96-H ) :   1.0159 B( 68-C , 69-C ) :   0.9837
B( 69-C , 70-O ) :   1.9882

-----------------------------------------------------------------------------
         ABSORPTION SPECTRUM VIA TRANSITION ELECTRIC DIPOLE MOMENTS
-----------------------------------------------------------------------------
State   Energy    Wavelength  fosc         T2        TX        TY        TZ
        (cm-1)      (nm)                 (au**2)    (au)      (au)      (au)
-----------------------------------------------------------------------------
   1   21318.9    469.1   2.798091318  43.20878   3.82028  -4.19487  -3.31923
   2   26787.6    373.3   0.961528552  11.81691  -1.29254   1.17723  -2.95979
   3   33468.4    298.8   0.029930778   0.29441   0.20758  -0.43582  -0.24777

FINAL SINGLE POINT ENERGY     -6391.806345626497

DIPOLE MOMENT
-------------
                                X             Y             Z
Electronic contribution:    -21.73947      19.62538     -49.62270
Nuclear contribution   :     21.99858     -19.60592      49.92314
                        -----------------------------------------
Total Dipole Moment    :      0.25911       0.01946       0.30044
                        -----------------------------------------
Magnitude (a.u.)       :      0.39721
Magnitude (Debye)      :      1.00963

Rotational constants in cm-1:     0.001014     0.000269     0.000214
Rotational constants in MHz :    30.392305     8.054301     6.420837

                             ****ORCA TERMINATED NORMALLY****
TOTAL RUN TIME: 0 days 11 hours 20 minutes 57 seconds 336 msec
