                         Program Version 4.2.0 -  RELEASE  -
|  1> # ORCA input file
|  2> # BTSe-4F.out: Geometry 118
|  3> ! Engrad Keepdens
|  4> %maxcore 1000
|  5> %tddft
|  6>   nroots 3
|  7>   # nroots is the number of states to be computed
|  8>   Iroot 1
|  9>   end
| 10> * xyz 0 1
| 11>    C        1.10865        -2.12712        -0.90107
| 12>    C        1.74995        -1.04664        -1.58778
| 13>    C        3.18056        -0.99374        -1.63986
| 14>    C        3.95030        -2.10759        -1.17947
| 15>    C        3.31357        -3.24243        -0.57672
| 16>    C        1.87257        -3.22797        -0.39075
| 17>    N        3.90531        -4.32056        -0.08075
| 18>    S        2.71450        -5.25977         0.58300
| 19>    N        1.41085        -4.29637         0.24373
| 20>    N        4.05694         0.03308        -1.99726
| 21>    C        5.34506        -0.42772        -1.79931
| 22>    C        5.30826        -1.74174        -1.30222
| 23>    C       -0.27260        -1.83844        -0.87622
| 24>    C       -0.45859        -0.63160        -1.58226
| 25>    N        0.76874        -0.17289        -2.04369
| 26>   Se       -1.86231        -2.46700        -0.12050
| 27>    C       -2.68398        -0.89681        -0.87984
| 28>    C       -1.76104        -0.12979        -1.61728
| 29>    C        6.65564         0.09750        -1.85465
| 30>    C        7.59849        -0.82949        -1.36962
| 31>    S        6.88476        -2.36889        -0.88933
| 32>    S        7.41132         1.58891        -2.29944
| 33>    C        8.98245         0.99460        -1.73375
| 34>    C        8.92025        -0.33812        -1.29229
| 35>    C        0.86640         0.90140        -3.01121
| 36>    C        3.76872         1.45508        -2.09878
| 37>    C       -3.98692        -0.38283        -0.67525
| 38>    C       -5.02991        -0.74222         0.15807
| 39>    C       10.09634         1.88232        -1.79855
| 40>    C       11.19068         1.97142        -0.97316
| 41>    C       -5.04772        -1.93276         1.03426
| 42>    C       -6.27592        -1.83036         1.85993
| 43>    C       -7.01124        -0.69499         1.46505
| 44>    C       -6.25871         0.01636         0.39983
| 45>    C       12.42572         2.66637        -1.47524
| 46>    C       13.48963         2.35280        -0.48402
| 47>    C       12.93988         1.60906         0.58161
| 48>    C       11.47540         1.48607         0.37351
| 49>    C       -6.67109        -2.65899         2.90468
| 50>    C       -7.84663        -2.32920         3.57037
| 51>    C       -8.60905        -1.21852         3.16864
| 52>    C       -8.21119        -0.39081         2.12257
| 53>    C       14.83621         2.69921        -0.53675
| 54>    C       15.65304         2.26519         0.50140
| 55>    C       15.12425         1.49660         1.55622
| 56>    C       13.77165         1.17082         1.62069
| 57>    O       -4.22641        -2.83597         1.08409
| 58>    C       -6.66005         1.20790        -0.18217
| 59>    C       -5.86444         1.94160        -1.11722
| 60>    C       -7.90342         1.84406         0.12456
| 61>    F       -8.27180        -3.04612         4.60578
| 62>    F       -9.73389        -0.96024         3.83049
| 63>    O       12.53926         3.31234        -2.49526
| 64>    C       10.56045         1.17856         1.36398
| 65>    C        9.14986         1.35867         1.22011
| 66>    C       10.95265         0.74345         2.66832
| 67>    F       15.95367         1.07939         2.50828
| 68>    F       16.94854         2.56216         0.51805
| 69>    N       -8.91095         2.37774         0.35186
| 70>    N       -5.22701         2.56661        -1.86250
| 71>    N       11.24592         0.36832         3.72850
| 72>    N        7.99944         1.51111         1.16544
| 73>    C       10.07902        -1.17010        -0.84687
| 74>    H       -2.06103         0.80366        -2.09601
| 75>    H       -0.03161         0.88869        -3.64530
| 76>    H        1.73404         0.74641        -3.66167
| 77>    H        0.93809         1.88987        -2.53050
| 78>    H        2.90861         1.70949        -1.46852
| 79>    H        4.63199         2.01637        -1.71789
| 80>    H        3.57259         1.77519        -3.13218
| 81>    H       -4.13859         0.52516        -1.25799
| 82>    H       10.13085         2.57857        -2.64819
| 83>    H       -6.07562        -3.52072         3.21024
| 84>    H       -8.84210         0.45945         1.87392
| 85>    H       15.24196         3.28928        -1.36041
| 86>    H       13.42053         0.58900         2.47127
| 87>    H       11.03347        -0.75549        -1.19432
| 88>    H        9.97996        -2.19589        -1.23317
| 89>    H       10.12391        -1.23316         0.25330
| 90> *
| 91>
| 92>                          ****END OF INPUT****

CARTESIAN COORDINATES (ANGSTROEM)
---------------------------------
  C      1.108650   -2.127120   -0.901070
  C      1.749950   -1.046640   -1.587780
  C      3.180560   -0.993740   -1.639860
  C      3.950300   -2.107590   -1.179470
  C      3.313570   -3.242430   -0.576720
  C      1.872570   -3.227970   -0.390750
  N      3.905310   -4.320560   -0.080750
  S      2.714500   -5.259770    0.583000
  N      1.410850   -4.296370    0.243730
  N      4.056940    0.033080   -1.997260
  C      5.345060   -0.427720   -1.799310
  C      5.308260   -1.741740   -1.302220
  C     -0.272600   -1.838440   -0.876220
  C     -0.458590   -0.631600   -1.582260
  N      0.768740   -0.172890   -2.043690
  Se    -1.862310   -2.467000   -0.120500
  C     -2.683980   -0.896810   -0.879840
  C     -1.761040   -0.129790   -1.617280
  C      6.655640    0.097500   -1.854650
  C      7.598490   -0.829490   -1.369620
  S      6.884760   -2.368890   -0.889330
  S      7.411320    1.588910   -2.299440
  C      8.982450    0.994600   -1.733750
  C      8.920250   -0.338120   -1.292290
  C      0.866400    0.901400   -3.011210
  C      3.768720    1.455080   -2.098780
  C     -3.986920   -0.382830   -0.675250
  C     -5.029910   -0.742220    0.158070
  C     10.096340    1.882320   -1.798550
  C     11.190680    1.971420   -0.973160
  C     -5.047720   -1.932760    1.034260
  C     -6.275920   -1.830360    1.859930
  C     -7.011240   -0.694990    1.465050
  C     -6.258710    0.016360    0.399830
  C     12.425720    2.666370   -1.475240
  C     13.489630    2.352800   -0.484020
  C     12.939880    1.609060    0.581610
  C     11.475400    1.486070    0.373510
  C     -6.671090   -2.658990    2.904680
  C     -7.846630   -2.329200    3.570370
  C     -8.609050   -1.218520    3.168640
  C     -8.211190   -0.390810    2.122570
  C     14.836210    2.699210   -0.536750
  C     15.653040    2.265190    0.501400
  C     15.124250    1.496600    1.556220
  C     13.771650    1.170820    1.620690
  O     -4.226410   -2.835970    1.084090
  C     -6.660050    1.207900   -0.182170
  C     -5.864440    1.941600   -1.117220
  C     -7.903420    1.844060    0.124560
  F     -8.271800   -3.046120    4.605780
  F     -9.733890   -0.960240    3.830490
  O     12.539260    3.312340   -2.495260
  C     10.560450    1.178560    1.363980
  C      9.149860    1.358670    1.220110
  C     10.952650    0.743450    2.668320
  F     15.953670    1.079390    2.508280
  F     16.948540    2.562160    0.518050
  N     -8.910950    2.377740    0.351860
  N     -5.227010    2.566610   -1.862500
  N     11.245920    0.368320    3.728500
  N      7.999440    1.511110    1.165440
  C     10.079020   -1.170100   -0.846870
  H     -2.061030    0.803660   -2.096010
  H     -0.031610    0.888690   -3.645300
  H      1.734040    0.746410   -3.661670
  H      0.938090    1.889870   -2.530500
  H      2.908610    1.709490   -1.468520
  H      4.631990    2.016370   -1.717890
  H      3.572590    1.775190   -3.132180
  H     -4.138590    0.525160   -1.257990
  H     10.130850    2.578570   -2.648190
  H     -6.075620   -3.520720    3.210240
  H     -8.842100    0.459450    1.873920
  H     15.241960    3.289280   -1.360410
  H     13.420530    0.589000    2.471270
  H     11.033470   -0.755490   -1.194320
  H      9.979960   -2.195890   -1.233170
  H     10.123910   -1.233160    0.253300

 Total Charge           Charge          ....    0
 Multiplicity           Mult            ....    1
 Number of Electrons    NEL             ....  476
 Basis Dimension        Dim             ....  992

ORBITAL ENERGIES
----------------

  NO   OCC          E(Eh)            E(eV)
   0   2.0000    -460.829245    -12539.8013
   1   2.0000     -92.020013     -2503.9919
   2   2.0000     -91.991503     -2503.2161
   3   2.0000     -91.981354     -2502.9399
   4   2.0000     -60.655735     -1650.5265
   5   2.0000     -54.272354     -1476.8258
   6   2.0000     -54.271641     -1476.8064
   7   2.0000     -54.270883     -1476.7858
   8   2.0000     -26.344109      -716.8597
   9   2.0000     -26.342849      -716.8254
  10   2.0000     -26.336781      -716.6602
  11   2.0000     -26.334078      -716.5867
  12   2.0000     -20.579439      -559.9950
  13   2.0000     -20.573265      -559.8270
  14   2.0000     -15.664631      -426.2563
  15   2.0000     -15.660304      -426.1385
  16   2.0000     -15.622491      -425.1096
  17   2.0000     -15.619409      -425.0257
  18   2.0000     -15.606555      -424.6760
  19   2.0000     -15.604079      -424.6086
  20   2.0000     -15.601017      -424.5253
  21   2.0000     -15.594943      -424.3600
  22   2.0000     -11.387648      -309.8736
  23   2.0000     -11.386540      -309.8435
  24   2.0000     -11.378822      -309.6335
  25   2.0000     -11.378762      -309.6319
  26   2.0000     -11.376915      -309.5816
  27   2.0000     -11.371165      -309.4251
  28   2.0000     -11.359431      -309.1058
  29   2.0000     -11.352264      -308.9108
  30   2.0000     -11.345731      -308.7330
  31   2.0000     -11.342253      -308.6384
  32   2.0000     -11.336971      -308.4947
  33   2.0000     -11.334067      -308.4157
  34   2.0000     -11.328459      -308.2630
  35   2.0000     -11.325640      -308.1863
  36   2.0000     -11.324238      -308.1482
  37   2.0000     -11.323561      -308.1298
  38   2.0000     -11.321306      -308.0684
  39   2.0000     -11.320303      -308.0411
  40   2.0000     -11.319055      -308.0071
  41   2.0000     -11.318151      -307.9825
  42   2.0000     -11.317328      -307.9602
  43   2.0000     -11.317028      -307.9520
  44   2.0000     -11.314563      -307.8849
  45   2.0000     -11.313829      -307.8650
  46   2.0000     -11.313211      -307.8481
  47   2.0000     -11.311708      -307.8072
  48   2.0000     -11.308619      -307.7232
  49   2.0000     -11.307735      -307.6991
  50   2.0000     -11.306736      -307.6719
  51   2.0000     -11.306734      -307.6719
  52   2.0000     -11.306641      -307.6693
  53   2.0000     -11.305578      -307.6404
  54   2.0000     -11.303686      -307.5889
  55   2.0000     -11.302798      -307.5648
  56   2.0000     -11.301186      -307.5209
  57   2.0000     -11.299876      -307.4853
  58   2.0000     -11.297884      -307.4311
  59   2.0000     -11.297657      -307.4249
  60   2.0000     -11.295691      -307.3714
  61   2.0000     -11.295207      -307.3582
  62   2.0000     -11.291855      -307.2670
  63   2.0000     -11.288828      -307.1846
  64   2.0000     -11.279845      -306.9402
  65   2.0000     -11.279716      -306.9367
  66   2.0000     -11.275889      -306.8325
  67   2.0000      -9.051155      -246.2945
  68   2.0000      -9.026018      -245.6104
  69   2.0000      -9.015209      -245.3163
  70   2.0000      -8.937699      -243.2072
  71   2.0000      -6.738321      -183.3590
  72   2.0000      -6.736607      -183.3124
  73   2.0000      -6.734801      -183.2632
  74   2.0000      -6.713630      -182.6872
  75   2.0000      -6.712580      -182.6586
  76   2.0000      -6.710480      -182.6014
  77   2.0000      -6.702716      -182.3902
  78   2.0000      -6.701879      -182.3674
  79   2.0000      -6.699556      -182.3042
  80   2.0000      -6.675180      -181.6409
  81   2.0000      -6.671951      -181.5530
  82   2.0000      -6.666586      -181.4070
  83   2.0000      -2.666001       -72.5456
  84   2.0000      -2.663875       -72.4877
  85   2.0000      -2.657955       -72.3266
  86   2.0000      -2.653728       -72.2116
  87   2.0000      -2.653305       -72.2001
  88   2.0000      -1.657419       -45.1007
  89   2.0000      -1.649638       -44.8889
  90   2.0000      -1.641521       -44.6681
  91   2.0000      -1.633219       -44.4422
  92   2.0000      -1.408161       -38.3180
  93   2.0000      -1.400401       -38.1068
  94   2.0000      -1.355576       -36.8871
  95   2.0000      -1.339766       -36.4569
  96   2.0000      -1.336681       -36.3729
  97   2.0000      -1.255487       -34.1635
  98   2.0000      -1.247209       -33.9383
  99   2.0000      -1.234000       -33.5788
 100   2.0000      -1.232907       -33.5491
 101   2.0000      -1.227511       -33.4023
 102   2.0000      -1.227280       -33.3960
 103   2.0000      -1.222094       -33.2549
 104   2.0000      -1.195633       -32.5348
 105   2.0000      -1.178466       -32.0677
 106   2.0000      -1.176402       -32.0115
 107   2.0000      -1.164851       -31.6972
 108   2.0000      -1.159709       -31.5573
 109   2.0000      -1.150142       -31.2969
 110   2.0000      -1.111932       -30.2572
 111   2.0000      -1.105930       -30.0939
 112   2.0000      -1.097065       -29.8526
 113   2.0000      -1.086741       -29.5717
 114   2.0000      -1.079634       -29.3783
 115   2.0000      -1.076409       -29.2906
 116   2.0000      -1.069157       -29.0932
 117   2.0000      -1.067464       -29.0472
 118   2.0000      -1.048956       -28.5435
 119   2.0000      -1.030930       -28.0530
 120   2.0000      -1.010248       -27.4902
 121   2.0000      -0.997756       -27.1503
 122   2.0000      -0.991907       -26.9912
 123   2.0000      -0.973936       -26.5022
 124   2.0000      -0.962243       -26.1840
 125   2.0000      -0.952013       -25.9056
 126   2.0000      -0.946163       -25.7464
 127   2.0000      -0.943417       -25.6717
 128   2.0000      -0.938446       -25.5364
 129   2.0000      -0.931162       -25.3382
 130   2.0000      -0.906497       -24.6670
 131   2.0000      -0.887797       -24.1582
 132   2.0000      -0.870914       -23.6988
 133   2.0000      -0.869636       -23.6640
 134   2.0000      -0.859534       -23.3891
 135   2.0000      -0.848884       -23.0993
 136   2.0000      -0.846326       -23.0297
 137   2.0000      -0.831111       -22.6157
 138   2.0000      -0.823993       -22.4220
 139   2.0000      -0.808060       -21.9884
 140   2.0000      -0.800569       -21.7846
 141   2.0000      -0.793700       -21.5977
 142   2.0000      -0.791446       -21.5364
 143   2.0000      -0.791166       -21.5287
 144   2.0000      -0.786933       -21.4135
 145   2.0000      -0.781801       -21.2739
 146   2.0000      -0.775518       -21.1029
 147   2.0000      -0.760829       -20.7032
 148   2.0000      -0.755066       -20.5464
 149   2.0000      -0.753801       -20.5120
 150   2.0000      -0.751678       -20.4542
 151   2.0000      -0.745254       -20.2794
 152   2.0000      -0.744036       -20.2463
 153   2.0000      -0.740883       -20.1605
 154   2.0000      -0.731568       -19.9070
 155   2.0000      -0.723440       -19.6858
 156   2.0000      -0.722487       -19.6599
 157   2.0000      -0.720982       -19.6189
 158   2.0000      -0.715412       -19.4674
 159   2.0000      -0.711669       -19.3655
 160   2.0000      -0.705696       -19.2030
 161   2.0000      -0.699901       -19.0453
 162   2.0000      -0.698759       -19.0142
 163   2.0000      -0.694612       -18.9014
 164   2.0000      -0.687993       -18.7212
 165   2.0000      -0.681031       -18.5318
 166   2.0000      -0.678205       -18.4549
 167   2.0000      -0.671914       -18.2837
 168   2.0000      -0.670759       -18.2523
 169   2.0000      -0.664170       -18.0730
 170   2.0000      -0.663016       -18.0416
 171   2.0000      -0.650197       -17.6928
 172   2.0000      -0.644937       -17.5496
 173   2.0000      -0.641138       -17.4463
 174   2.0000      -0.635650       -17.2969
 175   2.0000      -0.633787       -17.2462
 176   2.0000      -0.631790       -17.1919
 177   2.0000      -0.630851       -17.1663
 178   2.0000      -0.629017       -17.1164
 179   2.0000      -0.622975       -16.9520
 180   2.0000      -0.621988       -16.9251
 181   2.0000      -0.621252       -16.9051
 182   2.0000      -0.618020       -16.8172
 183   2.0000      -0.612217       -16.6593
 184   2.0000      -0.609863       -16.5952
 185   2.0000      -0.603408       -16.4196
 186   2.0000      -0.601057       -16.3556
 187   2.0000      -0.593775       -16.1574
 188   2.0000      -0.591088       -16.0843
 189   2.0000      -0.587357       -15.9828
 190   2.0000      -0.583908       -15.8890
 191   2.0000      -0.583571       -15.8798
 192   2.0000      -0.582855       -15.8603
 193   2.0000      -0.581859       -15.8332
 194   2.0000      -0.575670       -15.6648
 195   2.0000      -0.574532       -15.6338
 196   2.0000      -0.573923       -15.6173
 197   2.0000      -0.570999       -15.5377
 198   2.0000      -0.566780       -15.4229
 199   2.0000      -0.562922       -15.3179
 200   2.0000      -0.561047       -15.2669
 201   2.0000      -0.551310       -15.0019
 202   2.0000      -0.542809       -14.7706
 203   2.0000      -0.540625       -14.7111
 204   2.0000      -0.536743       -14.6055
 205   2.0000      -0.534226       -14.5370
 206   2.0000      -0.525099       -14.2887
 207   2.0000      -0.517108       -14.0712
 208   2.0000      -0.508050       -13.8247
 209   2.0000      -0.505150       -13.7458
 210   2.0000      -0.503526       -13.7016
 211   2.0000      -0.501052       -13.6343
 212   2.0000      -0.499131       -13.5821
 213   2.0000      -0.496369       -13.5069
 214   2.0000      -0.493971       -13.4416
 215   2.0000      -0.481287       -13.0965
 216   2.0000      -0.480656       -13.0793
 217   2.0000      -0.475580       -12.9412
 218   2.0000      -0.474603       -12.9146
 219   2.0000      -0.469183       -12.7671
 220   2.0000      -0.464891       -12.6503
 221   2.0000      -0.464313       -12.6346
 222   2.0000      -0.460371       -12.5273
 223   2.0000      -0.450974       -12.2716
 224   2.0000      -0.442722       -12.0471
 225   2.0000      -0.416961       -11.3461
 226   2.0000      -0.410343       -11.1660
 227   2.0000      -0.398337       -10.8393
 228   2.0000      -0.393253       -10.7010
 229   2.0000      -0.389983       -10.6120
 230   2.0000      -0.369315       -10.0496
 231   2.0000      -0.365595        -9.9484
 232   2.0000      -0.359867        -9.7925
 233   2.0000      -0.354031        -9.6337
 234   2.0000      -0.336329        -9.1520
 235   2.0000      -0.321286        -8.7426
 236   2.0000      -0.316105        -8.6016
 237   2.0000      -0.266857        -7.2615
 238   0.0000      -0.037231        -1.0131
 239   0.0000      -0.020830        -0.5668
 240   0.0000       0.005682         0.1546
 241   0.0000       0.013981         0.3804
 242   0.0000       0.031185         0.8486

MULLIKEN ATOMIC CHARGES
-----------------------
   0 C :   -0.224629
   1 C :    0.289866
   2 C :    0.216419
   3 C :   -0.184734
   4 C :    0.149724
   5 C :    0.168507
   6 N :   -0.464330
   7 S :    0.546656
   8 N :   -0.468712
   9 N :   -0.610423
  10 C :    0.143960
  11 C :   -0.002842
  12 C :   -0.072577
  13 C :    0.207064
  14 N :   -0.612675
  15 Se:    0.472444
  16 C :   -0.222020
  17 C :   -0.035890
  18 C :   -0.015662
  19 C :   -0.126156
  20 S :    0.243524
  21 S :    0.206773
  22 C :   -0.265230
  23 C :   -0.123623
  24 C :    0.164890
  25 C :    0.156847
  26 C :    0.088010
  27 C :   -0.310526
  28 C :    0.195635
  29 C :   -0.339515
  30 C :    0.525975
  31 C :   -0.183193
  32 C :   -0.028658
  33 C :    0.250860
  34 C :    0.468022
  35 C :   -0.166874
  36 C :   -0.042944
  37 C :    0.221004
  38 C :   -0.032728
  39 C :    0.342224
  40 C :    0.344097
  41 C :   -0.055443
  42 C :   -0.030338
  43 C :    0.340917
  44 C :    0.346100
  45 C :   -0.057699
  46 O :   -0.399106
  47 C :   -0.353311
  48 C :    0.052163
  49 C :    0.043229
  50 F :   -0.302943
  51 F :   -0.302291
  52 O :   -0.347861
  53 C :   -0.359953
  54 C :    0.060380
  55 C :    0.045557
  56 F :   -0.299926
  57 F :   -0.301611
  58 N :   -0.085595
  59 N :   -0.107211
  60 N :   -0.072711
  61 N :   -0.059594
  62 C :    0.096610
  63 H :    0.073522
  64 H :    0.070687
  65 H :    0.065586
  66 H :    0.059006
  67 H :    0.068938
  68 H :    0.080534
  69 H :    0.058711
  70 H :    0.093132
  71 H :    0.100031
  72 H :    0.089570
  73 H :    0.106192
  74 H :    0.091420
  75 H :    0.104493
  76 H :    0.064887
  77 H :    0.070919
  78 H :    0.084445
Sum of atomic charges:    0.0000000

LOEWDIN ATOMIC CHARGES
----------------------
   0 C :   -0.102269
   1 C :    0.067411
   2 C :    0.029927
   3 C :   -0.073053
   4 C :   -0.024791
   5 C :   -0.017570
   6 N :   -0.307972
   7 S :    0.587626
   8 N :   -0.312000
   9 N :   -0.040769
  10 C :   -0.008686
  11 C :   -0.165516
  12 C :   -0.132741
  13 C :   -0.027206
  14 N :   -0.046317
  15 Se:    0.445908
  16 C :   -0.192164
  17 C :    0.014828
  18 C :   -0.175429
  19 C :   -0.189919
  20 S :    0.406782
  21 S :    0.409538
  22 C :   -0.208740
  23 C :   -0.005910
  24 C :    0.080687
  25 C :    0.081714
  26 C :    0.118433
  27 C :   -0.173630
  28 C :    0.105361
  29 C :   -0.144973
  30 C :    0.175338
  31 C :   -0.051674
  32 C :   -0.023366
  33 C :    0.129010
  34 C :    0.169449
  35 C :   -0.058012
  36 C :   -0.020816
  37 C :    0.107490
  38 C :    0.004597
  39 C :    0.120708
  40 C :    0.120269
  41 C :   -0.006534
  42 C :    0.006786
  43 C :    0.119959
  44 C :    0.124495
  45 C :   -0.011131
  46 O :   -0.247377
  47 C :   -0.182253
  48 C :    0.024373
  49 C :    0.017556
  50 F :   -0.101413
  51 F :   -0.102192
  52 O :   -0.226545
  53 C :   -0.161081
  54 C :    0.014429
  55 C :    0.013930
  56 F :   -0.099957
  57 F :   -0.100529
  58 N :   -0.099974
  59 N :   -0.112210
  60 N :   -0.089154
  61 N :   -0.084347
  62 C :   -0.022427
  63 H :    0.043343
  64 H :    0.031742
  65 H :    0.028347
  66 H :    0.020041
  67 H :    0.029554
  68 H :    0.029945
  69 H :    0.019582
  70 H :    0.050200
  71 H :    0.056714
  72 H :    0.059792
  73 H :    0.057304
  74 H :    0.060458
  75 H :    0.057333
  76 H :    0.033036
  77 H :    0.036996
  78 H :    0.039659

  Mayer bond orders larger than 0.100000
B(  0-C ,  1-C ) :   1.4405 B(  0-C ,  5-C ) :   1.1136 B(  0-C , 12-C ) :   1.4226
B(  1-C ,  2-C ) :   1.1472 B(  1-C , 14-N ) :   1.1180 B(  2-C ,  3-C ) :   1.4704
B(  2-C ,  9-N ) :   1.0895 B(  3-C ,  4-C ) :   1.1060 B(  3-C , 11-C ) :   1.4338
B(  4-C ,  5-C ) :   1.1026 B(  4-C ,  6-N ) :   1.6196 B(  5-C ,  8-N ) :   1.6188
B(  6-N ,  7-S ) :   1.1623 B(  6-N ,  8-N ) :   0.1036 B(  7-S ,  8-N ) :   1.1575
B(  9-N , 10-C ) :   1.0915 B(  9-N , 25-C ) :   0.8581 B( 10-C , 11-C ) :   1.4707
B( 10-C , 18-C ) :   1.3264 B( 11-C , 20-S ) :   0.9859 B( 12-C , 13-C ) :   1.3802
B( 12-C , 15-Se) :   1.0166 B( 13-C , 14-N ) :   1.0302 B( 13-C , 17-C ) :   1.2903
B( 14-N , 24-C ) :   0.8652 B( 15-Se, 16-C ) :   1.0119 B( 16-C , 17-C ) :   1.4674
B( 16-C , 26-C ) :   1.3033 B( 17-C , 63-H ) :   1.0036 B( 18-C , 19-C ) :   1.5298
B( 18-C , 21-S ) :   1.0359 B( 19-C , 20-S ) :   1.0077 B( 19-C , 23-C ) :   1.3911
B( 21-S , 22-C ) :   1.0727 B( 22-C , 23-C ) :   1.5683 B( 22-C , 28-C ) :   1.1333
B( 23-C , 62-C ) :   1.0061 B( 24-C , 64-H ) :   0.9848 B( 24-C , 65-H ) :   0.9869
B( 24-C , 66-H ) :   0.9850 B( 25-C , 67-H ) :   0.9851 B( 25-C , 68-H ) :   0.9840
B( 25-C , 69-H ) :   0.9846 B( 26-C , 27-C ) :   1.5723 B( 26-C , 70-H ) :   0.9596
B( 27-C , 30-C ) :   0.9954 B( 27-C , 33-C ) :   1.1247 B( 28-C , 29-C ) :   1.7342
B( 28-C , 71-H ) :   0.9420 B( 29-C , 34-C ) :   0.9852 B( 29-C , 37-C ) :   1.0783
B( 30-C , 31-C ) :   0.9843 B( 30-C , 46-O ) :   2.0011 B( 31-C , 32-C ) :   1.3884
B( 31-C , 38-C ) :   1.3787 B( 32-C , 33-C ) :   1.0401 B( 32-C , 41-C ) :   1.3624
B( 33-C , 47-C ) :   1.6589 B( 34-C , 35-C ) :   0.9525 B( 34-C , 52-O ) :   2.1015
B( 35-C , 36-C ) :   1.3812 B( 35-C , 42-C ) :   1.3737 B( 36-C , 37-C ) :   1.0435
B( 36-C , 45-C ) :   1.3650 B( 37-C , 53-C ) :   1.7061 B( 38-C , 39-C ) :   1.3929
B( 38-C , 72-H ) :   1.0064 B( 39-C , 40-C ) :   1.3250 B( 39-C , 50-F ) :   0.9431
B( 40-C , 41-C ) :   1.4232 B( 40-C , 51-F ) :   0.9489 B( 41-C , 73-H ) :   0.9843
B( 42-C , 43-C ) :   1.4005 B( 42-C , 74-H ) :   1.0056 B( 43-C , 44-C ) :   1.3197
B( 43-C , 57-F ) :   0.9444 B( 44-C , 45-C ) :   1.4258 B( 44-C , 56-F ) :   0.9497
B( 45-C , 75-H ) :   0.9861 B( 47-C , 48-C ) :   1.0612 B( 47-C , 49-C ) :   1.0573
B( 48-C , 59-N ) :   2.9657 B( 49-C , 58-N ) :   2.9790 B( 53-C , 54-C ) :   1.0727
B( 53-C , 55-C ) :   1.0416 B( 54-C , 61-N ) :   3.0099 B( 55-C , 60-N ) :   2.9917
B( 62-C , 76-H ) :   0.9699 B( 62-C , 77-H ) :   0.9728 B( 62-C , 78-H ) :   0.9557

-----------------------------------------------------------------------------
         ABSORPTION SPECTRUM VIA TRANSITION ELECTRIC DIPOLE MOMENTS
-----------------------------------------------------------------------------
State   Energy    Wavelength  fosc         T2        TX        TY        TZ
        (cm-1)      (nm)                 (au**2)    (au)      (au)      (au)
-----------------------------------------------------------------------------
   1   21845.6    457.8   2.483783173  37.43053  -6.10423  -0.36880   0.18128
   2   27100.4    369.0   0.420830760   5.11219   0.78430  -1.60411  -1.38704
   3   33751.7    296.3   0.111784462   1.09034   0.25634   0.87556  -0.50796

FINAL SINGLE POINT ENERGY     -6285.824820791652

DIPOLE MOMENT
-------------
                                X             Y             Z
Electronic contribution:    -58.36437     -35.79853      23.53721
Nuclear contribution   :     60.79640      35.31028     -26.33645
                        -----------------------------------------
Total Dipole Moment    :      2.43204      -0.48825      -2.79923
                        -----------------------------------------
Magnitude (a.u.)       :      3.74017
Magnitude (Debye)      :      9.50677

Rotational constants in cm-1:     0.002713     0.000288     0.000282
Rotational constants in MHz :    81.329883     8.630072     8.468103

                             ****ORCA TERMINATED NORMALLY****
TOTAL RUN TIME: 0 days 9 hours 18 minutes 55 seconds 264 msec
