                         Program Version 4.2.0 -  RELEASE  -
|  1> # ORCA input file
|  2> # BTSe-4F.out
|  3> ! Engrad Keepdens
|  4> %maxcore 1000
|  5> %tddft
|  6>   nroots 3
|  7>   # nroots is the number of states to be computed
|  8>   Iroot 1
|  9>   end
| 10> * xyz 0 1
| 11>    C        0.85050        -0.50188         0.10754
| 12>    C        1.47105         0.76645        -0.00263
| 13>    C        2.96576         0.80370        -0.02309
| 14>    C        3.63020        -0.44233         0.11639
| 15>    C        2.97160        -1.66698         0.22818
| 16>    C        1.55656        -1.69784         0.21199
| 17>    N        3.58935        -2.87051         0.33562
| 18>    S        2.30886        -3.91663         0.40696
| 19>    N        0.98749        -2.92591         0.30996
| 20>    N        3.97037         1.78052        -0.16273
| 21>    C        5.18140         1.12173        -0.09877
| 22>    C        4.98002        -0.20031         0.09296
| 23>    C       -0.51363        -0.31507         0.08715
| 24>    C       -0.75145         0.98675         0.00183
| 25>    N        0.43170         1.69786        -0.06596
| 26>   Se       -1.96741        -1.36379         0.13875
| 27>    C       -3.00423         0.18950         0.10481
| 28>    C       -2.13338         1.32370         0.00026
| 29>    C        6.59103         1.42644        -0.22359
| 30>    C        7.37286         0.30065        -0.06277
| 31>    S        6.41649        -1.09084         0.18447
| 32>    S        7.69512         2.68177        -0.61727
| 33>    C        9.19275         1.78014        -0.53230
| 34>    C        8.76892         0.44467        -0.23686
| 35>    C        0.47770         3.14857        -0.16867
| 36>    C        3.91612         3.22240        -0.35469
| 37>    C       -4.57214         0.25783         0.06024
| 38>    C       -5.50580        -0.77359         0.20630
| 39>    C       10.40784         1.88652        -1.45126
| 40>    C       11.80342         1.77537        -1.32286
| 41>    C       -5.16634        -2.16723         0.60674
| 42>    C       -6.26292        -3.05043         0.35154
| 43>    C       -7.36599        -2.32999        -0.03938
| 44>    C       -7.06264        -0.83203         0.02305
| 45>    C       12.34823         0.78789        -2.32365
| 46>    C       13.32072        -0.04352        -1.59829
| 47>    C       13.66832         0.59144        -0.44073
| 48>    C       13.00877         1.88900        -0.36640
| 49>    C       -6.24999        -4.44765         0.44198
| 50>    C       -7.39679        -5.15668         0.08025
| 51>    C       -8.52265        -4.46522        -0.37478
| 52>    C       -8.51395        -3.06469        -0.43988
| 53>    C       13.80959        -1.32458        -1.87905
| 54>    C       14.63212        -1.95682        -0.92151
| 55>    C       14.96327        -1.29954         0.27983
| 56>    C       14.49271        -0.00539         0.51865
| 57>    O       -4.15875        -2.55479         1.16110
| 58>    C       -8.07607         0.14102        -0.03636
| 59>    C       -7.80643         1.63690        -0.03189
| 60>    C       -9.50634        -0.37340        -0.04702
| 61>    F       -7.40848        -6.51136         0.14038
| 62>    F       -9.62724        -5.15083        -0.76375
| 63>    O       11.82781         0.44327        -3.37525
| 64>    C       13.70330         3.02265         0.06162
| 65>    C       13.07019         4.40452         0.05739
| 66>    C       15.21654         2.88001         0.07322
| 67>    F       15.71682        -1.92237         1.22097
| 68>    F       15.08029        -3.21733        -1.13810
| 69>    N      -10.69286        -0.80014        -0.05585
| 70>    N       -7.58275         2.87786        -0.02818
| 71>    N       16.47191         2.76168         0.08284
| 72>    N       12.54498         5.55089         0.05388
| 73>    C        9.64461        -0.78121        -0.26490
| 74>    H       -2.50412         2.33644        -0.06974
| 75>    H       -0.54285         3.58208        -0.16059
| 76>    H        0.93495         3.43705        -1.13559
| 77>    H        1.01365         3.56572         0.70879
| 78>    H        2.90662         3.60617        -0.37977
| 79>    H        4.44785         3.72350         0.48128
| 80>    H        4.41060         3.48860        -1.31183
| 81>    H       -4.97641         1.23207        -0.18923
| 82>    H       10.02678         1.58556        -2.42376
| 83>    H       -5.36286        -4.97761         0.76326
| 84>    H       -9.40465        -2.62938        -0.83349
| 85>    H       13.52629        -1.84175        -2.78416
| 86>    H       14.71980         0.49992         1.45113
| 87>    H       10.70795        -0.54501        -0.44377
| 88>    H        9.30037        -1.46416        -1.07223
| 89>    H        9.57409        -1.31327         0.70588
| 90> *
| 91>
| 92>                          ****END OF INPUT****

CARTESIAN COORDINATES (ANGSTROEM)
---------------------------------
  C      0.850500   -0.501880    0.107540
  C      1.471050    0.766450   -0.002630
  C      2.965760    0.803700   -0.023090
  C      3.630200   -0.442330    0.116390
  C      2.971600   -1.666980    0.228180
  C      1.556560   -1.697840    0.211990
  N      3.589350   -2.870510    0.335620
  S      2.308860   -3.916630    0.406960
  N      0.987490   -2.925910    0.309960
  N      3.970370    1.780520   -0.162730
  C      5.181400    1.121730   -0.098770
  C      4.980020   -0.200310    0.092960
  C     -0.513630   -0.315070    0.087150
  C     -0.751450    0.986750    0.001830
  N      0.431700    1.697860   -0.065960
  Se    -1.967410   -1.363790    0.138750
  C     -3.004230    0.189500    0.104810
  C     -2.133380    1.323700    0.000260
  C      6.591030    1.426440   -0.223590
  C      7.372860    0.300650   -0.062770
  S      6.416490   -1.090840    0.184470
  S      7.695120    2.681770   -0.617270
  C      9.192750    1.780140   -0.532300
  C      8.768920    0.444670   -0.236860
  C      0.477700    3.148570   -0.168670
  C      3.916120    3.222400   -0.354690
  C     -4.572140    0.257830    0.060240
  C     -5.505800   -0.773590    0.206300
  C     10.407840    1.886520   -1.451260
  C     11.803420    1.775370   -1.322860
  C     -5.166340   -2.167230    0.606740
  C     -6.262920   -3.050430    0.351540
  C     -7.365990   -2.329990   -0.039380
  C     -7.062640   -0.832030    0.023050
  C     12.348230    0.787890   -2.323650
  C     13.320720   -0.043520   -1.598290
  C     13.668320    0.591440   -0.440730
  C     13.008770    1.889000   -0.366400
  C     -6.249990   -4.447650    0.441980
  C     -7.396790   -5.156680    0.080250
  C     -8.522650   -4.465220   -0.374780
  C     -8.513950   -3.064690   -0.439880
  C     13.809590   -1.324580   -1.879050
  C     14.632120   -1.956820   -0.921510
  C     14.963270   -1.299540    0.279830
  C     14.492710   -0.005390    0.518650
  O     -4.158750   -2.554790    1.161100
  C     -8.076070    0.141020   -0.036360
  C     -7.806430    1.636900   -0.031890
  C     -9.506340   -0.373400   -0.047020
  F     -7.408480   -6.511360    0.140380
  F     -9.627240   -5.150830   -0.763750
  O     11.827810    0.443270   -3.375250
  C     13.703300    3.022650    0.061620
  C     13.070190    4.404520    0.057390
  C     15.216540    2.880010    0.073220
  F     15.716820   -1.922370    1.220970
  F     15.080290   -3.217330   -1.138100
  N    -10.692860   -0.800140   -0.055850
  N     -7.582750    2.877860   -0.028180
  N     16.471910    2.761680    0.082840
  N     12.544980    5.550890    0.053880
  C      9.644610   -0.781210   -0.264900
  H     -2.504120    2.336440   -0.069740
  H     -0.542850    3.582080   -0.160590
  H      0.934950    3.437050   -1.135590
  H      1.013650    3.565720    0.708790
  H      2.906620    3.606170   -0.379770
  H      4.447850    3.723500    0.481280
  H      4.410600    3.488600   -1.311830
  H     -4.976410    1.232070   -0.189230
  H     10.026780    1.585560   -2.423760
  H     -5.362860   -4.977610    0.763260
  H     -9.404650   -2.629380   -0.833490
  H     13.526290   -1.841750   -2.784160
  H     14.719800    0.499920    1.451130
  H     10.707950   -0.545010   -0.443770
  H      9.300370   -1.464160   -1.072230
  H      9.574090   -1.313270    0.705880

 Total Charge           Charge          ....    0
 Multiplicity           Mult            ....    1
 Number of Electrons    NEL             ....  476
 Basis Dimension        Dim             ....  992

ORBITAL ENERGIES
----------------

  NO   OCC          E(Eh)            E(eV)
   0   2.0000    -460.820677    -12539.5681
   1   2.0000     -92.022591     -2504.0620
   2   2.0000     -91.983524     -2502.9989
   3   2.0000     -91.966072     -2502.5240
   4   2.0000     -60.648175     -1650.3208
   5   2.0000     -54.264705     -1476.6177
   6   2.0000     -54.264023     -1476.5991
   7   2.0000     -54.263491     -1476.5847
   8   2.0000     -26.347102      -716.9411
   9   2.0000     -26.346411      -716.9223
  10   2.0000     -26.337955      -716.6922
  11   2.0000     -26.337004      -716.6663
  12   2.0000     -20.586611      -560.1902
  13   2.0000     -20.576868      -559.9251
  14   2.0000     -15.661912      -426.1823
  15   2.0000     -15.655210      -425.9999
  16   2.0000     -15.642246      -425.6472
  17   2.0000     -15.640358      -425.5958
  18   2.0000     -15.640278      -425.5936
  19   2.0000     -15.637282      -425.5121
  20   2.0000     -15.630165      -425.3184
  21   2.0000     -15.628305      -425.2678
  22   2.0000     -11.400434      -310.2216
  23   2.0000     -11.399354      -310.1922
  24   2.0000     -11.393645      -310.0369
  25   2.0000     -11.387490      -309.8694
  26   2.0000     -11.385964      -309.8278
  27   2.0000     -11.384823      -309.7968
  28   2.0000     -11.384095      -309.7770
  29   2.0000     -11.382386      -309.7305
  30   2.0000     -11.377569      -309.5994
  31   2.0000     -11.373460      -309.4876
  32   2.0000     -11.357718      -309.0592
  33   2.0000     -11.355885      -309.0093
  34   2.0000     -11.355250      -308.9921
  35   2.0000     -11.355138      -308.9890
  36   2.0000     -11.354370      -308.9681
  37   2.0000     -11.353293      -308.9388
  38   2.0000     -11.342626      -308.6486
  39   2.0000     -11.341934      -308.6297
  40   2.0000     -11.335993      -308.4680
  41   2.0000     -11.328783      -308.2719
  42   2.0000     -11.322148      -308.0913
  43   2.0000     -11.321785      -308.0814
  44   2.0000     -11.321051      -308.0615
  45   2.0000     -11.320127      -308.0363
  46   2.0000     -11.318773      -307.9995
  47   2.0000     -11.318332      -307.9875
  48   2.0000     -11.317339      -307.9605
  49   2.0000     -11.315756      -307.9174
  50   2.0000     -11.313484      -307.8555
  51   2.0000     -11.311340      -307.7972
  52   2.0000     -11.309770      -307.7545
  53   2.0000     -11.308178      -307.7112
  54   2.0000     -11.308031      -307.7072
  55   2.0000     -11.304710      -307.6168
  56   2.0000     -11.303727      -307.5900
  57   2.0000     -11.301680      -307.5343
  58   2.0000     -11.300603      -307.5050
  59   2.0000     -11.295024      -307.3532
  60   2.0000     -11.293179      -307.3030
  61   2.0000     -11.288583      -307.1780
  62   2.0000     -11.277445      -306.8749
  63   2.0000     -11.271340      -306.7088
  64   2.0000     -11.270374      -306.6825
  65   2.0000     -11.264668      -306.5272
  66   2.0000     -11.263389      -306.4924
  67   2.0000      -9.053644      -246.3622
  68   2.0000      -9.018106      -245.3952
  69   2.0000      -9.002957      -244.9829
  70   2.0000      -8.931407      -243.0359
  71   2.0000      -6.740615      -183.4215
  72   2.0000      -6.739149      -183.3816
  73   2.0000      -6.737453      -183.3354
  74   2.0000      -6.705745      -182.4726
  75   2.0000      -6.704946      -182.4508
  76   2.0000      -6.702783      -182.3920
  77   2.0000      -6.690635      -182.0614
  78   2.0000      -6.689799      -182.0387
  79   2.0000      -6.687382      -181.9729
  80   2.0000      -6.669214      -181.4786
  81   2.0000      -6.665878      -181.3877
  82   2.0000      -6.660859      -181.2512
  83   2.0000      -2.659920       -72.3801
  84   2.0000      -2.657499       -72.3142
  85   2.0000      -2.652221       -72.1706
  86   2.0000      -2.647813       -72.0506
  87   2.0000      -2.647626       -72.0456
  88   2.0000      -1.647541       -44.8319
  89   2.0000      -1.638541       -44.5870
  90   2.0000      -1.634240       -44.4699
  91   2.0000      -1.624810       -44.2133
  92   2.0000      -1.414242       -38.4835
  93   2.0000      -1.413387       -38.4602
  94   2.0000      -1.353595       -36.8332
  95   2.0000      -1.338868       -36.4325
  96   2.0000      -1.337579       -36.3974
  97   2.0000      -1.261990       -34.3405
  98   2.0000      -1.239136       -33.7186
  99   2.0000      -1.236264       -33.6404
 100   2.0000      -1.202987       -32.7349
 101   2.0000      -1.201820       -32.7032
 102   2.0000      -1.198128       -32.6027
 103   2.0000      -1.187657       -32.3178
 104   2.0000      -1.185478       -32.2585
 105   2.0000      -1.177710       -32.0471
 106   2.0000      -1.173838       -31.9418
 107   2.0000      -1.167173       -31.7604
 108   2.0000      -1.159858       -31.5613
 109   2.0000      -1.151186       -31.3254
 110   2.0000      -1.112377       -30.2693
 111   2.0000      -1.104345       -30.0508
 112   2.0000      -1.097641       -29.8683
 113   2.0000      -1.087505       -29.5925
 114   2.0000      -1.075011       -29.2525
 115   2.0000      -1.073838       -29.2206
 116   2.0000      -1.068248       -29.0685
 117   2.0000      -1.064894       -28.9772
 118   2.0000      -1.051751       -28.6196
 119   2.0000      -1.025450       -27.9039
 120   2.0000      -1.004814       -27.3424
 121   2.0000      -0.998936       -27.1824
 122   2.0000      -0.988846       -26.9079
 123   2.0000      -0.972850       -26.4726
 124   2.0000      -0.957515       -26.0553
 125   2.0000      -0.950901       -25.8753
 126   2.0000      -0.944656       -25.7054
 127   2.0000      -0.942150       -25.6372
 128   2.0000      -0.934226       -25.4216
 129   2.0000      -0.922902       -25.1134
 130   2.0000      -0.903847       -24.5949
 131   2.0000      -0.889078       -24.1930
 132   2.0000      -0.867973       -23.6187
 133   2.0000      -0.865967       -23.5642
 134   2.0000      -0.855051       -23.2671
 135   2.0000      -0.849767       -23.1233
 136   2.0000      -0.847658       -23.0659
 137   2.0000      -0.829209       -22.5639
 138   2.0000      -0.821748       -22.3609
 139   2.0000      -0.808170       -21.9914
 140   2.0000      -0.802300       -21.8317
 141   2.0000      -0.794500       -21.6194
 142   2.0000      -0.792729       -21.5713
 143   2.0000      -0.788984       -21.4693
 144   2.0000      -0.784848       -21.3568
 145   2.0000      -0.780442       -21.2369
 146   2.0000      -0.770835       -20.9755
 147   2.0000      -0.761775       -20.7290
 148   2.0000      -0.755613       -20.5613
 149   2.0000      -0.749504       -20.3950
 150   2.0000      -0.747462       -20.3395
 151   2.0000      -0.745965       -20.2987
 152   2.0000      -0.738833       -20.1047
 153   2.0000      -0.737478       -20.0678
 154   2.0000      -0.726664       -19.7735
 155   2.0000      -0.725700       -19.7473
 156   2.0000      -0.721470       -19.6322
 157   2.0000      -0.719132       -19.5686
 158   2.0000      -0.713999       -19.4289
 159   2.0000      -0.712344       -19.3839
 160   2.0000      -0.708579       -19.2814
 161   2.0000      -0.697024       -18.9670
 162   2.0000      -0.695567       -18.9273
 163   2.0000      -0.693818       -18.8798
 164   2.0000      -0.690658       -18.7938
 165   2.0000      -0.686727       -18.6868
 166   2.0000      -0.679431       -18.4883
 167   2.0000      -0.676345       -18.4043
 168   2.0000      -0.671874       -18.2826
 169   2.0000      -0.668669       -18.1954
 170   2.0000      -0.664080       -18.0705
 171   2.0000      -0.657162       -17.8823
 172   2.0000      -0.649337       -17.6693
 173   2.0000      -0.644704       -17.5433
 174   2.0000      -0.639499       -17.4017
 175   2.0000      -0.634687       -17.2707
 176   2.0000      -0.631864       -17.1939
 177   2.0000      -0.631564       -17.1857
 178   2.0000      -0.629124       -17.1193
 179   2.0000      -0.624848       -17.0030
 180   2.0000      -0.622194       -16.9308
 181   2.0000      -0.620772       -16.8921
 182   2.0000      -0.614730       -16.7276
 183   2.0000      -0.610864       -16.6225
 184   2.0000      -0.608833       -16.5672
 185   2.0000      -0.600720       -16.3464
 186   2.0000      -0.596149       -16.2221
 187   2.0000      -0.593628       -16.1535
 188   2.0000      -0.592217       -16.1150
 189   2.0000      -0.591579       -16.0977
 190   2.0000      -0.590528       -16.0691
 191   2.0000      -0.589204       -16.0330
 192   2.0000      -0.588526       -16.0146
 193   2.0000      -0.583625       -15.8812
 194   2.0000      -0.580369       -15.7926
 195   2.0000      -0.575083       -15.6488
 196   2.0000      -0.567516       -15.4429
 197   2.0000      -0.564856       -15.3705
 198   2.0000      -0.561358       -15.2753
 199   2.0000      -0.559623       -15.2281
 200   2.0000      -0.558136       -15.1877
 201   2.0000      -0.548785       -14.9332
 202   2.0000      -0.546550       -14.8724
 203   2.0000      -0.542699       -14.7676
 204   2.0000      -0.535561       -14.5734
 205   2.0000      -0.527538       -14.3550
 206   2.0000      -0.512766       -13.9531
 207   2.0000      -0.508707       -13.8426
 208   2.0000      -0.500074       -13.6077
 209   2.0000      -0.491705       -13.3800
 210   2.0000      -0.484315       -13.1789
 211   2.0000      -0.483421       -13.1546
 212   2.0000      -0.481476       -13.1016
 213   2.0000      -0.480588       -13.0775
 214   2.0000      -0.478895       -13.0314
 215   2.0000      -0.474037       -12.8992
 216   2.0000      -0.472134       -12.8474
 217   2.0000      -0.470350       -12.7989
 218   2.0000      -0.468671       -12.7532
 219   2.0000      -0.467689       -12.7265
 220   2.0000      -0.464796       -12.6477
 221   2.0000      -0.462979       -12.5983
 222   2.0000      -0.457112       -12.4387
 223   2.0000      -0.453298       -12.3349
 224   2.0000      -0.448145       -12.1946
 225   2.0000      -0.415014       -11.2931
 226   2.0000      -0.404198       -10.9988
 227   2.0000      -0.401221       -10.9178
 228   2.0000      -0.389843       -10.6082
 229   2.0000      -0.389097       -10.5879
 230   2.0000      -0.379595       -10.3293
 231   2.0000      -0.373287       -10.1577
 232   2.0000      -0.368745       -10.0341
 233   2.0000      -0.354442        -9.6449
 234   2.0000      -0.337599        -9.1865
 235   2.0000      -0.325353        -8.8533
 236   2.0000      -0.307539        -8.3686
 237   2.0000      -0.276499        -7.5239
 238   0.0000      -0.029712        -0.8085
 239   0.0000      -0.021168        -0.5760
 240   0.0000       0.004710         0.1282
 241   0.0000       0.006491         0.1766
 242   0.0000       0.021646         0.5890

MULLIKEN ATOMIC CHARGES
-----------------------
   0 C :   -0.190508
   1 C :    0.280883
   2 C :    0.268313
   3 C :   -0.228589
   4 C :    0.163537
   5 C :    0.168245
   6 N :   -0.470610
   7 S :    0.550296
   8 N :   -0.480605
   9 N :   -0.619828
  10 C :    0.139725
  11 C :   -0.007558
  12 C :   -0.112577
  13 C :    0.194751
  14 N :   -0.615031
  15 Se:    0.426842
  16 C :   -0.268851
  17 C :    0.002146
  18 C :   -0.047962
  19 C :   -0.101221
  20 S :    0.210246
  21 S :    0.184399
  22 C :   -0.172752
  23 C :   -0.178492
  24 C :    0.147417
  25 C :    0.172643
  26 C :    0.173153
  27 C :   -0.239369
  28 C :    0.116977
  29 C :   -0.231174
  30 C :    0.413998
  31 C :   -0.136799
  32 C :   -0.040956
  33 C :    0.227915
  34 C :    0.416729
  35 C :   -0.148150
  36 C :   -0.087704
  37 C :    0.204259
  38 C :   -0.016727
  39 C :    0.353864
  40 C :    0.339962
  41 C :   -0.040328
  42 C :   -0.012965
  43 C :    0.342434
  44 C :    0.356343
  45 C :   -0.006412
  46 O :   -0.373248
  47 C :   -0.238191
  48 C :    0.091999
  49 C :    0.065262
  50 F :   -0.320289
  51 F :   -0.316615
  52 O :   -0.362198
  53 C :   -0.121898
  54 C :    0.068583
  55 C :    0.028420
  56 F :   -0.316124
  57 F :   -0.316283
  58 N :   -0.152352
  59 N :   -0.141363
  60 N :   -0.140971
  61 N :   -0.129347
  62 C :    0.061951
  63 H :    0.045934
  64 H :    0.068491
  65 H :    0.071632
  66 H :    0.071818
  67 H :    0.036778
  68 H :    0.070228
  69 H :    0.069115
  70 H :    0.081640
  71 H :    0.127928
  72 H :    0.089529
  73 H :    0.093996
  74 H :    0.090235
  75 H :    0.089646
  76 H :    0.056321
  77 H :    0.076249
  78 H :    0.073215
Sum of atomic charges:    0.0000000

LOEWDIN ATOMIC CHARGES
----------------------
   0 C :   -0.095111
   1 C :    0.058827
   2 C :    0.044813
   3 C :   -0.088939
   4 C :   -0.028840
   5 C :   -0.025085
   6 N :   -0.315542
   7 S :    0.605389
   8 N :   -0.320307
   9 N :   -0.045072
  10 C :   -0.012191
  11 C :   -0.185135
  12 C :   -0.177979
  13 C :   -0.020924
  14 N :   -0.051217
  15 Se:    0.469785
  16 C :   -0.199443
  17 C :   -0.017676
  18 C :   -0.207249
  19 C :   -0.219258
  20 S :    0.433522
  21 S :    0.408657
  22 C :   -0.230086
  23 C :   -0.044415
  24 C :    0.077788
  25 C :    0.079283
  26 C :    0.129511
  27 C :   -0.135231
  28 C :    0.110816
  29 C :   -0.086843
  30 C :    0.148625
  31 C :   -0.054261
  32 C :   -0.022120
  33 C :    0.131905
  34 C :    0.172822
  35 C :   -0.056191
  36 C :   -0.031559
  37 C :    0.112227
  38 C :    0.013238
  39 C :    0.138529
  40 C :    0.136480
  41 C :    0.001701
  42 C :    0.019078
  43 C :    0.137405
  44 C :    0.145037
  45 C :    0.004110
  46 O :   -0.221721
  47 C :   -0.146927
  48 C :    0.036437
  49 C :    0.045051
  50 F :   -0.122043
  51 F :   -0.120803
  52 O :   -0.228920
  53 C :   -0.120890
  54 C :    0.029942
  55 C :    0.029440
  56 F :   -0.119156
  57 F :   -0.120033
  58 N :   -0.117193
  59 N :   -0.114537
  60 N :   -0.108404
  61 N :   -0.098185
  62 C :   -0.031359
  63 H :    0.027602
  64 H :    0.035079
  65 H :    0.024395
  66 H :    0.026055
  67 H :    0.021572
  68 H :    0.030890
  69 H :    0.029704
  70 H :    0.047322
  71 H :    0.057393
  72 H :    0.058776
  73 H :    0.047008
  74 H :    0.057823
  75 H :    0.055578
  76 H :    0.023481
  77 H :    0.039170
  78 H :    0.038580

  Mayer bond orders larger than 0.100000
B(  0-C ,  1-C ) :   1.4632 B(  0-C ,  5-C ) :   1.1694 B(  0-C , 12-C ) :   1.3708
B(  1-C ,  2-C ) :   1.1122 B(  1-C , 14-N ) :   1.1076 B(  2-C ,  3-C ) :   1.4581
B(  2-C ,  9-N ) :   1.0930 B(  3-C ,  4-C ) :   1.1632 B(  3-C , 11-C ) :   1.4220
B(  4-C ,  5-C ) :   1.1439 B(  4-C ,  6-N ) :   1.5253 B(  5-C ,  8-N ) :   1.5129
B(  6-N ,  7-S ) :   1.2073 B(  6-N ,  8-N ) :   0.1340 B(  7-S ,  8-N ) :   1.2027
B(  9-N , 10-C ) :   1.0787 B(  9-N , 25-C ) :   0.8623 B( 10-C , 11-C ) :   1.5180
B( 10-C , 18-C ) :   1.2903 B( 11-C , 20-S ) :   0.9801 B( 12-C , 13-C ) :   1.4786
B( 12-C , 15-Se) :   1.0458 B( 13-C , 14-N ) :   1.0381 B( 13-C , 17-C ) :   1.2460
B( 14-N , 24-C ) :   0.8709 B( 15-Se, 16-C ) :   1.0716 B( 16-C , 17-C ) :   1.5582
B( 16-C , 26-C ) :   1.1054 B( 17-C , 63-H ) :   1.0034 B( 18-C , 19-C ) :   1.5130
B( 18-C , 21-S ) :   1.0170 B( 19-C , 20-S ) :   1.0176 B( 19-C , 23-C ) :   1.3248
B( 21-S , 22-C ) :   1.1229 B( 22-C , 23-C ) :   1.6027 B( 22-C , 28-C ) :   0.9842
B( 23-C , 62-C ) :   1.0021 B( 24-C , 64-H ) :   0.9877 B( 24-C , 65-H ) :   0.9786
B( 24-C , 66-H ) :   0.9804 B( 25-C , 67-H ) :   0.9922 B( 25-C , 68-H ) :   0.9839
B( 25-C , 69-H ) :   0.9839 B( 26-C , 27-C ) :   1.7708 B( 26-C , 70-H ) :   0.9655
B( 27-C , 30-C ) :   0.9906 B( 27-C , 33-C ) :   1.0314 B( 28-C , 29-C ) :   1.9185
B( 28-C , 71-H ) :   0.9446 B( 29-C , 34-C ) :   0.9979 B( 29-C , 37-C ) :   0.9620
B( 30-C , 31-C ) :   0.9988 B( 30-C , 46-O ) :   2.0258 B( 31-C , 32-C ) :   1.4317
B( 31-C , 38-C ) :   1.3454 B( 32-C , 33-C ) :   1.0311 B( 32-C , 41-C ) :   1.3298
B( 33-C , 47-C ) :   1.7442 B( 34-C , 35-C ) :   0.9449 B( 34-C , 52-O ) :   2.0407
B( 35-C , 36-C ) :   1.3902 B( 35-C , 42-C ) :   1.3639 B( 36-C , 37-C ) :   1.0344
B( 36-C , 45-C ) :   1.3526 B( 37-C , 53-C ) :   1.7983 B( 38-C , 39-C ) :   1.4112
B( 38-C , 72-H ) :   1.0083 B( 39-C , 40-C ) :   1.2990 B( 39-C , 50-F ) :   0.9311
B( 40-C , 41-C ) :   1.4599 B( 40-C , 51-F ) :   0.9451 B( 41-C , 73-H ) :   0.9866
B( 42-C , 43-C ) :   1.4120 B( 42-C , 74-H ) :   1.0068 B( 43-C , 44-C ) :   1.3069
B( 43-C , 57-F ) :   0.9322 B( 44-C , 45-C ) :   1.4265 B( 44-C , 56-F ) :   0.9366
B( 45-C , 75-H ) :   0.9964 B( 47-C , 48-C ) :   1.0219 B( 47-C , 49-C ) :   1.0174
B( 48-C , 59-N ) :   2.9557 B( 49-C , 58-N ) :   2.9398 B( 53-C , 54-C ) :   1.0125
B( 53-C , 55-C ) :   1.0035 B( 54-C , 61-N ) :   2.9779 B( 55-C , 60-N ) :   2.9652
B( 62-C , 76-H ) :   0.9839 B( 62-C , 77-H ) :   0.9725 B( 62-C , 78-H ) :   0.9705

-----------------------------------------------------------------------------
         ABSORPTION SPECTRUM VIA TRANSITION ELECTRIC DIPOLE MOMENTS
-----------------------------------------------------------------------------
State   Energy    Wavelength  fosc         T2        TX        TY        TZ
        (cm-1)      (nm)                 (au**2)    (au)      (au)      (au)
-----------------------------------------------------------------------------
   1   26546.6    376.7   2.307977063  28.62191  -5.30308  -0.69598   0.12214
   2   33172.8    301.5   0.194714032   1.93237   1.08111   0.86926  -0.08919
   3   34684.9    288.3   0.046958755   0.44571  -0.37101   0.55478  -0.01681

FINAL SINGLE POINT ENERGY     -6285.454817275178

DIPOLE MOMENT
-------------
                                X             Y             Z
Electronic contribution:    -55.87475     -42.46531       6.63368
Nuclear contribution   :     59.38437      43.53749      -7.07753
                        -----------------------------------------
Total Dipole Moment    :      3.50962       1.07217      -0.44385
                        -----------------------------------------
Magnitude (a.u.)       :      3.69648
Magnitude (Debye)      :      9.39571

Rotational constants in cm-1:     0.003287     0.000267     0.000250
Rotational constants in MHz :    98.532210     7.996598     7.497880

                             ****ORCA TERMINATED NORMALLY****
TOTAL RUN TIME: 0 days 16 hours 43 minutes 20 seconds 974 msec
