                         Program Version 4.2.0 -  RELEASE  -
|  1> # ORCA input file
|  2> # BTTPC.out
|  3> ! Engrad Keepdens
|  4> %maxcore 1000
|  5> %tddft
|  6>   nroots 3
|  7>   # nroots is the number of states to be computed
|  8>   Iroot 1
|  9>   end
| 10> * xyz 0 1
| 11>    C       -3.04954        -1.03564        -0.62360
| 12>    O       -2.61405        -0.14899        -1.33144
| 13>    C       -2.36503        -2.29382        -0.27255
| 14>    C       -1.13277        -2.73078        -0.69329
| 15>    C       -0.67081        -3.95548        -0.20042
| 16>    C       -1.47835        -4.68538         0.70395
| 17>    C       -2.72526        -4.24370         1.13088
| 18>    C       -3.16731        -3.03346         0.63219
| 19>    C       -4.39732        -2.29213         0.87278
| 20>    C       -5.48947        -2.74162         1.56993
| 21>    C       -5.54729        -3.98479         2.23163
| 22>    N       -5.64953        -4.98103         2.79321
| 23>    C       -6.70954        -2.04223         1.67542
| 24>    N       -7.73776        -1.54026         1.77591
| 25>    C       -4.30465        -1.03609         0.15549
| 26>    C       -5.10238         0.05499         0.36515
| 27>    C       -5.15037         1.26403        -0.36307
| 28>    S       -5.47123         2.70044         0.62415
| 29>    C       -5.36609         3.71106        -0.76349
| 30>    C       -5.17470         2.95137        -1.92428
| 31>    C       -5.05390         1.57059        -1.71654
| 32>    C       -4.95423         0.61855        -2.86065
| 33>    C       -6.01733        -0.47770        -2.82870
| 34>    S       -5.09224         3.92611        -3.37586
| 35>    C       -5.26667         5.34685        -2.40613
| 36>    C       -5.40240         5.07961        -1.03845
| 37>    N       -5.49263         6.25347        -0.33315
| 38>    C       -6.19642         6.27439         0.93246
| 39>    C       -7.62886         5.76390         0.77749
| 40>    C       -5.37728         7.28753        -1.24595
| 41>    C       -5.28890         6.74386        -2.55679
| 42>    C       -5.28875         7.58165        -3.69498
| 43>    N       -5.28687         7.23671        -4.97244
| 44>    S       -5.35637         8.58175        -5.86986
| 45>    N       -5.38210         9.66009        -4.66294
| 46>    C       -5.34079         9.00672        -3.51311
| 47>    C       -5.24627         9.53491        -2.20485
| 48>    C       -5.20261         8.68113        -1.06661
| 49>    N       -4.89259         9.43841         0.04414
| 50>    C       -4.42733         9.03243         1.35173
| 51>    C       -5.39514         9.44835         2.45875
| 52>    C       -4.75636        10.73793        -0.36316
| 53>    C       -4.99705        10.83468        -1.73923
| 54>    S       -4.78437        12.43166        -2.36701
| 55>    C       -4.31856        12.97913        -0.77115
| 56>    C       -4.34315        11.95571         0.18504
| 57>    S       -3.76138        12.51389         1.70380
| 58>    C       -3.53820        14.13794         1.05812
| 59>    C       -3.87814        14.21935        -0.28704
| 60>    C       -3.65338        15.39419        -1.18630
| 61>    C       -4.92911        15.83433        -1.90631
| 62>    C       -2.92534        15.06003         1.94071
| 63>    C       -2.98477        16.41812         2.00924
| 64>    C       -3.90143        17.39250         1.46365
| 65>    C       -5.22381        17.17049         1.17495
| 66>    C       -6.11207        18.17373         0.74181
| 67>    N       -6.86783        18.95378         0.36989
| 68>    C       -5.84562        15.92022         1.35939
| 69>    N       -6.39422        14.92606         1.53030
| 70>    C       -3.25256        18.69591         1.54505
| 71>    C       -3.61897        19.92011         1.02280
| 72>    C       -2.78648        20.99860         1.30096
| 73>    C       -1.61526        20.88329         2.08761
| 74>    C       -1.25875        19.63475         2.60712
| 75>    C       -2.07367        18.56574         2.32415
| 76>    C       -1.90565        17.15530         2.72140
| 77>    O       -1.05119        16.67741         3.43345
| 78>    C       -0.94802        22.13342         2.22401
| 79>    C       -1.57976        23.13393         1.57278
| 80>    S       -3.01893        22.62968         0.75615
| 81>    S       -0.70268        -6.16044         1.18939
| 82>    C        0.66584        -5.79588         0.19662
| 83>    C        0.55534        -4.62609        -0.47001
| 84>    H        1.48211        -6.49152         0.17435
| 85>    H       -1.29142        24.16526         1.51233
| 86>    H       -0.54270        -2.14506        -1.38112
| 87>    H       -3.30095        -4.82994         1.82773
| 88>    H       -5.72838         0.04658         1.25171
| 89>    H       -3.95743         0.16972        -2.85612
| 90>    H       -5.05598         1.19588        -3.78244
| 91>    H       -5.90393        -1.11459        -1.95570
| 92>    H       -5.93213        -1.09650        -3.71824
| 93>    H       -7.01333        -0.04064        -2.80637
| 94>    H       -6.23433         7.29432         1.29962
| 95>    H       -5.65296         5.64573         1.64491
| 96>    H       -8.16174         6.35750         0.03746
| 97>    H       -8.14697         5.84437         1.72900
| 98>    H       -7.64336         4.72334         0.46622
| 99>    H       -3.46575         9.52799         1.52891
|100>    H       -4.25034         7.95676         1.34910
|101>    H       -6.39986         9.07153         2.28069
|102>    H       -5.45179        10.53155         2.51948
|103>    H       -5.04293         9.06853         3.41343
|104>    H       -2.91736        15.09899        -1.94111
|105>    H       -3.23094        16.22392        -0.61931
|106>    H       -5.73688        16.02060        -1.20345
|107>    H       -5.25862        15.06464        -2.59893
|108>    H       -4.74105        16.74636        -2.46739
|109>    H       -2.24438        14.61254         2.66137
|110>    H       -4.49949        20.05049         0.41506
|111>    H       -0.37255        19.51111         3.21001
|112>    H       -0.03961        22.25872         2.78499
|113>    H        1.30767        -4.23687        -1.13204
|114> *
|115>
|116>                          ****END OF INPUT****

CARTESIAN COORDINATES (ANGSTROEM)
---------------------------------
  C     -3.049540   -1.035640   -0.623600
  O     -2.614050   -0.148990   -1.331440
  C     -2.365030   -2.293820   -0.272550
  C     -1.132770   -2.730780   -0.693290
  C     -0.670810   -3.955480   -0.200420
  C     -1.478350   -4.685380    0.703950
  C     -2.725260   -4.243700    1.130880
  C     -3.167310   -3.033460    0.632190
  C     -4.397320   -2.292130    0.872780
  C     -5.489470   -2.741620    1.569930
  C     -5.547290   -3.984790    2.231630
  N     -5.649530   -4.981030    2.793210
  C     -6.709540   -2.042230    1.675420
  N     -7.737760   -1.540260    1.775910
  C     -4.304650   -1.036090    0.155490
  C     -5.102380    0.054990    0.365150
  C     -5.150370    1.264030   -0.363070
  S     -5.471230    2.700440    0.624150
  C     -5.366090    3.711060   -0.763490
  C     -5.174700    2.951370   -1.924280
  C     -5.053900    1.570590   -1.716540
  C     -4.954230    0.618550   -2.860650
  C     -6.017330   -0.477700   -2.828700
  S     -5.092240    3.926110   -3.375860
  C     -5.266670    5.346850   -2.406130
  C     -5.402400    5.079610   -1.038450
  N     -5.492630    6.253470   -0.333150
  C     -6.196420    6.274390    0.932460
  C     -7.628860    5.763900    0.777490
  C     -5.377280    7.287530   -1.245950
  C     -5.288900    6.743860   -2.556790
  C     -5.288750    7.581650   -3.694980
  N     -5.286870    7.236710   -4.972440
  S     -5.356370    8.581750   -5.869860
  N     -5.382100    9.660090   -4.662940
  C     -5.340790    9.006720   -3.513110
  C     -5.246270    9.534910   -2.204850
  C     -5.202610    8.681130   -1.066610
  N     -4.892590    9.438410    0.044140
  C     -4.427330    9.032430    1.351730
  C     -5.395140    9.448350    2.458750
  C     -4.756360   10.737930   -0.363160
  C     -4.997050   10.834680   -1.739230
  S     -4.784370   12.431660   -2.367010
  C     -4.318560   12.979130   -0.771150
  C     -4.343150   11.955710    0.185040
  S     -3.761380   12.513890    1.703800
  C     -3.538200   14.137940    1.058120
  C     -3.878140   14.219350   -0.287040
  C     -3.653380   15.394190   -1.186300
  C     -4.929110   15.834330   -1.906310
  C     -2.925340   15.060030    1.940710
  C     -2.984770   16.418120    2.009240
  C     -3.901430   17.392500    1.463650
  C     -5.223810   17.170490    1.174950
  C     -6.112070   18.173730    0.741810
  N     -6.867830   18.953780    0.369890
  C     -5.845620   15.920220    1.359390
  N     -6.394220   14.926060    1.530300
  C     -3.252560   18.695910    1.545050
  C     -3.618970   19.920110    1.022800
  C     -2.786480   20.998600    1.300960
  C     -1.615260   20.883290    2.087610
  C     -1.258750   19.634750    2.607120
  C     -2.073670   18.565740    2.324150
  C     -1.905650   17.155300    2.721400
  O     -1.051190   16.677410    3.433450
  C     -0.948020   22.133420    2.224010
  C     -1.579760   23.133930    1.572780
  S     -3.018930   22.629680    0.756150
  S     -0.702680   -6.160440    1.189390
  C      0.665840   -5.795880    0.196620
  C      0.555340   -4.626090   -0.470010
  H      1.482110   -6.491520    0.174350
  H     -1.291420   24.165260    1.512330
  H     -0.542700   -2.145060   -1.381120
  H     -3.300950   -4.829940    1.827730
  H     -5.728380    0.046580    1.251710
  H     -3.957430    0.169720   -2.856120
  H     -5.055980    1.195880   -3.782440
  H     -5.903930   -1.114590   -1.955700
  H     -5.932130   -1.096500   -3.718240
  H     -7.013330   -0.040640   -2.806370
  H     -6.234330    7.294320    1.299620
  H     -5.652960    5.645730    1.644910
  H     -8.161740    6.357500    0.037460
  H     -8.146970    5.844370    1.729000
  H     -7.643360    4.723340    0.466220
  H     -3.465750    9.527990    1.528910
  H     -4.250340    7.956760    1.349100
  H     -6.399860    9.071530    2.280690
  H     -5.451790   10.531550    2.519480
  H     -5.042930    9.068530    3.413430
  H     -2.917360   15.098990   -1.941110
  H     -3.230940   16.223920   -0.619310
  H     -5.736880   16.020600   -1.203450
  H     -5.258620   15.064640   -2.598930
  H     -4.741050   16.746360   -2.467390
  H     -2.244380   14.612540    2.661370
  H     -4.499490   20.050490    0.415060
  H     -0.372550   19.511110    3.210010
  H     -0.039610   22.258720    2.784990
  H      1.307670   -4.236870   -1.132040

 Total Charge           Charge          ....    0
 Multiplicity           Mult            ....    1
 Number of Electrons    NEL             ....  550
 Basis Dimension        Dim             .... 1200

ORBITAL ENERGIES
----------------

  NO   OCC          E(Eh)            E(eV)
   0   2.0000     -92.016671     -2503.9009
   1   2.0000     -91.975714     -2502.7864
   2   2.0000     -91.975312     -2502.7755
   3   2.0000     -91.971478     -2502.6711
   4   2.0000     -91.970325     -2502.6398
   5   2.0000     -91.970113     -2502.6340
   6   2.0000     -91.969322     -2502.6125
   7   2.0000     -20.559670      -559.4571
   8   2.0000     -20.558375      -559.4218
   9   2.0000     -15.649969      -425.8573
  10   2.0000     -15.645150      -425.7262
  11   2.0000     -15.606106      -424.6637
  12   2.0000     -15.605363      -424.6435
  13   2.0000     -15.586966      -424.1429
  14   2.0000     -15.584099      -424.0649
  15   2.0000     -15.583879      -424.0589
  16   2.0000     -15.583353      -424.0446
  17   2.0000     -11.357607      -309.0562
  18   2.0000     -11.356273      -309.0199
  19   2.0000     -11.335052      -308.4424
  20   2.0000     -11.333282      -308.3943
  21   2.0000     -11.324680      -308.1602
  22   2.0000     -11.323644      -308.1320
  23   2.0000     -11.316148      -307.9280
  24   2.0000     -11.315636      -307.9141
  25   2.0000     -11.313241      -307.8489
  26   2.0000     -11.312978      -307.8418
  27   2.0000     -11.310725      -307.7805
  28   2.0000     -11.308794      -307.7279
  29   2.0000     -11.306512      -307.6658
  30   2.0000     -11.305114      -307.6278
  31   2.0000     -11.303882      -307.5943
  32   2.0000     -11.303472      -307.5831
  33   2.0000     -11.302530      -307.5575
  34   2.0000     -11.301906      -307.5405
  35   2.0000     -11.301410      -307.5270
  36   2.0000     -11.301157      -307.5201
  37   2.0000     -11.297546      -307.4219
  38   2.0000     -11.297342      -307.4163
  39   2.0000     -11.297013      -307.4074
  40   2.0000     -11.295195      -307.3579
  41   2.0000     -11.294565      -307.3408
  42   2.0000     -11.293132      -307.3017
  43   2.0000     -11.292793      -307.2925
  44   2.0000     -11.292155      -307.2752
  45   2.0000     -11.291838      -307.2665
  46   2.0000     -11.289628      -307.2064
  47   2.0000     -11.289230      -307.1956
  48   2.0000     -11.288446      -307.1742
  49   2.0000     -11.286498      -307.1212
  50   2.0000     -11.286483      -307.1208
  51   2.0000     -11.285645      -307.0980
  52   2.0000     -11.285366      -307.0904
  53   2.0000     -11.284852      -307.0764
  54   2.0000     -11.284752      -307.0737
  55   2.0000     -11.283131      -307.0296
  56   2.0000     -11.282255      -307.0058
  57   2.0000     -11.281904      -306.9962
  58   2.0000     -11.280326      -306.9533
  59   2.0000     -11.271984      -306.7263
  60   2.0000     -11.271156      -306.7037
  61   2.0000     -11.271147      -306.7035
  62   2.0000     -11.270778      -306.6935
  63   2.0000     -11.270517      -306.6864
  64   2.0000     -11.268478      -306.6309
  65   2.0000     -11.268202      -306.6234
  66   2.0000     -11.267331      -306.5997
  67   2.0000     -11.258669      -306.3640
  68   2.0000     -11.253599      -306.2260
  69   2.0000     -11.248160      -306.0780
  70   2.0000     -11.242496      -305.9239
  71   2.0000     -11.237072      -305.7763
  72   2.0000     -11.230832      -305.6065
  73   2.0000      -9.048559      -246.2238
  74   2.0000      -9.010943      -245.2002
  75   2.0000      -9.010534      -245.1891
  76   2.0000      -9.008248      -245.1269
  77   2.0000      -9.007077      -245.0950
  78   2.0000      -9.004531      -245.0257
  79   2.0000      -9.003692      -245.0029
  80   2.0000      -6.735882      -183.2927
  81   2.0000      -6.734051      -183.2428
  82   2.0000      -6.732388      -183.1976
  83   2.0000      -6.698608      -182.2784
  84   2.0000      -6.698194      -182.2671
  85   2.0000      -6.697506      -182.2484
  86   2.0000      -6.697091      -182.2371
  87   2.0000      -6.695758      -182.2008
  88   2.0000      -6.695414      -182.1915
  89   2.0000      -6.695007      -182.1804
  90   2.0000      -6.694670      -182.1712
  91   2.0000      -6.694584      -182.1689
  92   2.0000      -6.693497      -182.1393
  93   2.0000      -6.692684      -182.1172
  94   2.0000      -6.692061      -182.1002
  95   2.0000      -6.691512      -182.0853
  96   2.0000      -6.691253      -182.0783
  97   2.0000      -6.691247      -182.0781
  98   2.0000      -6.690429      -182.0558
  99   2.0000      -6.688943      -182.0154
 100   2.0000      -6.688109      -181.9927
 101   2.0000      -1.391464       -37.8637
 102   2.0000      -1.390429       -37.8355
 103   2.0000      -1.357013       -36.9262
 104   2.0000      -1.345361       -36.6091
 105   2.0000      -1.337847       -36.4047
 106   2.0000      -1.248156       -33.9641
 107   2.0000      -1.246027       -33.9061
 108   2.0000      -1.230012       -33.4703
 109   2.0000      -1.229071       -33.4447
 110   2.0000      -1.228127       -33.4190
 111   2.0000      -1.226068       -33.3630
 112   2.0000      -1.220453       -33.2102
 113   2.0000      -1.220295       -33.2059
 114   2.0000      -1.199362       -32.6363
 115   2.0000      -1.198465       -32.6119
 116   2.0000      -1.189263       -32.3615
 117   2.0000      -1.169380       -31.8205
 118   2.0000      -1.155225       -31.4353
 119   2.0000      -1.148446       -31.2508
 120   2.0000      -1.130426       -30.7605
 121   2.0000      -1.127882       -30.6912
 122   2.0000      -1.105463       -30.0812
 123   2.0000      -1.096500       -29.8373
 124   2.0000      -1.088982       -29.6327
 125   2.0000      -1.083450       -29.4822
 126   2.0000      -1.079481       -29.3742
 127   2.0000      -1.073738       -29.2179
 128   2.0000      -1.071966       -29.1697
 129   2.0000      -1.069688       -29.1077
 130   2.0000      -1.055323       -28.7168
 131   2.0000      -1.050874       -28.5957
 132   2.0000      -1.034284       -28.1443
 133   2.0000      -1.026133       -27.9225
 134   2.0000      -1.007663       -27.4199
 135   2.0000      -1.001986       -27.2654
 136   2.0000      -0.996883       -27.1266
 137   2.0000      -0.995625       -27.0923
 138   2.0000      -0.994022       -27.0487
 139   2.0000      -0.977067       -26.5873
 140   2.0000      -0.967113       -26.3165
 141   2.0000      -0.957144       -26.0452
 142   2.0000      -0.945357       -25.7245
 143   2.0000      -0.926199       -25.2032
 144   2.0000      -0.915418       -24.9098
 145   2.0000      -0.911053       -24.7910
 146   2.0000      -0.901882       -24.5415
 147   2.0000      -0.896676       -24.3998
 148   2.0000      -0.883182       -24.0326
 149   2.0000      -0.872577       -23.7440
 150   2.0000      -0.867708       -23.6115
 151   2.0000      -0.864935       -23.5361
 152   2.0000      -0.854448       -23.2507
 153   2.0000      -0.841103       -22.8876
 154   2.0000      -0.838164       -22.8076
 155   2.0000      -0.825245       -22.4561
 156   2.0000      -0.822585       -22.3837
 157   2.0000      -0.819084       -22.2884
 158   2.0000      -0.810473       -22.0541
 159   2.0000      -0.794603       -21.6223
 160   2.0000      -0.791874       -21.5480
 161   2.0000      -0.789027       -21.4705
 162   2.0000      -0.784875       -21.3575
 163   2.0000      -0.775152       -21.0930
 164   2.0000      -0.763096       -20.7649
 165   2.0000      -0.760033       -20.6815
 166   2.0000      -0.752413       -20.4742
 167   2.0000      -0.747229       -20.3331
 168   2.0000      -0.745763       -20.2932
 169   2.0000      -0.729846       -19.8601
 170   2.0000      -0.725271       -19.7356
 171   2.0000      -0.714906       -19.4536
 172   2.0000      -0.710979       -19.3467
 173   2.0000      -0.707467       -19.2512
 174   2.0000      -0.704177       -19.1616
 175   2.0000      -0.694875       -18.9085
 176   2.0000      -0.691849       -18.8262
 177   2.0000      -0.687603       -18.7106
 178   2.0000      -0.683617       -18.6022
 179   2.0000      -0.680724       -18.5234
 180   2.0000      -0.666960       -18.1489
 181   2.0000      -0.665712       -18.1149
 182   2.0000      -0.661683       -18.0053
 183   2.0000      -0.653549       -17.7840
 184   2.0000      -0.652555       -17.7569
 185   2.0000      -0.649197       -17.6656
 186   2.0000      -0.648365       -17.6429
 187   2.0000      -0.645846       -17.5744
 188   2.0000      -0.643265       -17.5041
 189   2.0000      -0.639900       -17.4126
 190   2.0000      -0.638269       -17.3682
 191   2.0000      -0.634349       -17.2615
 192   2.0000      -0.626974       -17.0608
 193   2.0000      -0.626268       -17.0416
 194   2.0000      -0.623634       -16.9699
 195   2.0000      -0.621616       -16.9150
 196   2.0000      -0.619100       -16.8466
 197   2.0000      -0.616647       -16.7798
 198   2.0000      -0.614991       -16.7348
 199   2.0000      -0.608957       -16.5706
 200   2.0000      -0.603968       -16.4348
 201   2.0000      -0.601097       -16.3567
 202   2.0000      -0.596988       -16.2449
 203   2.0000      -0.595314       -16.1993
 204   2.0000      -0.593687       -16.1551
 205   2.0000      -0.585474       -15.9315
 206   2.0000      -0.579449       -15.7676
 207   2.0000      -0.576912       -15.6986
 208   2.0000      -0.574975       -15.6459
 209   2.0000      -0.574450       -15.6316
 210   2.0000      -0.572928       -15.5902
 211   2.0000      -0.572247       -15.5716
 212   2.0000      -0.571367       -15.5477
 213   2.0000      -0.570158       -15.5148
 214   2.0000      -0.569499       -15.4969
 215   2.0000      -0.568785       -15.4774
 216   2.0000      -0.565117       -15.3776
 217   2.0000      -0.564216       -15.3531
 218   2.0000      -0.561707       -15.2848
 219   2.0000      -0.558270       -15.1913
 220   2.0000      -0.556518       -15.1436
 221   2.0000      -0.553520       -15.0621
 222   2.0000      -0.549845       -14.9621
 223   2.0000      -0.544271       -14.8104
 224   2.0000      -0.541259       -14.7284
 225   2.0000      -0.541247       -14.7281
 226   2.0000      -0.538917       -14.6647
 227   2.0000      -0.538740       -14.6599
 228   2.0000      -0.535588       -14.5741
 229   2.0000      -0.533609       -14.5202
 230   2.0000      -0.529538       -14.4095
 231   2.0000      -0.529143       -14.3987
 232   2.0000      -0.523337       -14.2407
 233   2.0000      -0.518669       -14.1137
 234   2.0000      -0.509846       -13.8736
 235   2.0000      -0.505014       -13.7421
 236   2.0000      -0.504195       -13.7198
 237   2.0000      -0.503758       -13.7080
 238   2.0000      -0.502337       -13.6693
 239   2.0000      -0.498479       -13.5643
 240   2.0000      -0.495365       -13.4796
 241   2.0000      -0.494725       -13.4622
 242   2.0000      -0.493432       -13.4270
 243   2.0000      -0.493240       -13.4217
 244   2.0000      -0.491733       -13.3807
 245   2.0000      -0.489234       -13.3127
 246   2.0000      -0.486135       -13.2284
 247   2.0000      -0.485376       -13.2078
 248   2.0000      -0.481499       -13.1023
 249   2.0000      -0.474299       -12.9063
 250   2.0000      -0.473699       -12.8900
 251   2.0000      -0.468133       -12.7385
 252   2.0000      -0.462894       -12.5960
 253   2.0000      -0.460028       -12.5180
 254   2.0000      -0.455553       -12.3962
 255   2.0000      -0.446773       -12.1573
 256   2.0000      -0.444566       -12.0973
 257   2.0000      -0.439866       -11.9694
 258   2.0000      -0.439432       -11.9575
 259   2.0000      -0.422125       -11.4866
 260   2.0000      -0.420217       -11.4347
 261   2.0000      -0.399753       -10.8778
 262   2.0000      -0.393905       -10.7187
 263   2.0000      -0.379518       -10.3272
 264   2.0000      -0.375792       -10.2258
 265   2.0000      -0.350053        -9.5254
 266   2.0000      -0.346718        -9.4347
 267   2.0000      -0.345887        -9.4121
 268   2.0000      -0.343539        -9.3482
 269   2.0000      -0.326289        -8.8788
 270   2.0000      -0.324215        -8.8224
 271   2.0000      -0.322774        -8.7831
 272   2.0000      -0.308243        -8.3877
 273   2.0000      -0.302734        -8.2378
 274   2.0000      -0.252372        -6.8674
 275   0.0000      -0.022137        -0.6024
 276   0.0000      -0.010863        -0.2956
 277   0.0000       0.017121         0.4659
 278   0.0000       0.026577         0.7232
 279   0.0000       0.038883         1.0581

MULLIKEN ATOMIC CHARGES
-----------------------
   0 C :    0.502507
   1 O :   -0.377945
   2 C :   -0.188629
   3 C :    0.058103
   4 C :   -0.043073
   5 C :   -0.122106
   6 C :    0.029642
   7 C :   -0.048266
   8 C :    0.261959
   9 C :   -0.376762
  10 C :    0.038657
  11 N :   -0.073110
  12 C :    0.022167
  13 N :   -0.061091
  14 C :   -0.311320
  15 C :    0.138196
  16 C :   -0.249774
  17 S :    0.176599
  18 C :   -0.027020
  19 C :   -0.157084
  20 C :   -0.008111
  21 C :    0.017033
  22 C :   -0.038503
  23 S :    0.236844
  24 C :    0.028013
  25 C :    0.113667
  26 N :   -0.586440
  27 C :    0.105364
  28 C :   -0.029943
  29 C :    0.246741
  30 C :   -0.230400
  31 C :    0.156981
  32 N :   -0.475991
  33 S :    0.572970
  34 N :   -0.476944
  35 C :    0.148226
  36 C :   -0.206788
  37 C :    0.228402
  38 N :   -0.579536
  39 C :    0.099135
  40 C :   -0.040138
  41 C :    0.132120
  42 C :    0.015952
  43 S :    0.223233
  44 C :   -0.106799
  45 C :   -0.013305
  46 S :    0.183709
  47 C :   -0.264998
  48 C :   -0.072512
  49 C :    0.020614
  50 C :   -0.040811
  51 C :    0.200707
  52 C :   -0.330731
  53 C :    0.210418
  54 C :   -0.376850
  55 C :    0.047184
  56 N :   -0.065644
  57 C :    0.036128
  58 N :   -0.051627
  59 C :   -0.058242
  60 C :    0.028720
  61 C :   -0.119161
  62 C :   -0.050399
  63 C :    0.060960
  64 C :   -0.170349
  65 C :    0.471409
  66 O :   -0.359179
  67 C :    0.004443
  68 C :   -0.050526
  69 S :    0.123347
  70 S :    0.124372
  71 C :   -0.048898
  72 C :    0.001733
  73 H :    0.086300
  74 H :    0.086543
  75 H :    0.049844
  76 H :    0.070950
  77 H :    0.094618
  78 H :    0.104951
  79 H :    0.040498
  80 H :    0.050326
  81 H :    0.040155
  82 H :    0.042193
  83 H :    0.053341
  84 H :    0.061735
  85 H :    0.049763
  86 H :    0.047401
  87 H :    0.060472
  88 H :    0.065229
  89 H :    0.070530
  90 H :    0.047220
  91 H :    0.063492
  92 H :    0.049355
  93 H :    0.067224
  94 H :    0.058826
  95 H :    0.056602
  96 H :    0.054536
  97 H :    0.045654
  98 H :    0.087150
  99 H :    0.068027
 100 H :    0.051765
 101 H :    0.049301
 102 H :    0.048750
Sum of atomic charges:    0.0000000

LOEWDIN ATOMIC CHARGES
----------------------
   0 C :    0.165089
   1 O :   -0.231984
   2 C :   -0.062466
   3 C :    0.035377
   4 C :   -0.037137
   5 C :   -0.143353
   6 C :    0.007631
   7 C :   -0.035796
   8 C :    0.119250
   9 C :   -0.179501
  10 C :    0.014323
  11 N :   -0.098344
  12 C :    0.007093
  13 N :   -0.097142
  14 C :   -0.151290
  15 C :    0.107571
  16 C :   -0.206789
  17 S :    0.397695
  18 C :   -0.176346
  19 C :   -0.201668
  20 C :    0.026348
  21 C :   -0.017755
  22 C :   -0.024493
  23 S :    0.417616
  24 C :   -0.159269
  25 C :   -0.027637
  26 N :   -0.035028
  27 C :    0.072371
  28 C :   -0.033610
  29 C :    0.041637
  30 C :   -0.087493
  31 C :   -0.026447
  32 N :   -0.323239
  33 S :    0.613036
  34 N :   -0.324781
  35 C :   -0.024160
  36 C :   -0.091026
  37 C :    0.041312
  38 N :   -0.020636
  39 C :    0.071556
  40 C :   -0.037250
  41 C :   -0.023116
  42 C :   -0.164129
  43 S :    0.418050
  44 C :   -0.195305
  45 C :   -0.174535
  46 S :    0.416435
  47 C :   -0.206616
  48 C :   -0.000344
  49 C :   -0.012913
  50 C :   -0.025095
  51 C :    0.101791
  52 C :   -0.145323
  53 C :    0.105351
  54 C :   -0.173290
  55 C :    0.011926
  56 N :   -0.095070
  57 C :    0.009222
  58 N :   -0.086922
  59 C :   -0.032140
  60 C :    0.002436
  61 C :   -0.141254
  62 C :   -0.039183
  63 C :    0.038871
  64 C :   -0.066755
  65 C :    0.165995
  66 O :   -0.236649
  67 C :   -0.055037
  68 C :   -0.131881
  69 S :    0.398216
  70 S :    0.398669
  71 C :   -0.131086
  72 C :   -0.056195
  73 H :    0.029352
  74 H :    0.029394
  75 H :    0.042148
  76 H :    0.042693
  77 H :    0.045546
  78 H :    0.039557
  79 H :    0.017521
  80 H :    0.015406
  81 H :    0.020846
  82 H :    0.020325
  83 H :    0.020905
  84 H :    0.019349
  85 H :    0.025881
  86 H :    0.025638
  87 H :    0.018931
  88 H :    0.022403
  89 H :    0.024498
  90 H :    0.018543
  91 H :    0.017680
  92 H :    0.026675
  93 H :    0.033838
  94 H :    0.022564
  95 H :    0.022035
  96 H :    0.012959
  97 H :    0.023403
  98 H :    0.051047
  99 H :    0.041977
 100 H :    0.043010
 101 H :    0.034379
 102 H :    0.034110

  Mayer bond orders larger than 0.100000
B(  0-C ,  1-O ) :   2.0271 B(  0-C ,  2-C ) :   0.9728 B(  0-C , 14-C ) :   0.9863
B(  2-C ,  3-C ) :   1.5104 B(  2-C ,  7-C ) :   1.2803 B(  3-C ,  4-C ) :   1.3015
B(  3-C , 75-H ) :   1.0132 B(  4-C ,  5-C ) :   1.3282 B(  4-C , 72-C ) :   1.1628
B(  5-C ,  6-C ) :   1.3842 B(  5-C , 70-S ) :   1.0809 B(  6-C ,  7-C ) :   1.4808
B(  6-C , 76-H ) :   0.9877 B(  7-C ,  8-C ) :   1.0525 B(  8-C ,  9-C ) :   1.6738
B(  8-C , 14-C ) :   1.0844 B(  9-C , 10-C ) :   1.0653 B(  9-C , 12-C ) :   1.0704
B( 10-C , 11-N ) :   2.9826 B( 12-C , 13-N ) :   2.9988 B( 14-C , 15-C ) :   1.6790
B( 15-C , 16-C ) :   1.1960 B( 15-C , 77-H ) :   0.9468 B( 16-C , 17-S ) :   1.0567
B( 16-C , 20-C ) :   1.5516 B( 17-S , 18-C ) :   1.0383 B( 18-C , 19-C ) :   1.5124
B( 18-C , 25-C ) :   1.3569 B( 19-C , 20-C ) :   1.4204 B( 19-C , 23-S ) :   1.0044
B( 20-C , 21-C ) :   0.9553 B( 21-C , 22-C ) :   1.0512 B( 21-C , 78-H ) :   0.9366
B( 21-C , 79-H ) :   0.9707 B( 22-C , 80-H ) :   0.9852 B( 22-C , 81-H ) :   0.9863
B( 22-C , 82-H ) :   0.9829 B( 23-S , 24-C ) :   0.9930 B( 24-C , 25-C ) :   1.4846
B( 24-C , 30-C ) :   1.4015 B( 25-C , 26-N ) :   1.0751 B( 26-N , 27-C ) :   0.8490
B( 26-N , 29-C ) :   1.0892 B( 27-C , 28-C ) :   1.0541 B( 27-C , 83-H ) :   0.9796
B( 27-C , 84-H ) :   0.9718 B( 28-C , 85-H ) :   0.9802 B( 28-C , 86-H ) :   0.9832
B( 28-C , 87-H ) :   0.9783 B( 29-C , 30-C ) :   1.4714 B( 29-C , 37-C ) :   1.1546
B( 30-C , 31-C ) :   1.1280 B( 31-C , 32-N ) :   1.5929 B( 31-C , 35-C ) :   1.1319
B( 32-N , 33-S ) :   1.1905 B( 32-N , 34-N ) :   0.1016 B( 33-S , 34-N ) :   1.1897
B( 34-N , 35-C ) :   1.5893 B( 35-C , 36-C ) :   1.1277 B( 36-C , 37-C ) :   1.4455
B( 36-C , 42-C ) :   1.4235 B( 37-C , 38-N ) :   1.1197 B( 38-N , 39-C ) :   0.8410
B( 38-N , 41-C ) :   1.0845 B( 39-C , 40-C ) :   1.0355 B( 39-C , 88-H ) :   0.9792
B( 39-C , 89-H ) :   0.9828 B( 40-C , 90-H ) :   0.9791 B( 40-C , 91-H ) :   0.9767
B( 40-C , 92-H ) :   0.9835 B( 41-C , 42-C ) :   1.4677 B( 41-C , 45-C ) :   1.3371
B( 42-C , 43-S ) :   0.9935 B( 43-S , 44-C ) :   1.0014 B( 44-C , 45-C ) :   1.5284
B( 44-C , 48-C ) :   1.3876 B( 45-C , 46-S ) :   1.0420 B( 46-S , 47-C ) :   1.0756
B( 47-C , 48-C ) :   1.5960 B( 47-C , 51-C ) :   1.1234 B( 48-C , 49-C ) :   0.9751
B( 49-C , 50-C ) :   1.0355 B( 49-C , 93-H ) :   0.9623 B( 49-C , 94-H ) :   0.9693
B( 50-C , 95-H ) :   0.9827 B( 50-C , 96-H ) :   0.9801 B( 50-C , 97-H ) :   0.9856
B( 51-C , 52-C ) :   1.7381 B( 51-C , 98-H ) :   0.9425 B( 52-C , 53-C ) :   1.0781
B( 52-C , 65-C ) :   0.9855 B( 53-C , 54-C ) :   1.6875 B( 53-C , 59-C ) :   1.0512
B( 54-C , 55-C ) :   1.0568 B( 54-C , 57-C ) :   1.0877 B( 55-C , 56-N ) :   2.9914
B( 57-C , 58-N ) :   3.0015 B( 59-C , 60-C ) :   1.4866 B( 59-C , 64-C ) :   1.2785
B( 60-C , 61-C ) :   1.3797 B( 60-C , 99-H ) :   0.9908 B( 61-C , 62-C ) :   1.3291
B( 61-C , 69-S ) :   1.0804 B( 62-C , 63-C ) :   1.3059 B( 62-C , 67-C ) :   1.1618
B( 63-C , 64-C ) :   1.5059 B( 63-C ,100-H ) :   1.0130 B( 64-C , 65-C ) :   0.9534
B( 65-C , 66-O ) :   2.0982 B( 67-C , 68-C ) :   1.7057 B( 67-C ,101-H ) :   1.0041
B( 68-C , 69-S ) :   1.1033 B( 68-C , 74-H ) :   0.9760 B( 70-S , 71-C ) :   1.1044
B( 71-C , 72-C ) :   1.7035 B( 71-C , 73-H ) :   0.9761 B( 72-C ,102-H ) :   1.0042

-----------------------------------------------------------------------------
         ABSORPTION SPECTRUM VIA TRANSITION ELECTRIC DIPOLE MOMENTS
-----------------------------------------------------------------------------
State   Energy    Wavelength  fosc         T2        TX        TY        TZ
        (cm-1)      (nm)                 (au**2)    (au)      (au)      (au)
-----------------------------------------------------------------------------
   1   22365.7    447.1   2.793379543  41.11721   0.03108   6.40783   0.23653
   2   26738.9    374.0   0.342239926   4.21369  -0.43959   0.49285  -1.94359
   3   32774.2    305.1   0.073010204   0.73338   0.44041   0.27833   0.67966

FINAL SINGLE POINT ENERGY     -5502.889979930308

DIPOLE MOMENT
-------------
                                X             Y             Z
Electronic contribution:      4.64221       1.33009      -9.26685
Nuclear contribution   :     -1.13952      -0.03402       8.29736
                        -----------------------------------------
Total Dipole Moment    :      3.50269       1.29607      -0.96949
                        -----------------------------------------
Magnitude (a.u.)       :      3.85856
Magnitude (Debye)      :      9.80769

Rotational constants in cm-1:     0.002015     0.000211     0.000204
Rotational constants in MHz :    60.410535     6.335785     6.120096

                             ****ORCA TERMINATED NORMALLY****
TOTAL RUN TIME: 0 days 15 hours 10 minutes 45 seconds 106 msec
