                         Program Version 4.2.0 -  RELEASE  -
|  1> # ORCA input file
|  2> # BTTPC.out: Geometry 42
|  3> ! Engrad Keepdens
|  4> %maxcore 1000
|  5> %tddft
|  6>   nroots 3
|  7>   # nroots is the number of states to be computed
|  8>   Iroot 1
|  9>   end
| 10> * xyz 0 1
| 11>    C       -2.96553        -1.58001        -0.69591
| 12>    O       -2.55069        -0.91975        -1.63091
| 13>    C       -2.42565        -2.89196        -0.25895
| 14>    C       -1.38429        -3.59567        -0.83290
| 15>    C       -1.03607        -4.83936        -0.26785
| 16>    C       -1.77059        -5.30937         0.86379
| 17>    C       -2.82098        -4.58721         1.44808
| 18>    C       -3.14798        -3.35716         0.87357
| 19>    C       -4.17891        -2.35318         1.21672
| 20>    C       -5.13384        -2.49338         2.21165
| 21>    C       -5.18478        -3.63343         3.07299
| 22>    N       -5.23155        -4.55493         3.78028
| 23>    C       -6.17051        -1.53884         2.45716
| 24>    N       -7.02492        -0.78206         2.67890
| 25>    C       -4.04083        -1.23003         0.27976
| 26>    C       -4.60901         0.01452         0.45746
| 27>    C       -4.66859         1.19335        -0.34407
| 28>    S       -4.79266         2.69498         0.61812
| 29>    C       -4.91267         3.64961        -0.81062
| 30>    C       -4.90367         2.84004        -1.96524
| 31>    C       -4.77387         1.45184        -1.72574
| 32>    C       -4.96210         0.43266        -2.81405
| 33>    C       -6.44178         0.05322        -2.99242
| 34>    S       -5.04960         3.77990        -3.45721
| 35>    C       -5.09571         5.25085        -2.51343
| 36>    C       -4.99499         5.02065        -1.13499
| 37>    N       -5.03472         6.22213        -0.43958
| 38>    C       -5.68028         6.21979         0.87966
| 39>    C       -7.19916         6.13762         0.78223
| 40>    C       -5.12975         7.24303        -1.39767
| 41>    C       -5.20798         6.65422        -2.69520
| 42>    C       -5.39980         7.47413        -3.85636
| 43>    N       -5.55823         7.06478        -5.10776
| 44>    S       -5.80256         8.41640        -6.03173
| 45>    N       -5.70504         9.56261        -4.84107
| 46>    C       -5.48395         8.91920        -3.70296
| 47>    C       -5.26856         9.50190        -2.41203
| 48>    C       -5.06751         8.67056        -1.26528
| 49>    N       -4.73528         9.48647        -0.18480
| 50>    C       -4.07133         9.12954         1.06845
| 51>    C       -4.92766         9.38056         2.30730
| 52>    C       -4.73687        10.79681        -0.62923
| 53>    C       -5.06374        10.83800        -1.99310
| 54>    S       -4.93764        12.44230        -2.67595
| 55>    C       -4.41133        13.06377        -1.10357
| 56>    C       -4.35981        12.05653        -0.11603
| 57>    S       -3.81376        12.68103         1.39627
| 58>    C       -3.67917        14.31665         0.71294
| 59>    C       -4.00674        14.34610        -0.65724
| 60>    C       -3.72197        15.50414        -1.57742
| 61>    C       -4.85424        15.93286        -2.51762
| 62>    C       -3.19617        15.28723         1.63465
| 63>    C       -3.26974        16.65472         1.77860
| 64>    C       -4.05773        17.73655         1.20646
| 65>    C       -5.28588        17.61152         0.57379
| 66>    C       -5.96811        18.71801        -0.01713
| 67>    N       -6.51459        19.60874        -0.52685
| 68>    C       -6.00722        16.38278         0.56588
| 69>    N       -6.61202        15.39006         0.57920
| 70>    C       -3.43788        19.01799         1.62983
| 71>    C       -3.73267        20.34361         1.30730
| 72>    C       -3.00592        21.34147         1.97775
| 73>    C       -2.00680        21.05450         2.95902
| 74>    C       -1.72066        19.71025         3.26297
| 75>    C       -2.42993        18.73257         2.59428
| 76>    C       -2.30753        17.26779         2.75915
| 77>    O       -1.56280        16.67592         3.51473
| 78>    C       -1.43163        22.25120         3.50843
| 79>    C       -1.96661        23.38364         2.96948
| 80>    S       -3.19136        23.06703         1.76804
| 81>    S       -1.18227        -6.86986         1.39024
| 82>    C        0.01821        -6.88253         0.12527
| 83>    C       -0.01315        -5.76908        -0.66330
| 84>    H        0.68870        -7.73714         0.03763
| 85>    H       -1.70914        24.41420         3.21266
| 86>    H       -0.86027        -3.18810        -1.69968
| 87>    H       -3.34030        -4.98636         2.31558
| 88>    H       -5.06523         0.16946         1.43802
| 89>    H       -4.35240        -0.45118        -2.60698
| 90>    H       -4.57223         0.86050        -3.75269
| 91>    H       -6.85114        -0.38029        -2.06689
| 92>    H       -6.55850        -0.69086        -3.79560
| 93>    H       -7.05166         0.93170        -3.25423
| 94>    H       -5.38100         7.10478         1.44070
| 95>    H       -5.27241         5.35919         1.43016
| 96>    H       -7.60791         7.02627         0.27716
| 97>    H       -7.64424         6.07621         1.78658
| 98>    H       -7.51132         5.24769         0.21552
| 99>    H       -3.14796         9.72747         1.13116
|100>    H       -3.74677         8.08468         0.99199
|101>    H       -5.88200         8.83592         2.26545
|102>    H       -5.16717        10.44843         2.41614
|103>    H       -4.38304         9.06086         3.20945
|104>    H       -2.85833        15.19655        -2.19491
|105>    H       -3.37324        16.36263        -0.99036
|106>    H       -5.73909        16.28196        -1.97074
|107>    H       -5.17980        15.10881        -3.16956
|108>    H       -4.50713        16.75030        -3.16720
|109>    H       -2.58497        14.85836         2.44313
|110>    H       -4.49127        20.61137         0.57334
|111>    H       -0.97170        19.43291         4.00760
|112>    H       -0.65492        22.25101         4.27403
|113>    H        0.66169        -5.60125        -1.50326
|114> *
|115>
|116>                          ****END OF INPUT****

CARTESIAN COORDINATES (ANGSTROEM)
---------------------------------
  C     -2.965530   -1.580010   -0.695910
  O     -2.550690   -0.919750   -1.630910
  C     -2.425650   -2.891960   -0.258950
  C     -1.384290   -3.595670   -0.832900
  C     -1.036070   -4.839360   -0.267850
  C     -1.770590   -5.309370    0.863790
  C     -2.820980   -4.587210    1.448080
  C     -3.147980   -3.357160    0.873570
  C     -4.178910   -2.353180    1.216720
  C     -5.133840   -2.493380    2.211650
  C     -5.184780   -3.633430    3.072990
  N     -5.231550   -4.554930    3.780280
  C     -6.170510   -1.538840    2.457160
  N     -7.024920   -0.782060    2.678900
  C     -4.040830   -1.230030    0.279760
  C     -4.609010    0.014520    0.457460
  C     -4.668590    1.193350   -0.344070
  S     -4.792660    2.694980    0.618120
  C     -4.912670    3.649610   -0.810620
  C     -4.903670    2.840040   -1.965240
  C     -4.773870    1.451840   -1.725740
  C     -4.962100    0.432660   -2.814050
  C     -6.441780    0.053220   -2.992420
  S     -5.049600    3.779900   -3.457210
  C     -5.095710    5.250850   -2.513430
  C     -4.994990    5.020650   -1.134990
  N     -5.034720    6.222130   -0.439580
  C     -5.680280    6.219790    0.879660
  C     -7.199160    6.137620    0.782230
  C     -5.129750    7.243030   -1.397670
  C     -5.207980    6.654220   -2.695200
  C     -5.399800    7.474130   -3.856360
  N     -5.558230    7.064780   -5.107760
  S     -5.802560    8.416400   -6.031730
  N     -5.705040    9.562610   -4.841070
  C     -5.483950    8.919200   -3.702960
  C     -5.268560    9.501900   -2.412030
  C     -5.067510    8.670560   -1.265280
  N     -4.735280    9.486470   -0.184800
  C     -4.071330    9.129540    1.068450
  C     -4.927660    9.380560    2.307300
  C     -4.736870   10.796810   -0.629230
  C     -5.063740   10.838000   -1.993100
  S     -4.937640   12.442300   -2.675950
  C     -4.411330   13.063770   -1.103570
  C     -4.359810   12.056530   -0.116030
  S     -3.813760   12.681030    1.396270
  C     -3.679170   14.316650    0.712940
  C     -4.006740   14.346100   -0.657240
  C     -3.721970   15.504140   -1.577420
  C     -4.854240   15.932860   -2.517620
  C     -3.196170   15.287230    1.634650
  C     -3.269740   16.654720    1.778600
  C     -4.057730   17.736550    1.206460
  C     -5.285880   17.611520    0.573790
  C     -5.968110   18.718010   -0.017130
  N     -6.514590   19.608740   -0.526850
  C     -6.007220   16.382780    0.565880
  N     -6.612020   15.390060    0.579200
  C     -3.437880   19.017990    1.629830
  C     -3.732670   20.343610    1.307300
  C     -3.005920   21.341470    1.977750
  C     -2.006800   21.054500    2.959020
  C     -1.720660   19.710250    3.262970
  C     -2.429930   18.732570    2.594280
  C     -2.307530   17.267790    2.759150
  O     -1.562800   16.675920    3.514730
  C     -1.431630   22.251200    3.508430
  C     -1.966610   23.383640    2.969480
  S     -3.191360   23.067030    1.768040
  S     -1.182270   -6.869860    1.390240
  C      0.018210   -6.882530    0.125270
  C     -0.013150   -5.769080   -0.663300
  H      0.688700   -7.737140    0.037630
  H     -1.709140   24.414200    3.212660
  H     -0.860270   -3.188100   -1.699680
  H     -3.340300   -4.986360    2.315580
  H     -5.065230    0.169460    1.438020
  H     -4.352400   -0.451180   -2.606980
  H     -4.572230    0.860500   -3.752690
  H     -6.851140   -0.380290   -2.066890
  H     -6.558500   -0.690860   -3.795600
  H     -7.051660    0.931700   -3.254230
  H     -5.381000    7.104780    1.440700
  H     -5.272410    5.359190    1.430160
  H     -7.607910    7.026270    0.277160
  H     -7.644240    6.076210    1.786580
  H     -7.511320    5.247690    0.215520
  H     -3.147960    9.727470    1.131160
  H     -3.746770    8.084680    0.991990
  H     -5.882000    8.835920    2.265450
  H     -5.167170   10.448430    2.416140
  H     -4.383040    9.060860    3.209450
  H     -2.858330   15.196550   -2.194910
  H     -3.373240   16.362630   -0.990360
  H     -5.739090   16.281960   -1.970740
  H     -5.179800   15.108810   -3.169560
  H     -4.507130   16.750300   -3.167200
  H     -2.584970   14.858360    2.443130
  H     -4.491270   20.611370    0.573340
  H     -0.971700   19.432910    4.007600
  H     -0.654920   22.251010    4.274030
  H      0.661690   -5.601250   -1.503260

 Total Charge           Charge          ....    0
 Multiplicity           Mult            ....    1
 Number of Electrons    NEL             ....  550
 Basis Dimension        Dim             .... 1200

ORBITAL ENERGIES
----------------

  NO   OCC          E(Eh)            E(eV)
   0   2.0000     -92.015857     -2503.8788
   1   2.0000     -91.979682     -2502.8944
   2   2.0000     -91.979570     -2502.8914
   3   2.0000     -91.975052     -2502.7684
   4   2.0000     -91.972731     -2502.7052
   5   2.0000     -91.971470     -2502.6709
   6   2.0000     -91.971339     -2502.6674
   7   2.0000     -20.561349      -559.5028
   8   2.0000     -20.558539      -559.4263
   9   2.0000     -15.652936      -425.9380
  10   2.0000     -15.646417      -425.7606
  11   2.0000     -15.617225      -424.9663
  12   2.0000     -15.615640      -424.9232
  13   2.0000     -15.591638      -424.2700
  14   2.0000     -15.591317      -424.2613
  15   2.0000     -15.589484      -424.2114
  16   2.0000     -15.588858      -424.1944
  17   2.0000     -11.361424      -309.1601
  18   2.0000     -11.356907      -309.0372
  19   2.0000     -11.342875      -308.6553
  20   2.0000     -11.342544      -308.6463
  21   2.0000     -11.331850      -308.3553
  22   2.0000     -11.330785      -308.3263
  23   2.0000     -11.323489      -308.1278
  24   2.0000     -11.321491      -308.0734
  25   2.0000     -11.321330      -308.0691
  26   2.0000     -11.319491      -308.0190
  27   2.0000     -11.314986      -307.8964
  28   2.0000     -11.313730      -307.8622
  29   2.0000     -11.313498      -307.8559
  30   2.0000     -11.312796      -307.8368
  31   2.0000     -11.312719      -307.8347
  32   2.0000     -11.310676      -307.7791
  33   2.0000     -11.308101      -307.7091
  34   2.0000     -11.307645      -307.6967
  35   2.0000     -11.307170      -307.6837
  36   2.0000     -11.305919      -307.6497
  37   2.0000     -11.304220      -307.6035
  38   2.0000     -11.303984      -307.5971
  39   2.0000     -11.303874      -307.5940
  40   2.0000     -11.302591      -307.5591
  41   2.0000     -11.302145      -307.5470
  42   2.0000     -11.301789      -307.5373
  43   2.0000     -11.301425      -307.5274
  44   2.0000     -11.300003      -307.4887
  45   2.0000     -11.298778      -307.4554
  46   2.0000     -11.298506      -307.4480
  47   2.0000     -11.296484      -307.3930
  48   2.0000     -11.293842      -307.3211
  49   2.0000     -11.293797      -307.3198
  50   2.0000     -11.293724      -307.3179
  51   2.0000     -11.292524      -307.2852
  52   2.0000     -11.291805      -307.2656
  53   2.0000     -11.289638      -307.2067
  54   2.0000     -11.288880      -307.1860
  55   2.0000     -11.287450      -307.1471
  56   2.0000     -11.286504      -307.1214
  57   2.0000     -11.283864      -307.0495
  58   2.0000     -11.283617      -307.0428
  59   2.0000     -11.282013      -306.9992
  60   2.0000     -11.279453      -306.9295
  61   2.0000     -11.277096      -306.8654
  62   2.0000     -11.276228      -306.8418
  63   2.0000     -11.273542      -306.7687
  64   2.0000     -11.272738      -306.7468
  65   2.0000     -11.272580      -306.7425
  66   2.0000     -11.272398      -306.7375
  67   2.0000     -11.263500      -306.4954
  68   2.0000     -11.261332      -306.4364
  69   2.0000     -11.254100      -306.2396
  70   2.0000     -11.248391      -306.0843
  71   2.0000     -11.240773      -305.8770
  72   2.0000     -11.239005      -305.8289
  73   2.0000      -9.047027      -246.1821
  74   2.0000      -9.014418      -245.2948
  75   2.0000      -9.014296      -245.2915
  76   2.0000      -9.008596      -245.1364
  77   2.0000      -9.007474      -245.1058
  78   2.0000      -9.007345      -245.1023
  79   2.0000      -9.006202      -245.0712
  80   2.0000      -6.734205      -183.2470
  81   2.0000      -6.732489      -183.2004
  82   2.0000      -6.730692      -183.1514
  83   2.0000      -6.702042      -182.3718
  84   2.0000      -6.701919      -182.3685
  85   2.0000      -6.700899      -182.3407
  86   2.0000      -6.700789      -182.3377
  87   2.0000      -6.698872      -182.2856
  88   2.0000      -6.698749      -182.2822
  89   2.0000      -6.696089      -182.2098
  90   2.0000      -6.695276      -182.1877
  91   2.0000      -6.694965      -182.1793
  92   2.0000      -6.694832      -182.1756
  93   2.0000      -6.693881      -182.1498
  94   2.0000      -6.693745      -182.1461
  95   2.0000      -6.693701      -182.1449
  96   2.0000      -6.692982      -182.1253
  97   2.0000      -6.692870      -182.1222
  98   2.0000      -6.691910      -182.0961
  99   2.0000      -6.691775      -182.0924
 100   2.0000      -6.690557      -182.0593
 101   2.0000      -1.390006       -37.8240
 102   2.0000      -1.387947       -37.7680
 103   2.0000      -1.347052       -36.6551
 104   2.0000      -1.334288       -36.3078
 105   2.0000      -1.328165       -36.1412
 106   2.0000      -1.238806       -33.7096
 107   2.0000      -1.238602       -33.7041
 108   2.0000      -1.221926       -33.2503
 109   2.0000      -1.220891       -33.2221
 110   2.0000      -1.220370       -33.2080
 111   2.0000      -1.219836       -33.1934
 112   2.0000      -1.216154       -33.0932
 113   2.0000      -1.214493       -33.0480
 114   2.0000      -1.191219       -32.4147
 115   2.0000      -1.189580       -32.3701
 116   2.0000      -1.188924       -32.3523
 117   2.0000      -1.162039       -31.6207
 118   2.0000      -1.149427       -31.2775
 119   2.0000      -1.141582       -31.0640
 120   2.0000      -1.123534       -30.5729
 121   2.0000      -1.121190       -30.5091
 122   2.0000      -1.099530       -29.9197
 123   2.0000      -1.089980       -29.6599
 124   2.0000      -1.083795       -29.4916
 125   2.0000      -1.078383       -29.3443
 126   2.0000      -1.075156       -29.2565
 127   2.0000      -1.066981       -29.0340
 128   2.0000      -1.065518       -28.9942
 129   2.0000      -1.063563       -28.9410
 130   2.0000      -1.049135       -28.5484
 131   2.0000      -1.045230       -28.4422
 132   2.0000      -1.028992       -28.0003
 133   2.0000      -1.023522       -27.8515
 134   2.0000      -1.003677       -27.3114
 135   2.0000      -0.999061       -27.1858
 136   2.0000      -0.990910       -26.9640
 137   2.0000      -0.990134       -26.9429
 138   2.0000      -0.990039       -26.9403
 139   2.0000      -0.974851       -26.5270
 140   2.0000      -0.964715       -26.2512
 141   2.0000      -0.954906       -25.9843
 142   2.0000      -0.941055       -25.6074
 143   2.0000      -0.922866       -25.1125
 144   2.0000      -0.908821       -24.7303
 145   2.0000      -0.904403       -24.6101
 146   2.0000      -0.898664       -24.4539
 147   2.0000      -0.894052       -24.3284
 148   2.0000      -0.879897       -23.9432
 149   2.0000      -0.869669       -23.6649
 150   2.0000      -0.865702       -23.5570
 151   2.0000      -0.861096       -23.4316
 152   2.0000      -0.850985       -23.1565
 153   2.0000      -0.837140       -22.7797
 154   2.0000      -0.832021       -22.6404
 155   2.0000      -0.820542       -22.3281
 156   2.0000      -0.817560       -22.2469
 157   2.0000      -0.813248       -22.1296
 158   2.0000      -0.805469       -21.9179
 159   2.0000      -0.790272       -21.5044
 160   2.0000      -0.788082       -21.4448
 161   2.0000      -0.785877       -21.3848
 162   2.0000      -0.784124       -21.3371
 163   2.0000      -0.772812       -21.0293
 164   2.0000      -0.760978       -20.7073
 165   2.0000      -0.757073       -20.6010
 166   2.0000      -0.750361       -20.4184
 167   2.0000      -0.741487       -20.1769
 168   2.0000      -0.740330       -20.1454
 169   2.0000      -0.725296       -19.7363
 170   2.0000      -0.722388       -19.6572
 171   2.0000      -0.709853       -19.3161
 172   2.0000      -0.705922       -19.2091
 173   2.0000      -0.703408       -19.1407
 174   2.0000      -0.701163       -19.0796
 175   2.0000      -0.692546       -18.8451
 176   2.0000      -0.687670       -18.7124
 177   2.0000      -0.683571       -18.6009
 178   2.0000      -0.678059       -18.4509
 179   2.0000      -0.675453       -18.3800
 180   2.0000      -0.663281       -18.0488
 181   2.0000      -0.661991       -18.0137
 182   2.0000      -0.659198       -17.9377
 183   2.0000      -0.652278       -17.7494
 184   2.0000      -0.646410       -17.5897
 185   2.0000      -0.644230       -17.5304
 186   2.0000      -0.643771       -17.5179
 187   2.0000      -0.640240       -17.4218
 188   2.0000      -0.638089       -17.3633
 189   2.0000      -0.632849       -17.2207
 190   2.0000      -0.631492       -17.1838
 191   2.0000      -0.630333       -17.1522
 192   2.0000      -0.621983       -16.9250
 193   2.0000      -0.621218       -16.9042
 194   2.0000      -0.618793       -16.8382
 195   2.0000      -0.616610       -16.7788
 196   2.0000      -0.613465       -16.6932
 197   2.0000      -0.612705       -16.6726
 198   2.0000      -0.610860       -16.6223
 199   2.0000      -0.603686       -16.4271
 200   2.0000      -0.602083       -16.3835
 201   2.0000      -0.596607       -16.2345
 202   2.0000      -0.592308       -16.1175
 203   2.0000      -0.592037       -16.1102
 204   2.0000      -0.589072       -16.0295
 205   2.0000      -0.584636       -15.9087
 206   2.0000      -0.578412       -15.7394
 207   2.0000      -0.575926       -15.6717
 208   2.0000      -0.574576       -15.6350
 209   2.0000      -0.574146       -15.6233
 210   2.0000      -0.571864       -15.5612
 211   2.0000      -0.570893       -15.5348
 212   2.0000      -0.569755       -15.5038
 213   2.0000      -0.568851       -15.4792
 214   2.0000      -0.567240       -15.4354
 215   2.0000      -0.566361       -15.4115
 216   2.0000      -0.564485       -15.3604
 217   2.0000      -0.561346       -15.2750
 218   2.0000      -0.561000       -15.2656
 219   2.0000      -0.557731       -15.1766
 220   2.0000      -0.554518       -15.0892
 221   2.0000      -0.554337       -15.0843
 222   2.0000      -0.547611       -14.9012
 223   2.0000      -0.542887       -14.7727
 224   2.0000      -0.542738       -14.7687
 225   2.0000      -0.540615       -14.7109
 226   2.0000      -0.536324       -14.5941
 227   2.0000      -0.536019       -14.5858
 228   2.0000      -0.535469       -14.5708
 229   2.0000      -0.531992       -14.4762
 230   2.0000      -0.528214       -14.3734
 231   2.0000      -0.525501       -14.2996
 232   2.0000      -0.519787       -14.1441
 233   2.0000      -0.513337       -13.9686
 234   2.0000      -0.506202       -13.7745
 235   2.0000      -0.502714       -13.6795
 236   2.0000      -0.500937       -13.6312
 237   2.0000      -0.500380       -13.6160
 238   2.0000      -0.499275       -13.5860
 239   2.0000      -0.494884       -13.4665
 240   2.0000      -0.493325       -13.4240
 241   2.0000      -0.492630       -13.4051
 242   2.0000      -0.490204       -13.3391
 243   2.0000      -0.489669       -13.3246
 244   2.0000      -0.489520       -13.3205
 245   2.0000      -0.487091       -13.2544
 246   2.0000      -0.485651       -13.2152
 247   2.0000      -0.482832       -13.1385
 248   2.0000      -0.481197       -13.0940
 249   2.0000      -0.474423       -12.9097
 250   2.0000      -0.473054       -12.8724
 251   2.0000      -0.469584       -12.7780
 252   2.0000      -0.469421       -12.7736
 253   2.0000      -0.462813       -12.5938
 254   2.0000      -0.455471       -12.3940
 255   2.0000      -0.446859       -12.1596
 256   2.0000      -0.442835       -12.0502
 257   2.0000      -0.438723       -11.9383
 258   2.0000      -0.438516       -11.9326
 259   2.0000      -0.418977       -11.4009
 260   2.0000      -0.418058       -11.3759
 261   2.0000      -0.400947       -10.9103
 262   2.0000      -0.392786       -10.6882
 263   2.0000      -0.381073       -10.3695
 264   2.0000      -0.376078       -10.2336
 265   2.0000      -0.351689        -9.5700
 266   2.0000      -0.345016        -9.3884
 267   2.0000      -0.344079        -9.3629
 268   2.0000      -0.342747        -9.3266
 269   2.0000      -0.329353        -8.9621
 270   2.0000      -0.322476        -8.7750
 271   2.0000      -0.322071        -8.7640
 272   2.0000      -0.313662        -8.5352
 273   2.0000      -0.304638        -8.2896
 274   2.0000      -0.257333        -7.0024
 275   0.0000      -0.026077        -0.7096
 276   0.0000      -0.014183        -0.3859
 277   0.0000       0.014118         0.3842
 278   0.0000       0.024990         0.6800
 279   0.0000       0.034576         0.9409

MULLIKEN ATOMIC CHARGES
-----------------------
   0 C :    0.500038
   1 O :   -0.377372
   2 C :   -0.202465
   3 C :    0.056625
   4 C :   -0.044337
   5 C :   -0.127161
   6 C :    0.028337
   7 C :   -0.045243
   8 C :    0.228097
   9 C :   -0.346884
  10 C :    0.049310
  11 N :   -0.095280
  12 C :    0.032601
  13 N :   -0.086129
  14 C :   -0.265525
  15 C :    0.126780
  16 C :   -0.237595
  17 S :    0.168926
  18 C :   -0.018465
  19 C :   -0.142221
  20 C :   -0.043330
  21 C :    0.013820
  22 C :   -0.032136
  23 S :    0.242426
  24 C :    0.014608
  25 C :    0.124484
  26 N :   -0.592720
  27 C :    0.121497
  28 C :   -0.052623
  29 C :    0.228682
  30 C :   -0.207408
  31 C :    0.156365
  32 N :   -0.465411
  33 S :    0.542683
  34 N :   -0.466739
  35 C :    0.152750
  36 C :   -0.208838
  37 C :    0.243946
  38 N :   -0.598368
  39 C :    0.099545
  40 C :   -0.056614
  41 C :    0.148831
  42 C :    0.016617
  43 S :    0.226124
  44 C :   -0.111792
  45 C :   -0.019681
  46 S :    0.175394
  47 C :   -0.240359
  48 C :   -0.044272
  49 C :   -0.004126
  50 C :   -0.051162
  51 C :    0.177454
  52 C :   -0.330167
  53 C :    0.235144
  54 C :   -0.362905
  55 C :    0.058562
  56 N :   -0.092084
  57 C :    0.038522
  58 N :   -0.067810
  59 C :   -0.062223
  60 C :    0.022806
  61 C :   -0.122789
  62 C :   -0.051040
  63 C :    0.060189
  64 C :   -0.171517
  65 C :    0.452678
  66 O :   -0.370884
  67 C :   -0.003009
  68 C :   -0.065470
  69 S :    0.121048
  70 S :    0.122764
  71 C :   -0.063613
  72 C :   -0.004992
  73 H :    0.097971
  74 H :    0.097622
  75 H :    0.061146
  76 H :    0.082487
  77 H :    0.100812
  78 H :    0.087123
  79 H :    0.048804
  80 H :    0.043664
  81 H :    0.048669
  82 H :    0.041723
  83 H :    0.040558
  84 H :    0.065108
  85 H :    0.055354
  86 H :    0.054227
  87 H :    0.063377
  88 H :    0.068117
  89 H :    0.073786
  90 H :    0.050569
  91 H :    0.064789
  92 H :    0.055594
  93 H :    0.074665
  94 H :    0.060605
  95 H :    0.061747
  96 H :    0.054925
  97 H :    0.049802
  98 H :    0.098070
  99 H :    0.080741
 100 H :    0.061982
 101 H :    0.060710
 102 H :    0.060361
Sum of atomic charges:    0.0000000

LOEWDIN ATOMIC CHARGES
----------------------
   0 C :    0.167783
   1 O :   -0.236043
   2 C :   -0.064407
   3 C :    0.031071
   4 C :   -0.034965
   5 C :   -0.141735
   6 C :    0.005991
   7 C :   -0.037249
   8 C :    0.126022
   9 C :   -0.182011
  10 C :    0.021575
  11 N :   -0.105527
  12 C :    0.012628
  13 N :   -0.103814
  14 C :   -0.152905
  15 C :    0.105087
  16 C :   -0.203360
  17 S :    0.397147
  18 C :   -0.175653
  19 C :   -0.198979
  20 C :    0.027314
  21 C :   -0.016596
  22 C :   -0.027138
  23 S :    0.403653
  24 C :   -0.158106
  25 C :   -0.022104
  26 N :   -0.054236
  27 C :    0.075907
  28 C :   -0.040022
  29 C :    0.043116
  30 C :   -0.081560
  31 C :   -0.023203
  32 N :   -0.310263
  33 S :    0.584451
  34 N :   -0.312527
  35 C :   -0.019673
  36 C :   -0.090668
  37 C :    0.046103
  38 N :   -0.035104
  39 C :    0.072326
  40 C :   -0.044488
  41 C :   -0.020198
  42 C :   -0.158541
  43 S :    0.406337
  44 C :   -0.191342
  45 C :   -0.172046
  46 S :    0.409003
  47 C :   -0.207930
  48 C :    0.015868
  49 C :   -0.017054
  50 C :   -0.030407
  51 C :    0.100688
  52 C :   -0.155211
  53 C :    0.114693
  54 C :   -0.178592
  55 C :    0.017931
  56 N :   -0.103824
  57 C :    0.012842
  58 N :   -0.091767
  59 C :   -0.030892
  60 C :    0.000037
  61 C :   -0.139623
  62 C :   -0.038330
  63 C :    0.035189
  64 C :   -0.069282
  65 C :    0.169886
  66 O :   -0.243733
  67 C :   -0.058274
  68 C :   -0.134085
  69 S :    0.388109
  70 S :    0.388759
  71 C :   -0.132540
  72 C :   -0.059314
  73 H :    0.035131
  74 H :    0.035088
  75 H :    0.045690
  76 H :    0.045096
  77 H :    0.046664
  78 H :    0.032872
  79 H :    0.026664
  80 H :    0.020762
  81 H :    0.023378
  82 H :    0.018829
  83 H :    0.018133
  84 H :    0.020450
  85 H :    0.025842
  86 H :    0.028958
  87 H :    0.028493
  88 H :    0.024071
  89 H :    0.025783
  90 H :    0.020987
  91 H :    0.020290
  92 H :    0.030322
  93 H :    0.039724
  94 H :    0.025173
  95 H :    0.024171
  96 H :    0.015037
  97 H :    0.026534
  98 H :    0.054269
  99 H :    0.044982
 100 H :    0.046420
 101 H :    0.038143
 102 H :    0.037852

  Mayer bond orders larger than 0.100000
B(  0-C ,  1-O ) :   2.0341 B(  0-C ,  2-C ) :   0.9711 B(  0-C , 14-C ) :   0.9790
B(  2-C ,  3-C ) :   1.5119 B(  2-C ,  7-C ) :   1.2865 B(  3-C ,  4-C ) :   1.3073
B(  3-C , 75-H ) :   1.0059 B(  4-C ,  5-C ) :   1.3237 B(  4-C , 72-C ) :   1.1589
B(  5-C ,  6-C ) :   1.3944 B(  5-C , 70-S ) :   1.0791 B(  6-C ,  7-C ) :   1.4759
B(  6-C , 76-H ) :   0.9830 B(  7-C ,  8-C ) :   1.0505 B(  8-C ,  9-C ) :   1.6694
B(  8-C , 14-C ) :   1.0903 B(  9-C , 10-C ) :   1.0566 B(  9-C , 12-C ) :   1.0599
B( 10-C , 11-N ) :   2.9746 B( 12-C , 13-N ) :   2.9873 B( 14-C , 15-C ) :   1.6808
B( 15-C , 16-C ) :   1.1958 B( 15-C , 77-H ) :   0.9410 B( 16-C , 17-S ) :   1.0695
B( 16-C , 20-C ) :   1.5442 B( 17-S , 18-C ) :   1.0518 B( 18-C , 19-C ) :   1.5038
B( 18-C , 25-C ) :   1.3367 B( 19-C , 20-C ) :   1.3963 B( 19-C , 23-S ) :   1.0032
B( 20-C , 21-C ) :   0.9843 B( 21-C , 22-C ) :   1.0336 B( 21-C , 78-H ) :   0.9522
B( 21-C , 79-H ) :   0.9614 B( 22-C , 80-H ) :   0.9826 B( 22-C , 81-H ) :   0.9868
B( 22-C , 82-H ) :   0.9827 B( 23-S , 24-C ) :   0.9904 B( 24-C , 25-C ) :   1.4934
B( 24-C , 30-C ) :   1.3890 B( 25-C , 26-N ) :   1.0657 B( 26-N , 27-C ) :   0.8625
B( 26-N , 29-C ) :   1.0749 B( 27-C , 28-C ) :   1.0367 B( 27-C , 83-H ) :   0.9832
B( 27-C , 84-H ) :   0.9750 B( 28-C , 85-H ) :   0.9784 B( 28-C , 86-H ) :   0.9830
B( 28-C , 87-H ) :   0.9803 B( 29-C , 30-C ) :   1.5023 B( 29-C , 37-C ) :   1.1550
B( 30-C , 31-C ) :   1.1105 B( 31-C , 32-N ) :   1.6216 B( 31-C , 35-C ) :   1.0987
B( 32-N , 33-S ) :   1.1617 B( 32-N , 34-N ) :   0.1041 B( 33-S , 34-N ) :   1.1595
B( 34-N , 35-C ) :   1.6205 B( 35-C , 36-C ) :   1.1157 B( 36-C , 37-C ) :   1.4602
B( 36-C , 42-C ) :   1.4176 B( 37-C , 38-N ) :   1.1110 B( 38-N , 39-C ) :   0.8348
B( 38-N , 41-C ) :   1.0738 B( 39-C , 40-C ) :   1.0335 B( 39-C , 88-H ) :   0.9783
B( 39-C , 89-H ) :   0.9836 B( 40-C , 90-H ) :   0.9779 B( 40-C , 91-H ) :   0.9774
B( 40-C , 92-H ) :   0.9828 B( 41-C , 42-C ) :   1.4762 B( 41-C , 45-C ) :   1.3189
B( 42-C , 43-S ) :   0.9925 B( 43-S , 44-C ) :   1.0041 B( 44-C , 45-C ) :   1.5157
B( 44-C , 48-C ) :   1.3897 B( 45-C , 46-S ) :   1.0510 B( 46-S , 47-C ) :   1.0757
B( 47-C , 48-C ) :   1.5600 B( 47-C , 51-C ) :   1.1582 B( 48-C , 49-C ) :   0.9702
B( 49-C , 50-C ) :   1.0396 B( 49-C , 93-H ) :   0.9607 B( 49-C , 94-H ) :   0.9691
B( 50-C , 95-H ) :   0.9830 B( 50-C , 96-H ) :   0.9806 B( 50-C , 97-H ) :   0.9837
B( 51-C , 52-C ) :   1.7143 B( 51-C , 98-H ) :   0.9302 B( 52-C , 53-C ) :   1.0858
B( 52-C , 65-C ) :   1.0014 B( 53-C , 54-C ) :   1.6655 B( 53-C , 59-C ) :   1.0487
B( 54-C , 55-C ) :   1.0426 B( 54-C , 57-C ) :   1.0892 B( 55-C , 56-N ) :   2.9793
B( 57-C , 58-N ) :   2.9782 B( 59-C , 60-C ) :   1.4875 B( 59-C , 64-C ) :   1.2851
B( 60-C , 61-C ) :   1.3863 B( 60-C , 99-H ) :   0.9847 B( 61-C , 62-C ) :   1.3251
B( 61-C , 69-S ) :   1.0794 B( 62-C , 63-C ) :   1.3098 B( 62-C , 67-C ) :   1.1578
B( 63-C , 64-C ) :   1.5078 B( 63-C ,100-H ) :   1.0060 B( 64-C , 65-C ) :   0.9623
B( 65-C , 66-O ) :   2.0632 B( 67-C , 68-C ) :   1.7111 B( 67-C ,101-H ) :   0.9985
B( 68-C , 69-S ) :   1.1001 B( 68-C , 74-H ) :   0.9723 B( 70-S , 71-C ) :   1.1012
B( 71-C , 72-C ) :   1.7091 B( 71-C , 73-H ) :   0.9725 B( 72-C ,102-H ) :   0.9986

-----------------------------------------------------------------------------
         ABSORPTION SPECTRUM VIA TRANSITION ELECTRIC DIPOLE MOMENTS
-----------------------------------------------------------------------------
State   Energy    Wavelength  fosc         T2        TX        TY        TZ
        (cm-1)      (nm)                 (au**2)    (au)      (au)      (au)
-----------------------------------------------------------------------------
   1   22297.9    448.5   2.885595501  42.60373   0.08734  -6.52470  -0.15609
   2   26707.9    374.4   0.404240175   4.98283  -0.39980   0.48317  -2.14232
   3   32437.1    308.3   0.086593453   0.87886  -0.39130  -0.13323  -0.84142

FINAL SINGLE POINT ENERGY     -5502.884629565873

DIPOLE MOMENT
-------------
                                X             Y             Z
Electronic contribution:      3.60075       0.29094      -8.42673
Nuclear contribution   :     -0.45389       0.08694       7.72422
                        -----------------------------------------
Total Dipole Moment    :      3.14686       0.37789      -0.70251
                        -----------------------------------------
Magnitude (a.u.)       :      3.24639
Magnitude (Debye)      :      8.25167

Rotational constants in cm-1:     0.001982     0.000202     0.000192
Rotational constants in MHz :    59.407612     6.064395     5.760381

                             ****ORCA TERMINATED NORMALLY****
TOTAL RUN TIME: 0 days 11 hours 47 minutes 15 seconds 352 msec
