                         Program Version 4.2.0 -  RELEASE  -
|  1> # ORCA input file
|  2> # BTTPC-Br.out
|  3> ! Engrad Keepdens
|  4> %maxcore 1000
|  5> %tddft
|  6>   nroots 3
|  7>   # nroots is the number of states to be computed
|  8>   Iroot 1
|  9>   end
| 10> * xyz 0 1
| 11>    C       -2.01383         0.70182         0.34631
| 12>    O       -1.55451         1.81378         0.51784
| 13>    C       -1.38889        -0.57426         0.74704
| 14>    C       -0.15459        -0.76726         1.31695
| 15>    C        0.21914        -2.07753         1.63505
| 16>    C       -0.68068        -3.13646         1.36731
| 17>    C       -1.93075        -2.94051         0.79332
| 18>    C       -2.28178        -1.64078         0.48002
| 19>    C       -3.48967        -1.09500        -0.12583
| 20>    C       -4.52869        -1.82542        -0.64365
| 21>    C       -4.61048        -3.23178        -0.58604
| 22>    N       -4.73257        -4.37308        -0.56276
| 23>    C       -5.62990        -1.27872        -1.33507
| 24>    N       -6.53841        -0.90578        -1.93066
| 25>    C       -3.34471         0.34638        -0.18094
| 26>    C       -4.35139         1.23032        -0.46525
| 27>    C       -4.28450         2.61709        -0.70908
| 28>    S       -5.74202         3.50457        -0.22790
| 29>    C       -5.06271         4.98654        -0.77607
| 30>    C       -3.80588         4.77242        -1.35556
| 31>    C       -3.35388         3.44615        -1.33136
| 32>    C       -2.08805         3.05516        -2.01454
| 33>    C       -2.27150         1.94248        -3.04452
| 34>    S       -3.08209         6.23096        -1.99809
| 35>    C       -4.46694         7.11812        -1.46655
| 36>    C       -5.43480         6.33393        -0.82601
| 37>    N       -6.49370         7.11042        -0.44742
| 38>    C       -7.73314         6.48320        -0.05379
| 39>    C       -6.22870         8.41035        -0.83986
| 40>    C       -4.97180         8.42384        -1.51534
| 41>    C       -4.48232         9.57086        -2.18102
| 42>    N       -3.35596         9.71673        -2.85925
| 43>    S       -3.32822        11.20512        -3.49869
| 44>    N       -4.74899        11.72512        -2.91537
| 45>    C       -5.29821        10.74721        -2.21453
| 46>    C       -6.49022        10.76463        -1.45578
| 47>    C       -6.92821         9.64101        -0.68735
| 48>    N       -7.97404        10.04855         0.10549
| 49>    C       -8.61843         9.37849         1.20872
| 50>    C       -8.21275        11.37881        -0.13931
| 51>    C       -7.33738        11.82558        -1.13700
| 52>    S       -7.54475        13.46666        -1.60116
| 53>    C       -8.62510        13.69515        -0.13774
| 54>    C       -9.00914        12.38674         0.43366
| 55>    S      -10.16993        12.30142         1.61173
| 56>    C       -8.21446        14.80132         0.86758
| 57>    C       -9.31348        14.97387         0.18059
| 58>    C      -10.42678        15.80256        -0.27568
| 59>    C      -10.33656        16.05007        -1.78207
| 60>    C       -7.18490        14.87460         1.82378
| 61>    C       -5.86476        14.73232         1.55448
| 62>    C       -5.15491        14.75735         0.28624
| 63>    C       -5.41408        15.58569        -0.76822
| 64>    C       -4.59580        15.65921        -1.91603
| 65>    N       -3.94535        15.75865        -2.85521
| 66>    C       -6.49428        16.49009        -0.78798
| 67>    N       -7.35497        17.24791        -0.83085
| 68>    C       -3.98609        13.90749         0.44351
| 69>    C       -3.13871        13.37436        -0.50746
| 70>    C       -2.12327        12.54614        -0.04682
| 71>    C       -1.92724        12.26492         1.32857
| 72>    C       -2.79050        12.82386         2.27707
| 73>    C       -3.81301        13.62254         1.82215
| 74>    C       -4.91272        14.24116         2.59359
| 75>    O       -5.06167        14.27299         3.79155
| 76>    C       -8.85669         6.64434        -1.09183
| 77>    C       -7.66735         9.02616         2.36361
| 78>    C       -8.52874         5.91218        -2.40351
| 79>    C       -7.78177         6.76277        -3.42586
| 80>    C      -10.16811         6.11656        -0.48861
| 81>    C      -11.39994         6.68111        -1.18641
| 82>    C       -7.07892        10.28647         3.01575
| 83>    C       -5.79886        10.79622         2.36195
| 84>    C       -8.44661         8.20111         3.40040
| 85>    C       -7.53513         7.38196         4.30648
| 86>    C       -0.82787        11.38923         1.54300
| 87>    C       -0.23104        11.02913         0.38150
| 88>    S       -0.95764        11.72846        -1.04029
| 89>    S       -0.02212        -4.67144         1.84664
| 90>    C        1.43377        -3.88107         2.39007
| 91>    C        1.42905        -2.53705         2.22305
| 92>   Br        1.24031         9.88491         0.19563
| 93>   Br        2.82159        -4.90416         3.12820
| 94>    H        0.50366         0.06518         1.51049
| 95>    H       -2.58414        -3.77825         0.61549
| 96>    H       -5.36340         0.83918        -0.44705
| 97>    H       -1.36513         2.74108        -1.25596
| 98>    H       -1.68849         3.94366        -2.50869
| 99>    H       -2.60142         1.01847        -2.57744
|100>    H       -1.32772         1.75303        -3.54919
|101>    H       -3.00943         2.23238        -3.78959
|102>    H       -8.04892         6.85734         0.91963
|103>    H       -7.51842         5.41815         0.06914
|104>    H       -9.13700         8.49239         0.84272
|105>    H       -9.38143        10.06470         1.58527
|106>    H      -10.40876        16.74839         0.26820
|107>    H      -11.35852        15.27706        -0.04276
|108>    H       -9.42324        16.59367        -2.01197
|109>    H      -11.18825        16.63860        -2.11084
|110>    H      -10.32996        15.10857        -2.32675
|111>    H       -7.48446        14.87429         2.86779
|112>    H       -3.27150        13.56072        -1.56058
|113>    H       -2.66567        12.62257         3.32959
|114>    H       -8.97895         7.71051        -1.31303
|115>    H       -6.83840         8.42031         1.98004
|116>    H       -9.46394         5.58791        -2.86181
|117>    H       -7.95124         5.01148        -2.18309
|118>    H       -8.33071         7.67918        -3.63408
|119>    H       -7.67789         6.21167        -4.35762
|120>    H       -6.78570         7.03217        -3.08748
|121>    H      -10.22280         6.38202         0.57046
|122>    H      -10.17374         5.02672        -0.54870
|123>    H      -11.43172         7.76432        -1.08722
|124>    H      -12.30334         6.27152        -0.74201
|125>    H      -11.40177         6.43577        -2.24513
|126>    H       -6.84811        10.06160         4.05774
|127>    H       -7.82954        11.07900         3.01816
|128>    H       -5.06165         9.99872         2.28258
|129>    H       -5.37491        11.58902         2.97237
|130>    H       -5.97195        11.19771         1.36606
|131>    H       -9.13142         7.51707         2.89212
|132>    H       -9.05651         8.87768         4.00111
|133>    H       -6.95592         6.66820         3.72349
|134>    H       -8.12659         6.82979         5.03231
|135>    H       -6.84250         8.01935         4.84963
|136>    H       -0.50871        11.05034         2.51166
|137>    H        2.24377        -1.89478         2.50356
|138> *
|139>
|140>                          ****END OF INPUT****

CARTESIAN COORDINATES (ANGSTROEM)
---------------------------------
  C     -2.013830    0.701820    0.346310
  O     -1.554510    1.813780    0.517840
  C     -1.388890   -0.574260    0.747040
  C     -0.154590   -0.767260    1.316950
  C      0.219140   -2.077530    1.635050
  C     -0.680680   -3.136460    1.367310
  C     -1.930750   -2.940510    0.793320
  C     -2.281780   -1.640780    0.480020
  C     -3.489670   -1.095000   -0.125830
  C     -4.528690   -1.825420   -0.643650
  C     -4.610480   -3.231780   -0.586040
  N     -4.732570   -4.373080   -0.562760
  C     -5.629900   -1.278720   -1.335070
  N     -6.538410   -0.905780   -1.930660
  C     -3.344710    0.346380   -0.180940
  C     -4.351390    1.230320   -0.465250
  C     -4.284500    2.617090   -0.709080
  S     -5.742020    3.504570   -0.227900
  C     -5.062710    4.986540   -0.776070
  C     -3.805880    4.772420   -1.355560
  C     -3.353880    3.446150   -1.331360
  C     -2.088050    3.055160   -2.014540
  C     -2.271500    1.942480   -3.044520
  S     -3.082090    6.230960   -1.998090
  C     -4.466940    7.118120   -1.466550
  C     -5.434800    6.333930   -0.826010
  N     -6.493700    7.110420   -0.447420
  C     -7.733140    6.483200   -0.053790
  C     -6.228700    8.410350   -0.839860
  C     -4.971800    8.423840   -1.515340
  C     -4.482320    9.570860   -2.181020
  N     -3.355960    9.716730   -2.859250
  S     -3.328220   11.205120   -3.498690
  N     -4.748990   11.725120   -2.915370
  C     -5.298210   10.747210   -2.214530
  C     -6.490220   10.764630   -1.455780
  C     -6.928210    9.641010   -0.687350
  N     -7.974040   10.048550    0.105490
  C     -8.618430    9.378490    1.208720
  C     -8.212750   11.378810   -0.139310
  C     -7.337380   11.825580   -1.137000
  S     -7.544750   13.466660   -1.601160
  C     -8.625100   13.695150   -0.137740
  C     -9.009140   12.386740    0.433660
  S    -10.169930   12.301420    1.611730
  C     -8.214460   14.801320    0.867580
  C     -9.313480   14.973870    0.180590
  C    -10.426780   15.802560   -0.275680
  C    -10.336560   16.050070   -1.782070
  C     -7.184900   14.874600    1.823780
  C     -5.864760   14.732320    1.554480
  C     -5.154910   14.757350    0.286240
  C     -5.414080   15.585690   -0.768220
  C     -4.595800   15.659210   -1.916030
  N     -3.945350   15.758650   -2.855210
  C     -6.494280   16.490090   -0.787980
  N     -7.354970   17.247910   -0.830850
  C     -3.986090   13.907490    0.443510
  C     -3.138710   13.374360   -0.507460
  C     -2.123270   12.546140   -0.046820
  C     -1.927240   12.264920    1.328570
  C     -2.790500   12.823860    2.277070
  C     -3.813010   13.622540    1.822150
  C     -4.912720   14.241160    2.593590
  O     -5.061670   14.272990    3.791550
  C     -8.856690    6.644340   -1.091830
  C     -7.667350    9.026160    2.363610
  C     -8.528740    5.912180   -2.403510
  C     -7.781770    6.762770   -3.425860
  C    -10.168110    6.116560   -0.488610
  C    -11.399940    6.681110   -1.186410
  C     -7.078920   10.286470    3.015750
  C     -5.798860   10.796220    2.361950
  C     -8.446610    8.201110    3.400400
  C     -7.535130    7.381960    4.306480
  C     -0.827870   11.389230    1.543000
  C     -0.231040   11.029130    0.381500
  S     -0.957640   11.728460   -1.040290
  S     -0.022120   -4.671440    1.846640
  C      1.433770   -3.881070    2.390070
  C      1.429050   -2.537050    2.223050
  Br     1.240310    9.884910    0.195630
  Br     2.821590   -4.904160    3.128200
  H      0.503660    0.065180    1.510490
  H     -2.584140   -3.778250    0.615490
  H     -5.363400    0.839180   -0.447050
  H     -1.365130    2.741080   -1.255960
  H     -1.688490    3.943660   -2.508690
  H     -2.601420    1.018470   -2.577440
  H     -1.327720    1.753030   -3.549190
  H     -3.009430    2.232380   -3.789590
  H     -8.048920    6.857340    0.919630
  H     -7.518420    5.418150    0.069140
  H     -9.137000    8.492390    0.842720
  H     -9.381430   10.064700    1.585270
  H    -10.408760   16.748390    0.268200
  H    -11.358520   15.277060   -0.042760
  H     -9.423240   16.593670   -2.011970
  H    -11.188250   16.638600   -2.110840
  H    -10.329960   15.108570   -2.326750
  H     -7.484460   14.874290    2.867790
  H     -3.271500   13.560720   -1.560580
  H     -2.665670   12.622570    3.329590
  H     -8.978950    7.710510   -1.313030
  H     -6.838400    8.420310    1.980040
  H     -9.463940    5.587910   -2.861810
  H     -7.951240    5.011480   -2.183090
  H     -8.330710    7.679180   -3.634080
  H     -7.677890    6.211670   -4.357620
  H     -6.785700    7.032170   -3.087480
  H    -10.222800    6.382020    0.570460
  H    -10.173740    5.026720   -0.548700
  H    -11.431720    7.764320   -1.087220
  H    -12.303340    6.271520   -0.742010
  H    -11.401770    6.435770   -2.245130
  H     -6.848110   10.061600    4.057740
  H     -7.829540   11.079000    3.018160
  H     -5.061650    9.998720    2.282580
  H     -5.374910   11.589020    2.972370
  H     -5.971950   11.197710    1.366060
  H     -9.131420    7.517070    2.892120
  H     -9.056510    8.877680    4.001110
  H     -6.955920    6.668200    3.723490
  H     -8.126590    6.829790    5.032310
  H     -6.842500    8.019350    4.849630
  H     -0.508710   11.050340    2.511660
  H      2.243770   -1.894780    2.503560

 Total Charge           Charge          ....    0
 Multiplicity           Mult            ....    1
 Number of Electrons    NEL             ....  682
 Basis Dimension        Dim             .... 1446

ORBITAL ENERGIES
----------------

  NO   OCC          E(Eh)            E(eV)
   0   2.0000    -490.009243    -13333.8294
   1   2.0000    -490.006662    -13333.7591
   2   2.0000     -92.025453     -2504.1399
   3   2.0000     -91.985919     -2503.0641
   4   2.0000     -91.984775     -2503.0330
   5   2.0000     -91.983181     -2502.9896
   6   2.0000     -91.977220     -2502.8274
   7   2.0000     -91.952572     -2502.1567
   8   2.0000     -91.880255     -2500.1888
   9   2.0000     -65.177628     -1773.5734
  10   2.0000     -65.175065     -1773.5037
  11   2.0000     -58.549749     -1593.2197
  12   2.0000     -58.547978     -1593.1715
  13   2.0000     -58.547964     -1593.1711
  14   2.0000     -58.547182     -1593.1498
  15   2.0000     -58.545418     -1593.1018
  16   2.0000     -58.545404     -1593.1014
  17   2.0000     -20.571781      -559.7866
  18   2.0000     -20.567390      -559.6671
  19   2.0000     -15.660592      -426.1464
  20   2.0000     -15.656503      -426.0351
  21   2.0000     -15.617011      -424.9605
  22   2.0000     -15.614620      -424.8954
  23   2.0000     -15.594012      -424.3346
  24   2.0000     -15.590774      -424.2465
  25   2.0000     -15.590424      -424.2370
  26   2.0000     -15.589287      -424.2061
  27   2.0000     -11.369134      -309.3699
  28   2.0000     -11.365062      -309.2591
  29   2.0000     -11.350791      -308.8707
  30   2.0000     -11.347781      -308.7888
  31   2.0000     -11.343236      -308.6652
  32   2.0000     -11.340329      -308.5860
  33   2.0000     -11.337726      -308.5152
  34   2.0000     -11.334200      -308.4193
  35   2.0000     -11.328988      -308.2774
  36   2.0000     -11.324765      -308.1625
  37   2.0000     -11.323774      -308.1355
  38   2.0000     -11.323609      -308.1311
  39   2.0000     -11.319883      -308.0297
  40   2.0000     -11.318204      -307.9840
  41   2.0000     -11.316311      -307.9325
  42   2.0000     -11.314371      -307.8797
  43   2.0000     -11.313938      -307.8679
  44   2.0000     -11.312991      -307.8421
  45   2.0000     -11.312743      -307.8354
  46   2.0000     -11.312206      -307.8208
  47   2.0000     -11.307517      -307.6932
  48   2.0000     -11.303837      -307.5930
  49   2.0000     -11.303579      -307.5860
  50   2.0000     -11.303469      -307.5830
  51   2.0000     -11.301639      -307.5332
  52   2.0000     -11.301345      -307.5252
  53   2.0000     -11.300343      -307.4980
  54   2.0000     -11.299579      -307.4772
  55   2.0000     -11.299076      -307.4635
  56   2.0000     -11.295317      -307.3612
  57   2.0000     -11.295213      -307.3584
  58   2.0000     -11.294917      -307.3503
  59   2.0000     -11.294469      -307.3381
  60   2.0000     -11.293991      -307.3251
  61   2.0000     -11.293902      -307.3227
  62   2.0000     -11.293812      -307.3203
  63   2.0000     -11.293114      -307.3013
  64   2.0000     -11.292376      -307.2812
  65   2.0000     -11.291757      -307.2643
  66   2.0000     -11.290039      -307.2176
  67   2.0000     -11.288990      -307.1890
  68   2.0000     -11.288858      -307.1854
  69   2.0000     -11.284093      -307.0558
  70   2.0000     -11.283563      -307.0413
  71   2.0000     -11.282150      -307.0029
  72   2.0000     -11.279984      -306.9440
  73   2.0000     -11.279601      -306.9336
  74   2.0000     -11.279141      -306.9210
  75   2.0000     -11.277734      -306.8828
  76   2.0000     -11.273231      -306.7602
  77   2.0000     -11.255902      -306.2887
  78   2.0000     -11.255598      -306.2804
  79   2.0000     -11.249093      -306.1034
  80   2.0000     -11.246881      -306.0432
  81   2.0000     -11.245637      -306.0094
  82   2.0000     -11.240067      -305.8578
  83   2.0000     -11.239856      -305.8520
  84   2.0000     -11.237961      -305.8005
  85   2.0000     -11.234400      -305.7036
  86   2.0000     -11.232587      -305.6542
  87   2.0000     -11.230207      -305.5895
  88   2.0000     -11.228743      -305.5496
  89   2.0000     -11.228077      -305.5315
  90   2.0000     -11.225911      -305.4726
  91   2.0000      -9.869371      -268.5592
  92   2.0000      -9.866830      -268.4901
  93   2.0000      -9.057130      -246.4570
  94   2.0000      -9.022217      -245.5070
  95   2.0000      -9.019754      -245.4400
  96   2.0000      -9.019452      -245.4318
  97   2.0000      -9.011672      -245.2200
  98   2.0000      -8.988512      -244.5899
  99   2.0000      -8.916542      -242.6314
 100   2.0000      -7.486597      -203.7207
 101   2.0000      -7.484059      -203.6516
 102   2.0000      -7.476595      -203.4485
 103   2.0000      -7.476519      -203.4464
 104   2.0000      -7.474066      -203.3797
 105   2.0000      -7.473984      -203.3774
 106   2.0000      -6.744456      -183.5260
 107   2.0000      -6.742640      -183.4766
 108   2.0000      -6.740941      -183.4303
 109   2.0000      -6.709622      -182.5781
 110   2.0000      -6.708525      -182.5483
 111   2.0000      -6.707393      -182.5174
 112   2.0000      -6.706813      -182.5017
 113   2.0000      -6.706367      -182.4895
 114   2.0000      -6.706274      -182.4870
 115   2.0000      -6.705713      -182.4717
 116   2.0000      -6.704210      -182.4308
 117   2.0000      -6.703558      -182.4131
 118   2.0000      -6.699197      -182.2944
 119   2.0000      -6.698384      -182.2723
 120   2.0000      -6.696038      -182.2084
 121   2.0000      -6.676075      -181.6652
 122   2.0000      -6.674983      -181.6355
 123   2.0000      -6.672614      -181.5710
 124   2.0000      -6.604756      -179.7246
 125   2.0000      -6.602424      -179.6611
 126   2.0000      -6.600931      -179.6205
 127   2.0000      -3.229509       -87.8794
 128   2.0000      -3.226967       -87.8102
 129   2.0000      -3.224922       -87.7546
 130   2.0000      -3.224816       -87.7517
 131   2.0000      -3.222376       -87.6853
 132   2.0000      -3.222275       -87.6826
 133   2.0000      -3.213835       -87.4529
 134   2.0000      -3.213834       -87.4529
 135   2.0000      -3.211308       -87.3841
 136   2.0000      -3.211306       -87.3841
 137   2.0000      -1.403753       -38.1981
 138   2.0000      -1.399359       -38.0785
 139   2.0000      -1.365752       -37.1640
 140   2.0000      -1.354838       -36.8670
 141   2.0000      -1.345635       -36.6166
 142   2.0000      -1.256197       -34.1829
 143   2.0000      -1.253439       -34.1078
 144   2.0000      -1.239660       -33.7329
 145   2.0000      -1.239584       -33.7308
 146   2.0000      -1.237570       -33.6760
 147   2.0000      -1.235345       -33.6155
 148   2.0000      -1.227770       -33.4093
 149   2.0000      -1.226636       -33.3785
 150   2.0000      -1.210681       -32.9443
 151   2.0000      -1.210487       -32.9390
 152   2.0000      -1.199449       -32.6387
 153   2.0000      -1.178809       -32.0770
 154   2.0000      -1.162496       -31.6331
 155   2.0000      -1.155495       -31.4426
 156   2.0000      -1.146394       -31.1950
 157   2.0000      -1.143505       -31.1163
 158   2.0000      -1.122407       -30.5423
 159   2.0000      -1.113733       -30.3062
 160   2.0000      -1.106701       -30.1149
 161   2.0000      -1.103512       -30.0281
 162   2.0000      -1.094445       -29.7814
 163   2.0000      -1.089372       -29.6433
 164   2.0000      -1.087407       -29.5898
 165   2.0000      -1.081970       -29.4419
 166   2.0000      -1.081190       -29.4207
 167   2.0000      -1.078444       -29.3460
 168   2.0000      -1.054839       -28.7036
 169   2.0000      -1.053303       -28.6618
 170   2.0000      -1.043520       -28.3956
 171   2.0000      -1.035606       -28.1803
 172   2.0000      -1.032196       -28.0875
 173   2.0000      -1.026967       -27.9452
 174   2.0000      -1.026827       -27.9414
 175   2.0000      -1.022650       -27.8277
 176   2.0000      -1.008903       -27.4537
 177   2.0000      -1.007664       -27.4199
 178   2.0000      -1.002589       -27.2818
 179   2.0000      -0.993031       -27.0217
 180   2.0000      -0.980101       -26.6699
 181   2.0000      -0.966421       -26.2977
 182   2.0000      -0.956938       -26.0396
 183   2.0000      -0.950353       -25.8604
 184   2.0000      -0.933087       -25.3906
 185   2.0000      -0.925100       -25.1732
 186   2.0000      -0.923311       -25.1246
 187   2.0000      -0.913514       -24.8580
 188   2.0000      -0.908102       -24.7107
 189   2.0000      -0.894424       -24.3385
 190   2.0000      -0.884138       -24.0586
 191   2.0000      -0.876857       -23.8605
 192   2.0000      -0.870638       -23.6913
 193   2.0000      -0.869135       -23.6504
 194   2.0000      -0.860140       -23.4056
 195   2.0000      -0.849891       -23.1267
 196   2.0000      -0.845446       -23.0058
 197   2.0000      -0.841951       -22.9107
 198   2.0000      -0.838885       -22.8272
 199   2.0000      -0.834904       -22.7189
 200   2.0000      -0.832296       -22.6479
 201   2.0000      -0.822328       -22.3767
 202   2.0000      -0.813712       -22.1422
 203   2.0000      -0.804462       -21.8905
 204   2.0000      -0.795451       -21.6453
 205   2.0000      -0.793478       -21.5916
 206   2.0000      -0.791990       -21.5511
 207   2.0000      -0.790607       -21.5135
 208   2.0000      -0.775849       -21.1119
 209   2.0000      -0.767586       -20.8871
 210   2.0000      -0.764537       -20.8041
 211   2.0000      -0.759419       -20.6648
 212   2.0000      -0.758029       -20.6270
 213   2.0000      -0.751225       -20.4419
 214   2.0000      -0.747207       -20.3325
 215   2.0000      -0.730840       -19.8872
 216   2.0000      -0.725155       -19.7325
 217   2.0000      -0.724082       -19.7033
 218   2.0000      -0.712825       -19.3970
 219   2.0000      -0.712008       -19.3747
 220   2.0000      -0.707887       -19.2626
 221   2.0000      -0.697811       -18.9884
 222   2.0000      -0.695209       -18.9176
 223   2.0000      -0.692817       -18.8525
 224   2.0000      -0.688668       -18.7396
 225   2.0000      -0.686035       -18.6680
 226   2.0000      -0.677892       -18.4464
 227   2.0000      -0.674745       -18.3608
 228   2.0000      -0.666064       -18.1245
 229   2.0000      -0.661346       -17.9961
 230   2.0000      -0.657224       -17.8840
 231   2.0000      -0.655422       -17.8349
 232   2.0000      -0.651884       -17.7387
 233   2.0000      -0.649585       -17.6761
 234   2.0000      -0.647808       -17.6277
 235   2.0000      -0.645796       -17.5730
 236   2.0000      -0.643499       -17.5105
 237   2.0000      -0.642104       -17.4725
 238   2.0000      -0.639732       -17.4080
 239   2.0000      -0.638398       -17.3717
 240   2.0000      -0.634051       -17.2534
 241   2.0000      -0.633607       -17.2413
 242   2.0000      -0.631031       -17.1712
 243   2.0000      -0.630687       -17.1619
 244   2.0000      -0.627771       -17.0825
 245   2.0000      -0.622331       -16.9345
 246   2.0000      -0.619975       -16.8704
 247   2.0000      -0.616509       -16.7761
 248   2.0000      -0.612756       -16.6739
 249   2.0000      -0.611465       -16.6388
 250   2.0000      -0.605328       -16.4718
 251   2.0000      -0.602265       -16.3885
 252   2.0000      -0.601436       -16.3659
 253   2.0000      -0.599292       -16.3076
 254   2.0000      -0.596918       -16.2430
 255   2.0000      -0.593005       -16.1365
 256   2.0000      -0.590829       -16.0773
 257   2.0000      -0.588730       -16.0202
 258   2.0000      -0.588283       -16.0080
 259   2.0000      -0.584892       -15.9157
 260   2.0000      -0.582564       -15.8524
 261   2.0000      -0.580765       -15.8034
 262   2.0000      -0.577695       -15.7199
 263   2.0000      -0.577505       -15.7147
 264   2.0000      -0.575179       -15.6514
 265   2.0000      -0.574224       -15.6254
 266   2.0000      -0.574187       -15.6244
 267   2.0000      -0.569836       -15.5060
 268   2.0000      -0.568460       -15.4686
 269   2.0000      -0.566780       -15.4229
 270   2.0000      -0.561477       -15.2786
 271   2.0000      -0.560437       -15.2503
 272   2.0000      -0.555331       -15.1113
 273   2.0000      -0.550319       -14.9750
 274   2.0000      -0.549619       -14.9559
 275   2.0000      -0.545951       -14.8561
 276   2.0000      -0.545264       -14.8374
 277   2.0000      -0.543089       -14.7782
 278   2.0000      -0.542368       -14.7586
 279   2.0000      -0.540225       -14.7003
 280   2.0000      -0.539319       -14.6756
 281   2.0000      -0.535811       -14.5802
 282   2.0000      -0.533687       -14.5224
 283   2.0000      -0.530727       -14.4418
 284   2.0000      -0.523678       -14.2500
 285   2.0000      -0.520209       -14.1556
 286   2.0000      -0.518546       -14.1103
 287   2.0000      -0.517822       -14.0907
 288   2.0000      -0.516499       -14.0546
 289   2.0000      -0.516178       -14.0459
 290   2.0000      -0.514849       -14.0098
 291   2.0000      -0.510697       -13.8968
 292   2.0000      -0.509793       -13.8722
 293   2.0000      -0.508563       -13.8387
 294   2.0000      -0.507315       -13.8048
 295   2.0000      -0.505566       -13.7572
 296   2.0000      -0.503222       -13.6934
 297   2.0000      -0.501247       -13.6396
 298   2.0000      -0.500434       -13.6175
 299   2.0000      -0.499027       -13.5792
 300   2.0000      -0.498618       -13.5681
 301   2.0000      -0.495026       -13.4703
 302   2.0000      -0.493357       -13.4249
 303   2.0000      -0.491784       -13.3821
 304   2.0000      -0.489074       -13.3084
 305   2.0000      -0.485327       -13.2064
 306   2.0000      -0.483794       -13.1647
 307   2.0000      -0.481256       -13.0957
 308   2.0000      -0.479559       -13.0495
 309   2.0000      -0.476242       -12.9592
 310   2.0000      -0.472619       -12.8606
 311   2.0000      -0.472433       -12.8555
 312   2.0000      -0.470936       -12.8148
 313   2.0000      -0.468309       -12.7433
 314   2.0000      -0.466260       -12.6876
 315   2.0000      -0.463617       -12.6157
 316   2.0000      -0.454233       -12.3603
 317   2.0000      -0.451509       -12.2862
 318   2.0000      -0.448346       -12.2001
 319   2.0000      -0.446074       -12.1383
 320   2.0000      -0.443502       -12.0683
 321   2.0000      -0.443075       -12.0567
 322   2.0000      -0.441102       -12.0030
 323   2.0000      -0.432257       -11.7623
 324   2.0000      -0.426706       -11.6113
 325   2.0000      -0.419325       -11.4104
 326   2.0000      -0.408490       -11.1156
 327   2.0000      -0.398040       -10.8312
 328   2.0000      -0.389326       -10.5941
 329   2.0000      -0.379305       -10.3214
 330   2.0000      -0.365227        -9.9383
 331   2.0000      -0.354484        -9.6460
 332   2.0000      -0.353991        -9.6326
 333   2.0000      -0.348243        -9.4762
 334   2.0000      -0.337936        -9.1957
 335   2.0000      -0.332797        -9.0559
 336   2.0000      -0.328000        -8.9253
 337   2.0000      -0.325694        -8.8626
 338   2.0000      -0.319536        -8.6950
 339   2.0000      -0.303684        -8.2637
 340   2.0000      -0.270411        -7.3582
 341   0.0000      -0.029972        -0.8156
 342   0.0000      -0.013888        -0.3779
 343   0.0000       0.002782         0.0757
 344   0.0000       0.018845         0.5128
 345   0.0000       0.025106         0.6832

MULLIKEN ATOMIC CHARGES
-----------------------
   0 C :    0.506214
   1 O :   -0.379189
   2 C :   -0.187520
   3 C :    0.057895
   4 C :   -0.039444
   5 C :   -0.121450
   6 C :    0.033140
   7 C :   -0.047149
   8 C :    0.264622
   9 C :   -0.373520
  10 C :    0.037579
  11 N :   -0.071528
  12 C :    0.022284
  13 N :   -0.060305
  14 C :   -0.320214
  15 C :    0.147890
  16 C :   -0.236342
  17 S :    0.167438
  18 C :   -0.017194
  19 C :   -0.152698
  20 C :   -0.017654
  21 C :    0.010792
  22 C :   -0.038127
  23 S :    0.239346
  24 C :    0.008947
  25 C :    0.116022
  26 N :   -0.589606
  27 C :    0.292724
  28 C :    0.237204
  29 C :   -0.228511
  30 C :    0.158941
  31 N :   -0.464623
  32 S :    0.563243
  33 N :   -0.483292
  34 C :    0.181202
  35 C :   -0.252933
  36 C :    0.278880
  37 N :   -0.586761
  38 C :    0.285617
  39 C :    0.105882
  40 C :    0.069002
  41 S :    0.141543
  42 C :   -0.265233
  43 C :    0.117651
  44 S :   -0.231821
  45 C :   -0.014362
  46 C :    0.035432
  47 C :    0.025645
  48 C :   -0.065719
  49 C :    0.094872
  50 C :   -0.256277
  51 C :    0.241136
  52 C :   -0.331734
  53 C :    0.047866
  54 N :   -0.056914
  55 C :    0.052288
  56 N :   -0.068793
  57 C :   -0.069083
  58 C :    0.039479
  59 C :   -0.112082
  60 C :   -0.047395
  61 C :    0.057789
  62 C :   -0.186223
  63 C :    0.481457
  64 O :   -0.346782
  65 C :   -0.293267
  66 C :   -0.292549
  67 C :   -0.042157
  68 C :   -0.014480
  69 C :   -0.065576
  70 C :    0.001555
  71 C :   -0.034918
  72 C :   -0.041263
  73 C :   -0.067070
  74 C :    0.006551
  75 C :    0.046469
  76 C :   -0.128937
  77 S :    0.195196
  78 S :    0.194004
  79 C :   -0.129746
  80 C :    0.044611
  81 Br:    0.023173
  82 Br:    0.024064
  83 H :    0.052019
  84 H :    0.072857
  85 H :    0.096516
  86 H :    0.111565
  87 H :    0.042110
  88 H :    0.050036
  89 H :    0.042338
  90 H :    0.043080
  91 H :    0.053246
  92 H :    0.057472
  93 H :    0.038449
  94 H :    0.081878
  95 H :    0.059196
  96 H :    0.067795
  97 H :    0.070845
  98 H :    0.042719
  99 H :    0.042364
 100 H :    0.108607
 101 H :    0.078193
 102 H :    0.053447
 103 H :    0.050952
 104 H :    0.040478
 105 H :    0.039766
 106 H :    0.031774
 107 H :    0.028805
 108 H :    0.037736
 109 H :    0.054899
 110 H :    0.026533
 111 H :    0.037720
 112 H :    0.031394
 113 H :    0.039565
 114 H :    0.030254
 115 H :    0.032792
 116 H :    0.043446
 117 H :    0.022540
 118 H :    0.051771
 119 H :    0.049192
 120 H :    0.020864
 121 H :    0.043315
 122 H :    0.021524
 123 H :    0.036798
 124 H :    0.029472
 125 H :    0.053622
 126 H :    0.054853
Sum of atomic charges:   -0.0000000

LOEWDIN ATOMIC CHARGES
----------------------
   0 C :    0.165371
   1 O :   -0.231132
   2 C :   -0.060171
   3 C :    0.035445
   4 C :   -0.035614
   5 C :   -0.140745
   6 C :    0.007321
   7 C :   -0.032947
   8 C :    0.118228
   9 C :   -0.177212
  10 C :    0.014002
  11 N :   -0.095973
  12 C :    0.007265
  13 N :   -0.094927
  14 C :   -0.152968
  15 C :    0.109094
  16 C :   -0.202785
  17 S :    0.405285
  18 C :   -0.177452
  19 C :   -0.197087
  20 C :    0.027385
  21 C :   -0.019428
  22 C :   -0.024289
  23 S :    0.418397
  24 C :   -0.169858
  25 C :   -0.019454
  26 N :   -0.006306
  27 C :    0.086013
  28 C :    0.028011
  29 C :   -0.076377
  30 C :   -0.027255
  31 N :   -0.314376
  32 S :    0.610719
  33 N :   -0.323634
  34 C :   -0.017908
  35 C :   -0.117451
  36 C :    0.073290
  37 N :    0.004603
  38 C :    0.073922
  39 C :   -0.071006
  40 C :   -0.117991
  41 S :    0.339503
  42 C :   -0.145363
  43 C :   -0.099806
  44 S :   -0.091934
  45 C :   -0.013408
  46 C :    0.068257
  47 C :   -0.011579
  48 C :   -0.025430
  49 C :    0.098635
  50 C :   -0.087254
  51 C :    0.103201
  52 C :   -0.154233
  53 C :    0.015352
  54 N :   -0.082527
  55 C :    0.016729
  56 N :   -0.085845
  57 C :   -0.027548
  58 C :    0.007857
  59 C :   -0.138828
  60 C :   -0.036212
  61 C :    0.039370
  62 C :   -0.065454
  63 C :    0.167758
  64 O :   -0.219814
  65 C :   -0.037058
  66 C :   -0.038331
  67 C :   -0.015640
  68 C :   -0.032791
  69 C :   -0.016950
  70 C :   -0.027061
  71 C :   -0.015044
  72 C :   -0.038132
  73 C :   -0.016067
  74 C :   -0.028317
  75 C :   -0.061329
  76 C :   -0.260467
  77 S :    0.415180
  78 S :    0.411481
  79 C :   -0.259948
  80 C :   -0.060036
  81 Br:    0.125734
  82 Br:    0.125215
  83 H :    0.043131
  84 H :    0.043477
  85 H :    0.045894
  86 H :    0.040997
  87 H :    0.017337
  88 H :    0.015114
  89 H :    0.021936
  90 H :    0.020722
  91 H :    0.016313
  92 H :    0.017168
  93 H :    0.009999
  94 H :    0.012593
  95 H :    0.037291
  96 H :    0.040327
  97 H :    0.024358
  98 H :    0.021820
  99 H :    0.017556
 100 H :    0.065359
 101 H :    0.037204
 102 H :    0.042845
 103 H :    0.010528
 104 H :    0.003450
 105 H :    0.016935
 106 H :    0.011064
 107 H :    0.014842
 108 H :    0.020161
 109 H :    0.015989
 110 H :    0.008407
 111 H :    0.016687
 112 H :    0.016490
 113 H :    0.020436
 114 H :    0.015239
 115 H :    0.014698
 116 H :    0.012454
 117 H :    0.012673
 118 H :    0.016491
 119 H :    0.010610
 120 H :    0.006108
 121 H :    0.019971
 122 H :    0.012385
 123 H :    0.019034
 124 H :    0.015039
 125 H :    0.038269
 126 H :    0.038732

  Mayer bond orders larger than 0.100000
B(  0-C ,  1-O ) :   2.0262 B(  0-C ,  2-C ) :   0.9684 B(  0-C , 14-C ) :   0.9906
B(  2-C ,  3-C ) :   1.5078 B(  2-C ,  7-C ) :   1.2877 B(  3-C ,  4-C ) :   1.3062
B(  3-C , 83-H ) :   1.0129 B(  4-C ,  5-C ) :   1.3280 B(  4-C , 80-C ) :   1.1661
B(  5-C ,  6-C ) :   1.3923 B(  5-C , 78-S ) :   1.0754 B(  6-C ,  7-C ) :   1.4783
B(  6-C , 84-H ) :   0.9850 B(  7-C ,  8-C ) :   1.0508 B(  8-C ,  9-C ) :   1.6737
B(  8-C , 14-C ) :   1.0887 B(  9-C , 10-C ) :   1.0652 B(  9-C , 12-C ) :   1.0703
B( 10-C , 11-N ) :   2.9806 B( 12-C , 13-N ) :   2.9957 B( 14-C , 15-C ) :   1.6703
B( 15-C , 16-C ) :   1.2011 B( 15-C , 85-H ) :   0.9432 B( 16-C , 17-S ) :   1.0669
B( 16-C , 20-C ) :   1.5444 B( 17-S , 18-C ) :   1.0462 B( 18-C , 19-C ) :   1.5183
B( 18-C , 25-C ) :   1.3331 B( 19-C , 20-C ) :   1.4217 B( 19-C , 23-S ) :   1.0025
B( 20-C , 21-C ) :   0.9555 B( 21-C , 22-C ) :   1.0508 B( 21-C , 86-H ) :   0.9334
B( 21-C , 87-H ) :   0.9698 B( 22-C , 88-H ) :   0.9859 B( 22-C , 89-H ) :   0.9862
B( 22-C , 90-H ) :   0.9827 B( 23-S , 24-C ) :   0.9819 B( 24-C , 25-C ) :   1.4618
B( 24-C , 29-C ) :   1.4475 B( 25-C , 26-N ) :   1.1117 B( 26-N , 27-C ) :   0.8427
B( 26-N , 28-C ) :   1.1014 B( 27-C , 65-C ) :   1.0046 B( 27-C , 91-H ) :   0.9820
B( 27-C , 92-H ) :   0.9702 B( 28-C , 29-C ) :   1.4678 B( 28-C , 36-C ) :   1.1435
B( 29-C , 30-C ) :   1.1095 B( 30-C , 31-N ) :   1.6000 B( 30-C , 34-C ) :   1.1256
B( 31-N , 32-S ) :   1.1828 B( 32-S , 33-N ) :   1.1710 B( 33-N , 34-C ) :   1.5930
B( 34-C , 35-C ) :   1.1162 B( 35-C , 36-C ) :   1.4017 B( 35-C , 40-C ) :   1.4792
B( 36-C , 37-N ) :   1.1833 B( 37-N , 38-C ) :   0.8235 B( 37-N , 39-C ) :   1.0659
B( 38-C , 66-C ) :   1.0020 B( 38-C , 93-H ) :   0.9840 B( 38-C , 94-H ) :   0.9358
B( 39-C , 40-C ) :   1.4135 B( 39-C , 43-C ) :   1.2367 B( 40-C , 41-S ) :   0.9588
B( 41-S , 42-C ) :   0.9302 B( 42-C , 43-C ) :   0.9244 B( 42-C , 45-C ) :   0.9150
B( 42-C , 46-C ) :   0.9601 B( 43-C , 44-S ) :   1.5936 B( 45-C , 46-C ) :   1.7853
B( 45-C , 49-C ) :   0.9735 B( 46-C , 47-C ) :   0.9635 B( 47-C , 48-C ) :   1.0470
B( 47-C , 95-H ) :   0.9560 B( 47-C , 96-H ) :   0.9544 B( 48-C , 97-H ) :   0.9783
B( 48-C , 98-H ) :   0.9857 B( 48-C , 99-H ) :   0.9839 B( 49-C , 50-C ) :   1.8533
B( 49-C ,100-H ) :   0.9715 B( 50-C , 51-C ) :   1.0261 B( 50-C , 63-C ) :   0.9675
B( 51-C , 52-C ) :   1.7452 B( 51-C , 57-C ) :   1.0530 B( 52-C , 53-C ) :   1.0489
B( 52-C , 55-C ) :   1.0805 B( 53-C , 54-N ) :   3.0029 B( 55-C , 56-N ) :   2.9672
B( 57-C , 58-C ) :   1.4843 B( 57-C , 62-C ) :   1.2760 B( 58-C , 59-C ) :   1.3942
B( 58-C ,101-H ) :   0.9825 B( 59-C , 60-C ) :   1.3200 B( 59-C , 77-S ) :   1.0777
B( 60-C , 61-C ) :   1.3206 B( 60-C , 75-C ) :   1.1667 B( 61-C , 62-C ) :   1.5029
B( 61-C ,102-H ) :   1.0109 B( 62-C , 63-C ) :   0.9514 B( 63-C , 64-O ) :   2.0992
B( 65-C , 67-C ) :   0.9565 B( 65-C , 69-C ) :   1.0026 B( 65-C ,103-H ) :   0.9664
B( 66-C , 71-C ) :   0.9668 B( 66-C , 73-C ) :   1.0043 B( 66-C ,104-H ) :   0.9688
B( 67-C , 68-C ) :   1.0463 B( 67-C ,105-H ) :   0.9821 B( 67-C ,106-H ) :   0.9696
B( 68-C ,107-H ) :   0.9839 B( 68-C ,108-H ) :   0.9853 B( 68-C ,109-H ) :   0.9859
B( 69-C , 70-C ) :   1.0428 B( 69-C ,110-H ) :   0.9812 B( 69-C ,111-H ) :   0.9692
B( 70-C ,112-H ) :   0.9844 B( 70-C ,113-H ) :   0.9863 B( 70-C ,114-H ) :   0.9846
B( 71-C , 72-C ) :   1.0495 B( 71-C ,115-H ) :   0.9815 B( 71-C ,116-H ) :   0.9642
B( 72-C ,117-H ) :   0.9811 B( 72-C ,118-H ) :   0.9826 B( 72-C ,119-H ) :   0.9843
B( 73-C , 74-C ) :   1.0419 B( 73-C ,120-H ) :   0.9807 B( 73-C ,121-H ) :   0.9692
B( 74-C ,122-H ) :   0.9840 B( 74-C ,123-H ) :   0.9865 B( 74-C ,124-H ) :   0.9842
B( 75-C , 76-C ) :   1.7009 B( 75-C ,125-H ) :   1.0042 B( 76-C , 77-S ) :   1.0675
B( 76-C , 81-Br) :   1.0053 B( 78-S , 79-C ) :   1.0646 B( 79-C , 80-C ) :   1.7029
B( 79-C , 82-Br) :   1.0052 B( 80-C ,126-H ) :   1.0039

-----------------------------------------------------------------------------
         ABSORPTION SPECTRUM VIA TRANSITION ELECTRIC DIPOLE MOMENTS
-----------------------------------------------------------------------------
State   Energy    Wavelength  fosc         T2        TX        TY        TZ
        (cm-1)      (nm)                 (au**2)    (au)      (au)      (au)
-----------------------------------------------------------------------------
   1   23747.7    421.1   1.969337216  27.30069  -1.81469   4.89782   0.13777
   2   26452.4    378.0   0.013087017   0.16287   0.16787   0.33825  -0.14241
   3   29732.5    336.3   0.476387952   5.27479  -1.10558  -1.47227   1.37292

FINAL SINGLE POINT ENERGY    -10957.843571754298

DIPOLE MOMENT
-------------
                                X             Y             Z
Electronic contribution:    223.35988    -113.75258      24.17330
Nuclear contribution   :   -222.77382     114.53298     -22.75483
                        -----------------------------------------
Total Dipole Moment    :      0.58606       0.78040       1.41847
                        -----------------------------------------
Magnitude (a.u.)       :      1.72179
Magnitude (Debye)      :      4.37643

Rotational constants in cm-1:     0.001045     0.000248     0.000222
Rotational constants in MHz :    31.336179     7.429492     6.652981

                             ****ORCA TERMINATED NORMALLY****
TOTAL RUN TIME: 1 days 4 hours 52 minutes 14 seconds 369 msec
