                         Program Version 4.2.0 -  RELEASE  -
|  1> # ORCA input file
|  2> # BTTPC-Br.out: Geometry 93
|  3> ! Engrad Keepdens
|  4> %maxcore 1000
|  5> %tddft
|  6>   nroots 3
|  7>   # nroots is the number of states to be computed
|  8>   Iroot 1
|  9>   end
| 10> * xyz 0 1
| 11>    C       -3.41386        -1.38753        -0.65858
| 12>    O       -2.96078        -0.59725        -1.46209
| 13>    C       -2.74576        -2.62331        -0.16900
| 14>    C       -1.47224        -3.06169        -0.47769
| 15>    C       -1.01387        -4.24383         0.13954
| 16>    C       -1.88973        -4.93852         1.03019
| 17>    C       -3.18297        -4.49616         1.33479
| 18>    C       -3.60740        -3.31300         0.72815
| 19>    C       -4.86275        -2.54723         0.85654
| 20>    C       -6.01591        -2.96052         1.49801
| 21>    C       -6.10251        -4.20722         2.19138
| 22>    N       -6.16665        -5.21804         2.76144
| 23>    C       -7.22715        -2.19832         1.48033
| 24>    N       -8.22541        -1.60294         1.47693
| 25>    C       -4.69430        -1.29622         0.11655
| 26>    C       -5.35439        -0.11655         0.36773
| 27>    C       -5.22058         1.11276        -0.34855
| 28>    S       -5.13854         2.60019         0.62207
| 29>    C       -4.95690         3.55303        -0.80896
| 30>    C       -5.03002         2.75637        -1.96890
| 31>    C       -5.16249         1.36784        -1.72528
| 32>    C       -5.38935         0.35023        -2.80625
| 33>    C       -6.74507         0.52898        -3.50690
| 34>    S       -4.90860         3.69971        -3.45763
| 35>    C       -4.73880         5.15396        -2.50645
| 36>    C       -4.75021         4.91418        -1.12556
| 37>    N       -4.62476         6.10769        -0.43243
| 38>    C       -5.19359         6.19593         0.91356
| 39>    C       -6.70497         6.38799         0.89479
| 40>    C       -4.55757         7.13368        -1.38355
| 41>    C       -4.65429         6.55634        -2.68581
| 42>    C       -4.76481         7.38608        -3.84933
| 43>    N       -4.90295         6.98764        -5.10656
| 44>    S       -5.09387         8.35132        -6.02624
| 45>    N       -5.00070         9.48705        -4.82441
| 46>    C       -4.81860         8.83020        -3.68720
| 47>    C       -4.62101         9.39563        -2.38607
| 48>    C       -4.42445         8.55598        -1.24607
| 49>    N       -4.10709         9.36325        -0.15265
| 50>    C       -3.40828         8.99656         1.07982
| 51>    C       -4.22226         9.24304         2.34833
| 52>    C       -4.14043        10.68092        -0.57907
| 53>    C       -4.46530        10.72912        -1.94394
| 54>    S       -4.47694        12.34775        -2.59367
| 55>    C       -4.01396        12.97391        -1.00669
| 56>    C       -3.84931        11.95496        -0.04395
| 57>    S       -3.32243        12.60397         1.46678
| 58>    C       -3.36706        14.25765         0.81687
| 59>    C       -3.75550        14.28277        -0.53697
| 60>    C       -3.74547        15.49044        -1.43549
| 61>    C       -5.06508        15.74983        -2.18073
| 62>    C       -2.89446        15.26153         1.70973
| 63>    C       -3.08809        16.61723         1.84420
| 64>    C       -4.05647        17.58464         1.34924
| 65>    C       -5.34006        17.30575         0.90551
| 66>    C       -6.22086        18.31464         0.40985
| 67>    N       -6.93159        19.12724        -0.02205
| 68>    C       -5.91190        16.00428         1.01689
| 69>    N       -6.39947        14.95425         1.12248
| 70>    C       -3.52945        18.93945         1.64810
| 71>    C       -3.98686        20.21107         1.29838
| 72>    C       -3.30656        21.30836         1.84839
| 73>    C       -2.20305        21.17400         2.74660
| 74>    C       -1.74731        19.88113         3.07125
| 75>    C       -2.40394        18.80363         2.50852
| 76>    C       -2.09657        17.36467         2.69141
| 77>    O       -1.20216        16.88489         3.35829
| 78>    C       -1.70555        22.44423         3.19563
| 79>    C       -2.39776        23.48687         2.64922
| 80>    S       -3.68718        22.99481         1.56866
| 81>    S       -1.12615        -6.37120         1.68187
| 82>    C        0.33607        -6.02391         0.78099
| 83>    C        0.26150        -4.89326         0.01762
| 84>   Br        1.80930        -7.17066         0.94760
| 85>   Br       -2.09633        25.31141         2.94938
| 86>    H       -0.84675        -2.49212        -1.16856
| 87>    H       -3.81020        -5.05426         2.02784
| 88>    H       -5.97561        -0.07128         1.26804
| 89>    H       -5.32937        -0.65778        -2.38267
| 90>    H       -4.56390         0.42675        -3.53299
| 91>    H       -7.57075         0.38548        -2.79310
| 92>    H       -6.86159        -0.21086        -4.31343
| 93>    H       -6.85273         1.52984        -3.95176
| 94>    H       -4.70946         6.99890         1.46677
| 95>    H       -4.91946         5.26649         1.43410
| 96>    H       -6.97228         7.32706         0.38602
| 97>    H       -7.10005         6.42900         1.92118
| 98>    H       -7.20075         5.55867         0.36919
| 99>    H       -2.47795         9.58628         1.11838
|100>    H       -3.09363         7.94941         0.98728
|101>    H       -5.18395         8.71110         2.33060
|102>    H       -4.44535        10.31161         2.48034
|103>    H       -3.65255         8.90466         3.22787
|104>    H       -2.94865        15.32888        -2.18370
|105>    H       -3.44568        16.37632        -0.86415
|106>    H       -5.91774        15.82400        -1.49449
|107>    H       -5.29405        14.94193        -2.89154
|108>    H       -5.00119        16.68665        -2.75395
|109>    H       -2.16858        14.89752         2.45225
|110>    H       -4.83787        20.36298         0.63667
|111>    H       -0.90449        19.71930         3.74607
|112>    H       -0.87263        22.56710         3.88728
|113>    H        1.07995        -4.52634        -0.60081
|114> *
|115>
|116>                          ****END OF INPUT****

CARTESIAN COORDINATES (ANGSTROEM)
---------------------------------
  C     -3.413860   -1.387530   -0.658580
  O     -2.960780   -0.597250   -1.462090
  C     -2.745760   -2.623310   -0.169000
  C     -1.472240   -3.061690   -0.477690
  C     -1.013870   -4.243830    0.139540
  C     -1.889730   -4.938520    1.030190
  C     -3.182970   -4.496160    1.334790
  C     -3.607400   -3.313000    0.728150
  C     -4.862750   -2.547230    0.856540
  C     -6.015910   -2.960520    1.498010
  C     -6.102510   -4.207220    2.191380
  N     -6.166650   -5.218040    2.761440
  C     -7.227150   -2.198320    1.480330
  N     -8.225410   -1.602940    1.476930
  C     -4.694300   -1.296220    0.116550
  C     -5.354390   -0.116550    0.367730
  C     -5.220580    1.112760   -0.348550
  S     -5.138540    2.600190    0.622070
  C     -4.956900    3.553030   -0.808960
  C     -5.030020    2.756370   -1.968900
  C     -5.162490    1.367840   -1.725280
  C     -5.389350    0.350230   -2.806250
  C     -6.745070    0.528980   -3.506900
  S     -4.908600    3.699710   -3.457630
  C     -4.738800    5.153960   -2.506450
  C     -4.750210    4.914180   -1.125560
  N     -4.624760    6.107690   -0.432430
  C     -5.193590    6.195930    0.913560
  C     -6.704970    6.387990    0.894790
  C     -4.557570    7.133680   -1.383550
  C     -4.654290    6.556340   -2.685810
  C     -4.764810    7.386080   -3.849330
  N     -4.902950    6.987640   -5.106560
  S     -5.093870    8.351320   -6.026240
  N     -5.000700    9.487050   -4.824410
  C     -4.818600    8.830200   -3.687200
  C     -4.621010    9.395630   -2.386070
  C     -4.424450    8.555980   -1.246070
  N     -4.107090    9.363250   -0.152650
  C     -3.408280    8.996560    1.079820
  C     -4.222260    9.243040    2.348330
  C     -4.140430   10.680920   -0.579070
  C     -4.465300   10.729120   -1.943940
  S     -4.476940   12.347750   -2.593670
  C     -4.013960   12.973910   -1.006690
  C     -3.849310   11.954960   -0.043950
  S     -3.322430   12.603970    1.466780
  C     -3.367060   14.257650    0.816870
  C     -3.755500   14.282770   -0.536970
  C     -3.745470   15.490440   -1.435490
  C     -5.065080   15.749830   -2.180730
  C     -2.894460   15.261530    1.709730
  C     -3.088090   16.617230    1.844200
  C     -4.056470   17.584640    1.349240
  C     -5.340060   17.305750    0.905510
  C     -6.220860   18.314640    0.409850
  N     -6.931590   19.127240   -0.022050
  C     -5.911900   16.004280    1.016890
  N     -6.399470   14.954250    1.122480
  C     -3.529450   18.939450    1.648100
  C     -3.986860   20.211070    1.298380
  C     -3.306560   21.308360    1.848390
  C     -2.203050   21.174000    2.746600
  C     -1.747310   19.881130    3.071250
  C     -2.403940   18.803630    2.508520
  C     -2.096570   17.364670    2.691410
  O     -1.202160   16.884890    3.358290
  C     -1.705550   22.444230    3.195630
  C     -2.397760   23.486870    2.649220
  S     -3.687180   22.994810    1.568660
  S     -1.126150   -6.371200    1.681870
  C      0.336070   -6.023910    0.780990
  C      0.261500   -4.893260    0.017620
  Br     1.809300   -7.170660    0.947600
  Br    -2.096330   25.311410    2.949380
  H     -0.846750   -2.492120   -1.168560
  H     -3.810200   -5.054260    2.027840
  H     -5.975610   -0.071280    1.268040
  H     -5.329370   -0.657780   -2.382670
  H     -4.563900    0.426750   -3.532990
  H     -7.570750    0.385480   -2.793100
  H     -6.861590   -0.210860   -4.313430
  H     -6.852730    1.529840   -3.951760
  H     -4.709460    6.998900    1.466770
  H     -4.919460    5.266490    1.434100
  H     -6.972280    7.327060    0.386020
  H     -7.100050    6.429000    1.921180
  H     -7.200750    5.558670    0.369190
  H     -2.477950    9.586280    1.118380
  H     -3.093630    7.949410    0.987280
  H     -5.183950    8.711100    2.330600
  H     -4.445350   10.311610    2.480340
  H     -3.652550    8.904660    3.227870
  H     -2.948650   15.328880   -2.183700
  H     -3.445680   16.376320   -0.864150
  H     -5.917740   15.824000   -1.494490
  H     -5.294050   14.941930   -2.891540
  H     -5.001190   16.686650   -2.753950
  H     -2.168580   14.897520    2.452250
  H     -4.837870   20.362980    0.636670
  H     -0.904490   19.719300    3.746070
  H     -0.872630   22.567100    3.887280
  H      1.079950   -4.526340   -0.600810

 Total Charge           Charge          ....    0
 Multiplicity           Mult            ....    1
 Number of Electrons    NEL             ....  618
 Basis Dimension        Dim             .... 1254

ORBITAL ENERGIES
----------------

  NO   OCC          E(Eh)            E(eV)
   0   2.0000    -490.009448    -13333.8349
   1   2.0000    -490.007962    -13333.7945
   2   2.0000     -92.015836     -2503.8782
   3   2.0000     -91.985472     -2503.0519
   4   2.0000     -91.984054     -2503.0134
   5   2.0000     -91.981530     -2502.9447
   6   2.0000     -91.980987     -2502.9299
   7   2.0000     -91.974398     -2502.7506
   8   2.0000     -91.973664     -2502.7306
   9   2.0000     -65.177824     -1773.5787
  10   2.0000     -65.176344     -1773.5385
  11   2.0000     -58.549947     -1593.2251
  12   2.0000     -58.548466     -1593.1847
  13   2.0000     -58.548171     -1593.1767
  14   2.0000     -58.548156     -1593.1763
  15   2.0000     -58.546693     -1593.1365
  16   2.0000     -58.546679     -1593.1361
  17   2.0000     -20.567362      -559.6664
  18   2.0000     -20.562513      -559.5344
  19   2.0000     -15.653794      -425.9614
  20   2.0000     -15.649373      -425.8411
  21   2.0000     -15.617126      -424.9636
  22   2.0000     -15.616053      -424.9344
  23   2.0000     -15.595739      -424.3816
  24   2.0000     -15.594827      -424.3568
  25   2.0000     -15.594470      -424.3471
  26   2.0000     -15.591644      -424.2702
  27   2.0000     -11.367156      -309.3160
  28   2.0000     -11.361376      -309.1588
  29   2.0000     -11.352606      -308.9201
  30   2.0000     -11.350481      -308.8623
  31   2.0000     -11.346098      -308.7430
  32   2.0000     -11.345987      -308.7400
  33   2.0000     -11.333103      -308.3894
  34   2.0000     -11.330128      -308.3085
  35   2.0000     -11.328571      -308.2661
  36   2.0000     -11.325679      -308.1874
  37   2.0000     -11.325289      -308.1768
  38   2.0000     -11.322698      -308.1063
  39   2.0000     -11.317492      -307.9646
  40   2.0000     -11.316152      -307.9281
  41   2.0000     -11.315612      -307.9135
  42   2.0000     -11.315020      -307.8974
  43   2.0000     -11.313465      -307.8550
  44   2.0000     -11.312608      -307.8317
  45   2.0000     -11.311756      -307.8085
  46   2.0000     -11.311581      -307.8038
  47   2.0000     -11.309107      -307.7364
  48   2.0000     -11.308475      -307.7193
  49   2.0000     -11.307842      -307.7020
  50   2.0000     -11.306877      -307.6758
  51   2.0000     -11.306259      -307.6590
  52   2.0000     -11.304980      -307.6241
  53   2.0000     -11.301602      -307.5322
  54   2.0000     -11.301056      -307.5174
  55   2.0000     -11.299418      -307.4728
  56   2.0000     -11.299398      -307.4722
  57   2.0000     -11.298445      -307.4463
  58   2.0000     -11.298017      -307.4347
  59   2.0000     -11.296822      -307.4022
  60   2.0000     -11.296733      -307.3997
  61   2.0000     -11.295754      -307.3731
  62   2.0000     -11.295266      -307.3598
  63   2.0000     -11.294331      -307.3344
  64   2.0000     -11.293926      -307.3233
  65   2.0000     -11.292839      -307.2938
  66   2.0000     -11.292507      -307.2847
  67   2.0000     -11.291651      -307.2614
  68   2.0000     -11.290184      -307.2215
  69   2.0000     -11.286419      -307.1191
  70   2.0000     -11.284758      -307.0739
  71   2.0000     -11.284529      -307.0676
  72   2.0000     -11.281982      -306.9983
  73   2.0000     -11.280085      -306.9467
  74   2.0000     -11.278945      -306.9157
  75   2.0000     -11.278831      -306.9126
  76   2.0000     -11.277113      -306.8658
  77   2.0000     -11.265272      -306.5436
  78   2.0000     -11.262805      -306.4765
  79   2.0000     -11.256235      -306.2977
  80   2.0000     -11.252753      -306.2030
  81   2.0000     -11.242494      -305.9238
  82   2.0000     -11.237908      -305.7990
  83   2.0000      -9.869566      -268.5645
  84   2.0000      -9.868093      -268.5245
  85   2.0000      -9.047003      -246.1815
  86   2.0000      -9.021273      -245.4813
  87   2.0000      -9.019800      -245.4412
  88   2.0000      -9.016170      -245.3425
  89   2.0000      -9.015619      -245.3275
  90   2.0000      -9.008040      -245.1212
  91   2.0000      -9.007278      -245.1005
  92   2.0000      -7.486807      -203.7264
  93   2.0000      -7.485332      -203.6862
  94   2.0000      -7.476771      -203.4533
  95   2.0000      -7.476703      -203.4514
  96   2.0000      -7.475309      -203.4135
  97   2.0000      -7.475233      -203.4114
  98   2.0000      -6.734182      -183.2464
  99   2.0000      -6.732470      -183.1998
 100   2.0000      -6.730665      -183.1507
 101   2.0000      -6.708670      -182.5522
 102   2.0000      -6.707556      -182.5219
 103   2.0000      -6.707200      -182.5122
 104   2.0000      -6.706091      -182.4820
 105   2.0000      -6.705420      -182.4638
 106   2.0000      -6.703953      -182.4238
 107   2.0000      -6.703794      -182.4195
 108   2.0000      -6.703272      -182.4053
 109   2.0000      -6.702677      -182.3891
 110   2.0000      -6.702203      -182.3762
 111   2.0000      -6.700628      -182.3334
 112   2.0000      -6.700112      -182.3193
 113   2.0000      -6.695546      -182.1951
 114   2.0000      -6.694783      -182.1743
 115   2.0000      -6.694712      -182.1724
 116   2.0000      -6.693963      -182.1520
 117   2.0000      -6.692411      -182.1098
 118   2.0000      -6.691671      -182.0896
 119   2.0000      -3.229729       -87.8854
 120   2.0000      -3.228252       -87.8452
 121   2.0000      -3.225129       -87.7602
 122   2.0000      -3.225016       -87.7571
 123   2.0000      -3.223651       -87.7200
 124   2.0000      -3.223545       -87.7171
 125   2.0000      -3.214004       -87.4575
 126   2.0000      -3.214003       -87.4575
 127   2.0000      -3.212542       -87.4177
 128   2.0000      -3.212541       -87.4177
 129   2.0000      -1.396068       -37.9889
 130   2.0000      -1.391752       -37.8715
 131   2.0000      -1.347724       -36.6734
 132   2.0000      -1.334495       -36.3134
 133   2.0000      -1.329388       -36.1745
 134   2.0000      -1.244626       -33.8680
 135   2.0000      -1.242636       -33.8138
 136   2.0000      -1.230574       -33.4856
 137   2.0000      -1.228635       -33.4329
 138   2.0000      -1.223465       -33.2922
 139   2.0000      -1.221197       -33.2305
 140   2.0000      -1.219993       -33.1977
 141   2.0000      -1.217168       -33.1208
 142   2.0000      -1.202001       -32.7081
 143   2.0000      -1.199092       -32.6290
 144   2.0000      -1.191247       -32.4155
 145   2.0000      -1.163588       -31.6628
 146   2.0000      -1.152950       -31.3734
 147   2.0000      -1.146757       -31.2049
 148   2.0000      -1.137266       -30.9466
 149   2.0000      -1.133071       -30.8324
 150   2.0000      -1.102913       -30.0118
 151   2.0000      -1.096108       -29.8266
 152   2.0000      -1.092024       -29.7155
 153   2.0000      -1.084598       -29.5134
 154   2.0000      -1.081436       -29.4274
 155   2.0000      -1.077383       -29.3171
 156   2.0000      -1.075390       -29.2629
 157   2.0000      -1.073429       -29.2095
 158   2.0000      -1.069291       -29.0969
 159   2.0000      -1.065102       -28.9829
 160   2.0000      -1.036005       -28.1911
 161   2.0000      -1.035409       -28.1749
 162   2.0000      -1.028808       -27.9953
 163   2.0000      -1.020482       -27.7687
 164   2.0000      -1.004244       -27.3269
 165   2.0000      -1.002893       -27.2901
 166   2.0000      -1.001007       -27.2388
 167   2.0000      -0.997497       -27.1433
 168   2.0000      -0.987424       -26.8692
 169   2.0000      -0.968748       -26.3610
 170   2.0000      -0.964093       -26.2343
 171   2.0000      -0.955853       -26.0101
 172   2.0000      -0.937502       -25.5107
 173   2.0000      -0.922741       -25.1091
 174   2.0000      -0.914926       -24.8964
 175   2.0000      -0.906618       -24.6703
 176   2.0000      -0.900038       -24.4913
 177   2.0000      -0.895418       -24.3656
 178   2.0000      -0.876858       -23.8605
 179   2.0000      -0.869153       -23.6509
 180   2.0000      -0.865280       -23.5455
 181   2.0000      -0.861687       -23.4477
 182   2.0000      -0.851398       -23.1677
 183   2.0000      -0.840697       -22.8765
 184   2.0000      -0.833539       -22.6817
 185   2.0000      -0.826560       -22.4919
 186   2.0000      -0.823327       -22.4039
 187   2.0000      -0.815106       -22.1802
 188   2.0000      -0.804610       -21.8945
 189   2.0000      -0.793159       -21.5830
 190   2.0000      -0.785977       -21.3875
 191   2.0000      -0.784915       -21.3586
 192   2.0000      -0.779738       -21.2178
 193   2.0000      -0.774361       -21.0714
 194   2.0000      -0.757350       -20.6085
 195   2.0000      -0.752464       -20.4756
 196   2.0000      -0.751166       -20.4403
 197   2.0000      -0.743898       -20.2425
 198   2.0000      -0.742087       -20.1932
 199   2.0000      -0.725805       -19.7502
 200   2.0000      -0.724603       -19.7174
 201   2.0000      -0.715531       -19.4706
 202   2.0000      -0.710784       -19.3414
 203   2.0000      -0.705460       -19.1965
 204   2.0000      -0.700757       -19.0686
 205   2.0000      -0.692035       -18.8312
 206   2.0000      -0.689948       -18.7744
 207   2.0000      -0.688318       -18.7301
 208   2.0000      -0.680695       -18.5226
 209   2.0000      -0.676181       -18.3998
 210   2.0000      -0.668370       -18.1873
 211   2.0000      -0.667712       -18.1694
 212   2.0000      -0.660252       -17.9664
 213   2.0000      -0.653043       -17.7702
 214   2.0000      -0.651836       -17.7374
 215   2.0000      -0.648638       -17.6503
 216   2.0000      -0.646628       -17.5956
 217   2.0000      -0.642566       -17.4851
 218   2.0000      -0.638240       -17.3674
 219   2.0000      -0.633930       -17.2501
 220   2.0000      -0.633222       -17.2309
 221   2.0000      -0.630790       -17.1647
 222   2.0000      -0.626395       -17.0451
 223   2.0000      -0.624625       -16.9969
 224   2.0000      -0.623325       -16.9615
 225   2.0000      -0.617995       -16.8165
 226   2.0000      -0.617103       -16.7922
 227   2.0000      -0.614964       -16.7340
 228   2.0000      -0.611302       -16.6344
 229   2.0000      -0.609472       -16.5846
 230   2.0000      -0.604059       -16.4373
 231   2.0000      -0.599180       -16.3045
 232   2.0000      -0.596388       -16.2285
 233   2.0000      -0.593120       -16.1396
 234   2.0000      -0.590467       -16.0674
 235   2.0000      -0.585202       -15.9242
 236   2.0000      -0.584372       -15.9016
 237   2.0000      -0.579640       -15.7728
 238   2.0000      -0.578483       -15.7413
 239   2.0000      -0.578332       -15.7372
 240   2.0000      -0.577107       -15.7039
 241   2.0000      -0.576521       -15.6879
 242   2.0000      -0.573695       -15.6110
 243   2.0000      -0.573432       -15.6039
 244   2.0000      -0.571955       -15.5637
 245   2.0000      -0.571206       -15.5433
 246   2.0000      -0.567764       -15.4497
 247   2.0000      -0.565819       -15.3967
 248   2.0000      -0.564728       -15.3670
 249   2.0000      -0.559714       -15.2306
 250   2.0000      -0.557183       -15.1617
 251   2.0000      -0.556742       -15.1497
 252   2.0000      -0.550418       -14.9776
 253   2.0000      -0.545320       -14.8389
 254   2.0000      -0.543713       -14.7952
 255   2.0000      -0.541316       -14.7300
 256   2.0000      -0.540921       -14.7192
 257   2.0000      -0.539234       -14.6733
 258   2.0000      -0.537251       -14.6194
 259   2.0000      -0.532457       -14.4889
 260   2.0000      -0.530213       -14.4278
 261   2.0000      -0.527245       -14.3471
 262   2.0000      -0.521247       -14.1839
 263   2.0000      -0.516717       -14.0606
 264   2.0000      -0.513957       -13.9855
 265   2.0000      -0.513747       -13.9798
 266   2.0000      -0.512614       -13.9489
 267   2.0000      -0.511373       -13.9152
 268   2.0000      -0.505569       -13.7572
 269   2.0000      -0.504591       -13.7306
 270   2.0000      -0.500225       -13.6118
 271   2.0000      -0.497293       -13.5320
 272   2.0000      -0.496268       -13.5042
 273   2.0000      -0.495624       -13.4866
 274   2.0000      -0.492596       -13.4042
 275   2.0000      -0.490638       -13.3509
 276   2.0000      -0.488450       -13.2914
 277   2.0000      -0.486102       -13.2275
 278   2.0000      -0.483097       -13.1457
 279   2.0000      -0.480500       -13.0751
 280   2.0000      -0.476037       -12.9536
 281   2.0000      -0.471097       -12.8192
 282   2.0000      -0.469807       -12.7841
 283   2.0000      -0.469105       -12.7650
 284   2.0000      -0.466167       -12.6851
 285   2.0000      -0.457920       -12.4606
 286   2.0000      -0.451482       -12.2855
 287   2.0000      -0.445702       -12.1282
 288   2.0000      -0.444250       -12.0886
 289   2.0000      -0.442987       -12.0543
 290   2.0000      -0.441993       -12.0272
 291   2.0000      -0.441062       -12.0019
 292   2.0000      -0.440120       -11.9763
 293   2.0000      -0.423246       -11.5171
 294   2.0000      -0.421326       -11.4649
 295   2.0000      -0.398119       -10.8334
 296   2.0000      -0.391783       -10.6609
 297   2.0000      -0.381562       -10.3828
 298   2.0000      -0.375639       -10.2216
 299   2.0000      -0.352988        -9.6053
 300   2.0000      -0.352521        -9.5926
 301   2.0000      -0.350137        -9.5277
 302   2.0000      -0.345334        -9.3970
 303   2.0000      -0.329810        -8.9746
 304   2.0000      -0.326674        -8.8892
 305   2.0000      -0.324752        -8.8369
 306   2.0000      -0.313963        -8.5434
 307   2.0000      -0.307129        -8.3574
 308   2.0000      -0.257502        -7.0070
 309   0.0000      -0.026698        -0.7265
 310   0.0000      -0.016789        -0.4568
 311   0.0000       0.010769         0.2930
 312   0.0000       0.021338         0.5806
 313   0.0000       0.032758         0.8914

MULLIKEN ATOMIC CHARGES
-----------------------
   0 C :    0.483086
   1 O :   -0.361216
   2 C :   -0.190808
   3 C :    0.057477
   4 C :   -0.045707
   5 C :   -0.125806
   6 C :    0.032698
   7 C :   -0.044909
   8 C :    0.213849
   9 C :   -0.335967
  10 C :    0.049322
  11 N :   -0.088847
  12 C :    0.029617
  13 N :   -0.075050
  14 C :   -0.277064
  15 C :    0.148709
  16 C :   -0.257054
  17 S :    0.170372
  18 C :   -0.034157
  19 C :   -0.130401
  20 C :   -0.032733
  21 C :    0.035549
  22 C :   -0.042284
  23 S :    0.241147
  24 C :    0.001959
  25 C :    0.138627
  26 N :   -0.592785
  27 C :    0.129205
  28 C :   -0.053654
  29 C :    0.222244
  30 C :   -0.200631
  31 C :    0.154503
  32 N :   -0.465867
  33 S :    0.541236
  34 N :   -0.468545
  35 C :    0.155982
  36 C :   -0.217019
  37 C :    0.251907
  38 N :   -0.600260
  39 C :    0.101279
  40 C :   -0.058877
  41 C :    0.143052
  42 C :    0.013718
  43 S :    0.230216
  44 C :   -0.118980
  45 C :   -0.012639
  46 S :    0.180909
  47 C :   -0.243041
  48 C :   -0.049081
  49 C :    0.004868
  50 C :   -0.058825
  51 C :    0.183115
  52 C :   -0.332860
  53 C :    0.220248
  54 C :   -0.357046
  55 C :    0.059139
  56 N :   -0.089383
  57 C :    0.041458
  58 N :   -0.068231
  59 C :   -0.059670
  60 C :    0.028307
  61 C :   -0.122788
  62 C :   -0.050725
  63 C :    0.060564
  64 C :   -0.172782
  65 C :    0.458004
  66 O :   -0.366587
  67 C :    0.044043
  68 C :   -0.136348
  69 S :    0.187565
  70 S :    0.190036
  71 C :   -0.134312
  72 C :    0.041324
  73 Br:    0.026333
  74 Br:    0.024914
  75 H :    0.064825
  76 H :    0.084050
  77 H :    0.100408
  78 H :    0.051732
  79 H :    0.067335
  80 H :    0.046210
  81 H :    0.047578
  82 H :    0.047971
  83 H :    0.038194
  84 H :    0.062723
  85 H :    0.057456
  86 H :    0.052645
  87 H :    0.062056
  88 H :    0.067800
  89 H :    0.070002
  90 H :    0.050835
  91 H :    0.066620
  92 H :    0.054902
  93 H :    0.072734
  94 H :    0.061191
  95 H :    0.062358
  96 H :    0.056929
  97 H :    0.052133
  98 H :    0.098886
  99 H :    0.081218
 100 H :    0.064586
 101 H :    0.066476
 102 H :    0.066509
Sum of atomic charges:   -0.0000000

LOEWDIN ATOMIC CHARGES
----------------------
   0 C :    0.165553
   1 O :   -0.224272
   2 C :   -0.060775
   3 C :    0.031699
   4 C :   -0.033474
   5 C :   -0.139696
   6 C :    0.004883
   7 C :   -0.033866
   8 C :    0.119484
   9 C :   -0.172848
  10 C :    0.019960
  11 N :   -0.100068
  12 C :    0.009852
  13 N :   -0.097321
  14 C :   -0.142812
  15 C :    0.105293
  16 C :   -0.207798
  17 S :    0.388659
  18 C :   -0.179787
  19 C :   -0.193512
  20 C :    0.022468
  21 C :   -0.012917
  22 C :   -0.031527
  23 S :    0.407953
  24 C :   -0.164897
  25 C :   -0.018033
  26 N :   -0.044936
  27 C :    0.074319
  28 C :   -0.040295
  29 C :    0.038441
  30 C :   -0.082047
  31 C :   -0.022509
  32 N :   -0.310520
  33 S :    0.583156
  34 N :   -0.313361
  35 C :   -0.019907
  36 C :   -0.092566
  37 C :    0.047988
  38 N :   -0.039428
  39 C :    0.073317
  40 C :   -0.045360
  41 C :   -0.021399
  42 C :   -0.157951
  43 S :    0.409776
  44 C :   -0.194571
  45 C :   -0.170273
  46 S :    0.409414
  47 C :   -0.207901
  48 C :    0.013345
  49 C :   -0.017375
  50 C :   -0.031319
  51 C :    0.104178
  52 C :   -0.155693
  53 C :    0.112110
  54 C :   -0.175281
  55 C :    0.017919
  56 N :   -0.102193
  57 C :    0.012406
  58 N :   -0.091179
  59 C :   -0.027822
  60 C :   -0.000925
  61 C :   -0.136853
  62 C :   -0.037079
  63 C :    0.035240
  64 C :   -0.066334
  65 C :    0.169949
  66 O :   -0.240948
  67 C :   -0.061556
  68 C :   -0.261834
  69 S :    0.400952
  70 S :    0.403061
  71 C :   -0.260071
  72 C :   -0.062514
  73 Br:    0.127674
  74 Br:    0.127095
  75 H :    0.047354
  76 H :    0.046437
  77 H :    0.048797
  78 H :    0.025897
  79 H :    0.035468
  80 H :    0.023141
  81 H :    0.023598
  82 H :    0.014804
  83 H :    0.017868
  84 H :    0.020182
  85 H :    0.026456
  86 H :    0.027914
  87 H :    0.028052
  88 H :    0.024932
  89 H :    0.025146
  90 H :    0.021695
  91 H :    0.019345
  92 H :    0.030238
  93 H :    0.037785
  94 H :    0.024271
  95 H :    0.024561
  96 H :    0.015572
  97 H :    0.026526
  98 H :    0.055101
  99 H :    0.045523
 100 H :    0.047509
 101 H :    0.042650
 102 H :    0.042641

  Mayer bond orders larger than 0.100000
B(  0-C ,  1-O ) :   2.0560 B(  0-C ,  2-C ) :   0.9702 B(  0-C , 14-C ) :   0.9753
B(  2-C ,  3-C ) :   1.5117 B(  2-C ,  7-C ) :   1.2902 B(  3-C ,  4-C ) :   1.3123
B(  3-C , 75-H ) :   1.0055 B(  4-C ,  5-C ) :   1.3235 B(  4-C , 72-C ) :   1.1632
B(  5-C ,  6-C ) :   1.3988 B(  5-C , 70-S ) :   1.0738 B(  6-C ,  7-C ) :   1.4746
B(  6-C , 76-H ) :   0.9814 B(  7-C ,  8-C ) :   1.0496 B(  8-C ,  9-C ) :   1.6959
B(  8-C , 14-C ) :   1.0714 B(  9-C , 10-C ) :   1.0516 B(  9-C , 12-C ) :   1.0578
B( 10-C , 11-N ) :   2.9794 B( 12-C , 13-N ) :   3.0034 B( 14-C , 15-C ) :   1.7105
B( 15-C , 16-C ) :   1.1603 B( 15-C , 77-H ) :   0.9524 B( 16-C , 17-S ) :   1.0518
B( 16-C , 20-C ) :   1.5974 B( 17-S , 18-C ) :   1.0408 B( 18-C , 19-C ) :   1.5262
B( 18-C , 25-C ) :   1.3324 B( 19-C , 20-C ) :   1.3742 B( 19-C , 23-S ) :   1.0067
B( 20-C , 21-C ) :   0.9863 B( 21-C , 22-C ) :   1.0338 B( 21-C , 78-H ) :   0.9626
B( 21-C , 79-H ) :   0.9561 B( 22-C , 80-H ) :   0.9799 B( 22-C , 81-H ) :   0.9862
B( 22-C , 82-H ) :   0.9837 B( 23-S , 24-C ) :   0.9900 B( 24-C , 25-C ) :   1.4846
B( 24-C , 30-C ) :   1.4028 B( 25-C , 26-N ) :   1.0742 B( 26-N , 27-C ) :   0.8622
B( 26-N , 29-C ) :   1.0872 B( 27-C , 28-C ) :   1.0361 B( 27-C , 83-H ) :   0.9835
B( 27-C , 84-H ) :   0.9748 B( 28-C , 85-H ) :   0.9781 B( 28-C , 86-H ) :   0.9830
B( 28-C , 87-H ) :   0.9797 B( 29-C , 30-C ) :   1.4896 B( 29-C , 37-C ) :   1.1483
B( 30-C , 31-C ) :   1.1105 B( 31-C , 32-N ) :   1.6192 B( 31-C , 35-C ) :   1.0993
B( 32-N , 33-S ) :   1.1609 B( 32-N , 34-N ) :   0.1043 B( 33-S , 34-N ) :   1.1583
B( 34-N , 35-C ) :   1.6207 B( 35-C , 36-C ) :   1.1133 B( 36-C , 37-C ) :   1.4676
B( 36-C , 42-C ) :   1.4173 B( 37-C , 38-N ) :   1.1055 B( 38-N , 39-C ) :   0.8349
B( 38-N , 41-C ) :   1.0690 B( 39-C , 40-C ) :   1.0336 B( 39-C , 88-H ) :   0.9784
B( 39-C , 89-H ) :   0.9850 B( 40-C , 90-H ) :   0.9787 B( 40-C , 91-H ) :   0.9773
B( 40-C , 92-H ) :   0.9825 B( 41-C , 42-C ) :   1.4764 B( 41-C , 45-C ) :   1.3305
B( 42-C , 43-S ) :   0.9936 B( 43-S , 44-C ) :   1.0027 B( 44-C , 45-C ) :   1.5144
B( 44-C , 48-C ) :   1.3927 B( 45-C , 46-S ) :   1.0474 B( 46-S , 47-C ) :   1.0751
B( 47-C , 48-C ) :   1.5637 B( 47-C , 51-C ) :   1.1511 B( 48-C , 49-C ) :   0.9712
B( 49-C , 50-C ) :   1.0357 B( 49-C , 93-H ) :   0.9609 B( 49-C , 94-H ) :   0.9704
B( 50-C , 95-H ) :   0.9832 B( 50-C , 96-H ) :   0.9797 B( 50-C , 97-H ) :   0.9845
B( 51-C , 52-C ) :   1.7151 B( 51-C , 98-H ) :   0.9328 B( 52-C , 53-C ) :   1.0857
B( 52-C , 65-C ) :   0.9988 B( 53-C , 54-C ) :   1.6740 B( 53-C , 59-C ) :   1.0459
B( 54-C , 55-C ) :   1.0424 B( 54-C , 57-C ) :   1.0873 B( 55-C , 56-N ) :   2.9814
B( 57-C , 58-N ) :   2.9798 B( 59-C , 60-C ) :   1.4857 B( 59-C , 64-C ) :   1.2926
B( 60-C , 61-C ) :   1.3929 B( 60-C , 99-H ) :   0.9834 B( 61-C , 62-C ) :   1.3265
B( 61-C , 69-S ) :   1.0736 B( 62-C , 63-C ) :   1.3146 B( 62-C , 67-C ) :   1.1611
B( 63-C , 64-C ) :   1.5057 B( 63-C ,100-H ) :   1.0055 B( 64-C , 65-C ) :   0.9579
B( 65-C , 66-O ) :   2.0718 B( 67-C , 68-C ) :   1.7050 B( 67-C ,101-H ) :   0.9985
B( 68-C , 69-S ) :   1.0632 B( 68-C , 74-Br) :   1.0063 B( 70-S , 71-C ) :   1.0643
B( 71-C , 72-C ) :   1.7034 B( 71-C , 73-Br) :   1.0069 B( 72-C ,102-H ) :   0.9986

-----------------------------------------------------------------------------
         ABSORPTION SPECTRUM VIA TRANSITION ELECTRIC DIPOLE MOMENTS
-----------------------------------------------------------------------------
State   Energy    Wavelength  fosc         T2        TX        TY        TZ
        (cm-1)      (nm)                 (au**2)    (au)      (au)      (au)
-----------------------------------------------------------------------------
   1   22482.6    444.8   2.827626919  41.40485   0.06636   6.41321   0.52072
   2   26851.4    372.4   0.391143661   4.79562   0.03374   0.97484  -1.96066
   3   32423.8    308.4   0.062402729   0.63360   0.46711   0.11526   0.63413

FINAL SINGLE POINT ENERGY    -10645.904186380429

DIPOLE MOMENT
-------------
                                X             Y             Z
Electronic contribution:     87.13277      20.85372      35.71110
Nuclear contribution   :    -83.85990     -20.95568     -36.03758
                        -----------------------------------------
Total Dipole Moment    :      3.27287      -0.10195      -0.32648
                        -----------------------------------------
Magnitude (a.u.)       :      3.29069
Magnitude (Debye)      :      8.36427

Rotational constants in cm-1:     0.001472     0.000134     0.000129
Rotational constants in MHz :    44.118479     4.028049     3.880075

                             ****ORCA TERMINATED NORMALLY****
TOTAL RUN TIME: 0 days 13 hours 49 minutes 30 seconds 518 msec
