                         Program Version 4.2.0 -  RELEASE  -
|  1> # ORCA input file
|  2> # CH1007.out
|  3> ! Engrad Keepdens
|  4> %maxcore 1000
|  5> %tddft
|  6>   nroots 3
|  7>   # nroots is the number of states to be computed
|  8>   Iroot 1
|  9>   end
| 10> * xyz 0 1
| 11>    C        5.54516         2.90251        -1.76395
| 12>    O        6.65977         2.39299        -1.76954
| 13>    C        5.01277         3.82663        -2.78320
| 14>    C        5.62726         4.30199        -3.92398
| 15>    C        4.90344         5.16802        -4.72857
| 16>    F        5.45905         5.65451        -5.84548
| 17>    C        3.60299         5.53633        -4.38620
| 18>    F        2.92654         6.37230        -5.18240
| 19>    C        2.98687         5.05872        -3.23759
| 20>    C        3.70333         4.19385        -2.42704
| 21>    C        3.35343         3.52334        -1.17134
| 22>    C        2.14910         3.64487        -0.52564
| 23>    C        1.79043         3.00320         0.67802
| 24>    N        1.41519         2.52056         1.65117
| 25>    C        1.08122         4.44332        -0.98705
| 26>    N        0.17336         5.07104        -1.30213
| 27>    C        4.49779         2.73225        -0.77436
| 28>    C        4.57918         1.94862         0.36100
| 29>    C        5.59666         1.12882         0.84274
| 30>   Se        7.30024         0.83239         0.03046
| 31>    C        7.64617        -0.34213         1.43672
| 32>    C        6.55488        -0.40724         2.32700
| 33>    C        5.45329         0.37967         2.03045
| 34>    C        4.22597         0.34706         2.88427
| 35>    C        3.20760        -0.65614         2.33489
| 36>    S        6.79986        -1.51781         3.66768
| 37>    C        8.35701        -1.89483         3.02850
| 38>    C        8.67094        -1.19206         1.85866
| 39>    N        9.91742        -1.55674         1.41803
| 40>    C       10.32738        -1.21168         0.07548
| 41>    C       10.33093        -2.42984        -0.84348
| 42>    C       10.41534        -2.50956         2.28519
| 43>    C        9.43213        -2.74973         3.29566
| 44>    C        9.58103        -3.76914         4.25968
| 45>    N        8.75477        -4.12446         5.23181
| 46>    S        9.36906        -5.41788         5.98388
| 47>    N       10.71504        -5.57873         5.10072
| 48>    C       10.73137        -4.61904         4.18797
| 49>    C       11.73356        -4.33291         3.23822
| 50>    C       11.63582        -3.22973         2.33368
| 51>    N       12.82933        -3.13445         1.60182
| 52>    C       13.40109        -2.01295         0.88201
| 53>    C       13.45225        -0.76264         1.75289
| 54>    C       13.60812        -4.16580         1.98925
| 55>    C       12.95861        -4.94128         2.95394
| 56>    S       16.50450        -3.59119         0.06649
| 57>    C       16.02416        -4.83459         1.06862
| 58>    C       14.84468        -4.84323         1.77091
| 59>   Se       14.46333        -6.10319         3.26037
| 60>    C       15.97093        -7.13001         0.96213
| 61>    C       16.77616        -6.11911         1.17998
| 62>    C       18.22526        -6.13081         1.52313
| 63>    C       18.80471        -7.53758         1.53557
| 64>    C       14.98845        -7.83661         0.47071
| 65>    C       13.78776        -8.29624         1.23989
| 66>    C       13.26114        -9.71747         0.96880
| 67>    C       13.81236       -10.92998         1.18414
| 68>    C       13.14335       -12.12596         0.83523
| 69>    N       12.59230       -13.08776         0.54706
| 70>    C       15.09750       -11.03302         1.76739
| 71>    N       16.14262       -11.07661         2.23436
| 72>    C       12.03163        -9.17653         0.42274
| 73>    C       10.80625        -9.48760        -0.13502
| 74>    C       10.02296        -8.38690        -0.46697
| 75>    F        8.81596        -8.59050        -1.00456
| 76>    C       10.44727        -7.06938        -0.26309
| 77>    F        9.63578        -6.06261        -0.60756
| 78>    C       11.68962        -6.75909         0.29539
| 79>    C       12.44533        -7.84763         0.62734
| 80>    C       13.73726        -7.94416         2.68454
| 81>    O       13.26450        -8.55868         3.57753
| 82>    H        6.63286         4.01362        -4.18530
| 83>    H        1.98021         5.37540        -3.01972
| 84>    H        3.69900         1.95991         0.99005
| 85>    H        3.76361         1.33261         2.95291
| 86>    H        4.51808         0.03867         3.89048
| 87>    H        2.90075        -0.38355         1.32774
| 88>    H        2.32679        -0.66916         2.97017
| 89>    H        3.63682        -1.65509         2.30963
| 90>    H        9.59541        -0.48526        -0.29696
| 91>    H       11.29561        -0.71025         0.08606
| 92>    H        9.33680        -2.86887        -0.88894
| 93>    H       11.02003        -3.19225        -0.48798
| 94>    H       10.62391        -2.13307        -1.84672
| 95>    H       12.86303        -1.83552        -0.04899
| 96>    H       14.41956        -2.31566         0.61524
| 97>    H       12.46011        -0.46446         2.08532
| 98>    H       13.89606         0.05428         1.19073
| 99>    H       14.06522        -0.94746         2.63224
|100>    H       18.35906        -5.65265         2.49898
|101>    H       18.74095        -5.50516         0.78813
|102>    H       18.28411        -8.16059         2.26023
|103>    H       19.85868        -7.50769         1.79821
|104>    H       18.70355        -7.99921         0.55606
|105>    H       14.97401        -8.10619        -0.57885
|106>    H       10.45099       -10.49012        -0.30907
|107>    H       11.98891        -5.73379         0.43458
|108> *
|109>
|110>                          ****END OF INPUT****

CARTESIAN COORDINATES (ANGSTROEM)
---------------------------------
  C      5.545160    2.902510   -1.763950
  O      6.659770    2.392990   -1.769540
  C      5.012770    3.826630   -2.783200
  C      5.627260    4.301990   -3.923980
  C      4.903440    5.168020   -4.728570
  F      5.459050    5.654510   -5.845480
  C      3.602990    5.536330   -4.386200
  F      2.926540    6.372300   -5.182400
  C      2.986870    5.058720   -3.237590
  C      3.703330    4.193850   -2.427040
  C      3.353430    3.523340   -1.171340
  C      2.149100    3.644870   -0.525640
  C      1.790430    3.003200    0.678020
  N      1.415190    2.520560    1.651170
  C      1.081220    4.443320   -0.987050
  N      0.173360    5.071040   -1.302130
  C      4.497790    2.732250   -0.774360
  C      4.579180    1.948620    0.361000
  C      5.596660    1.128820    0.842740
  Se     7.300240    0.832390    0.030460
  C      7.646170   -0.342130    1.436720
  C      6.554880   -0.407240    2.327000
  C      5.453290    0.379670    2.030450
  C      4.225970    0.347060    2.884270
  C      3.207600   -0.656140    2.334890
  S      6.799860   -1.517810    3.667680
  C      8.357010   -1.894830    3.028500
  C      8.670940   -1.192060    1.858660
  N      9.917420   -1.556740    1.418030
  C     10.327380   -1.211680    0.075480
  C     10.330930   -2.429840   -0.843480
  C     10.415340   -2.509560    2.285190
  C      9.432130   -2.749730    3.295660
  C      9.581030   -3.769140    4.259680
  N      8.754770   -4.124460    5.231810
  S      9.369060   -5.417880    5.983880
  N     10.715040   -5.578730    5.100720
  C     10.731370   -4.619040    4.187970
  C     11.733560   -4.332910    3.238220
  C     11.635820   -3.229730    2.333680
  N     12.829330   -3.134450    1.601820
  C     13.401090   -2.012950    0.882010
  C     13.452250   -0.762640    1.752890
  C     13.608120   -4.165800    1.989250
  C     12.958610   -4.941280    2.953940
  S     16.504500   -3.591190    0.066490
  C     16.024160   -4.834590    1.068620
  C     14.844680   -4.843230    1.770910
  Se    14.463330   -6.103190    3.260370
  C     15.970930   -7.130010    0.962130
  C     16.776160   -6.119110    1.179980
  C     18.225260   -6.130810    1.523130
  C     18.804710   -7.537580    1.535570
  C     14.988450   -7.836610    0.470710
  C     13.787760   -8.296240    1.239890
  C     13.261140   -9.717470    0.968800
  C     13.812360  -10.929980    1.184140
  C     13.143350  -12.125960    0.835230
  N     12.592300  -13.087760    0.547060
  C     15.097500  -11.033020    1.767390
  N     16.142620  -11.076610    2.234360
  C     12.031630   -9.176530    0.422740
  C     10.806250   -9.487600   -0.135020
  C     10.022960   -8.386900   -0.466970
  F      8.815960   -8.590500   -1.004560
  C     10.447270   -7.069380   -0.263090
  F      9.635780   -6.062610   -0.607560
  C     11.689620   -6.759090    0.295390
  C     12.445330   -7.847630    0.627340
  C     13.737260   -7.944160    2.684540
  O     13.264500   -8.558680    3.577530
  H      6.632860    4.013620   -4.185300
  H      1.980210    5.375400   -3.019720
  H      3.699000    1.959910    0.990050
  H      3.763610    1.332610    2.952910
  H      4.518080    0.038670    3.890480
  H      2.900750   -0.383550    1.327740
  H      2.326790   -0.669160    2.970170
  H      3.636820   -1.655090    2.309630
  H      9.595410   -0.485260   -0.296960
  H     11.295610   -0.710250    0.086060
  H      9.336800   -2.868870   -0.888940
  H     11.020030   -3.192250   -0.487980
  H     10.623910   -2.133070   -1.846720
  H     12.863030   -1.835520   -0.048990
  H     14.419560   -2.315660    0.615240
  H     12.460110   -0.464460    2.085320
  H     13.896060    0.054280    1.190730
  H     14.065220   -0.947460    2.632240
  H     18.359060   -5.652650    2.498980
  H     18.740950   -5.505160    0.788130
  H     18.284110   -8.160590    2.260230
  H     19.858680   -7.507690    1.798210
  H     18.703550   -7.999210    0.556060
  H     14.974010   -8.106190   -0.578850
  H     10.450990  -10.490120   -0.309070
  H     11.988910   -5.733790    0.434580

 Total Charge           Charge          ....    0
 Multiplicity           Mult            ....    1
 Number of Electrons    NEL             ....  562
 Basis Dimension        Dim             .... 1172

ORBITAL ENERGIES
----------------

  NO   OCC          E(Eh)            E(eV)
   0   2.0000    -460.922707    -12542.3445
   1   2.0000    -460.828440    -12539.7794
   2   2.0000     -92.033321     -2504.3540
   3   2.0000     -91.974000     -2502.7398
   4   2.0000     -91.861997     -2499.6920
   5   2.0000     -60.748506     -1653.0509
   6   2.0000     -60.654998     -1650.5064
   7   2.0000     -54.364827     -1479.3422
   8   2.0000     -54.364665     -1479.3378
   9   2.0000     -54.363841     -1479.3153
  10   2.0000     -54.271741     -1476.8092
  11   2.0000     -54.270773     -1476.7828
  12   2.0000     -54.270105     -1476.7646
  13   2.0000     -26.358692      -717.2565
  14   2.0000     -26.350358      -717.0297
  15   2.0000     -26.334411      -716.5958
  16   2.0000     -26.332118      -716.5334
  17   2.0000     -20.654783      -562.0452
  18   2.0000     -20.571279      -559.7730
  19   2.0000     -15.671156      -426.4338
  20   2.0000     -15.655401      -426.0051
  21   2.0000     -15.624991      -425.1776
  22   2.0000     -15.616780      -424.9542
  23   2.0000     -15.614102      -424.8813
  24   2.0000     -15.613216      -424.8572
  25   2.0000     -15.592675      -424.2983
  26   2.0000     -15.584988      -424.0891
  27   2.0000     -11.450319      -311.5790
  28   2.0000     -11.405695      -310.3647
  29   2.0000     -11.396999      -310.1281
  30   2.0000     -11.376734      -309.5767
  31   2.0000     -11.375422      -309.5410
  32   2.0000     -11.368796      -309.3607
  33   2.0000     -11.368422      -309.3505
  34   2.0000     -11.360500      -309.1349
  35   2.0000     -11.356113      -309.0155
  36   2.0000     -11.344600      -308.7023
  37   2.0000     -11.341269      -308.6116
  38   2.0000     -11.341215      -308.6101
  39   2.0000     -11.331469      -308.3449
  40   2.0000     -11.329923      -308.3029
  41   2.0000     -11.326815      -308.2183
  42   2.0000     -11.324782      -308.1630
  43   2.0000     -11.320707      -308.0521
  44   2.0000     -11.320610      -308.0495
  45   2.0000     -11.320017      -308.0333
  46   2.0000     -11.319178      -308.0105
  47   2.0000     -11.318691      -307.9972
  48   2.0000     -11.316215      -307.9299
  49   2.0000     -11.315921      -307.9219
  50   2.0000     -11.315228      -307.9030
  51   2.0000     -11.314353      -307.8792
  52   2.0000     -11.306109      -307.6549
  53   2.0000     -11.305421      -307.6362
  54   2.0000     -11.304791      -307.6190
  55   2.0000     -11.304763      -307.6182
  56   2.0000     -11.303946      -307.5960
  57   2.0000     -11.303859      -307.5936
  58   2.0000     -11.302642      -307.5605
  59   2.0000     -11.302034      -307.5440
  60   2.0000     -11.301950      -307.5417
  61   2.0000     -11.301030      -307.5167
  62   2.0000     -11.299536      -307.4760
  63   2.0000     -11.298040      -307.4353
  64   2.0000     -11.297285      -307.4148
  65   2.0000     -11.296819      -307.4021
  66   2.0000     -11.295398      -307.3634
  67   2.0000     -11.293755      -307.3187
  68   2.0000     -11.290842      -307.2394
  69   2.0000     -11.287765      -307.1557
  70   2.0000     -11.286492      -307.1211
  71   2.0000     -11.274060      -306.7828
  72   2.0000     -11.266643      -306.5810
  73   2.0000     -11.261182      -306.4323
  74   2.0000     -11.261060      -306.4290
  75   2.0000     -11.258860      -306.3692
  76   2.0000     -11.253402      -306.2206
  77   2.0000     -11.239673      -305.8470
  78   2.0000     -11.238727      -305.8213
  79   2.0000      -9.065033      -246.6721
  80   2.0000      -9.030679      -245.7373
  81   2.0000      -9.008591      -245.1362
  82   2.0000      -8.937320      -243.1968
  83   2.0000      -8.898487      -242.1401
  84   2.0000      -6.766433      -184.1240
  85   2.0000      -6.765067      -184.0868
  86   2.0000      -6.761128      -183.9797
  87   2.0000      -6.752292      -183.7392
  88   2.0000      -6.750467      -183.6895
  89   2.0000      -6.748876      -183.6463
  90   2.0000      -6.696152      -182.2116
  91   2.0000      -6.695302      -182.1884
  92   2.0000      -6.693001      -182.1258
  93   2.0000      -6.675218      -181.6419
  94   2.0000      -6.671361      -181.5370
  95   2.0000      -6.666045      -181.3923
  96   2.0000      -6.587041      -179.2425
  97   2.0000      -6.584034      -179.1607
  98   2.0000      -6.583080      -179.1347
  99   2.0000      -2.756223       -75.0006
 100   2.0000      -2.755445       -74.9795
 101   2.0000      -2.750918       -74.8563
 102   2.0000      -2.749874       -74.8279
 103   2.0000      -2.747924       -74.7748
 104   2.0000      -2.666230       -72.5518
 105   2.0000      -2.663573       -72.4795
 106   2.0000      -2.657786       -72.3220
 107   2.0000      -2.652978       -72.1912
 108   2.0000      -2.652673       -72.1829
 109   2.0000      -1.666144       -45.3381
 110   2.0000      -1.649143       -44.8755
 111   2.0000      -1.643334       -44.7174
 112   2.0000      -1.628403       -44.3111
 113   2.0000      -1.494422       -40.6653
 114   2.0000      -1.401973       -38.1496
 115   2.0000      -1.370934       -37.3050
 116   2.0000      -1.360696       -37.0264
 117   2.0000      -1.349034       -36.7091
 118   2.0000      -1.293614       -35.2010
 119   2.0000      -1.261291       -34.3215
 120   2.0000      -1.252308       -34.0770
 121   2.0000      -1.248285       -33.9676
 122   2.0000      -1.232581       -33.5402
 123   2.0000      -1.224705       -33.3259
 124   2.0000      -1.217247       -33.1230
 125   2.0000      -1.208541       -32.8861
 126   2.0000      -1.202315       -32.7167
 127   2.0000      -1.193225       -32.4693
 128   2.0000      -1.178481       -32.0681
 129   2.0000      -1.172873       -31.9155
 130   2.0000      -1.161073       -31.5944
 131   2.0000      -1.149677       -31.2843
 132   2.0000      -1.139334       -31.0029
 133   2.0000      -1.109046       -30.1787
 134   2.0000      -1.102518       -30.0010
 135   2.0000      -1.100535       -29.9471
 136   2.0000      -1.089875       -29.6570
 137   2.0000      -1.083118       -29.4731
 138   2.0000      -1.077971       -29.3331
 139   2.0000      -1.071732       -29.1633
 140   2.0000      -1.062299       -28.9066
 141   2.0000      -1.055577       -28.7237
 142   2.0000      -1.042283       -28.3620
 143   2.0000      -1.033757       -28.1300
 144   2.0000      -1.022719       -27.8296
 145   2.0000      -1.007044       -27.4031
 146   2.0000      -1.003179       -27.2979
 147   2.0000      -0.990169       -26.9439
 148   2.0000      -0.977849       -26.6086
 149   2.0000      -0.967270       -26.3208
 150   2.0000      -0.946576       -25.7576
 151   2.0000      -0.942864       -25.6566
 152   2.0000      -0.937430       -25.5088
 153   2.0000      -0.921641       -25.0791
 154   2.0000      -0.916900       -24.9501
 155   2.0000      -0.914312       -24.8797
 156   2.0000      -0.910516       -24.7764
 157   2.0000      -0.894011       -24.3273
 158   2.0000      -0.884631       -24.0720
 159   2.0000      -0.876339       -23.8464
 160   2.0000      -0.867699       -23.6113
 161   2.0000      -0.866214       -23.5709
 162   2.0000      -0.862561       -23.4715
 163   2.0000      -0.854591       -23.2546
 164   2.0000      -0.846790       -23.0423
 165   2.0000      -0.841061       -22.8864
 166   2.0000      -0.837358       -22.7857
 167   2.0000      -0.827365       -22.5137
 168   2.0000      -0.807132       -21.9632
 169   2.0000      -0.804764       -21.8988
 170   2.0000      -0.798010       -21.7150
 171   2.0000      -0.795220       -21.6390
 172   2.0000      -0.793225       -21.5847
 173   2.0000      -0.787394       -21.4261
 174   2.0000      -0.781594       -21.2683
 175   2.0000      -0.771062       -20.9817
 176   2.0000      -0.767328       -20.8800
 177   2.0000      -0.762609       -20.7516
 178   2.0000      -0.759239       -20.6600
 179   2.0000      -0.755495       -20.5581
 180   2.0000      -0.745891       -20.2967
 181   2.0000      -0.741337       -20.1728
 182   2.0000      -0.740626       -20.1535
 183   2.0000      -0.736962       -20.0538
 184   2.0000      -0.733179       -19.9508
 185   2.0000      -0.728592       -19.8260
 186   2.0000      -0.725072       -19.7302
 187   2.0000      -0.719591       -19.5811
 188   2.0000      -0.712499       -19.3881
 189   2.0000      -0.712490       -19.3878
 190   2.0000      -0.709021       -19.2935
 191   2.0000      -0.705034       -19.1849
 192   2.0000      -0.700277       -19.0555
 193   2.0000      -0.698338       -19.0028
 194   2.0000      -0.688761       -18.7421
 195   2.0000      -0.685224       -18.6459
 196   2.0000      -0.679887       -18.5007
 197   2.0000      -0.678306       -18.4576
 198   2.0000      -0.669316       -18.2130
 199   2.0000      -0.668062       -18.1789
 200   2.0000      -0.661565       -18.0021
 201   2.0000      -0.659418       -17.9437
 202   2.0000      -0.657920       -17.9029
 203   2.0000      -0.651340       -17.7239
 204   2.0000      -0.644430       -17.5358
 205   2.0000      -0.642496       -17.4832
 206   2.0000      -0.639699       -17.4071
 207   2.0000      -0.638686       -17.3795
 208   2.0000      -0.633613       -17.2415
 209   2.0000      -0.630253       -17.1500
 210   2.0000      -0.626988       -17.0612
 211   2.0000      -0.625530       -17.0215
 212   2.0000      -0.621640       -16.9157
 213   2.0000      -0.619315       -16.8524
 214   2.0000      -0.618259       -16.8237
 215   2.0000      -0.616595       -16.7784
 216   2.0000      -0.611551       -16.6411
 217   2.0000      -0.609595       -16.5879
 218   2.0000      -0.604887       -16.4598
 219   2.0000      -0.604520       -16.4498
 220   2.0000      -0.596490       -16.2313
 221   2.0000      -0.590597       -16.0710
 222   2.0000      -0.588474       -16.0132
 223   2.0000      -0.581744       -15.8301
 224   2.0000      -0.579899       -15.7799
 225   2.0000      -0.578058       -15.7298
 226   2.0000      -0.577983       -15.7277
 227   2.0000      -0.576480       -15.6868
 228   2.0000      -0.571994       -15.5648
 229   2.0000      -0.571273       -15.5451
 230   2.0000      -0.570310       -15.5189
 231   2.0000      -0.566229       -15.4079
 232   2.0000      -0.565180       -15.3793
 233   2.0000      -0.561509       -15.2794
 234   2.0000      -0.559009       -15.2114
 235   2.0000      -0.549705       -14.9582
 236   2.0000      -0.548914       -14.9367
 237   2.0000      -0.547656       -14.9025
 238   2.0000      -0.545520       -14.8443
 239   2.0000      -0.540590       -14.7102
 240   2.0000      -0.539933       -14.6923
 241   2.0000      -0.534358       -14.5406
 242   2.0000      -0.531357       -14.4590
 243   2.0000      -0.528080       -14.3698
 244   2.0000      -0.525222       -14.2920
 245   2.0000      -0.522728       -14.2242
 246   2.0000      -0.520142       -14.1538
 247   2.0000      -0.519141       -14.1265
 248   2.0000      -0.516593       -14.0572
 249   2.0000      -0.510524       -13.8921
 250   2.0000      -0.508346       -13.8328
 251   2.0000      -0.507669       -13.8144
 252   2.0000      -0.506709       -13.7883
 253   2.0000      -0.498342       -13.5606
 254   2.0000      -0.495649       -13.4873
 255   2.0000      -0.490364       -13.3435
 256   2.0000      -0.484622       -13.1872
 257   2.0000      -0.478578       -13.0228
 258   2.0000      -0.477720       -12.9994
 259   2.0000      -0.476948       -12.9784
 260   2.0000      -0.470369       -12.7994
 261   2.0000      -0.464102       -12.6289
 262   2.0000      -0.462137       -12.5754
 263   2.0000      -0.457997       -12.4627
 264   2.0000      -0.454926       -12.3792
 265   2.0000      -0.430760       -11.7216
 266   2.0000      -0.428576       -11.6621
 267   2.0000      -0.414614       -11.2822
 268   2.0000      -0.412417       -11.2224
 269   2.0000      -0.400714       -10.9040
 270   2.0000      -0.396693       -10.7946
 271   2.0000      -0.388776       -10.5791
 272   2.0000      -0.384412       -10.4604
 273   2.0000      -0.374330       -10.1860
 274   2.0000      -0.359778        -9.7901
 275   2.0000      -0.348323        -9.4784
 276   2.0000      -0.341090        -9.2815
 277   2.0000      -0.322026        -8.7628
 278   2.0000      -0.317604        -8.6425
 279   2.0000      -0.298641        -8.1264
 280   2.0000      -0.253344        -6.8938
 281   0.0000      -0.025876        -0.7041
 282   0.0000      -0.019549        -0.5320
 283   0.0000       0.009864         0.2684
 284   0.0000       0.022101         0.6014
 285   0.0000       0.029286         0.7969

MULLIKEN ATOMIC CHARGES
-----------------------
   0 C :    0.544924
   1 O :   -0.443963
   2 C :   -0.168239
   3 C :   -0.030926
   4 C :    0.344000
   5 F :   -0.313500
   6 C :    0.354289
   7 F :   -0.309749
   8 C :   -0.053137
   9 C :   -0.029443
  10 C :    0.271771
  11 C :   -0.391102
  12 C :    0.037632
  13 N :   -0.082995
  14 C :    0.030739
  15 N :   -0.068472
  16 C :   -0.344741
  17 C :    0.102931
  18 C :   -0.243305
  19 Se:    0.432741
  20 C :   -0.076379
  21 C :   -0.144092
  22 C :   -0.082167
  23 C :   -0.027484
  24 C :    0.003269
  25 S :    0.223259
  26 C :    0.047140
  27 C :    0.095146
  28 N :   -0.590744
  29 C :    0.137093
  30 C :   -0.045809
  31 C :    0.277496
  32 C :   -0.250605
  33 C :    0.173756
  34 N :   -0.480709
  35 S :    0.589462
  36 N :   -0.464734
  37 C :    0.136082
  38 C :   -0.183051
  39 C :    0.182483
  40 N :   -0.590975
  41 C :    0.121131
  42 C :   -0.049453
  43 C :    0.375687
  44 C :   -0.227871
  45 S :   -0.304482
  46 C :    0.049407
  47 C :   -0.293363
  48 Se:    0.637010
  49 C :    0.048035
  50 C :   -0.210507
  51 C :    0.037765
  52 C :   -0.027031
  53 C :    0.016476
  54 C :   -0.355802
  55 C :    0.272783
  56 C :   -0.338507
  57 C :    0.036521
  58 N :   -0.025578
  59 C :    0.034228
  60 N :   -0.026359
  61 C :   -0.043743
  62 C :   -0.021820
  63 C :    0.324010
  64 F :   -0.308951
  65 C :    0.357911
  66 F :   -0.306888
  67 C :   -0.083007
  68 C :    0.093853
  69 C :    0.294646
  70 O :   -0.241471
  71 H :    0.075646
  72 H :    0.096661
  73 H :    0.080905
  74 H :    0.073238
  75 H :    0.058518
  76 H :    0.035449
  77 H :    0.058402
  78 H :    0.038197
  79 H :    0.068242
  80 H :    0.055528
  81 H :    0.058766
  82 H :    0.039070
  83 H :    0.052220
  84 H :    0.046208
  85 H :    0.087708
  86 H :    0.045381
  87 H :    0.054550
  88 H :    0.047879
  89 H :    0.050708
  90 H :    0.079334
  91 H :    0.041669
  92 H :    0.045818
  93 H :    0.042808
  94 H :    0.080261
  95 H :    0.088878
  96 H :    0.095434
Sum of atomic charges:   -0.0000000

LOEWDIN ATOMIC CHARGES
----------------------
   0 C :    0.178739
   1 O :   -0.266491
   2 C :   -0.050819
   3 C :    0.009726
   4 C :    0.121428
   5 F :   -0.111606
   6 C :    0.124321
   7 F :   -0.109204
   8 C :   -0.001222
   9 C :   -0.020707
  10 C :    0.124761
  11 C :   -0.187680
  12 C :    0.016655
  13 N :   -0.103931
  14 C :    0.011562
  15 N :   -0.097497
  16 C :   -0.190877
  17 C :    0.123803
  18 C :   -0.217686
  19 Se:    0.414696
  20 C :   -0.145519
  21 C :   -0.219048
  22 C :    0.039679
  23 C :   -0.015194
  24 C :   -0.015137
  25 S :    0.406426
  26 C :   -0.143151
  27 C :   -0.039806
  28 N :   -0.023924
  29 C :    0.077562
  30 C :   -0.034273
  31 C :    0.062986
  32 C :   -0.111528
  33 C :   -0.017389
  34 N :   -0.328043
  35 S :    0.629138
  36 N :   -0.314499
  37 C :   -0.041361
  38 C :   -0.044426
  39 C :   -0.005330
  40 N :   -0.011353
  41 C :    0.070200
  42 C :   -0.035391
  43 C :    0.057243
  44 C :   -0.239920
  45 S :   -0.176050
  46 C :   -0.107372
  47 C :   -0.253425
  48 Se:    0.745440
  49 C :   -0.015025
  50 C :   -0.029299
  51 C :   -0.005288
  52 C :   -0.028337
  53 C :   -0.060646
  54 C :   -0.048776
  55 C :    0.118829
  56 C :   -0.132559
  57 C :    0.005959
  58 N :   -0.061030
  59 C :    0.005873
  60 N :   -0.063815
  61 C :   -0.036259
  62 C :    0.017846
  63 C :    0.114310
  64 F :   -0.107950
  65 C :    0.143619
  66 F :   -0.105193
  67 C :   -0.015932
  68 C :    0.018993
  69 C :    0.093337
  70 O :   -0.122831
  71 H :    0.054779
  72 H :    0.055046
  73 H :    0.046437
  74 H :    0.032341
  75 H :    0.024946
  76 H :    0.017404
  77 H :    0.027768
  78 H :    0.018515
  79 H :    0.022787
  80 H :    0.017740
  81 H :    0.029598
  82 H :    0.013034
  83 H :    0.028131
  84 H :    0.013465
  85 H :    0.011333
  86 H :    0.015793
  87 H :    0.029741
  88 H :    0.026114
  89 H :    0.030233
  90 H :    0.040180
  91 H :    0.020231
  92 H :    0.023444
  93 H :    0.021993
  94 H :    0.047756
  95 H :    0.058725
  96 H :    0.052134

  Mayer bond orders larger than 0.100000
B(  0-C ,  1-O ) :   1.9221 B(  0-C ,  2-C ) :   0.9967 B(  0-C , 16-C ) :   1.0326
B(  2-C ,  3-C ) :   1.3930 B(  2-C ,  9-C ) :   1.3692 B(  3-C ,  4-C ) :   1.3713
B(  3-C , 71-H ) :   1.0144 B(  4-C ,  5-F ) :   0.9330 B(  4-C ,  6-C ) :   1.3469
B(  6-C ,  7-F ) :   0.9434 B(  6-C ,  8-C ) :   1.3937 B(  8-C ,  9-C ) :   1.3858
B(  8-C , 72-H ) :   0.9904 B(  9-C , 10-C ) :   1.0333 B( 10-C , 11-C ) :   1.6453
B( 10-C , 16-C ) :   1.1474 B( 11-C , 12-C ) :   1.0769 B( 11-C , 14-C ) :   1.0684
B( 12-C , 13-N ) :   2.9715 B( 14-C , 15-N ) :   2.9834 B( 16-C , 17-C ) :   1.4892
B( 17-C , 18-C ) :   1.3875 B( 17-C , 73-H ) :   0.9587 B( 18-C , 19-Se) :   1.0035
B( 18-C , 22-C ) :   1.4322 B( 19-Se, 20-C ) :   0.9821 B( 20-C , 21-C ) :   1.4516
B( 20-C , 27-C ) :   1.3971 B( 21-C , 22-C ) :   1.5120 B( 21-C , 25-S ) :   0.9790
B( 22-C , 23-C ) :   0.9805 B( 23-C , 24-C ) :   1.0377 B( 23-C , 74-H ) :   0.9580
B( 23-C , 75-H ) :   0.9670 B( 24-C , 76-H ) :   0.9852 B( 24-C , 77-H ) :   0.9858
B( 24-C , 78-H ) :   0.9813 B( 25-S , 26-C ) :   0.9996 B( 26-C , 27-C ) :   1.4418
B( 26-C , 32-C ) :   1.4326 B( 27-C , 28-N ) :   1.0601 B( 28-N , 29-C ) :   0.8471
B( 28-N , 31-C ) :   1.1268 B( 29-C , 30-C ) :   1.0506 B( 29-C , 79-H ) :   0.9759
B( 29-C , 80-H ) :   0.9757 B( 30-C , 81-H ) :   0.9786 B( 30-C , 82-H ) :   0.9811
B( 30-C , 83-H ) :   0.9820 B( 31-C , 32-C ) :   1.4234 B( 31-C , 39-C ) :   1.1813
B( 32-C , 33-C ) :   1.1391 B( 33-C , 34-N ) :   1.5773 B( 33-C , 37-C ) :   1.1297
B( 34-N , 35-S ) :   1.1955 B( 34-N , 36-N ) :   0.1041 B( 35-S , 36-N ) :   1.2089
B( 36-N , 37-C ) :   1.5906 B( 37-C , 38-C ) :   1.1211 B( 38-C , 39-C ) :   1.4860
B( 38-C , 44-C ) :   1.4785 B( 39-C , 40-N ) :   1.0265 B( 40-N , 41-C ) :   0.8142
B( 40-N , 43-C ) :   1.2260 B( 41-C , 42-C ) :   1.0522 B( 41-C , 84-H ) :   0.9760
B( 41-C , 85-H ) :   0.9379 B( 42-C , 86-H ) :   0.9790 B( 42-C , 87-H ) :   0.9840
B( 42-C , 88-H ) :   0.9792 B( 43-C , 44-C ) :   1.3817 B( 43-C , 47-C ) :   1.0115
B( 44-C , 48-Se) :   0.9569 B( 45-S , 46-C ) :   1.4782 B( 45-S , 85-H ) :   0.1291
B( 46-C , 47-C ) :   1.4667 B( 46-C , 50-C ) :   0.9521 B( 47-C , 48-Se) :   1.0181
B( 48-Se, 69-C ) :   0.9159 B( 49-C , 50-C ) :   1.8945 B( 49-C , 53-C ) :   1.8683
B( 50-C , 51-C ) :   0.9357 B( 51-C , 52-C ) :   1.0703 B( 51-C , 89-H ) :   0.9590
B( 51-C , 90-H ) :   0.9506 B( 52-C , 91-H ) :   0.9778 B( 52-C , 92-H ) :   0.9860
B( 52-C , 93-H ) :   0.9812 B( 53-C , 54-C ) :   0.9457 B( 53-C , 94-H ) :   0.9817
B( 54-C , 55-C ) :   0.9438 B( 54-C , 68-C ) :   0.9880 B( 54-C , 69-C ) :   0.7842
B( 55-C , 56-C ) :   1.8264 B( 55-C , 61-C ) :   1.0726 B( 56-C , 57-C ) :   1.0542
B( 56-C , 59-C ) :   1.0512 B( 57-C , 58-N ) :   3.0318 B( 59-C , 60-N ) :   3.0254
B( 61-C , 62-C ) :   1.3476 B( 61-C , 68-C ) :   1.3828 B( 62-C , 63-C ) :   1.4143
B( 62-C , 95-H ) :   1.0111 B( 63-C , 64-F ) :   0.9324 B( 63-C , 65-C ) :   1.3410
B( 65-C , 66-F ) :   0.9380 B( 65-C , 67-C ) :   1.3794 B( 67-C , 68-C ) :   1.4330
B( 67-C , 96-H ) :   1.0198 B( 69-C , 70-O ) :   2.1623

-----------------------------------------------------------------------------
         ABSORPTION SPECTRUM VIA TRANSITION ELECTRIC DIPOLE MOMENTS
-----------------------------------------------------------------------------
State   Energy    Wavelength  fosc         T2        TX        TY        TZ
        (cm-1)      (nm)                 (au**2)    (au)      (au)      (au)
-----------------------------------------------------------------------------
   1   22216.3    450.1   2.182316082  32.33860   4.18563  -3.55605   1.47431
   2   26251.6    380.9   0.118754182   1.48926  -0.10161   0.84703  -0.87262
   3   30229.1    330.8   0.155924054   1.69810  -0.35896  -0.42530   1.17829

FINAL SINGLE POINT ENERGY     -8955.829368226376

DIPOLE MOMENT
-------------
                                X             Y             Z
Electronic contribution:     -8.78376       0.83873       6.45315
Nuclear contribution   :     13.09535      -3.11091      -5.76826
                        -----------------------------------------
Total Dipole Moment    :      4.31159      -2.27217       0.68489
                        -----------------------------------------
Magnitude (a.u.)       :      4.92155
Magnitude (Debye)      :     12.50958

Rotational constants in cm-1:     0.001724     0.000334     0.000321
Rotational constants in MHz :    51.688977    10.010354     9.623701

                             ****ORCA TERMINATED NORMALLY****
TOTAL RUN TIME: 0 days 20 hours 44 minutes 6 seconds 82 msec
