                         Program Version 4.2.0 -  RELEASE  -
|  1> # ORCA input file
|  2> # CH1007.out: Geometry 27
|  3> ! Engrad Keepdens
|  4> %maxcore 1000
|  5> %tddft
|  6>   nroots 3
|  7>   # nroots is the number of states to be computed
|  8>   Iroot 1
|  9>   end
| 10> * xyz 0 1
| 11>    C        4.27765         0.55529         0.94973
| 12>    O        3.78035         0.94856         1.98802
| 13>    C        5.50586         1.10864         0.32366
| 14>    C        6.30123         2.14253         0.80468
| 15>    C        7.45581         2.44633         0.09202
| 16>    F        8.27592         3.41020         0.50190
| 17>    C        7.78616         1.72584        -1.07067
| 18>    F        8.91616         2.02980        -1.70240
| 19>    C        6.97612         0.70505        -1.56102
| 20>    C        5.81403         0.38804        -0.84557
| 21>    C        4.77904        -0.65419        -1.04672
| 22>    C        4.67167        -1.47167        -2.15576
| 23>    C        3.63290        -2.44356        -2.30694
| 24>    N        2.79638        -3.23889        -2.44322
| 25>    C        5.57408        -1.38854        -3.26158
| 26>    N        6.30259        -1.32072        -4.16448
| 27>    C        3.87688        -0.60809         0.10563
| 28>    C        3.01465        -1.60811         0.51099
| 29>    C        2.11803        -1.60387         1.61402
| 30>   Se        2.06607        -3.26484         2.60287
| 31>    C        1.05507        -2.35253         3.88122
| 32>    C        0.78609        -1.03685         3.45062
| 33>    C        1.31796        -0.61736         2.20858
| 34>    C        0.91025         0.70599         1.60862
| 35>    C        0.53955         0.65927         0.12228
| 36>    S       -0.10565        -0.08306         4.63810
| 37>    C       -0.08369        -1.44574         5.71283
| 38>    C        0.55359        -2.57630         5.18490
| 39>    N        0.51260        -3.61524         6.11130
| 40>    C        0.50508        -4.98930         5.59721
| 41>    C       -0.88231        -5.43852         5.14828
| 42>    C       -0.14758        -3.12811         7.25672
| 43>    C       -0.53194        -1.77385         7.00796
| 44>    C       -1.25623        -0.99570         7.96553
| 45>    N       -1.63260         0.27199         7.85303
| 46>    S       -2.45611         0.64866         9.23926
| 47>    N       -2.34495        -0.81334        10.01029
| 48>    C       -1.66734        -1.62017         9.20349
| 49>    C       -1.26420        -2.96786         9.46257
| 50>    C       -0.44956        -3.70611         8.54222
| 51>    N       -0.08193        -4.90264         9.16400
| 52>    C        0.92576        -5.88176         8.77272
| 53>    C        0.33364        -7.20076         8.27708
| 54>    C       -0.67888        -4.94269        10.41453
| 55>    C       -1.42610        -3.77083        10.60745
| 56>    S       -2.21619        -3.69438        12.15031
| 57>    C       -1.51192        -5.26041        12.57585
| 58>    C       -0.70991        -5.79422        11.54190
| 59>   Se        0.00843        -7.44338        12.04131
| 60>    C       -0.87815        -7.19982        13.73313
| 61>    C       -1.64991        -6.02783        13.75941
| 62>    C       -2.70419        -5.73664        14.79895
| 63>    C       -2.71439        -4.31875        15.38185
| 64>    C       -0.69038        -8.25297        14.67082
| 65>    C       -0.62367        -8.21288        16.04903
| 66>    C       -0.50582        -9.36996        16.93934
| 67>    C       -0.71498       -10.70029        16.62145
| 68>    C       -0.55945       -11.75405        17.57566
| 69>    N       -0.43146       -12.62085        18.33920
| 70>    C       -1.12535       -11.15650        15.32881
| 71>    N       -1.46802       -11.57133        14.29825
| 72>    C       -0.15999        -8.86117        18.28915
| 73>    C        0.07193        -9.51480        19.50769
| 74>    C        0.36113        -8.73563        20.62432
| 75>    F        0.59131        -9.31963        21.79765
| 76>    C        0.41784        -7.33113        20.55565
| 77>    F        0.68272        -6.64780        21.66462
| 78>    C        0.19989        -6.67464        19.34995
| 79>    C       -0.08809        -7.45603        18.23732
| 80>    C       -0.37204        -6.98261        16.85841
| 81>    O       -0.33106        -5.82552        16.48748
| 82>    H        6.04066         2.68573         1.71434
| 83>    H        7.29242         0.18952        -2.46522
| 84>    H        3.11040        -2.57052        -0.00020
| 85>    H        1.71981         1.43027         1.78281
| 86>    H        0.04094         1.07124         2.17905
| 87>    H        1.40582         0.42764        -0.51267
| 88>    H        0.13984         1.63296        -0.20050
| 89>    H       -0.22946        -0.10334        -0.07380
| 90>    H        0.91826        -5.67159         6.34190
| 91>    H        1.21058        -5.01450         4.75390
| 92>    H       -1.59151        -5.42377         5.99033
| 93>    H       -0.84180        -6.46320         4.74744
| 94>    H       -1.27171        -4.77699         4.35988
| 95>    H        1.56351        -6.06541         9.65263
| 96>    H        1.57948        -5.41004         8.02917
| 97>    H       -0.21021        -7.71715         9.08248
| 98>    H        1.13507        -7.86871         7.92519
| 99>    H       -0.37508        -7.04294         7.45212
|100>    H       -2.62431        -6.46991        15.60857
|101>    H       -3.67426        -5.93110        14.30244
|102>    H       -1.73676        -4.06468        15.80916
|103>    H       -3.46678        -4.25031        16.18242
|104>    H       -2.97884        -3.56153        14.62960
|105>    H       -0.50385        -9.22712        14.21161
|106>    H        0.04118       -10.59576        19.63057
|107>    H        0.24991        -5.58629        19.28317
|108> *
|109>
|110>                          ****END OF INPUT****

CARTESIAN COORDINATES (ANGSTROEM)
---------------------------------
  C      4.277650    0.555290    0.949730
  O      3.780350    0.948560    1.988020
  C      5.505860    1.108640    0.323660
  C      6.301230    2.142530    0.804680
  C      7.455810    2.446330    0.092020
  F      8.275920    3.410200    0.501900
  C      7.786160    1.725840   -1.070670
  F      8.916160    2.029800   -1.702400
  C      6.976120    0.705050   -1.561020
  C      5.814030    0.388040   -0.845570
  C      4.779040   -0.654190   -1.046720
  C      4.671670   -1.471670   -2.155760
  C      3.632900   -2.443560   -2.306940
  N      2.796380   -3.238890   -2.443220
  C      5.574080   -1.388540   -3.261580
  N      6.302590   -1.320720   -4.164480
  C      3.876880   -0.608090    0.105630
  C      3.014650   -1.608110    0.510990
  C      2.118030   -1.603870    1.614020
  Se     2.066070   -3.264840    2.602870
  C      1.055070   -2.352530    3.881220
  C      0.786090   -1.036850    3.450620
  C      1.317960   -0.617360    2.208580
  C      0.910250    0.705990    1.608620
  C      0.539550    0.659270    0.122280
  S     -0.105650   -0.083060    4.638100
  C     -0.083690   -1.445740    5.712830
  C      0.553590   -2.576300    5.184900
  N      0.512600   -3.615240    6.111300
  C      0.505080   -4.989300    5.597210
  C     -0.882310   -5.438520    5.148280
  C     -0.147580   -3.128110    7.256720
  C     -0.531940   -1.773850    7.007960
  C     -1.256230   -0.995700    7.965530
  N     -1.632600    0.271990    7.853030
  S     -2.456110    0.648660    9.239260
  N     -2.344950   -0.813340   10.010290
  C     -1.667340   -1.620170    9.203490
  C     -1.264200   -2.967860    9.462570
  C     -0.449560   -3.706110    8.542220
  N     -0.081930   -4.902640    9.164000
  C      0.925760   -5.881760    8.772720
  C      0.333640   -7.200760    8.277080
  C     -0.678880   -4.942690   10.414530
  C     -1.426100   -3.770830   10.607450
  S     -2.216190   -3.694380   12.150310
  C     -1.511920   -5.260410   12.575850
  C     -0.709910   -5.794220   11.541900
  Se     0.008430   -7.443380   12.041310
  C     -0.878150   -7.199820   13.733130
  C     -1.649910   -6.027830   13.759410
  C     -2.704190   -5.736640   14.798950
  C     -2.714390   -4.318750   15.381850
  C     -0.690380   -8.252970   14.670820
  C     -0.623670   -8.212880   16.049030
  C     -0.505820   -9.369960   16.939340
  C     -0.714980  -10.700290   16.621450
  C     -0.559450  -11.754050   17.575660
  N     -0.431460  -12.620850   18.339200
  C     -1.125350  -11.156500   15.328810
  N     -1.468020  -11.571330   14.298250
  C     -0.159990   -8.861170   18.289150
  C      0.071930   -9.514800   19.507690
  C      0.361130   -8.735630   20.624320
  F      0.591310   -9.319630   21.797650
  C      0.417840   -7.331130   20.555650
  F      0.682720   -6.647800   21.664620
  C      0.199890   -6.674640   19.349950
  C     -0.088090   -7.456030   18.237320
  C     -0.372040   -6.982610   16.858410
  O     -0.331060   -5.825520   16.487480
  H      6.040660    2.685730    1.714340
  H      7.292420    0.189520   -2.465220
  H      3.110400   -2.570520   -0.000200
  H      1.719810    1.430270    1.782810
  H      0.040940    1.071240    2.179050
  H      1.405820    0.427640   -0.512670
  H      0.139840    1.632960   -0.200500
  H     -0.229460   -0.103340   -0.073800
  H      0.918260   -5.671590    6.341900
  H      1.210580   -5.014500    4.753900
  H     -1.591510   -5.423770    5.990330
  H     -0.841800   -6.463200    4.747440
  H     -1.271710   -4.776990    4.359880
  H      1.563510   -6.065410    9.652630
  H      1.579480   -5.410040    8.029170
  H     -0.210210   -7.717150    9.082480
  H      1.135070   -7.868710    7.925190
  H     -0.375080   -7.042940    7.452120
  H     -2.624310   -6.469910   15.608570
  H     -3.674260   -5.931100   14.302440
  H     -1.736760   -4.064680   15.809160
  H     -3.466780   -4.250310   16.182420
  H     -2.978840   -3.561530   14.629600
  H     -0.503850   -9.227120   14.211610
  H      0.041180  -10.595760   19.630570
  H      0.249910   -5.586290   19.283170

 Total Charge           Charge          ....    0
 Multiplicity           Mult            ....    1
 Number of Electrons    NEL             ....  562
 Basis Dimension        Dim             .... 1172

ORBITAL ENERGIES
----------------

  NO   OCC          E(Eh)            E(eV)
   0   2.0000    -460.843744    -12540.1958
   1   2.0000    -460.843328    -12540.1845
   2   2.0000     -92.022665     -2504.0640
   3   2.0000     -91.978831     -2502.8712
   4   2.0000     -91.978763     -2502.8694
   5   2.0000     -60.670944     -1650.9403
   6   2.0000     -60.670521     -1650.9288
   7   2.0000     -54.287610     -1477.2410
   8   2.0000     -54.287192     -1477.2296
   9   2.0000     -54.286986     -1477.2240
  10   2.0000     -54.286568     -1477.2126
  11   2.0000     -54.286309     -1477.2056
  12   2.0000     -54.285869     -1477.1936
  13   2.0000     -26.341142      -716.7789
  14   2.0000     -26.340953      -716.7738
  15   2.0000     -26.338393      -716.7041
  16   2.0000     -26.337923      -716.6913
  17   2.0000     -20.575819      -559.8965
  18   2.0000     -20.574706      -559.8662
  19   2.0000     -15.661949      -426.1833
  20   2.0000     -15.656065      -426.0232
  21   2.0000     -15.623924      -425.1486
  22   2.0000     -15.622029      -425.0970
  23   2.0000     -15.602882      -424.5760
  24   2.0000     -15.601987      -424.5517
  25   2.0000     -15.600986      -424.5244
  26   2.0000     -15.599425      -424.4819
  27   2.0000     -11.383799      -309.7689
  28   2.0000     -11.383414      -309.7584
  29   2.0000     -11.381785      -309.7141
  30   2.0000     -11.381367      -309.7027
  31   2.0000     -11.375537      -309.5441
  32   2.0000     -11.374918      -309.5272
  33   2.0000     -11.354894      -308.9824
  34   2.0000     -11.354674      -308.9764
  35   2.0000     -11.342618      -308.6483
  36   2.0000     -11.340262      -308.5842
  37   2.0000     -11.335982      -308.4677
  38   2.0000     -11.334320      -308.4225
  39   2.0000     -11.332715      -308.3788
  40   2.0000     -11.332470      -308.3722
  41   2.0000     -11.324151      -308.1458
  42   2.0000     -11.321555      -308.0752
  43   2.0000     -11.320492      -308.0463
  44   2.0000     -11.319181      -308.0106
  45   2.0000     -11.317849      -307.9743
  46   2.0000     -11.316936      -307.9495
  47   2.0000     -11.315304      -307.9051
  48   2.0000     -11.315189      -307.9019
  49   2.0000     -11.314187      -307.8747
  50   2.0000     -11.313494      -307.8558
  51   2.0000     -11.312849      -307.8383
  52   2.0000     -11.312640      -307.8326
  53   2.0000     -11.312504      -307.8289
  54   2.0000     -11.312169      -307.8198
  55   2.0000     -11.311469      -307.8007
  56   2.0000     -11.309687      -307.7522
  57   2.0000     -11.303311      -307.5787
  58   2.0000     -11.303086      -307.5726
  59   2.0000     -11.302391      -307.5537
  60   2.0000     -11.301904      -307.5404
  61   2.0000     -11.301685      -307.5345
  62   2.0000     -11.301345      -307.5252
  63   2.0000     -11.301259      -307.5229
  64   2.0000     -11.299822      -307.4838
  65   2.0000     -11.297709      -307.4263
  66   2.0000     -11.297250      -307.4138
  67   2.0000     -11.296055      -307.3813
  68   2.0000     -11.295541      -307.3673
  69   2.0000     -11.288959      -307.1882
  70   2.0000     -11.288077      -307.1642
  71   2.0000     -11.285328      -307.0894
  72   2.0000     -11.281993      -306.9986
  73   2.0000     -11.270479      -306.6853
  74   2.0000     -11.264952      -306.5349
  75   2.0000     -11.262556      -306.4697
  76   2.0000     -11.257603      -306.3349
  77   2.0000     -11.244587      -305.9808
  78   2.0000     -11.236717      -305.7666
  79   2.0000      -9.053742      -246.3648
  80   2.0000      -9.012843      -245.2519
  81   2.0000      -9.012575      -245.2446
  82   2.0000      -8.952979      -243.6229
  83   2.0000      -8.952506      -243.6101
  84   2.0000      -6.740893      -183.4290
  85   2.0000      -6.739192      -183.3827
  86   2.0000      -6.737407      -183.3342
  87   2.0000      -6.700311      -182.3247
  88   2.0000      -6.700036      -182.3173
  89   2.0000      -6.699454      -182.3014
  90   2.0000      -6.699165      -182.2936
  91   2.0000      -6.697212      -182.2404
  92   2.0000      -6.696910      -182.2322
  93   2.0000      -6.690974      -182.0707
  94   2.0000      -6.690510      -182.0580
  95   2.0000      -6.687812      -181.9846
  96   2.0000      -6.687369      -181.9726
  97   2.0000      -6.682374      -181.8366
  98   2.0000      -6.681812      -181.8213
  99   2.0000      -2.681268       -72.9610
 100   2.0000      -2.680824       -72.9489
 101   2.0000      -2.679469       -72.9120
 102   2.0000      -2.679070       -72.9012
 103   2.0000      -2.673614       -72.7527
 104   2.0000      -2.673086       -72.7384
 105   2.0000      -2.669572       -72.6428
 106   2.0000      -2.669051       -72.6286
 107   2.0000      -2.669033       -72.6281
 108   2.0000      -2.668475       -72.6129
 109   2.0000      -1.653530       -44.9948
 110   2.0000      -1.653325       -44.9893
 111   2.0000      -1.637693       -44.5639
 112   2.0000      -1.637246       -44.5517
 113   2.0000      -1.405006       -38.2322
 114   2.0000      -1.403959       -38.2037
 115   2.0000      -1.352419       -36.8012
 116   2.0000      -1.340415       -36.4745
 117   2.0000      -1.333470       -36.2856
 118   2.0000      -1.251134       -34.0451
 119   2.0000      -1.249963       -34.0132
 120   2.0000      -1.230133       -33.4736
 121   2.0000      -1.229356       -33.4525
 122   2.0000      -1.226927       -33.3864
 123   2.0000      -1.225638       -33.3513
 124   2.0000      -1.214845       -33.0576
 125   2.0000      -1.213046       -33.0087
 126   2.0000      -1.196506       -32.5586
 127   2.0000      -1.174251       -31.9530
 128   2.0000      -1.173044       -31.9201
 129   2.0000      -1.166082       -31.7307
 130   2.0000      -1.148296       -31.2467
 131   2.0000      -1.140540       -31.0357
 132   2.0000      -1.108835       -30.1729
 133   2.0000      -1.102442       -29.9990
 134   2.0000      -1.097284       -29.8586
 135   2.0000      -1.084449       -29.5094
 136   2.0000      -1.077473       -29.3195
 137   2.0000      -1.072817       -29.1928
 138   2.0000      -1.071938       -29.1689
 139   2.0000      -1.071312       -29.1519
 140   2.0000      -1.062566       -28.9139
 141   2.0000      -1.058727       -28.8094
 142   2.0000      -1.034684       -28.1552
 143   2.0000      -1.030393       -28.0384
 144   2.0000      -1.010014       -27.4839
 145   2.0000      -1.005550       -27.3624
 146   2.0000      -0.997464       -27.1424
 147   2.0000      -0.991389       -26.9771
 148   2.0000      -0.969183       -26.3728
 149   2.0000      -0.948012       -25.7967
 150   2.0000      -0.944903       -25.7121
 151   2.0000      -0.942225       -25.6392
 152   2.0000      -0.940738       -25.5988
 153   2.0000      -0.933178       -25.3931
 154   2.0000      -0.907005       -24.6808
 155   2.0000      -0.906086       -24.6559
 156   2.0000      -0.898936       -24.4613
 157   2.0000      -0.888005       -24.1638
 158   2.0000      -0.870110       -23.6769
 159   2.0000      -0.867630       -23.6094
 160   2.0000      -0.862909       -23.4810
 161   2.0000      -0.862272       -23.4636
 162   2.0000      -0.860802       -23.4236
 163   2.0000      -0.850110       -23.1327
 164   2.0000      -0.838780       -22.8244
 165   2.0000      -0.830183       -22.5904
 166   2.0000      -0.818999       -22.2861
 167   2.0000      -0.806064       -21.9341
 168   2.0000      -0.804819       -21.9002
 169   2.0000      -0.801747       -21.8166
 170   2.0000      -0.791877       -21.5481
 171   2.0000      -0.790042       -21.4981
 172   2.0000      -0.789081       -21.4720
 173   2.0000      -0.781373       -21.2623
 174   2.0000      -0.771757       -21.0006
 175   2.0000      -0.770279       -20.9604
 176   2.0000      -0.758886       -20.6503
 177   2.0000      -0.753334       -20.4993
 178   2.0000      -0.749236       -20.3877
 179   2.0000      -0.748038       -20.3551
 180   2.0000      -0.747743       -20.3471
 181   2.0000      -0.732225       -19.9249
 182   2.0000      -0.729650       -19.8548
 183   2.0000      -0.727547       -19.7976
 184   2.0000      -0.726014       -19.7558
 185   2.0000      -0.719831       -19.5876
 186   2.0000      -0.719438       -19.5769
 187   2.0000      -0.713630       -19.4189
 188   2.0000      -0.710264       -19.3273
 189   2.0000      -0.701395       -19.0859
 190   2.0000      -0.694091       -18.8872
 191   2.0000      -0.689057       -18.7502
 192   2.0000      -0.684502       -18.6262
 193   2.0000      -0.681998       -18.5581
 194   2.0000      -0.676252       -18.4018
 195   2.0000      -0.669153       -18.2086
 196   2.0000      -0.666583       -18.1386
 197   2.0000      -0.666273       -18.1302
 198   2.0000      -0.663287       -18.0490
 199   2.0000      -0.656716       -17.8701
 200   2.0000      -0.653336       -17.7782
 201   2.0000      -0.648932       -17.6584
 202   2.0000      -0.646727       -17.5983
 203   2.0000      -0.646340       -17.5878
 204   2.0000      -0.642439       -17.4816
 205   2.0000      -0.638518       -17.3750
 206   2.0000      -0.633021       -17.2254
 207   2.0000      -0.631600       -17.1867
 208   2.0000      -0.629286       -17.1238
 209   2.0000      -0.627747       -17.0819
 210   2.0000      -0.625876       -17.0310
 211   2.0000      -0.623127       -16.9562
 212   2.0000      -0.622257       -16.9325
 213   2.0000      -0.619807       -16.8658
 214   2.0000      -0.618285       -16.8244
 215   2.0000      -0.610319       -16.6076
 216   2.0000      -0.607662       -16.5353
 217   2.0000      -0.600414       -16.3381
 218   2.0000      -0.591147       -16.0859
 219   2.0000      -0.587341       -15.9824
 220   2.0000      -0.584877       -15.9153
 221   2.0000      -0.583873       -15.8880
 222   2.0000      -0.583366       -15.8742
 223   2.0000      -0.578937       -15.7537
 224   2.0000      -0.578166       -15.7327
 225   2.0000      -0.577876       -15.7248
 226   2.0000      -0.577037       -15.7020
 227   2.0000      -0.575921       -15.6716
 228   2.0000      -0.573846       -15.6151
 229   2.0000      -0.567809       -15.4509
 230   2.0000      -0.566488       -15.4149
 231   2.0000      -0.565559       -15.3896
 232   2.0000      -0.564219       -15.3532
 233   2.0000      -0.555181       -15.1072
 234   2.0000      -0.551329       -15.0024
 235   2.0000      -0.547272       -14.8920
 236   2.0000      -0.544038       -14.8040
 237   2.0000      -0.542202       -14.7541
 238   2.0000      -0.541269       -14.7287
 239   2.0000      -0.539078       -14.6690
 240   2.0000      -0.537635       -14.6298
 241   2.0000      -0.533350       -14.5132
 242   2.0000      -0.530533       -14.4365
 243   2.0000      -0.526694       -14.3321
 244   2.0000      -0.523119       -14.2348
 245   2.0000      -0.510570       -13.8933
 246   2.0000      -0.507262       -13.8033
 247   2.0000      -0.504748       -13.7349
 248   2.0000      -0.502564       -13.6755
 249   2.0000      -0.502274       -13.6676
 250   2.0000      -0.501194       -13.6382
 251   2.0000      -0.500708       -13.6250
 252   2.0000      -0.498098       -13.5539
 253   2.0000      -0.493993       -13.4422
 254   2.0000      -0.486873       -13.2485
 255   2.0000      -0.484876       -13.1941
 256   2.0000      -0.484351       -13.1799
 257   2.0000      -0.482647       -13.1335
 258   2.0000      -0.476200       -12.9581
 259   2.0000      -0.474681       -12.9167
 260   2.0000      -0.473300       -12.8791
 261   2.0000      -0.470373       -12.7995
 262   2.0000      -0.465866       -12.6769
 263   2.0000      -0.457013       -12.4359
 264   2.0000      -0.455229       -12.3874
 265   2.0000      -0.451630       -12.2895
 266   2.0000      -0.450845       -12.2681
 267   2.0000      -0.412399       -11.2219
 268   2.0000      -0.406567       -11.0632
 269   2.0000      -0.396563       -10.7910
 270   2.0000      -0.394138       -10.7250
 271   2.0000      -0.384482       -10.4623
 272   2.0000      -0.380034       -10.3413
 273   2.0000      -0.364630        -9.9221
 274   2.0000      -0.360174        -9.8008
 275   2.0000      -0.351758        -9.5718
 276   2.0000      -0.347418        -9.4537
 277   2.0000      -0.330062        -8.9814
 278   2.0000      -0.317542        -8.6408
 279   2.0000      -0.312569        -8.5054
 280   2.0000      -0.263557        -7.1717
 281   0.0000      -0.035071        -0.9543
 282   0.0000      -0.021746        -0.5917
 283   0.0000       0.004468         0.1216
 284   0.0000       0.012581         0.3423
 285   0.0000       0.024639         0.6705

MULLIKEN ATOMIC CHARGES
-----------------------
   0 C :    0.495760
   1 O :   -0.369000
   2 C :   -0.181987
   3 C :   -0.036317
   4 C :    0.344925
   5 F :   -0.303167
   6 C :    0.343185
   7 F :   -0.301436
   8 C :   -0.053924
   9 C :   -0.022497
  10 C :    0.224305
  11 C :   -0.334363
  12 C :    0.034999
  13 N :   -0.075499
  14 C :    0.043034
  15 N :   -0.079426
  16 C :   -0.295978
  17 C :    0.146271
  18 C :   -0.321472
  19 Se:    0.297917
  20 C :   -0.092857
  21 C :   -0.168871
  22 C :    0.021940
  23 C :    0.003688
  24 C :   -0.053481
  25 S :    0.238791
  26 C :    0.010333
  27 C :    0.137352
  28 N :   -0.600037
  29 C :    0.129343
  30 C :   -0.059833
  31 C :    0.256891
  32 C :   -0.217578
  33 C :    0.160786
  34 N :   -0.466414
  35 S :    0.547398
  36 N :   -0.471196
  37 C :    0.169046
  38 C :   -0.226960
  39 C :    0.255718
  40 N :   -0.605788
  41 C :    0.107583
  42 C :   -0.059034
  43 C :    0.147124
  44 C :    0.019431
  45 S :    0.224809
  46 C :   -0.134391
  47 C :   -0.093825
  48 Se:    0.302695
  49 C :   -0.319219
  50 C :   -0.000583
  51 C :    0.014623
  52 C :   -0.066213
  53 C :    0.144537
  54 C :   -0.288321
  55 C :    0.225225
  56 C :   -0.339305
  57 C :    0.043557
  58 N :   -0.082240
  59 C :    0.032968
  60 N :   -0.077677
  61 C :   -0.022726
  62 C :   -0.057033
  63 C :    0.344731
  64 F :   -0.301824
  65 C :    0.345131
  66 F :   -0.302485
  67 C :   -0.037330
  68 C :   -0.184522
  69 C :    0.488119
  70 O :   -0.365039
  71 H :    0.088880
  72 H :    0.105388
  73 H :    0.100462
  74 H :    0.105222
  75 H :    0.051179
  76 H :    0.050106
  77 H :    0.047509
  78 H :    0.048175
  79 H :    0.043240
  80 H :    0.058483
  81 H :    0.056022
  82 H :    0.054784
  83 H :    0.064364
  84 H :    0.069523
  85 H :    0.068030
  86 H :    0.062550
  87 H :    0.055984
  88 H :    0.050003
  89 H :    0.047676
  90 H :    0.070807
  91 H :    0.080340
  92 H :    0.041447
  93 H :    0.051335
  94 H :    0.100626
  95 H :    0.107260
  96 H :    0.088237
Sum of atomic charges:   -0.0000000

LOEWDIN ATOMIC CHARGES
----------------------
   0 C :    0.168794
   1 O :   -0.224305
   2 C :   -0.052248
   3 C :    0.003684
   4 C :    0.121913
   5 F :   -0.101916
   6 C :    0.120394
   7 F :   -0.101363
   8 C :   -0.005980
   9 C :   -0.024849
  10 C :    0.120325
  11 C :   -0.170097
  12 C :    0.012960
  13 N :   -0.094396
  14 C :    0.017053
  15 N :   -0.093765
  16 C :   -0.154783
  17 C :    0.112117
  18 C :   -0.197686
  19 Se:    0.354584
  20 C :   -0.163878
  21 C :   -0.192905
  22 C :    0.039189
  23 C :   -0.020466
  24 C :   -0.030519
  25 S :    0.418601
  26 C :   -0.162056
  27 C :   -0.015849
  28 N :   -0.052876
  29 C :    0.077177
  30 C :   -0.041142
  31 C :    0.042919
  32 C :   -0.082051
  33 C :   -0.024525
  34 N :   -0.309439
  35 S :    0.589356
  36 N :   -0.313681
  37 C :   -0.020203
  38 C :   -0.093796
  39 C :    0.050279
  40 N :   -0.035487
  41 C :    0.072828
  42 C :   -0.045728
  43 C :   -0.020310
  44 C :   -0.159455
  45 S :    0.422235
  46 C :   -0.195527
  47 C :   -0.158727
  48 Se:    0.361410
  49 C :   -0.201072
  50 C :    0.039874
  51 C :   -0.011900
  52 C :   -0.036182
  53 C :    0.114961
  54 C :   -0.160243
  55 C :    0.121462
  56 C :   -0.172612
  57 C :    0.018067
  58 N :   -0.095894
  59 C :    0.012493
  60 N :   -0.095655
  61 C :   -0.024851
  62 C :   -0.006332
  63 C :    0.120810
  64 F :   -0.101941
  65 C :    0.121709
  66 F :   -0.101091
  67 C :    0.002628
  68 C :   -0.052854
  69 C :    0.166669
  70 O :   -0.224830
  71 H :    0.059331
  72 H :    0.057387
  73 H :    0.047475
  74 H :    0.042219
  75 H :    0.020399
  76 H :    0.016611
  77 H :    0.024820
  78 H :    0.022757
  79 H :    0.017438
  80 H :    0.020638
  81 H :    0.023594
  82 H :    0.028368
  83 H :    0.029771
  84 H :    0.025533
  85 H :    0.024369
  86 H :    0.022058
  87 H :    0.029992
  88 H :    0.023373
  89 H :    0.024057
  90 H :    0.036030
  91 H :    0.029804
  92 H :    0.023773
  93 H :    0.007472
  94 H :    0.046944
  95 H :    0.057643
  96 H :    0.059115

  Mayer bond orders larger than 0.100000
B(  0-C ,  1-O ) :   2.0304 B(  0-C ,  2-C ) :   0.9727 B(  0-C , 16-C ) :   0.9929
B(  2-C ,  3-C ) :   1.3805 B(  2-C ,  9-C ) :   1.3835 B(  3-C ,  4-C ) :   1.3936
B(  3-C , 71-H ) :   1.0062 B(  4-C ,  5-F ) :   0.9433 B(  4-C ,  6-C ) :   1.3221
B(  6-C ,  7-F ) :   0.9481 B(  6-C ,  8-C ) :   1.4253 B(  8-C ,  9-C ) :   1.3592
B(  8-C , 72-H ) :   0.9862 B(  9-C , 10-C ) :   1.0404 B( 10-C , 11-C ) :   1.6983
B( 10-C , 16-C ) :   1.0859 B( 11-C , 12-C ) :   1.0574 B( 11-C , 14-C ) :   1.0525
B( 12-C , 13-N ) :   2.9909 B( 14-C , 15-N ) :   2.9856 B( 16-C , 17-C ) :   1.6590
B( 17-C , 18-C ) :   1.2094 B( 17-C , 73-H ) :   0.9485 B( 18-C , 19-Se) :   1.0289
B( 18-C , 22-C ) :   1.5914 B( 19-Se, 20-C ) :   1.0351 B( 20-C , 21-C ) :   1.5225
B( 20-C , 27-C ) :   1.3404 B( 21-C , 22-C ) :   1.3738 B( 21-C , 25-S ) :   1.0190
B( 22-C , 23-C ) :   0.9498 B( 23-C , 24-C ) :   1.0502 B( 23-C , 74-H ) :   0.9363
B( 23-C , 75-H ) :   0.9718 B( 24-C , 76-H ) :   0.9825 B( 24-C , 77-H ) :   0.9859
B( 24-C , 78-H ) :   0.9844 B( 25-S , 26-C ) :   1.0040 B( 26-C , 27-C ) :   1.4781
B( 26-C , 32-C ) :   1.4010 B( 27-C , 28-N ) :   1.0614 B( 28-N , 29-C ) :   0.8675
B( 28-N , 31-C ) :   1.0751 B( 29-C , 30-C ) :   1.0357 B( 29-C , 79-H ) :   0.9813
B( 29-C , 80-H ) :   0.9774 B( 30-C , 81-H ) :   0.9765 B( 30-C , 82-H ) :   0.9825
B( 30-C , 83-H ) :   0.9795 B( 31-C , 32-C ) :   1.4869 B( 31-C , 39-C ) :   1.1493
B( 32-C , 33-C ) :   1.1114 B( 33-C , 34-N ) :   1.6107 B( 33-C , 37-C ) :   1.1065
B( 34-N , 35-S ) :   1.1655 B( 34-N , 36-N ) :   0.1063 B( 35-S , 36-N ) :   1.1629
B( 36-N , 37-C ) :   1.6084 B( 37-C , 38-C ) :   1.1173 B( 38-C , 39-C ) :   1.4523
B( 38-C , 44-C ) :   1.4257 B( 39-C , 40-N ) :   1.1051 B( 40-N , 41-C ) :   0.8388
B( 40-N , 43-C ) :   1.0658 B( 41-C , 42-C ) :   1.0309 B( 41-C , 84-H ) :   0.9780
B( 41-C , 85-H ) :   0.9863 B( 42-C , 86-H ) :   0.9780 B( 42-C , 87-H ) :   0.9819
B( 42-C , 88-H ) :   0.9802 B( 43-C , 44-C ) :   1.4606 B( 43-C , 47-C ) :   1.3376
B( 44-C , 45-S ) :   1.0037 B( 45-S , 46-C ) :   1.0134 B( 46-C , 47-C ) :   1.5179
B( 46-C , 50-C ) :   1.3573 B( 47-C , 48-Se) :   1.0374 B( 48-Se, 49-C ) :   1.0356
B( 49-C , 50-C ) :   1.6006 B( 49-C , 53-C ) :   1.2040 B( 50-C , 51-C ) :   0.9700
B( 51-C , 52-C ) :   1.0370 B( 51-C , 89-H ) :   0.9665 B( 51-C , 90-H ) :   0.9621
B( 52-C , 91-H ) :   0.9814 B( 52-C , 92-H ) :   0.9846 B( 52-C , 93-H ) :   0.9780
B( 53-C , 54-C ) :   1.6552 B( 53-C , 94-H ) :   0.9457 B( 54-C , 55-C ) :   1.0958
B( 54-C , 69-C ) :   0.9895 B( 55-C , 56-C ) :   1.6866 B( 55-C , 61-C ) :   1.0418
B( 56-C , 57-C ) :   1.0535 B( 56-C , 59-C ) :   1.0592 B( 57-C , 58-N ) :   2.9818
B( 59-C , 60-N ) :   2.9872 B( 61-C , 62-C ) :   1.3572 B( 61-C , 68-C ) :   1.3839
B( 62-C , 63-C ) :   1.4260 B( 62-C , 95-H ) :   0.9845 B( 63-C , 64-F ) :   0.9491
B( 63-C , 65-C ) :   1.3211 B( 65-C , 66-F ) :   0.9436 B( 65-C , 67-C ) :   1.3950
B( 67-C , 68-C ) :   1.3802 B( 67-C , 96-H ) :   1.0061 B( 68-C , 69-C ) :   0.9682
B( 69-C , 70-O ) :   2.0475

-----------------------------------------------------------------------------
         ABSORPTION SPECTRUM VIA TRANSITION ELECTRIC DIPOLE MOMENTS
-----------------------------------------------------------------------------
State   Energy    Wavelength  fosc         T2        TX        TY        TZ
        (cm-1)      (nm)                 (au**2)    (au)      (au)      (au)
-----------------------------------------------------------------------------
   1   21761.7    459.5   2.746671866  41.55175   1.55860   2.78722  -5.59945
   2   26374.1    379.2   0.458934942   5.72862  -1.90745   1.42004   0.27153
   3   32366.6    309.0   0.011565924   0.11764   0.22135   0.19300  -0.17720

FINAL SINGLE POINT ENERGY     -8956.052541431274

DIPOLE MOMENT
-------------
                                X             Y             Z
Electronic contribution:     30.84111     -18.85600       2.88688
Nuclear contribution   :    -31.82798      20.29936      -2.74321
                        -----------------------------------------
Total Dipole Moment    :     -0.98687       1.44336       0.14367
                        -----------------------------------------
Magnitude (a.u.)       :      1.75438
Magnitude (Debye)      :      4.45928

Rotational constants in cm-1:     0.001803     0.000222     0.000218
Rotational constants in MHz :    54.064800     6.643127     6.527228

                             ****ORCA TERMINATED NORMALLY****
TOTAL RUN TIME: 0 days 11 hours 16 minutes 28 seconds 116 msec
