                         Program Version 4.2.0 -  RELEASE  -
|  1> # ORCA input file
|  2> # CPDT-4F.out: Geometry 22
|  3> ! Engrad Keepdens
|  4> %maxcore 1000
|  5> %tddft
|  6>   nroots 3
|  7>   # nroots is the number of states to be computed
|  8>   Iroot 1
|  9>   end
| 10> * xyz 0 1
| 11>    C       -0.99898         5.03151         1.95528
| 12>    C       -2.15001         4.29619         2.22677
| 13>    C       -2.13921         2.89017         2.26939
| 14>    C       -0.95885         2.18759         2.05091
| 15>    C        0.18826         2.92488         1.78189
| 16>    C        0.19338         4.33225         1.72441
| 17>    C        1.55237         2.41287         1.49732
| 18>    C        2.39922         3.59881         1.23801
| 19>    C        1.56697         4.79321         1.39287
| 20>    C        3.72803         3.56360         0.85543
| 21>    C        4.64053         2.52429         0.56151
| 22>    C        5.93146         2.82144         0.05400
| 23>    C        6.66894         1.69331        -0.28882
| 24>    C        5.95467         0.50979        -0.00506
| 25>    S        4.38728         0.76744         0.64665
| 26>    C        8.02133         1.36997        -0.93351
| 27>    C        7.95509        -0.15655        -0.93767
| 28>    C        6.74815        -0.60889        -0.39629
| 29>    C        8.76661        -1.20627        -1.40156
| 30>    C        8.17753        -2.46101        -1.21560
| 31>    S        6.59551        -2.32685        -0.44783
| 32>    C        8.66122        -3.75331        -1.60926
| 33>    S       10.09727        -3.89920        -2.62323
| 34>    C        9.91114        -5.61712        -2.67070
| 35>    C        8.80341        -6.05513        -1.93985
| 36>    C        8.09684        -5.00273        -1.33680
| 37>    C       10.54364        -6.74493        -3.27661
| 38>    C        9.83909        -7.91648        -2.91804
| 39>    C        8.64455        -7.56865        -2.02787
| 40>    S       11.86996        -7.05639        -4.30751
| 41>    C       11.51954        -8.80516        -4.27522
| 42>    C       10.39958        -9.07256        -3.45878
| 43>    C       12.36337        -9.59947        -5.08692
| 44>    C       12.43546       -10.95799        -5.34409
| 45>    C       13.37468       -11.58557        -6.28057
| 46>    C       13.16482       -13.05310        -6.20615
| 47>    C       12.13920       -13.31461        -5.27881
| 48>    C       11.62629       -12.03819        -4.71800
| 49>    C       13.78854       -14.12401        -6.86189
| 50>    C       13.36629       -15.41455        -6.55520
| 51>    C       12.34151       -15.65809        -5.62119
| 52>    C       11.71146       -14.60143        -4.97200
| 53>    F       11.98569       -16.91517        -5.37117
| 54>    F       13.94408       -16.45450        -7.15203
| 55>    O       10.72199       -11.95007        -3.90351
| 56>    C       14.29714       -10.97431        -7.11520
| 57>    C       15.15393       -11.71229        -7.99060
| 58>    C       14.48924        -9.56005        -7.20291
| 59>    C        8.73526        -8.21734        -0.62516
| 60>    C        7.28979        -7.89083        -2.72341
| 61>    C        7.04989        -9.35660        -3.07789
| 62>    C       10.05818        -7.97488         0.10038
| 63>    C        9.22855         1.89731        -0.12091
| 64>    C        8.09213         1.86401        -2.40763
| 65>    C        8.03818         3.37520        -2.62037
| 66>    C        9.31086         1.39997         1.31957
| 67>    O        1.88776         1.23958         1.48232
| 68>    F       -3.29951         4.92831         2.45237
| 69>    F       -3.27671         2.24794         2.52153
| 70>    C        1.93646         6.12115         1.24863
| 71>    C        1.01447         7.20427         1.39245
| 72>    C        3.26693         6.54037         0.93356
| 73>    N        4.34557         6.89061         0.67596
| 74>    N        0.28011         8.09886         1.50066
| 75>    N       15.85444       -12.29753        -8.71016
| 76>    N       14.66910        -8.41456        -7.29063
| 77>    H       -1.07943         6.11649         1.93087
| 78>    H       -0.93968         1.09684         2.08750
| 79>    H        4.19785         4.53308         0.69491
| 80>    H        6.26054         3.85528        -0.05641
| 81>    H        9.74491        -1.08084        -1.86728
| 82>    H        7.19858        -5.12004        -0.72952
| 83>    H       10.05982       -10.09509        -3.30869
| 84>    H       13.09683        -8.99559        -5.62031
| 85>    H       14.58666       -14.00765        -7.59171
| 86>    H       10.91335       -14.78089        -4.24965
| 87>    H        8.56044        -9.30017        -0.72779
| 88>    H        7.89656        -7.82653        -0.02348
| 89>    H        7.23015        -7.28076        -3.63901
| 90>    H        6.48517        -7.52786        -2.06054
| 91>    H        7.79986        -9.72921        -3.78981
| 92>    H        6.06327        -9.47485        -3.55282
| 93>    H        7.07086       -10.01149        -2.19406
| 94>    H       10.90545        -8.38299        -0.47145
| 95>    H       10.05480        -8.46412         1.08542
| 96>    H       10.24584        -6.90098         0.25721
| 97>    H        9.19244         2.99811        -0.12873
| 98>    H       10.14461         1.61676        -0.67008
| 99>    H        7.27063         1.38620        -2.96508
|100>    H        9.02620         1.46511        -2.83868
|101>    H        7.06416         3.79340        -2.32546
|102>    H        8.18725         3.61338        -3.68482
|103>    H        8.81713         3.90922        -2.05776
|104>    H        8.39713         1.65146         1.88120
|105>    H       10.15879         1.86686         1.84274
|106>    H        9.44541         0.30804         1.36649
|107> *
|108>
|109>                          ****END OF INPUT****

CARTESIAN COORDINATES (ANGSTROEM)
---------------------------------
  C     -0.998980    5.031510    1.955280
  C     -2.150010    4.296190    2.226770
  C     -2.139210    2.890170    2.269390
  C     -0.958850    2.187590    2.050910
  C      0.188260    2.924880    1.781890
  C      0.193380    4.332250    1.724410
  C      1.552370    2.412870    1.497320
  C      2.399220    3.598810    1.238010
  C      1.566970    4.793210    1.392870
  C      3.728030    3.563600    0.855430
  C      4.640530    2.524290    0.561510
  C      5.931460    2.821440    0.054000
  C      6.668940    1.693310   -0.288820
  C      5.954670    0.509790   -0.005060
  S      4.387280    0.767440    0.646650
  C      8.021330    1.369970   -0.933510
  C      7.955090   -0.156550   -0.937670
  C      6.748150   -0.608890   -0.396290
  C      8.766610   -1.206270   -1.401560
  C      8.177530   -2.461010   -1.215600
  S      6.595510   -2.326850   -0.447830
  C      8.661220   -3.753310   -1.609260
  S     10.097270   -3.899200   -2.623230
  C      9.911140   -5.617120   -2.670700
  C      8.803410   -6.055130   -1.939850
  C      8.096840   -5.002730   -1.336800
  C     10.543640   -6.744930   -3.276610
  C      9.839090   -7.916480   -2.918040
  C      8.644550   -7.568650   -2.027870
  S     11.869960   -7.056390   -4.307510
  C     11.519540   -8.805160   -4.275220
  C     10.399580   -9.072560   -3.458780
  C     12.363370   -9.599470   -5.086920
  C     12.435460  -10.957990   -5.344090
  C     13.374680  -11.585570   -6.280570
  C     13.164820  -13.053100   -6.206150
  C     12.139200  -13.314610   -5.278810
  C     11.626290  -12.038190   -4.718000
  C     13.788540  -14.124010   -6.861890
  C     13.366290  -15.414550   -6.555200
  C     12.341510  -15.658090   -5.621190
  C     11.711460  -14.601430   -4.972000
  F     11.985690  -16.915170   -5.371170
  F     13.944080  -16.454500   -7.152030
  O     10.721990  -11.950070   -3.903510
  C     14.297140  -10.974310   -7.115200
  C     15.153930  -11.712290   -7.990600
  C     14.489240   -9.560050   -7.202910
  C      8.735260   -8.217340   -0.625160
  C      7.289790   -7.890830   -2.723410
  C      7.049890   -9.356600   -3.077890
  C     10.058180   -7.974880    0.100380
  C      9.228550    1.897310   -0.120910
  C      8.092130    1.864010   -2.407630
  C      8.038180    3.375200   -2.620370
  C      9.310860    1.399970    1.319570
  O      1.887760    1.239580    1.482320
  F     -3.299510    4.928310    2.452370
  F     -3.276710    2.247940    2.521530
  C      1.936460    6.121150    1.248630
  C      1.014470    7.204270    1.392450
  C      3.266930    6.540370    0.933560
  N      4.345570    6.890610    0.675960
  N      0.280110    8.098860    1.500660
  N     15.854440  -12.297530   -8.710160
  N     14.669100   -8.414560   -7.290630
  H     -1.079430    6.116490    1.930870
  H     -0.939680    1.096840    2.087500
  H      4.197850    4.533080    0.694910
  H      6.260540    3.855280   -0.056410
  H      9.744910   -1.080840   -1.867280
  H      7.198580   -5.120040   -0.729520
  H     10.059820  -10.095090   -3.308690
  H     13.096830   -8.995590   -5.620310
  H     14.586660  -14.007650   -7.591710
  H     10.913350  -14.780890   -4.249650
  H      8.560440   -9.300170   -0.727790
  H      7.896560   -7.826530   -0.023480
  H      7.230150   -7.280760   -3.639010
  H      6.485170   -7.527860   -2.060540
  H      7.799860   -9.729210   -3.789810
  H      6.063270   -9.474850   -3.552820
  H      7.070860  -10.011490   -2.194060
  H     10.905450   -8.382990   -0.471450
  H     10.054800   -8.464120    1.085420
  H     10.245840   -6.900980    0.257210
  H      9.192440    2.998110   -0.128730
  H     10.144610    1.616760   -0.670080
  H      7.270630    1.386200   -2.965080
  H      9.026200    1.465110   -2.838680
  H      7.064160    3.793400   -2.325460
  H      8.187250    3.613380   -3.684820
  H      8.817130    3.909220   -2.057760
  H      8.397130    1.651460    1.881200
  H     10.158790    1.866860    1.842740
  H      9.445410    0.308040    1.366490

 Total Charge           Charge          ....    0
 Multiplicity           Mult            ....    1
 Number of Electrons    NEL             ....  486
 Basis Dimension        Dim             .... 1090

ORBITAL ENERGIES
----------------

  NO   OCC          E(Eh)            E(eV)
   0   2.0000     -91.994857     -2503.3073
   1   2.0000     -91.993505     -2503.2705
   2   2.0000     -91.991208     -2503.2080
   3   2.0000     -91.987809     -2503.1156
   4   2.0000     -26.337882      -716.6902
   5   2.0000     -26.337269      -716.6735
   6   2.0000     -26.334715      -716.6040
   7   2.0000     -26.334186      -716.5896
   8   2.0000     -20.573440      -559.8318
   9   2.0000     -20.570356      -559.7479
  10   2.0000     -15.599476      -424.4833
  11   2.0000     -15.598751      -424.4636
  12   2.0000     -15.593886      -424.3312
  13   2.0000     -15.593674      -424.3255
  14   2.0000     -11.379959      -309.6644
  15   2.0000     -11.379158      -309.6426
  16   2.0000     -11.377787      -309.6053
  17   2.0000     -11.377094      -309.5865
  18   2.0000     -11.373619      -309.4919
  19   2.0000     -11.369119      -309.3695
  20   2.0000     -11.351185      -308.8815
  21   2.0000     -11.351072      -308.8784
  22   2.0000     -11.328208      -308.2562
  23   2.0000     -11.328070      -308.2525
  24   2.0000     -11.327407      -308.2344
  25   2.0000     -11.327237      -308.2298
  26   2.0000     -11.327190      -308.2285
  27   2.0000     -11.326653      -308.2139
  28   2.0000     -11.325297      -308.1770
  29   2.0000     -11.321495      -308.0735
  30   2.0000     -11.312992      -307.8422
  31   2.0000     -11.311252      -307.7948
  32   2.0000     -11.308164      -307.7108
  33   2.0000     -11.307838      -307.7019
  34   2.0000     -11.307648      -307.6967
  35   2.0000     -11.306976      -307.6785
  36   2.0000     -11.306706      -307.6711
  37   2.0000     -11.306008      -307.6521
  38   2.0000     -11.304716      -307.6170
  39   2.0000     -11.304050      -307.5988
  40   2.0000     -11.301871      -307.5395
  41   2.0000     -11.298242      -307.4408
  42   2.0000     -11.297552      -307.4220
  43   2.0000     -11.297389      -307.4176
  44   2.0000     -11.297233      -307.4133
  45   2.0000     -11.292422      -307.2824
  46   2.0000     -11.291490      -307.2571
  47   2.0000     -11.290894      -307.2409
  48   2.0000     -11.290882      -307.2405
  49   2.0000     -11.289433      -307.2011
  50   2.0000     -11.288766      -307.1829
  51   2.0000     -11.288573      -307.1777
  52   2.0000     -11.286983      -307.1344
  53   2.0000     -11.286677      -307.1261
  54   2.0000     -11.281623      -306.9886
  55   2.0000     -11.277774      -306.8838
  56   2.0000     -11.274012      -306.7815
  57   2.0000     -11.272998      -306.7539
  58   2.0000     -11.261875      -306.4512
  59   2.0000     -11.260771      -306.4212
  60   2.0000     -11.260651      -306.4179
  61   2.0000     -11.259679      -306.3914
  62   2.0000     -11.246950      -306.0451
  63   2.0000     -11.243968      -305.9639
  64   2.0000     -11.242166      -305.9149
  65   2.0000     -11.241099      -305.8859
  66   2.0000      -9.029446      -245.7037
  67   2.0000      -9.028260      -245.6715
  68   2.0000      -9.026138      -245.6137
  69   2.0000      -9.021248      -245.4807
  70   2.0000      -6.716937      -182.7772
  71   2.0000      -6.716002      -182.7517
  72   2.0000      -6.715750      -182.7448
  73   2.0000      -6.714797      -182.7189
  74   2.0000      -6.714036      -182.6982
  75   2.0000      -6.713554      -182.6851
  76   2.0000      -6.712844      -182.6658
  77   2.0000      -6.712441      -182.6548
  78   2.0000      -6.710701      -182.6075
  79   2.0000      -6.708338      -182.5432
  80   2.0000      -6.707188      -182.5119
  81   2.0000      -6.705436      -182.4642
  82   2.0000      -1.649801       -44.8934
  83   2.0000      -1.649210       -44.8773
  84   2.0000      -1.634043       -44.4646
  85   2.0000      -1.633328       -44.4451
  86   2.0000      -1.400809       -38.1179
  87   2.0000      -1.398286       -38.0493
  88   2.0000      -1.250776       -34.0354
  89   2.0000      -1.246508       -33.9192
  90   2.0000      -1.245940       -33.9038
  91   2.0000      -1.244313       -33.8595
  92   2.0000      -1.226292       -33.3691
  93   2.0000      -1.226189       -33.3663
  94   2.0000      -1.221392       -33.2358
  95   2.0000      -1.221115       -33.2282
  96   2.0000      -1.206133       -32.8205
  97   2.0000      -1.189176       -32.3591
  98   2.0000      -1.167104       -31.7585
  99   2.0000      -1.164474       -31.6869
 100   2.0000      -1.145609       -31.1736
 101   2.0000      -1.130935       -30.7743
 102   2.0000      -1.101889       -29.9839
 103   2.0000      -1.100840       -29.9554
 104   2.0000      -1.092501       -29.7285
 105   2.0000      -1.089012       -29.6335
 106   2.0000      -1.070741       -29.1364
 107   2.0000      -1.067666       -29.0527
 108   2.0000      -1.067017       -29.0350
 109   2.0000      -1.048710       -28.5368
 110   2.0000      -1.033840       -28.1322
 111   2.0000      -1.032279       -28.0898
 112   2.0000      -1.030842       -28.0506
 113   2.0000      -1.025407       -27.9028
 114   2.0000      -1.022564       -27.8254
 115   2.0000      -1.015980       -27.6462
 116   2.0000      -1.006050       -27.3760
 117   2.0000      -0.987763       -26.8784
 118   2.0000      -0.960479       -26.1360
 119   2.0000      -0.939694       -25.5704
 120   2.0000      -0.938391       -25.5349
 121   2.0000      -0.937255       -25.5040
 122   2.0000      -0.934686       -25.4341
 123   2.0000      -0.926108       -25.2007
 124   2.0000      -0.902303       -24.5529
 125   2.0000      -0.881182       -23.9782
 126   2.0000      -0.860219       -23.4077
 127   2.0000      -0.858995       -23.3744
 128   2.0000      -0.856815       -23.3151
 129   2.0000      -0.854610       -23.2551
 130   2.0000      -0.851778       -23.1781
 131   2.0000      -0.839681       -22.8489
 132   2.0000      -0.835124       -22.7249
 133   2.0000      -0.828762       -22.5518
 134   2.0000      -0.816211       -22.2102
 135   2.0000      -0.801779       -21.8175
 136   2.0000      -0.800494       -21.7825
 137   2.0000      -0.789446       -21.4819
 138   2.0000      -0.786565       -21.4035
 139   2.0000      -0.784832       -21.3564
 140   2.0000      -0.778726       -21.1902
 141   2.0000      -0.770220       -20.9588
 142   2.0000      -0.766776       -20.8650
 143   2.0000      -0.760328       -20.6896
 144   2.0000      -0.756556       -20.5869
 145   2.0000      -0.752891       -20.4872
 146   2.0000      -0.746236       -20.3061
 147   2.0000      -0.744461       -20.2578
 148   2.0000      -0.743910       -20.2428
 149   2.0000      -0.739503       -20.1229
 150   2.0000      -0.728919       -19.8349
 151   2.0000      -0.724452       -19.7133
 152   2.0000      -0.720700       -19.6112
 153   2.0000      -0.716433       -19.4951
 154   2.0000      -0.715759       -19.4768
 155   2.0000      -0.710316       -19.3287
 156   2.0000      -0.698331       -19.0025
 157   2.0000      -0.691211       -18.8088
 158   2.0000      -0.686056       -18.6685
 159   2.0000      -0.679515       -18.4906
 160   2.0000      -0.676230       -18.4012
 161   2.0000      -0.663378       -18.0514
 162   2.0000      -0.662326       -18.0228
 163   2.0000      -0.658309       -17.9135
 164   2.0000      -0.657112       -17.8809
 165   2.0000      -0.654645       -17.8138
 166   2.0000      -0.647130       -17.6093
 167   2.0000      -0.645245       -17.5580
 168   2.0000      -0.641398       -17.4533
 169   2.0000      -0.640218       -17.4212
 170   2.0000      -0.635534       -17.2938
 171   2.0000      -0.633111       -17.2278
 172   2.0000      -0.631249       -17.1772
 173   2.0000      -0.626843       -17.0573
 174   2.0000      -0.625247       -17.0138
 175   2.0000      -0.621346       -16.9077
 176   2.0000      -0.620938       -16.8966
 177   2.0000      -0.620503       -16.8847
 178   2.0000      -0.620103       -16.8739
 179   2.0000      -0.611207       -16.6318
 180   2.0000      -0.608676       -16.5629
 181   2.0000      -0.601922       -16.3791
 182   2.0000      -0.599585       -16.3155
 183   2.0000      -0.593830       -16.1589
 184   2.0000      -0.582442       -15.8490
 185   2.0000      -0.581834       -15.8325
 186   2.0000      -0.580978       -15.8092
 187   2.0000      -0.579414       -15.7667
 188   2.0000      -0.575413       -15.6578
 189   2.0000      -0.574200       -15.6248
 190   2.0000      -0.573332       -15.6011
 191   2.0000      -0.573156       -15.5964
 192   2.0000      -0.572651       -15.5826
 193   2.0000      -0.571313       -15.5462
 194   2.0000      -0.566920       -15.4267
 195   2.0000      -0.563425       -15.3316
 196   2.0000      -0.562036       -15.2938
 197   2.0000      -0.560757       -15.2590
 198   2.0000      -0.560082       -15.2406
 199   2.0000      -0.553284       -15.0556
 200   2.0000      -0.549531       -14.9535
 201   2.0000      -0.546868       -14.8810
 202   2.0000      -0.544348       -14.8125
 203   2.0000      -0.536400       -14.5962
 204   2.0000      -0.534719       -14.5504
 205   2.0000      -0.533061       -14.5053
 206   2.0000      -0.530901       -14.4465
 207   2.0000      -0.529509       -14.4087
 208   2.0000      -0.517152       -14.0724
 209   2.0000      -0.514703       -14.0058
 210   2.0000      -0.513430       -13.9711
 211   2.0000      -0.510748       -13.8982
 212   2.0000      -0.508294       -13.8314
 213   2.0000      -0.498293       -13.5592
 214   2.0000      -0.497783       -13.5454
 215   2.0000      -0.497428       -13.5357
 216   2.0000      -0.496420       -13.5083
 217   2.0000      -0.495377       -13.4799
 218   2.0000      -0.491201       -13.3663
 219   2.0000      -0.486760       -13.2454
 220   2.0000      -0.484740       -13.1905
 221   2.0000      -0.480744       -13.0817
 222   2.0000      -0.479520       -13.0484
 223   2.0000      -0.478604       -13.0235
 224   2.0000      -0.477372       -12.9900
 225   2.0000      -0.476625       -12.9696
 226   2.0000      -0.476254       -12.9595
 227   2.0000      -0.450745       -12.2654
 228   2.0000      -0.447037       -12.1645
 229   2.0000      -0.443930       -12.0800
 230   2.0000      -0.426011       -11.5923
 231   2.0000      -0.400343       -10.8939
 232   2.0000      -0.391821       -10.6620
 233   2.0000      -0.391202       -10.6452
 234   2.0000      -0.388470       -10.5708
 235   2.0000      -0.381614       -10.3842
 236   2.0000      -0.380694       -10.3592
 237   2.0000      -0.378854       -10.3091
 238   2.0000      -0.363257        -9.8847
 239   2.0000      -0.356131        -9.6908
 240   2.0000      -0.346402        -9.4261
 241   2.0000      -0.304027        -8.2730
 242   2.0000      -0.265696        -7.2299
 243   0.0000      -0.040888        -1.1126
 244   0.0000      -0.018571        -0.5053
 245   0.0000       0.007671         0.2087
 246   0.0000       0.015871         0.4319
 247   0.0000       0.037575         1.0225

MULLIKEN ATOMIC CHARGES
-----------------------
   0 C :   -0.056435
   1 C :    0.343780
   2 C :    0.342895
   3 C :   -0.036925
   4 C :   -0.186298
   5 C :   -0.028665
   6 C :    0.516478
   7 C :   -0.310557
   8 C :    0.251468
   9 C :    0.083974
  10 C :   -0.180995
  11 C :    0.026109
  12 C :   -0.051322
  13 C :   -0.024982
  14 S :    0.272142
  15 C :   -0.308385
  16 C :   -0.013922
  17 C :   -0.111458
  18 C :   -0.003738
  19 C :   -0.106156
  20 S :    0.189600
  21 C :   -0.099705
  22 S :    0.194399
  23 C :   -0.109688
  24 C :   -0.010895
  25 C :   -0.006824
  26 C :   -0.025201
  27 C :   -0.085284
  28 C :   -0.313562
  29 S :    0.198149
  30 C :   -0.272633
  31 C :    0.093390
  32 C :    0.155453
  33 C :   -0.310583
  34 C :    0.244670
  35 C :   -0.027951
  36 C :   -0.181270
  37 C :    0.520655
  38 C :   -0.055485
  39 C :    0.344257
  40 C :    0.342819
  41 C :   -0.038202
  42 F :   -0.304622
  43 F :   -0.302738
  44 O :   -0.394777
  45 C :   -0.353740
  46 C :    0.044229
  47 C :    0.048305
  48 C :    0.022077
  49 C :    0.028038
  50 C :   -0.031142
  51 C :   -0.030997
  52 C :    0.016245
  53 C :    0.026272
  54 C :   -0.029497
  55 C :   -0.026209
  56 O :   -0.388659
  57 F :   -0.303101
  58 F :   -0.304681
  59 C :   -0.355403
  60 C :    0.043268
  61 C :    0.053602
  62 N :   -0.107038
  63 N :   -0.087572
  64 N :   -0.088893
  65 N :   -0.095543
  66 H :    0.106468
  67 H :    0.087096
  68 H :    0.089675
  69 H :    0.077026
  70 H :    0.061357
  71 H :    0.063399
  72 H :    0.117876
  73 H :    0.090670
  74 H :    0.107694
  75 H :    0.085970
  76 H :    0.050587
  77 H :    0.035542
  78 H :    0.045849
  79 H :    0.035094
  80 H :    0.048259
  81 H :    0.046880
  82 H :    0.037815
  83 H :    0.049296
  84 H :    0.044024
  85 H :    0.045799
  86 H :    0.048383
  87 H :    0.036331
  88 H :    0.046851
  89 H :    0.035974
  90 H :    0.041457
  91 H :    0.049423
  92 H :    0.038031
  93 H :    0.047111
  94 H :    0.044279
  95 H :    0.045242
Sum of atomic charges:   -0.0000000

LOEWDIN ATOMIC CHARGES
----------------------
   0 C :   -0.006617
   1 C :    0.119790
   2 C :    0.120367
   3 C :    0.002566
   4 C :   -0.052592
   5 C :   -0.023484
   6 C :    0.169452
   7 C :   -0.179589
   8 C :    0.129121
   9 C :    0.114492
  10 C :   -0.219650
  11 C :    0.033494
  12 C :   -0.075523
  13 C :   -0.130258
  14 S :    0.480927
  15 C :   -0.028169
  16 C :   -0.008607
  17 C :   -0.208122
  18 C :   -0.052005
  19 C :   -0.157585
  20 S :    0.423334
  21 C :   -0.157120
  22 S :    0.420738
  23 C :   -0.209777
  24 C :   -0.007052
  25 C :   -0.053219
  26 C :   -0.130136
  27 C :   -0.070543
  28 C :   -0.029858
  29 S :    0.438891
  30 C :   -0.217098
  31 C :    0.043556
  32 C :    0.108531
  33 C :   -0.172114
  34 C :    0.127303
  35 C :   -0.023851
  36 C :   -0.053218
  37 C :    0.177257
  38 C :   -0.006209
  39 C :    0.120050
  40 C :    0.120272
  41 C :    0.002095
  42 F :   -0.103169
  43 F :   -0.102881
  44 O :   -0.247633
  45 C :   -0.182145
  46 C :    0.019324
  47 C :    0.018501
  48 C :   -0.001580
  49 C :    0.002421
  50 C :   -0.037123
  51 C :   -0.037071
  52 C :   -0.003367
  53 C :    0.002025
  54 C :   -0.037511
  55 C :   -0.037008
  56 O :   -0.255660
  57 F :   -0.103143
  58 F :   -0.103189
  59 C :   -0.184672
  60 C :    0.017745
  61 C :    0.024293
  62 N :   -0.111268
  63 N :   -0.101695
  64 N :   -0.101475
  65 N :   -0.102381
  66 H :    0.057362
  67 H :    0.058645
  68 H :    0.052524
  69 H :    0.043066
  70 H :    0.033388
  71 H :    0.032981
  72 H :    0.046652
  73 H :    0.045726
  74 H :    0.057473
  75 H :    0.058032
  76 H :    0.019838
  77 H :    0.016463
  78 H :    0.022708
  79 H :    0.015364
  80 H :    0.021513
  81 H :    0.025345
  82 H :    0.017756
  83 H :    0.021145
  84 H :    0.022581
  85 H :    0.019568
  86 H :    0.018489
  87 H :    0.017116
  88 H :    0.023122
  89 H :    0.015408
  90 H :    0.018530
  91 H :    0.026725
  92 H :    0.017623
  93 H :    0.021174
  94 H :    0.022946
  95 H :    0.019558

  Mayer bond orders larger than 0.100000
B(  0-C ,  1-C ) :   1.4207 B(  0-C ,  5-C ) :   1.3644 B(  0-C , 66-H ) :   0.9840
B(  1-C ,  2-C ) :   1.3263 B(  1-C , 57-F ) :   0.9479 B(  2-C ,  3-C ) :   1.3910
B(  2-C , 58-F ) :   0.9410 B(  3-C ,  4-C ) :   1.3819 B(  3-C , 67-H ) :   1.0062
B(  4-C ,  5-C ) :   1.3884 B(  4-C ,  6-C ) :   0.9767 B(  5-C ,  8-C ) :   1.0388
B(  6-C ,  7-C ) :   0.9933 B(  6-C , 56-O ) :   2.0349 B(  7-C ,  8-C ) :   1.1306
B(  7-C ,  9-C ) :   1.5579 B(  8-C , 59-C ) :   1.6554 B(  9-C , 10-C ) :   1.3415
B(  9-C , 68-H ) :   0.9576 B( 10-C , 11-C ) :   1.3918 B( 10-C , 14-S ) :   1.0366
B( 11-C , 12-C ) :   1.4460 B( 11-C , 69-H ) :   0.9986 B( 12-C , 13-C ) :   1.4793
B( 12-C , 15-C ) :   0.9022 B( 13-C , 14-S ) :   1.1155 B( 13-C , 17-C ) :   1.2662
B( 15-C , 16-C ) :   0.9427 B( 15-C , 52-C ) :   1.0087 B( 15-C , 53-C ) :   1.0067
B( 16-C , 17-C ) :   1.5853 B( 16-C , 18-C ) :   1.3401 B( 17-C , 20-S ) :   1.0592
B( 18-C , 19-C ) :   1.5537 B( 18-C , 70-H ) :   0.9936 B( 19-C , 20-S ) :   1.1166
B( 19-C , 21-C ) :   1.1758 B( 21-C , 22-S ) :   1.1136 B( 21-C , 25-C ) :   1.5542
B( 22-S , 23-C ) :   1.0542 B( 23-C , 24-C ) :   1.5838 B( 23-C , 26-C ) :   1.2610
B( 24-C , 25-C ) :   1.3422 B( 24-C , 28-C ) :   0.9412 B( 25-C , 71-H ) :   0.9919
B( 26-C , 27-C ) :   1.4848 B( 26-C , 29-S ) :   1.1465 B( 27-C , 28-C ) :   0.9117
B( 27-C , 31-C ) :   1.4167 B( 28-C , 48-C ) :   1.0062 B( 28-C , 49-C ) :   1.0048
B( 29-S , 30-C ) :   1.0772 B( 30-C , 31-C ) :   1.3905 B( 30-C , 32-C ) :   1.2964
B( 31-C , 72-H ) :   0.9796 B( 32-C , 33-C ) :   1.6045 B( 32-C , 73-H ) :   0.9345
B( 33-C , 34-C ) :   1.1251 B( 33-C , 37-C ) :   0.9861 B( 34-C , 35-C ) :   1.0388
B( 34-C , 45-C ) :   1.6585 B( 35-C , 36-C ) :   1.3903 B( 35-C , 38-C ) :   1.3609
B( 36-C , 37-C ) :   0.9820 B( 36-C , 41-C ) :   1.3789 B( 37-C , 44-O ) :   2.0088
B( 38-C , 39-C ) :   1.4229 B( 38-C , 74-H ) :   0.9834 B( 39-C , 40-C ) :   1.3242
B( 39-C , 43-F ) :   0.9487 B( 40-C , 41-C ) :   1.3930 B( 40-C , 42-F ) :   0.9404
B( 41-C , 75-H ) :   1.0067 B( 45-C , 46-C ) :   1.0584 B( 45-C , 47-C ) :   1.0590
B( 46-C , 64-N ) :   2.9774 B( 47-C , 65-N ) :   2.9619 B( 48-C , 51-C ) :   1.0343
B( 48-C , 76-H ) :   0.9721 B( 48-C , 77-H ) :   0.9738 B( 49-C , 50-C ) :   1.0442
B( 49-C , 78-H ) :   0.9712 B( 49-C , 79-H ) :   0.9695 B( 50-C , 80-H ) :   0.9810
B( 50-C , 81-H ) :   0.9847 B( 50-C , 82-H ) :   0.9829 B( 51-C , 83-H ) :   0.9804
B( 51-C , 84-H ) :   0.9869 B( 51-C , 85-H ) :   0.9838 B( 52-C , 55-C ) :   1.0354
B( 52-C , 86-H ) :   0.9724 B( 52-C , 87-H ) :   0.9728 B( 53-C , 54-C ) :   1.0424
B( 53-C , 88-H ) :   0.9711 B( 53-C , 89-H ) :   0.9694 B( 54-C , 90-H ) :   0.9817
B( 54-C , 91-H ) :   0.9848 B( 54-C , 92-H ) :   0.9834 B( 55-C , 93-H ) :   0.9827
B( 55-C , 94-H ) :   0.9869 B( 55-C , 95-H ) :   0.9815 B( 59-C , 60-C ) :   1.0581
B( 59-C , 61-C ) :   1.0603 B( 60-C , 63-N ) :   2.9782 B( 61-C , 62-N ) :   2.9641

-----------------------------------------------------------------------------
         ABSORPTION SPECTRUM VIA TRANSITION ELECTRIC DIPOLE MOMENTS
-----------------------------------------------------------------------------
State   Energy    Wavelength  fosc         T2        TX        TY        TZ
        (cm-1)      (nm)                 (au**2)    (au)      (au)      (au)
-----------------------------------------------------------------------------
   1   20060.4    498.5   3.183691859  52.24777  -3.93219   5.50009   2.55630
   2   26394.7    378.9   0.079608243   0.99293   0.61788   0.09084   0.77647
   3   33545.2    298.1   0.168202906   1.65074   1.09084  -0.19207  -0.65108

FINAL SINGLE POINT ENERGY     -4339.128566521323

DIPOLE MOMENT
-------------
                                X             Y             Z
Electronic contribution:    -27.07556     -21.07815     -11.04078
Nuclear contribution   :     26.90997      20.13229      12.66126
                        -----------------------------------------
Total Dipole Moment    :     -0.16559      -0.94585       1.62048
                        -----------------------------------------
Magnitude (a.u.)       :      1.88362
Magnitude (Debye)      :      4.78778

Rotational constants in cm-1:     0.002686     0.000227     0.000214
Rotational constants in MHz :    80.525230     6.810972     6.423055

                             ****ORCA TERMINATED NORMALLY****
TOTAL RUN TIME: 0 days 7 hours 58 minutes 40 seconds 475 msec
