                         Program Version 4.2.0 -  RELEASE  -
|  1> # ORCA input file
|  2> # CPDT-4F.out
|  3> ! Engrad Keepdens
|  4> %maxcore 1000
|  5> %tddft
|  6>   nroots 3
|  7>   # nroots is the number of states to be computed
|  8>   Iroot 1
|  9>   end
| 10> * xyz 0 1
| 11>    C       -1.09716         4.47660         1.38562
| 12>    C       -2.18496         3.65483         1.64420
| 13>    C       -2.05078         2.27049         1.74858
| 14>    C       -0.81211         1.66834         1.59500
| 15>    C        0.26841         2.48690         1.33515
| 16>    C        0.14474         3.88220         1.22844
| 17>    C        1.67915         2.10418         1.11656
| 18>    C        2.39745         3.34921         0.84506
| 19>    C        1.46340         4.45108         0.93903
| 20>    C        3.72814         3.44919         0.50542
| 21>    C        4.69399         2.45909         0.31509
| 22>    C        5.98593         2.76845        -0.15161
| 23>    C        6.76186         1.65591        -0.36094
| 24>    C        6.08335         0.47228        -0.00399
| 25>    S        4.48482         0.72625         0.54035
| 26>    C        8.14677         1.34800        -0.88293
| 27>    C        8.14947        -0.15900        -0.76978
| 28>    C        6.93867        -0.61979        -0.24759
| 29>    C        9.01083        -1.18812        -1.11959
| 30>    C        8.47220        -2.43802        -0.85013
| 31>    S        6.87519        -2.33159        -0.13529
| 32>    C        9.01658        -3.70440        -1.17351
| 33>    S       10.36777        -3.82253        -2.28386
| 34>    C       10.24566        -5.53557        -2.24913
| 35>    C        9.24062        -5.98732        -1.39014
| 36>    C        8.54238        -4.95029        -0.79002
| 37>    C       10.83078        -6.64057        -2.89570
| 38>    C       10.20403        -7.81760        -2.44406
| 39>    C        9.14472        -7.49455        -1.41681
| 40>    S       12.01626        -6.93310        -4.08476
| 41>    C       11.65968        -8.66664        -4.02373
| 42>    C       10.68672        -8.94997        -3.06272
| 43>    C       12.35016        -9.46810        -4.94065
| 44>    C       12.17788       -10.78152        -5.31333
| 45>    C       12.98334       -11.43001        -6.33249
| 46>    C       12.35635       -12.71419        -6.64614
| 47>    C       11.25208       -12.89033        -5.79876
| 48>    C       11.11123       -11.71632        -4.90843
| 49>    C       12.67060       -13.68933        -7.57999
| 50>    C       11.86625       -14.81793        -7.63848
| 51>    C       10.77294       -14.98517        -6.78833
| 52>    C       10.45324       -14.01516        -5.85249
| 53>    F       10.02430       -16.09137        -6.87998
| 54>    F       12.14869       -15.76758        -8.53756
| 55>    O       10.26290       -11.59420        -4.04762
| 56>    C       14.14973       -10.97508        -6.89081
| 57>    C       14.87002       -11.66838        -7.88729
| 58>    C       14.82733        -9.78365        -6.55333
| 59>    C        9.47718        -8.11217        -0.04726
| 60>    C        7.72729        -7.88304        -1.89154
| 61>    C        7.47302        -9.37767        -2.03319
| 62>    C       10.80124        -7.61416         0.52075
| 63>    C        9.24136         1.99215        -0.01614
| 64>    C        8.30753         1.71316        -2.37514
| 65>    C        8.18099         3.19506        -2.69978
| 66>    C        9.19749         1.52159         1.43303
| 67>    O        2.12990         0.97345         1.16130
| 68>    F       -3.39299         4.20978         1.79386
| 69>    F       -3.12859         1.51605         1.99611
| 70>    C        1.72567         5.78886         0.79020
| 71>    C        0.75026         6.80287         0.89908
| 72>    C        2.98681         6.35687         0.51389
| 73>    N        3.97523         6.89825         0.28990
| 74>    N        0.00935         7.67644         0.97235
| 75>    N       15.50067       -12.17298        -8.70260
| 76>    N       15.45671        -8.84815        -6.33431
| 77>    H       -1.25682         5.53975         1.31331
| 78>    H       -0.70286         0.59838         1.67307
| 79>    H        4.10231         4.44736         0.31332
| 80>    H        6.28746         3.78719        -0.31866
| 81>    H        9.98650        -1.06740        -1.55532
| 82>    H        7.71929        -5.06277        -0.10738
| 83>    H       10.37300        -9.95684        -2.86339
| 84>    H       13.11476        -8.92558        -5.48424
| 85>    H       13.50108       -13.60928        -8.26161
| 86>    H        9.60850       -14.13774        -5.19357
| 87>    H        9.52477        -9.19524        -0.15944
| 88>    H        8.66928        -7.87206         0.64660
| 89>    H        7.55212        -7.39882        -2.85567
| 90>    H        7.01484        -7.46436        -1.17720
| 91>    H        8.14776        -9.82744        -2.75486
| 92>    H        6.45453        -9.53323        -2.38179
| 93>    H        7.58296        -9.88973        -1.08154
| 94>    H       11.62176        -7.84215        -0.15595
| 95>    H       11.00065        -8.09848         1.47341
| 96>    H       10.77751        -6.53879         0.68270
| 97>    H        9.11383         3.07452        -0.04142
| 98>    H       10.21429         1.75125        -0.44886
| 99>    H        7.55154         1.16169        -2.93993
|100>    H        9.28771         1.35621        -2.69833
|101>    H        7.19186         3.56531        -2.44702
|102>    H        8.33341         3.34216        -3.76649
|103>    H        8.92483         3.78301        -2.16983
|104>    H        8.23193         1.74460         1.88160
|105>    H        9.96781         2.02680         2.01041
|106>    H        9.36793         0.44940         1.49946
|107> *
|108>
|109>                          ****END OF INPUT****

CARTESIAN COORDINATES (ANGSTROEM)
---------------------------------
  C     -1.097160    4.476600    1.385620
  C     -2.184960    3.654830    1.644200
  C     -2.050780    2.270490    1.748580
  C     -0.812110    1.668340    1.595000
  C      0.268410    2.486900    1.335150
  C      0.144740    3.882200    1.228440
  C      1.679150    2.104180    1.116560
  C      2.397450    3.349210    0.845060
  C      1.463400    4.451080    0.939030
  C      3.728140    3.449190    0.505420
  C      4.693990    2.459090    0.315090
  C      5.985930    2.768450   -0.151610
  C      6.761860    1.655910   -0.360940
  C      6.083350    0.472280   -0.003990
  S      4.484820    0.726250    0.540350
  C      8.146770    1.348000   -0.882930
  C      8.149470   -0.159000   -0.769780
  C      6.938670   -0.619790   -0.247590
  C      9.010830   -1.188120   -1.119590
  C      8.472200   -2.438020   -0.850130
  S      6.875190   -2.331590   -0.135290
  C      9.016580   -3.704400   -1.173510
  S     10.367770   -3.822530   -2.283860
  C     10.245660   -5.535570   -2.249130
  C      9.240620   -5.987320   -1.390140
  C      8.542380   -4.950290   -0.790020
  C     10.830780   -6.640570   -2.895700
  C     10.204030   -7.817600   -2.444060
  C      9.144720   -7.494550   -1.416810
  S     12.016260   -6.933100   -4.084760
  C     11.659680   -8.666640   -4.023730
  C     10.686720   -8.949970   -3.062720
  C     12.350160   -9.468100   -4.940650
  C     12.177880  -10.781520   -5.313330
  C     12.983340  -11.430010   -6.332490
  C     12.356350  -12.714190   -6.646140
  C     11.252080  -12.890330   -5.798760
  C     11.111230  -11.716320   -4.908430
  C     12.670600  -13.689330   -7.579990
  C     11.866250  -14.817930   -7.638480
  C     10.772940  -14.985170   -6.788330
  C     10.453240  -14.015160   -5.852490
  F     10.024300  -16.091370   -6.879980
  F     12.148690  -15.767580   -8.537560
  O     10.262900  -11.594200   -4.047620
  C     14.149730  -10.975080   -6.890810
  C     14.870020  -11.668380   -7.887290
  C     14.827330   -9.783650   -6.553330
  C      9.477180   -8.112170   -0.047260
  C      7.727290   -7.883040   -1.891540
  C      7.473020   -9.377670   -2.033190
  C     10.801240   -7.614160    0.520750
  C      9.241360    1.992150   -0.016140
  C      8.307530    1.713160   -2.375140
  C      8.180990    3.195060   -2.699780
  C      9.197490    1.521590    1.433030
  O      2.129900    0.973450    1.161300
  F     -3.392990    4.209780    1.793860
  F     -3.128590    1.516050    1.996110
  C      1.725670    5.788860    0.790200
  C      0.750260    6.802870    0.899080
  C      2.986810    6.356870    0.513890
  N      3.975230    6.898250    0.289900
  N      0.009350    7.676440    0.972350
  N     15.500670  -12.172980   -8.702600
  N     15.456710   -8.848150   -6.334310
  H     -1.256820    5.539750    1.313310
  H     -0.702860    0.598380    1.673070
  H      4.102310    4.447360    0.313320
  H      6.287460    3.787190   -0.318660
  H      9.986500   -1.067400   -1.555320
  H      7.719290   -5.062770   -0.107380
  H     10.373000   -9.956840   -2.863390
  H     13.114760   -8.925580   -5.484240
  H     13.501080  -13.609280   -8.261610
  H      9.608500  -14.137740   -5.193570
  H      9.524770   -9.195240   -0.159440
  H      8.669280   -7.872060    0.646600
  H      7.552120   -7.398820   -2.855670
  H      7.014840   -7.464360   -1.177200
  H      8.147760   -9.827440   -2.754860
  H      6.454530   -9.533230   -2.381790
  H      7.582960   -9.889730   -1.081540
  H     11.621760   -7.842150   -0.155950
  H     11.000650   -8.098480    1.473410
  H     10.777510   -6.538790    0.682700
  H      9.113830    3.074520   -0.041420
  H     10.214290    1.751250   -0.448860
  H      7.551540    1.161690   -2.939930
  H      9.287710    1.356210   -2.698330
  H      7.191860    3.565310   -2.447020
  H      8.333410    3.342160   -3.766490
  H      8.924830    3.783010   -2.169830
  H      8.231930    1.744600    1.881600
  H      9.967810    2.026800    2.010410
  H      9.367930    0.449400    1.499460

 Total Charge           Charge          ....    0
 Multiplicity           Mult            ....    1
 Number of Electrons    NEL             ....  486
 Basis Dimension        Dim             .... 1090

ORBITAL ENERGIES
----------------

  NO   OCC          E(Eh)            E(eV)
   0   2.0000     -91.995515     -2503.3252
   1   2.0000     -91.993864     -2503.2803
   2   2.0000     -91.991745     -2503.2227
   3   2.0000     -91.984766     -2503.0327
   4   2.0000     -26.335834      -716.6345
   5   2.0000     -26.335272      -716.6192
   6   2.0000     -26.333385      -716.5678
   7   2.0000     -26.332881      -716.5541
   8   2.0000     -20.573128      -559.8233
   9   2.0000     -20.570921      -559.7632
  10   2.0000     -15.593133      -424.3107
  11   2.0000     -15.591857      -424.2760
  12   2.0000     -15.587457      -424.1563
  13   2.0000     -15.586998      -424.1438
  14   2.0000     -11.378300      -309.6193
  15   2.0000     -11.377666      -309.6020
  16   2.0000     -11.376835      -309.5794
  17   2.0000     -11.376190      -309.5619
  18   2.0000     -11.372035      -309.4488
  19   2.0000     -11.368708      -309.3583
  20   2.0000     -11.342866      -308.6551
  21   2.0000     -11.342795      -308.6531
  22   2.0000     -11.324984      -308.1685
  23   2.0000     -11.324337      -308.1509
  24   2.0000     -11.323952      -308.1404
  25   2.0000     -11.323273      -308.1219
  26   2.0000     -11.321677      -308.0785
  27   2.0000     -11.319423      -308.0172
  28   2.0000     -11.318386      -307.9889
  29   2.0000     -11.314694      -307.8885
  30   2.0000     -11.304740      -307.6176
  31   2.0000     -11.304456      -307.6099
  32   2.0000     -11.303280      -307.5779
  33   2.0000     -11.302941      -307.5687
  34   2.0000     -11.302653      -307.5608
  35   2.0000     -11.302116      -307.5462
  36   2.0000     -11.298975      -307.4607
  37   2.0000     -11.298816      -307.4564
  38   2.0000     -11.298552      -307.4492
  39   2.0000     -11.298421      -307.4457
  40   2.0000     -11.295970      -307.3790
  41   2.0000     -11.295587      -307.3685
  42   2.0000     -11.295370      -307.3626
  43   2.0000     -11.295101      -307.3553
  44   2.0000     -11.294655      -307.3432
  45   2.0000     -11.288841      -307.1850
  46   2.0000     -11.288334      -307.1712
  47   2.0000     -11.286164      -307.1121
  48   2.0000     -11.284988      -307.0801
  49   2.0000     -11.284487      -307.0665
  50   2.0000     -11.283704      -307.0452
  51   2.0000     -11.283416      -307.0374
  52   2.0000     -11.282940      -307.0244
  53   2.0000     -11.282464      -307.0115
  54   2.0000     -11.276012      -306.8359
  55   2.0000     -11.271217      -306.7054
  56   2.0000     -11.269250      -306.6519
  57   2.0000     -11.267278      -306.5982
  58   2.0000     -11.257648      -306.3362
  59   2.0000     -11.257103      -306.3213
  60   2.0000     -11.256423      -306.3028
  61   2.0000     -11.255681      -306.2827
  62   2.0000     -11.241826      -305.9056
  63   2.0000     -11.236964      -305.7733
  64   2.0000     -11.236566      -305.7625
  65   2.0000     -11.236310      -305.7555
  66   2.0000      -9.030671      -245.7370
  67   2.0000      -9.029065      -245.6933
  68   2.0000      -9.027123      -245.6405
  69   2.0000      -9.018504      -245.4060
  70   2.0000      -6.718169      -182.8107
  71   2.0000      -6.717233      -182.7852
  72   2.0000      -6.716551      -182.7666
  73   2.0000      -6.715615      -182.7412
  74   2.0000      -6.715259      -182.7315
  75   2.0000      -6.714561      -182.7125
  76   2.0000      -6.713653      -182.6878
  77   2.0000      -6.713481      -182.6831
  78   2.0000      -6.711687      -182.6343
  79   2.0000      -6.705541      -182.4671
  80   2.0000      -6.704192      -182.4303
  81   2.0000      -6.702414      -182.3819
  82   2.0000      -1.644731       -44.7554
  83   2.0000      -1.644250       -44.7423
  84   2.0000      -1.629776       -44.3485
  85   2.0000      -1.629306       -44.3357
  86   2.0000      -1.405424       -38.2435
  87   2.0000      -1.405065       -38.2338
  88   2.0000      -1.259947       -34.2849
  89   2.0000      -1.254223       -34.1291
  90   2.0000      -1.253298       -34.1040
  91   2.0000      -1.252452       -34.0809
  92   2.0000      -1.233040       -33.5527
  93   2.0000      -1.232772       -33.5454
  94   2.0000      -1.226097       -33.3638
  95   2.0000      -1.226014       -33.3615
  96   2.0000      -1.214723       -33.0543
  97   2.0000      -1.196919       -32.5698
  98   2.0000      -1.174644       -31.9637
  99   2.0000      -1.171556       -31.8797
 100   2.0000      -1.153700       -31.3938
 101   2.0000      -1.138641       -30.9840
 102   2.0000      -1.108290       -30.1581
 103   2.0000      -1.107170       -30.1276
 104   2.0000      -1.099037       -29.9063
 105   2.0000      -1.095230       -29.8027
 106   2.0000      -1.076744       -29.2997
 107   2.0000      -1.072839       -29.1934
 108   2.0000      -1.072137       -29.1743
 109   2.0000      -1.054580       -28.6966
 110   2.0000      -1.040125       -28.3032
 111   2.0000      -1.037963       -28.2444
 112   2.0000      -1.036291       -28.1989
 113   2.0000      -1.030649       -28.0454
 114   2.0000      -1.027981       -27.9728
 115   2.0000      -1.022072       -27.8120
 116   2.0000      -1.010390       -27.4941
 117   2.0000      -0.992535       -27.0083
 118   2.0000      -0.966202       -26.2917
 119   2.0000      -0.945264       -25.7220
 120   2.0000      -0.944273       -25.6950
 121   2.0000      -0.942615       -25.6499
 122   2.0000      -0.938545       -25.5391
 123   2.0000      -0.928111       -25.2552
 124   2.0000      -0.905807       -24.6483
 125   2.0000      -0.882980       -24.0271
 126   2.0000      -0.863703       -23.5025
 127   2.0000      -0.862422       -23.4677
 128   2.0000      -0.860721       -23.4214
 129   2.0000      -0.859446       -23.3867
 130   2.0000      -0.855314       -23.2743
 131   2.0000      -0.844428       -22.9781
 132   2.0000      -0.838956       -22.8292
 133   2.0000      -0.832708       -22.6591
 134   2.0000      -0.818708       -22.2782
 135   2.0000      -0.801463       -21.8089
 136   2.0000      -0.800446       -21.7812
 137   2.0000      -0.791744       -21.5444
 138   2.0000      -0.788363       -21.4524
 139   2.0000      -0.787062       -21.4170
 140   2.0000      -0.779861       -21.2211
 141   2.0000      -0.775331       -21.0978
 142   2.0000      -0.771569       -20.9955
 143   2.0000      -0.764825       -20.8119
 144   2.0000      -0.760306       -20.6890
 145   2.0000      -0.754679       -20.5359
 146   2.0000      -0.749364       -20.3912
 147   2.0000      -0.743884       -20.2421
 148   2.0000      -0.741949       -20.1895
 149   2.0000      -0.741455       -20.1760
 150   2.0000      -0.731250       -19.8983
 151   2.0000      -0.726859       -19.7788
 152   2.0000      -0.724983       -19.7278
 153   2.0000      -0.713854       -19.4249
 154   2.0000      -0.713831       -19.4243
 155   2.0000      -0.713339       -19.4109
 156   2.0000      -0.702231       -19.1087
 157   2.0000      -0.692326       -18.8392
 158   2.0000      -0.689039       -18.7497
 159   2.0000      -0.683459       -18.5979
 160   2.0000      -0.681918       -18.5559
 161   2.0000      -0.667740       -18.1701
 162   2.0000      -0.667113       -18.1531
 163   2.0000      -0.663615       -18.0579
 164   2.0000      -0.662095       -18.0165
 165   2.0000      -0.659437       -17.9442
 166   2.0000      -0.653455       -17.7814
 167   2.0000      -0.650027       -17.6881
 168   2.0000      -0.648865       -17.6565
 169   2.0000      -0.644762       -17.5449
 170   2.0000      -0.640377       -17.4256
 171   2.0000      -0.636625       -17.3235
 172   2.0000      -0.635164       -17.2837
 173   2.0000      -0.631253       -17.1773
 174   2.0000      -0.629367       -17.1259
 175   2.0000      -0.627703       -17.0807
 176   2.0000      -0.626559       -17.0495
 177   2.0000      -0.624719       -16.9995
 178   2.0000      -0.622402       -16.9364
 179   2.0000      -0.614752       -16.7283
 180   2.0000      -0.612508       -16.6672
 181   2.0000      -0.606212       -16.4959
 182   2.0000      -0.603884       -16.4325
 183   2.0000      -0.597391       -16.2558
 184   2.0000      -0.586939       -15.9714
 185   2.0000      -0.582497       -15.8505
 186   2.0000      -0.580326       -15.7915
 187   2.0000      -0.579675       -15.7737
 188   2.0000      -0.579211       -15.7611
 189   2.0000      -0.577970       -15.7274
 190   2.0000      -0.577759       -15.7216
 191   2.0000      -0.575185       -15.6516
 192   2.0000      -0.572748       -15.5853
 193   2.0000      -0.572329       -15.5739
 194   2.0000      -0.569583       -15.4991
 195   2.0000      -0.566717       -15.4211
 196   2.0000      -0.564941       -15.3728
 197   2.0000      -0.563192       -15.3252
 198   2.0000      -0.563028       -15.3208
 199   2.0000      -0.555380       -15.1127
 200   2.0000      -0.551132       -14.9971
 201   2.0000      -0.548069       -14.9137
 202   2.0000      -0.546345       -14.8668
 203   2.0000      -0.539049       -14.6683
 204   2.0000      -0.538302       -14.6480
 205   2.0000      -0.536623       -14.6023
 206   2.0000      -0.534598       -14.5471
 207   2.0000      -0.533135       -14.5073
 208   2.0000      -0.521683       -14.1957
 209   2.0000      -0.519132       -14.1263
 210   2.0000      -0.516743       -14.0613
 211   2.0000      -0.514761       -14.0074
 212   2.0000      -0.511980       -13.9317
 213   2.0000      -0.502855       -13.6834
 214   2.0000      -0.502455       -13.6725
 215   2.0000      -0.499695       -13.5974
 216   2.0000      -0.498733       -13.5712
 217   2.0000      -0.496370       -13.5069
 218   2.0000      -0.491540       -13.3755
 219   2.0000      -0.490010       -13.3339
 220   2.0000      -0.487684       -13.2705
 221   2.0000      -0.482802       -13.1377
 222   2.0000      -0.482092       -13.1184
 223   2.0000      -0.481581       -13.1045
 224   2.0000      -0.480456       -13.0739
 225   2.0000      -0.476580       -12.9684
 226   2.0000      -0.476145       -12.9566
 227   2.0000      -0.452138       -12.3033
 228   2.0000      -0.450580       -12.2609
 229   2.0000      -0.437977       -11.9180
 230   2.0000      -0.428823       -11.6689
 231   2.0000      -0.402795       -10.9606
 232   2.0000      -0.395134       -10.7521
 233   2.0000      -0.394461       -10.7338
 234   2.0000      -0.390796       -10.6341
 235   2.0000      -0.384190       -10.4543
 236   2.0000      -0.382844       -10.4177
 237   2.0000      -0.379390       -10.3237
 238   2.0000      -0.364850        -9.9281
 239   2.0000      -0.356855        -9.7105
 240   2.0000      -0.346496        -9.4286
 241   2.0000      -0.302141        -8.2217
 242   2.0000      -0.262588        -7.1454
 243   0.0000      -0.042128        -1.1464
 244   0.0000      -0.016891        -0.4596
 245   0.0000       0.008652         0.2354
 246   0.0000       0.016202         0.4409
 247   0.0000       0.037869         1.0305

MULLIKEN ATOMIC CHARGES
-----------------------
   0 C :   -0.052944
   1 C :    0.353658
   2 C :    0.345116
   3 C :   -0.032366
   4 C :   -0.175100
   5 C :   -0.029162
   6 C :    0.532364
   7 C :   -0.327884
   8 C :    0.268612
   9 C :    0.094506
  10 C :   -0.172840
  11 C :    0.025538
  12 C :   -0.047581
  13 C :   -0.007409
  14 S :    0.266966
  15 C :   -0.323047
  16 C :    0.000517
  17 C :   -0.117210
  18 C :   -0.018062
  19 C :   -0.094350
  20 S :    0.196022
  21 C :   -0.093208
  22 S :    0.194483
  23 C :   -0.111949
  24 C :    0.002994
  25 C :   -0.017695
  26 C :   -0.026783
  27 C :   -0.076394
  28 C :   -0.329087
  29 S :    0.203543
  30 C :   -0.265618
  31 C :    0.098684
  32 C :    0.156388
  33 C :   -0.305971
  34 C :    0.253670
  35 C :   -0.028148
  36 C :   -0.173182
  37 C :    0.517369
  38 C :   -0.052087
  39 C :    0.353955
  40 C :    0.345944
  41 C :   -0.035145
  42 F :   -0.312883
  43 F :   -0.309455
  44 O :   -0.391019
  45 C :   -0.379985
  46 C :    0.029963
  47 C :    0.027735
  48 C :    0.031506
  49 C :    0.032975
  50 C :   -0.014355
  51 C :   -0.015757
  52 C :    0.033417
  53 C :    0.035477
  54 C :   -0.008038
  55 C :   -0.015261
  56 O :   -0.404916
  57 F :   -0.309581
  58 F :   -0.312914
  59 C :   -0.386125
  60 C :    0.030664
  61 C :    0.037597
  62 N :   -0.080799
  63 N :   -0.067809
  64 N :   -0.067935
  65 N :   -0.065365
  66 H :    0.096670
  67 H :    0.076851
  68 H :    0.082561
  69 H :    0.062959
  70 H :    0.051166
  71 H :    0.052621
  72 H :    0.104888
  73 H :    0.083937
  74 H :    0.097194
  75 H :    0.076252
  76 H :    0.049994
  77 H :    0.034137
  78 H :    0.040838
  79 H :    0.030005
  80 H :    0.051411
  81 H :    0.040665
  82 H :    0.032387
  83 H :    0.045243
  84 H :    0.039535
  85 H :    0.042541
  86 H :    0.045203
  87 H :    0.033846
  88 H :    0.042332
  89 H :    0.031556
  90 H :    0.035167
  91 H :    0.044550
  92 H :    0.033511
  93 H :    0.045119
  94 H :    0.039853
  95 H :    0.042755
Sum of atomic charges:   -0.0000000

LOEWDIN ATOMIC CHARGES
----------------------
   0 C :   -0.001327
   1 C :    0.123820
   2 C :    0.122457
   3 C :    0.009111
   4 C :   -0.051276
   5 C :   -0.022454
   6 C :    0.168262
   7 C :   -0.183343
   8 C :    0.122678
   9 C :    0.114472
  10 C :   -0.221009
  11 C :    0.031529
  12 C :   -0.073662
  13 C :   -0.133877
  14 S :    0.503701
  15 C :   -0.035009
  16 C :   -0.003910
  17 C :   -0.212105
  18 C :   -0.051868
  19 C :   -0.157716
  20 S :    0.432709
  21 C :   -0.157419
  22 S :    0.430362
  23 C :   -0.212839
  24 C :   -0.002930
  25 C :   -0.050930
  26 C :   -0.130783
  27 C :   -0.068317
  28 C :   -0.034810
  29 S :    0.441351
  30 C :   -0.218602
  31 C :    0.045642
  32 C :    0.108489
  33 C :   -0.170204
  34 C :    0.120313
  35 C :   -0.023117
  36 C :   -0.051851
  37 C :    0.172401
  38 C :   -0.001509
  39 C :    0.124338
  40 C :    0.122753
  41 C :    0.008387
  42 F :   -0.111080
  43 F :   -0.108943
  44 O :   -0.242822
  45 C :   -0.180315
  46 C :    0.012180
  47 C :    0.008486
  48 C :    0.004561
  49 C :    0.005636
  50 C :   -0.031889
  51 C :   -0.031691
  52 C :    0.003260
  53 C :    0.005801
  54 C :   -0.031516
  55 C :   -0.031456
  56 O :   -0.260972
  57 F :   -0.109041
  58 F :   -0.111048
  59 C :   -0.183552
  60 C :    0.011721
  61 C :    0.014882
  62 N :   -0.102076
  63 N :   -0.095906
  64 N :   -0.094718
  65 N :   -0.094100
  66 H :    0.054918
  67 H :    0.055152
  68 H :    0.051368
  69 H :    0.038634
  70 H :    0.029434
  71 H :    0.029698
  72 H :    0.041437
  73 H :    0.045309
  74 H :    0.054980
  75 H :    0.054657
  76 H :    0.019054
  77 H :    0.015422
  78 H :    0.020668
  79 H :    0.012769
  80 H :    0.022387
  81 H :    0.022899
  82 H :    0.015826
  83 H :    0.019383
  84 H :    0.020302
  85 H :    0.017272
  86 H :    0.017007
  87 H :    0.015407
  88 H :    0.021259
  89 H :    0.013563
  90 H :    0.016130
  91 H :    0.024286
  92 H :    0.016090
  93 H :    0.019462
  94 H :    0.020295
  95 H :    0.017620

  Mayer bond orders larger than 0.100000
B(  0-C ,  1-C ) :   1.3989 B(  0-C ,  5-C ) :   1.3798 B(  0-C , 66-H ) :   0.9902
B(  1-C ,  2-C ) :   1.3431 B(  1-C , 57-F ) :   0.9436 B(  2-C ,  3-C ) :   1.3746
B(  2-C , 58-F ) :   0.9340 B(  3-C ,  4-C ) :   1.3926 B(  3-C , 67-H ) :   1.0140
B(  4-C ,  5-C ) :   1.3705 B(  4-C ,  6-C ) :   0.9851 B(  5-C ,  8-C ) :   1.0371
B(  6-C ,  7-C ) :   1.0097 B(  6-C , 56-O ) :   1.9866 B(  7-C ,  8-C ) :   1.1375
B(  7-C ,  9-C ) :   1.5200 B(  8-C , 59-C ) :   1.6541 B(  9-C , 10-C ) :   1.3648
B(  9-C , 68-H ) :   0.9611 B( 10-C , 11-C ) :   1.3641 B( 10-C , 14-S ) :   1.0340
B( 11-C , 12-C ) :   1.4779 B( 11-C , 69-H ) :   1.0065 B( 12-C , 13-C ) :   1.4500
B( 12-C , 15-C ) :   0.8971 B( 13-C , 14-S ) :   1.1206 B( 13-C , 17-C ) :   1.2923
B( 15-C , 16-C ) :   0.9418 B( 15-C , 52-C ) :   1.0144 B( 15-C , 53-C ) :   1.0121
B( 16-C , 17-C ) :   1.5679 B( 16-C , 18-C ) :   1.3549 B( 17-C , 20-S ) :   1.0547
B( 18-C , 19-C ) :   1.5369 B( 18-C , 70-H ) :   1.0000 B( 19-C , 20-S ) :   1.1141
B( 19-C , 21-C ) :   1.1963 B( 21-C , 22-S ) :   1.1121 B( 21-C , 25-C ) :   1.5386
B( 22-S , 23-C ) :   1.0529 B( 23-C , 24-C ) :   1.5678 B( 23-C , 26-C ) :   1.2862
B( 24-C , 25-C ) :   1.3552 B( 24-C , 28-C ) :   0.9416 B( 25-C , 71-H ) :   0.9995
B( 26-C , 27-C ) :   1.4809 B( 26-C , 29-S ) :   1.1407 B( 27-C , 28-C ) :   0.9064
B( 27-C , 31-C ) :   1.4344 B( 28-C , 48-C ) :   1.0108 B( 28-C , 49-C ) :   1.0111
B( 29-S , 30-C ) :   1.0686 B( 30-C , 31-C ) :   1.3883 B( 30-C , 32-C ) :   1.3054
B( 31-C , 72-H ) :   0.9855 B( 32-C , 33-C ) :   1.5911 B( 32-C , 73-H ) :   0.9412
B( 33-C , 34-C ) :   1.1262 B( 33-C , 37-C ) :   0.9908 B( 34-C , 35-C ) :   1.0366
B( 34-C , 45-C ) :   1.6643 B( 35-C , 36-C ) :   1.3724 B( 35-C , 38-C ) :   1.3749
B( 36-C , 37-C ) :   0.9802 B( 36-C , 41-C ) :   1.3902 B( 37-C , 44-O ) :   2.0102
B( 38-C , 39-C ) :   1.4030 B( 38-C , 74-H ) :   0.9904 B( 39-C , 40-C ) :   1.3394
B( 39-C , 43-F ) :   0.9439 B( 40-C , 41-C ) :   1.3784 B( 40-C , 42-F ) :   0.9345
B( 41-C , 75-H ) :   1.0141 B( 45-C , 46-C ) :   1.0660 B( 45-C , 47-C ) :   1.0677
B( 46-C , 64-N ) :   2.9848 B( 47-C , 65-N ) :   2.9843 B( 48-C , 51-C ) :   1.0372
B( 48-C , 76-H ) :   0.9731 B( 48-C , 77-H ) :   0.9737 B( 49-C , 50-C ) :   1.0474
B( 49-C , 78-H ) :   0.9716 B( 49-C , 79-H ) :   0.9682 B( 50-C , 80-H ) :   0.9823
B( 50-C , 81-H ) :   0.9848 B( 50-C , 82-H ) :   0.9814 B( 51-C , 83-H ) :   0.9838
B( 51-C , 84-H ) :   0.9872 B( 51-C , 85-H ) :   0.9804 B( 52-C , 55-C ) :   1.0371
B( 52-C , 86-H ) :   0.9732 B( 52-C , 87-H ) :   0.9735 B( 53-C , 54-C ) :   1.0485
B( 53-C , 88-H ) :   0.9711 B( 53-C , 89-H ) :   0.9683 B( 54-C , 90-H ) :   0.9820
B( 54-C , 91-H ) :   0.9852 B( 54-C , 92-H ) :   0.9826 B( 55-C , 93-H ) :   0.9836
B( 55-C , 94-H ) :   0.9872 B( 55-C , 95-H ) :   0.9805 B( 59-C , 60-C ) :   1.0667
B( 59-C , 61-C ) :   1.0721 B( 60-C , 63-N ) :   2.9837 B( 61-C , 62-N ) :   2.9693

-----------------------------------------------------------------------------
         ABSORPTION SPECTRUM VIA TRANSITION ELECTRIC DIPOLE MOMENTS
-----------------------------------------------------------------------------
State   Energy    Wavelength  fosc         T2        TX        TY        TZ
        (cm-1)      (nm)                 (au**2)    (au)      (au)      (au)
-----------------------------------------------------------------------------
   1   19437.7    514.5   3.070844139  52.01029   3.96810  -5.49122  -2.47205
   2   26270.2    380.7   0.197497119   2.47499  -1.02281  -0.22548  -1.17389
   3   33490.2    298.6   0.155153200   1.52517  -1.01452   0.30457   0.63495

FINAL SINGLE POINT ENERGY     -4339.123751006228

DIPOLE MOMENT
-------------
                                X             Y             Z
Electronic contribution:    -36.94485     -21.96584     -22.29302
Nuclear contribution   :     36.96376      21.19967      24.16799
                        -----------------------------------------
Total Dipole Moment    :      0.01890      -0.76616       1.87497
                        -----------------------------------------
Magnitude (a.u.)       :      2.02555
Magnitude (Debye)      :      5.14855

Rotational constants in cm-1:     0.002259     0.000244     0.000229
Rotational constants in MHz :    67.730725     7.318716     6.872844

                             ****ORCA TERMINATED NORMALLY****
TOTAL RUN TIME: 0 days 14 hours 7 minutes 40 seconds 387 msec
