                         Program Version 4.2.0 -  RELEASE  -
|  1> # ORCA input file
|  2> # CPDT-4Cl.out
|  3> ! Engrad Keepdens
|  4> %maxcore 1000
|  5> %tddft
|  6>   nroots 3
|  7>   # nroots is the number of states to be computed
|  8>   Iroot 1
|  9>   end
| 10> * xyz 0 1
| 11>    C       -0.47958         2.35315         1.88131
| 12>    C       -1.44729         2.66122         2.83175
| 13>    C       -1.22389         3.64691         3.79941
| 14>    C       -0.01640         4.33437         3.83725
| 15>    C        0.94626         4.01869         2.90080
| 16>    C        0.72261         3.03719         1.91756
| 17>    C        2.31003         4.57564         2.74314
| 18>    C        2.93464         3.75527         1.67607
| 19>    C        1.89700         2.96695         1.05113
| 20>    C        4.28613         3.78857         1.48512
| 21>    C        5.11109         2.82754         0.86824
| 22>    C        6.38294         3.05212         0.34867
| 23>    C        6.94888         1.91203        -0.19087
| 24>    C        6.14286         0.77918        -0.01336
| 25>    S        4.65508         1.13130         0.75126
| 26>    C        8.22098         1.54799        -0.91642
| 27>    C        8.04904         0.05240        -1.03998
| 28>    C        6.81768        -0.34978        -0.51712
| 29>    C        8.77270        -0.99972        -1.58022
| 30>    C        8.10891        -2.21219        -1.46057
| 31>    S        6.55465        -2.03966        -0.66714
| 32>    C        8.53923        -3.47924        -1.92007
| 33>    S       10.00773        -3.61990        -2.86665
| 34>    C        9.75062        -5.31152        -3.01589
| 35>    C        8.59815        -5.74178        -2.35349
| 36>    C        7.91194        -4.70399        -1.74111
| 37>    C       10.36916        -6.41561        -3.63267
| 38>    C        9.61215        -7.57117        -3.36247
| 39>    C        8.39969        -7.22888        -2.52950
| 40>    S       11.74686        -6.73299        -4.58464
| 41>    C       11.32464        -8.45236        -4.63766
| 42>    C       10.15994        -8.71005        -3.91140
| 43>    C       12.18073        -9.26842        -5.38775
| 44>    C       12.13407       -10.60602        -5.70608
| 45>    C       13.12969       -11.25978        -6.53869
| 46>    C       12.68939       -12.63620        -6.76153
| 47>    C       11.49466       -12.84472        -6.05533
| 48>    C       11.10230       -11.60213        -5.35732
| 49>    C       13.23445       -13.67188        -7.50281
| 50>    C       12.57711       -14.89749        -7.52062
| 51>    C       11.39050       -15.09630        -6.80721
| 52>    C       10.83998       -14.05894        -6.06560
| 53>   Cl       10.60861       -16.62479        -6.84791
| 54>   Cl       13.24475       -16.18506        -8.44093
| 55>    O       10.11778       -11.47928        -4.65563
| 56>    C       14.29714       -10.73106        -7.02751
| 57>    C       15.20687       -11.44249        -7.83948
| 58>    C       14.79593        -9.43011        -6.80293
| 59>    C        8.40160        -7.97577        -1.18573
| 60>    C        7.08268        -7.44958        -3.30683
| 61>    C        6.77539        -8.89891        -3.65787
| 62>    C        9.62103        -7.64849        -0.33160
| 63>    C        9.47990         1.92588        -0.12186
| 64>    C        8.24248         2.13887        -2.34570
| 65>    C        8.13406         3.65558        -2.41510
| 66>    C        9.52881         1.26277         1.24984
| 67>    O        2.82552         5.46938         3.37366
| 68>   Cl       -2.93853         1.81049         2.80865
| 69>   Cl       -2.44568         4.01076         4.95011
| 70>    C        1.90366         2.49990        -0.23837
| 71>    C        0.82096         1.82455        -0.83533
| 72>    C        2.96435         2.73717        -1.13684
| 73>    N        3.78880         2.95667        -1.90528
| 74>    N       -0.02579         1.25352        -1.35912
| 75>    N       15.99193       -11.95168        -8.50442
| 76>    N       15.29439        -8.40318        -6.67117
| 77>    H       -0.67980         1.58710         1.14972
| 78>    H        0.16470         5.09629         4.57876
| 79>    H        4.79831         4.63545         1.93227
| 80>    H        6.83046         4.02937         0.35544
| 81>    H        9.74081        -0.92049        -2.04142
| 82>    H        6.99906        -4.80222        -1.18137
| 83>    H        9.77207        -9.70668        -3.81257
| 84>    H       13.01692        -8.72141        -5.80648
| 85>    H       14.14544       -13.56016        -8.06678
| 86>    H        9.92476       -14.19497        -5.51147
| 87>    H        8.38658        -9.04705        -1.38568
| 88>    H        7.49282        -7.71355        -0.64055
| 89>    H        7.13446        -6.86337        -4.22796
| 90>    H        6.26867        -7.04384        -2.70205
| 91>    H        7.56149        -9.32985        -4.27041
| 92>    H        5.84604        -8.94032        -4.22131
| 93>    H        6.65408        -9.50574        -2.76529
| 94>    H       10.53867        -7.90146        -0.85798
| 95>    H        9.58987        -8.21932         0.59307
| 96>    H        9.64900        -6.59062        -0.07969
| 97>    H        9.50387         3.00852         0.00436
| 98>    H       10.35728         1.63094        -0.70058
| 99>    H        7.40826         1.70588        -2.90231
|100>    H        9.16889         1.81343        -2.82371
|101>    H        7.16750         3.98777        -2.04726
|102>    H        8.22631         3.97300        -3.45096
|103>    H        8.92076         4.14002        -1.84293
|104>    H        8.66609         1.54879         1.84741
|105>    H       10.42817         1.56777         1.77892
|106>    H        9.53758         0.17915         1.15631
|107> *
|108>
|109>                          ****END OF INPUT****

CARTESIAN COORDINATES (ANGSTROEM)
---------------------------------
  C     -0.479580    2.353150    1.881310
  C     -1.447290    2.661220    2.831750
  C     -1.223890    3.646910    3.799410
  C     -0.016400    4.334370    3.837250
  C      0.946260    4.018690    2.900800
  C      0.722610    3.037190    1.917560
  C      2.310030    4.575640    2.743140
  C      2.934640    3.755270    1.676070
  C      1.897000    2.966950    1.051130
  C      4.286130    3.788570    1.485120
  C      5.111090    2.827540    0.868240
  C      6.382940    3.052120    0.348670
  C      6.948880    1.912030   -0.190870
  C      6.142860    0.779180   -0.013360
  S      4.655080    1.131300    0.751260
  C      8.220980    1.547990   -0.916420
  C      8.049040    0.052400   -1.039980
  C      6.817680   -0.349780   -0.517120
  C      8.772700   -0.999720   -1.580220
  C      8.108910   -2.212190   -1.460570
  S      6.554650   -2.039660   -0.667140
  C      8.539230   -3.479240   -1.920070
  S     10.007730   -3.619900   -2.866650
  C      9.750620   -5.311520   -3.015890
  C      8.598150   -5.741780   -2.353490
  C      7.911940   -4.703990   -1.741110
  C     10.369160   -6.415610   -3.632670
  C      9.612150   -7.571170   -3.362470
  C      8.399690   -7.228880   -2.529500
  S     11.746860   -6.732990   -4.584640
  C     11.324640   -8.452360   -4.637660
  C     10.159940   -8.710050   -3.911400
  C     12.180730   -9.268420   -5.387750
  C     12.134070  -10.606020   -5.706080
  C     13.129690  -11.259780   -6.538690
  C     12.689390  -12.636200   -6.761530
  C     11.494660  -12.844720   -6.055330
  C     11.102300  -11.602130   -5.357320
  C     13.234450  -13.671880   -7.502810
  C     12.577110  -14.897490   -7.520620
  C     11.390500  -15.096300   -6.807210
  C     10.839980  -14.058940   -6.065600
  Cl    10.608610  -16.624790   -6.847910
  Cl    13.244750  -16.185060   -8.440930
  O     10.117780  -11.479280   -4.655630
  C     14.297140  -10.731060   -7.027510
  C     15.206870  -11.442490   -7.839480
  C     14.795930   -9.430110   -6.802930
  C      8.401600   -7.975770   -1.185730
  C      7.082680   -7.449580   -3.306830
  C      6.775390   -8.898910   -3.657870
  C      9.621030   -7.648490   -0.331600
  C      9.479900    1.925880   -0.121860
  C      8.242480    2.138870   -2.345700
  C      8.134060    3.655580   -2.415100
  C      9.528810    1.262770    1.249840
  O      2.825520    5.469380    3.373660
  Cl    -2.938530    1.810490    2.808650
  Cl    -2.445680    4.010760    4.950110
  C      1.903660    2.499900   -0.238370
  C      0.820960    1.824550   -0.835330
  C      2.964350    2.737170   -1.136840
  N      3.788800    2.956670   -1.905280
  N     -0.025790    1.253520   -1.359120
  N     15.991930  -11.951680   -8.504420
  N     15.294390   -8.403180   -6.671170
  H     -0.679800    1.587100    1.149720
  H      0.164700    5.096290    4.578760
  H      4.798310    4.635450    1.932270
  H      6.830460    4.029370    0.355440
  H      9.740810   -0.920490   -2.041420
  H      6.999060   -4.802220   -1.181370
  H      9.772070   -9.706680   -3.812570
  H     13.016920   -8.721410   -5.806480
  H     14.145440  -13.560160   -8.066780
  H      9.924760  -14.194970   -5.511470
  H      8.386580   -9.047050   -1.385680
  H      7.492820   -7.713550   -0.640550
  H      7.134460   -6.863370   -4.227960
  H      6.268670   -7.043840   -2.702050
  H      7.561490   -9.329850   -4.270410
  H      5.846040   -8.940320   -4.221310
  H      6.654080   -9.505740   -2.765290
  H     10.538670   -7.901460   -0.857980
  H      9.589870   -8.219320    0.593070
  H      9.649000   -6.590620   -0.079690
  H      9.503870    3.008520    0.004360
  H     10.357280    1.630940   -0.700580
  H      7.408260    1.705880   -2.902310
  H      9.168890    1.813430   -2.823710
  H      7.167500    3.987770   -2.047260
  H      8.226310    3.973000   -3.450960
  H      8.920760    4.140020   -1.842930
  H      8.666090    1.548790    1.847410
  H     10.428170    1.567770    1.778920
  H      9.537580    0.179150    1.156310

 Total Charge           Charge          ....    0
 Multiplicity           Mult            ....    1
 Number of Electrons    NEL             ....  518
 Basis Dimension        Dim             .... 1106

ORBITAL ENERGIES
----------------

  NO   OCC          E(Eh)            E(eV)
   0   2.0000    -104.823202     -2852.3844
   1   2.0000    -104.822318     -2852.3603
   2   2.0000    -104.821502     -2852.3381
   3   2.0000    -104.818657     -2852.2607
   4   2.0000     -91.991373     -2503.2125
   5   2.0000     -91.991291     -2503.2103
   6   2.0000     -91.988753     -2503.1412
   7   2.0000     -91.987853     -2503.1167
   8   2.0000     -20.568972      -559.7102
   9   2.0000     -20.566154      -559.6335
  10   2.0000     -15.591341      -424.2620
  11   2.0000     -15.589174      -424.2030
  12   2.0000     -15.588861      -424.1945
  13   2.0000     -15.583524      -424.0492
  14   2.0000     -11.367612      -309.3285
  15   2.0000     -11.365017      -309.2578
  16   2.0000     -11.345633      -308.7304
  17   2.0000     -11.344275      -308.6934
  18   2.0000     -11.342529      -308.6459
  19   2.0000     -11.342358      -308.6413
  20   2.0000     -11.341052      -308.6057
  21   2.0000     -11.339125      -308.5533
  22   2.0000     -11.322953      -308.1132
  23   2.0000     -11.321772      -308.0811
  24   2.0000     -11.321289      -308.0679
  25   2.0000     -11.321037      -308.0611
  26   2.0000     -11.319811      -308.0277
  27   2.0000     -11.317857      -307.9745
  28   2.0000     -11.317465      -307.9639
  29   2.0000     -11.315379      -307.9071
  30   2.0000     -11.302247      -307.5498
  31   2.0000     -11.301335      -307.5250
  32   2.0000     -11.301332      -307.5249
  33   2.0000     -11.300204      -307.4942
  34   2.0000     -11.300006      -307.4888
  35   2.0000     -11.299336      -307.4706
  36   2.0000     -11.299082      -307.4637
  37   2.0000     -11.297577      -307.4227
  38   2.0000     -11.295347      -307.3620
  39   2.0000     -11.295317      -307.3612
  40   2.0000     -11.295229      -307.3588
  41   2.0000     -11.295194      -307.3579
  42   2.0000     -11.293540      -307.3129
  43   2.0000     -11.292039      -307.2720
  44   2.0000     -11.291276      -307.2512
  45   2.0000     -11.287044      -307.1361
  46   2.0000     -11.283070      -307.0279
  47   2.0000     -11.281912      -306.9964
  48   2.0000     -11.281640      -306.9890
  49   2.0000     -11.281000      -306.9716
  50   2.0000     -11.279495      -306.9307
  51   2.0000     -11.279455      -306.9296
  52   2.0000     -11.279040      -306.9183
  53   2.0000     -11.278015      -306.8904
  54   2.0000     -11.274205      -306.7867
  55   2.0000     -11.272070      -306.7286
  56   2.0000     -11.267509      -306.6045
  57   2.0000     -11.265284      -306.5440
  58   2.0000     -11.255298      -306.2722
  59   2.0000     -11.253147      -306.2137
  60   2.0000     -11.252910      -306.2073
  61   2.0000     -11.251427      -306.1669
  62   2.0000     -11.236063      -305.7488
  63   2.0000     -11.234450      -305.7049
  64   2.0000     -11.234374      -305.7029
  65   2.0000     -11.233842      -305.6884
  66   2.0000     -10.586992      -288.0867
  67   2.0000     -10.586132      -288.0633
  68   2.0000     -10.585287      -288.0403
  69   2.0000     -10.582457      -287.9633
  70   2.0000      -9.026529      -245.6243
  71   2.0000      -9.026387      -245.6205
  72   2.0000      -9.023964      -245.5546
  73   2.0000      -9.023203      -245.5338
  74   2.0000      -8.062096      -219.3808
  75   2.0000      -8.061234      -219.3573
  76   2.0000      -8.060392      -219.3344
  77   2.0000      -8.058311      -219.2778
  78   2.0000      -8.058301      -219.2775
  79   2.0000      -8.057559      -219.2573
  80   2.0000      -8.057440      -219.2541
  81   2.0000      -8.057426      -219.2537
  82   2.0000      -8.056609      -219.2315
  83   2.0000      -8.056604      -219.2313
  84   2.0000      -8.053770      -219.1542
  85   2.0000      -8.053755      -219.1538
  86   2.0000      -6.714044      -182.6984
  87   2.0000      -6.713906      -182.6947
  88   2.0000      -6.713113      -182.6731
  89   2.0000      -6.712976      -182.6694
  90   2.0000      -6.711474      -182.6285
  91   2.0000      -6.711128      -182.6191
  92   2.0000      -6.711000      -182.6156
  93   2.0000      -6.710642      -182.6058
  94   2.0000      -6.710422      -182.5999
  95   2.0000      -6.709554      -182.5762
  96   2.0000      -6.708565      -182.5493
  97   2.0000      -6.707769      -182.5277
  98   2.0000      -1.401081       -38.1254
  99   2.0000      -1.398683       -38.0601
 100   2.0000      -1.259222       -34.2652
 101   2.0000      -1.256417       -34.1889
 102   2.0000      -1.254408       -34.1342
 103   2.0000      -1.251124       -34.0448
 104   2.0000      -1.243423       -33.8353
 105   2.0000      -1.241362       -33.7792
 106   2.0000      -1.226844       -33.3841
 107   2.0000      -1.222856       -33.2756
 108   2.0000      -1.214021       -33.0352
 109   2.0000      -1.209872       -32.9223
 110   2.0000      -1.206027       -32.8177
 111   2.0000      -1.192388       -32.4465
 112   2.0000      -1.161599       -31.6087
 113   2.0000      -1.158690       -31.5296
 114   2.0000      -1.156170       -31.4610
 115   2.0000      -1.141722       -31.0678
 116   2.0000      -1.133607       -30.8470
 117   2.0000      -1.130636       -30.7662
 118   2.0000      -1.106607       -30.1123
 119   2.0000      -1.102747       -30.0073
 120   2.0000      -1.088049       -29.6073
 121   2.0000      -1.075832       -29.2749
 122   2.0000      -1.057283       -28.7701
 123   2.0000      -1.052566       -28.6418
 124   2.0000      -1.049005       -28.5449
 125   2.0000      -1.041583       -28.3429
 126   2.0000      -1.035813       -28.1859
 127   2.0000      -1.035155       -28.1680
 128   2.0000      -1.033413       -28.1206
 129   2.0000      -1.027791       -27.9676
 130   2.0000      -1.024859       -27.8878
 131   2.0000      -1.017955       -27.7000
 132   2.0000      -0.997581       -27.1456
 133   2.0000      -0.973996       -26.5038
 134   2.0000      -0.953680       -25.9510
 135   2.0000      -0.939377       -25.5618
 136   2.0000      -0.935290       -25.4505
 137   2.0000      -0.931798       -25.3555
 138   2.0000      -0.928736       -25.2722
 139   2.0000      -0.912787       -24.8382
 140   2.0000      -0.887916       -24.1614
 141   2.0000      -0.868847       -23.6425
 142   2.0000      -0.856899       -23.3174
 143   2.0000      -0.856618       -23.3098
 144   2.0000      -0.850769       -23.1506
 145   2.0000      -0.841852       -22.9080
 146   2.0000      -0.838133       -22.8068
 147   2.0000      -0.833230       -22.6733
 148   2.0000      -0.829551       -22.5732
 149   2.0000      -0.820110       -22.3163
 150   2.0000      -0.812343       -22.1050
 151   2.0000      -0.790548       -21.5119
 152   2.0000      -0.780633       -21.2421
 153   2.0000      -0.774549       -21.0765
 154   2.0000      -0.770157       -20.9571
 155   2.0000      -0.762021       -20.7356
 156   2.0000      -0.757801       -20.6208
 157   2.0000      -0.754504       -20.5311
 158   2.0000      -0.748700       -20.3732
 159   2.0000      -0.744028       -20.2460
 160   2.0000      -0.734306       -19.9815
 161   2.0000      -0.723437       -19.6857
 162   2.0000      -0.714494       -19.4424
 163   2.0000      -0.704187       -19.1619
 164   2.0000      -0.698085       -18.9959
 165   2.0000      -0.689658       -18.7665
 166   2.0000      -0.684584       -18.6285
 167   2.0000      -0.675573       -18.3833
 168   2.0000      -0.674583       -18.3563
 169   2.0000      -0.666084       -18.1251
 170   2.0000      -0.664553       -18.0834
 171   2.0000      -0.658021       -17.9057
 172   2.0000      -0.655775       -17.8445
 173   2.0000      -0.652840       -17.7647
 174   2.0000      -0.651632       -17.7318
 175   2.0000      -0.650499       -17.7010
 176   2.0000      -0.645194       -17.5566
 177   2.0000      -0.643371       -17.5070
 178   2.0000      -0.636908       -17.3311
 179   2.0000      -0.634700       -17.2711
 180   2.0000      -0.631474       -17.1833
 181   2.0000      -0.629513       -17.1299
 182   2.0000      -0.628594       -17.1049
 183   2.0000      -0.625183       -17.0121
 184   2.0000      -0.621240       -16.9048
 185   2.0000      -0.615732       -16.7549
 186   2.0000      -0.611467       -16.6389
 187   2.0000      -0.602031       -16.3821
 188   2.0000      -0.601068       -16.3559
 189   2.0000      -0.595319       -16.1995
 190   2.0000      -0.591909       -16.1067
 191   2.0000      -0.587670       -15.9913
 192   2.0000      -0.587099       -15.9758
 193   2.0000      -0.581187       -15.8149
 194   2.0000      -0.580408       -15.7937
 195   2.0000      -0.578242       -15.7348
 196   2.0000      -0.577711       -15.7203
 197   2.0000      -0.575582       -15.6624
 198   2.0000      -0.574951       -15.6452
 199   2.0000      -0.574015       -15.6197
 200   2.0000      -0.572981       -15.5916
 201   2.0000      -0.572050       -15.5663
 202   2.0000      -0.570304       -15.5188
 203   2.0000      -0.568600       -15.4724
 204   2.0000      -0.566608       -15.4182
 205   2.0000      -0.563895       -15.3444
 206   2.0000      -0.561742       -15.2858
 207   2.0000      -0.558902       -15.2085
 208   2.0000      -0.556975       -15.1561
 209   2.0000      -0.550747       -14.9866
 210   2.0000      -0.547712       -14.9040
 211   2.0000      -0.544426       -14.8146
 212   2.0000      -0.542076       -14.7506
 213   2.0000      -0.533758       -14.5243
 214   2.0000      -0.531618       -14.4661
 215   2.0000      -0.531453       -14.4616
 216   2.0000      -0.520139       -14.1537
 217   2.0000      -0.517719       -14.0878
 218   2.0000      -0.513876       -13.9833
 219   2.0000      -0.511615       -13.9218
 220   2.0000      -0.511164       -13.9095
 221   2.0000      -0.509451       -13.8629
 222   2.0000      -0.509295       -13.8586
 223   2.0000      -0.504566       -13.7299
 224   2.0000      -0.501793       -13.6545
 225   2.0000      -0.501366       -13.6428
 226   2.0000      -0.499563       -13.5938
 227   2.0000      -0.498747       -13.5716
 228   2.0000      -0.495683       -13.4882
 229   2.0000      -0.494819       -13.4647
 230   2.0000      -0.492092       -13.3905
 231   2.0000      -0.491984       -13.3876
 232   2.0000      -0.489326       -13.3152
 233   2.0000      -0.488083       -13.2814
 234   2.0000      -0.486497       -13.2383
 235   2.0000      -0.479971       -13.0607
 236   2.0000      -0.478947       -13.0328
 237   2.0000      -0.478567       -13.0225
 238   2.0000      -0.472898       -12.8682
 239   2.0000      -0.470588       -12.8053
 240   2.0000      -0.464224       -12.6322
 241   2.0000      -0.461933       -12.5698
 242   2.0000      -0.461384       -12.5549
 243   2.0000      -0.450012       -12.2454
 244   2.0000      -0.445630       -12.1262
 245   2.0000      -0.437992       -11.9184
 246   2.0000      -0.416101       -11.3227
 247   2.0000      -0.394504       -10.7350
 248   2.0000      -0.391696       -10.6586
 249   2.0000      -0.384497       -10.4627
 250   2.0000      -0.382285       -10.4025
 251   2.0000      -0.380463       -10.3529
 252   2.0000      -0.378355       -10.2956
 253   2.0000      -0.374808       -10.1991
 254   2.0000      -0.355895        -9.6844
 255   2.0000      -0.349128        -9.5003
 256   2.0000      -0.343240        -9.3400
 257   2.0000      -0.301179        -8.1955
 258   2.0000      -0.258822        -7.0429
 259   0.0000      -0.039606        -1.0777
 260   0.0000      -0.017284        -0.4703
 261   0.0000       0.008458         0.2301
 262   0.0000       0.016332         0.4444
 263   0.0000       0.037014         1.0072

MULLIKEN ATOMIC CHARGES
-----------------------
   0 C :    0.036407
   1 C :    0.042686
   2 C :    0.044038
   3 C :    0.058044
   4 C :   -0.170214
   5 C :   -0.052962
   6 C :    0.479015
   7 C :   -0.339529
   8 C :    0.230343
   9 C :    0.181674
  10 C :   -0.236405
  11 C :    0.101177
  12 C :   -0.058232
  13 C :   -0.021957
  14 S :    0.193472
  15 C :   -0.330853
  16 C :   -0.010631
  17 C :   -0.103258
  18 C :   -0.012880
  19 C :   -0.099563
  20 S :    0.191814
  21 C :   -0.087806
  22 S :    0.191138
  23 C :   -0.113069
  24 C :    0.002885
  25 C :   -0.024234
  26 C :   -0.021449
  27 C :   -0.078046
  28 C :   -0.326029
  29 S :    0.201725
  30 C :   -0.260130
  31 C :    0.085130
  32 C :    0.152171
  33 C :   -0.312392
  34 C :    0.265153
  35 C :   -0.036015
  36 C :   -0.175544
  37 C :    0.524222
  38 C :    0.037247
  39 C :    0.039325
  40 C :    0.050909
  41 C :    0.051634
  42 Cl:   -0.079947
  43 Cl:   -0.072911
  44 O :   -0.394264
  45 C :   -0.385203
  46 C :    0.030464
  47 C :    0.032913
  48 C :    0.028532
  49 C :    0.037113
  50 C :   -0.009889
  51 C :   -0.014216
  52 C :    0.034128
  53 C :    0.042764
  54 C :   -0.016498
  55 C :   -0.013464
  56 O :   -0.350706
  57 Cl:   -0.073356
  58 Cl:   -0.078612
  59 C :   -0.341181
  60 C :    0.034552
  61 C :    0.045564
  62 N :   -0.062718
  63 N :   -0.064151
  64 N :   -0.070598
  65 N :   -0.070904
  66 H :    0.077586
  67 H :    0.066822
  68 H :    0.084817
  69 H :    0.050666
  70 H :    0.051582
  71 H :    0.051094
  72 H :    0.110515
  73 H :    0.081839
  74 H :    0.081471
  75 H :    0.063009
  76 H :    0.050841
  77 H :    0.032983
  78 H :    0.041041
  79 H :    0.030929
  80 H :    0.044958
  81 H :    0.041453
  82 H :    0.033079
  83 H :    0.045086
  84 H :    0.038700
  85 H :    0.041668
  86 H :    0.040357
  87 H :    0.034029
  88 H :    0.053669
  89 H :    0.029759
  90 H :    0.054645
  91 H :    0.044375
  92 H :    0.022884
  93 H :    0.042045
  94 H :    0.038493
  95 H :    0.043181
Sum of atomic charges:   -0.0000000

LOEWDIN ATOMIC CHARGES
----------------------
   0 C :   -0.000936
   1 C :   -0.113785
   2 C :   -0.119730
   3 C :    0.016924
   4 C :   -0.053737
   5 C :   -0.018495
   6 C :    0.165015
   7 C :   -0.163095
   8 C :    0.101764
   9 C :    0.113628
  10 C :   -0.214675
  11 C :    0.034631
  12 C :   -0.060619
  13 C :   -0.133195
  14 S :    0.448899
  15 C :   -0.034743
  16 C :   -0.010922
  17 C :   -0.204807
  18 C :   -0.046142
  19 C :   -0.164838
  20 S :    0.429165
  21 C :   -0.152362
  22 S :    0.428871
  23 C :   -0.215859
  24 C :   -0.000926
  25 C :   -0.055354
  26 C :   -0.128623
  27 C :   -0.070294
  28 C :   -0.034884
  29 S :    0.441387
  30 C :   -0.219434
  31 C :    0.044498
  32 C :    0.108097
  33 C :   -0.171908
  34 C :    0.120874
  35 C :   -0.022155
  36 C :   -0.050310
  37 C :    0.172478
  38 C :    0.003355
  39 C :   -0.115730
  40 C :   -0.118136
  41 C :    0.013388
  42 Cl:    0.130711
  43 Cl:    0.133957
  44 O :   -0.243444
  45 C :   -0.181961
  46 C :    0.012657
  47 C :    0.009789
  48 C :    0.003469
  49 C :    0.006856
  50 C :   -0.031322
  51 C :   -0.031486
  52 C :    0.002409
  53 C :    0.009444
  54 C :   -0.032640
  55 C :   -0.031618
  56 O :   -0.231171
  57 Cl:    0.134998
  58 Cl:    0.131498
  59 C :   -0.171297
  60 C :    0.010053
  61 C :    0.004016
  62 N :   -0.095352
  63 N :   -0.090463
  64 N :   -0.096586
  65 N :   -0.096065
  66 H :    0.046578
  67 H :    0.049260
  68 H :    0.056206
  69 H :    0.037160
  70 H :    0.029099
  71 H :    0.028806
  72 H :    0.041384
  73 H :    0.044494
  74 H :    0.047032
  75 H :    0.047735
  76 H :    0.019464
  77 H :    0.015038
  78 H :    0.020886
  79 H :    0.013210
  80 H :    0.020721
  81 H :    0.022914
  82 H :    0.016150
  83 H :    0.019481
  84 H :    0.019918
  85 H :    0.017067
  86 H :    0.015365
  87 H :    0.015868
  88 H :    0.026118
  89 H :    0.012735
  90 H :    0.021702
  91 H :    0.024646
  92 H :    0.011281
  93 H :    0.018267
  94 H :    0.019517
  95 H :    0.018162

  Mayer bond orders larger than 0.100000
B(  0-C ,  1-C ) :   1.4139 B(  0-C ,  5-C ) :   1.4188 B(  0-C , 66-H ) :   0.9948
B(  1-C ,  2-C ) :   1.4241 B(  1-C , 57-Cl) :   1.0319 B(  2-C ,  3-C ) :   1.3982
B(  2-C , 58-Cl) :   1.0132 B(  3-C ,  4-C ) :   1.4201 B(  3-C , 67-H ) :   1.0147
B(  4-C ,  5-C ) :   1.3477 B(  4-C ,  6-C ) :   0.9423 B(  5-C ,  8-C ) :   1.0392
B(  6-C ,  7-C ) :   0.9968 B(  6-C , 56-O ) :   2.1091 B(  7-C ,  8-C ) :   1.0800
B(  7-C ,  9-C ) :   1.6648 B(  8-C , 59-C ) :   1.6981 B(  9-C , 10-C ) :   1.2031
B(  9-C , 68-H ) :   0.9624 B( 10-C , 11-C ) :   1.4407 B( 10-C , 14-S ) :   1.0697
B( 11-C , 12-C ) :   1.4036 B( 11-C , 69-H ) :   1.0030 B( 12-C , 13-C ) :   1.5225
B( 12-C , 15-C ) :   0.9093 B( 13-C , 14-S ) :   1.1046 B( 13-C , 17-C ) :   1.2879
B( 15-C , 16-C ) :   0.9411 B( 15-C , 52-C ) :   1.0205 B( 15-C , 53-C ) :   1.0030
B( 16-C , 17-C ) :   1.5740 B( 16-C , 18-C ) :   1.3587 B( 17-C , 20-S ) :   1.0571
B( 18-C , 19-C ) :   1.5399 B( 18-C , 70-H ) :   0.9983 B( 19-C , 20-S ) :   1.1075
B( 19-C , 21-C ) :   1.2062 B( 21-C , 22-S ) :   1.1135 B( 21-C , 25-C ) :   1.5375
B( 22-S , 23-C ) :   1.0491 B( 23-C , 24-C ) :   1.5683 B( 23-C , 26-C ) :   1.2907
B( 24-C , 25-C ) :   1.3583 B( 24-C , 28-C ) :   0.9422 B( 25-C , 71-H ) :   0.9989
B( 26-C , 27-C ) :   1.4765 B( 26-C , 29-S ) :   1.1400 B( 27-C , 28-C ) :   0.9062
B( 27-C , 31-C ) :   1.4337 B( 28-C , 48-C ) :   1.0152 B( 28-C , 49-C ) :   1.0078
B( 29-S , 30-C ) :   1.0680 B( 30-C , 31-C ) :   1.3827 B( 30-C , 32-C ) :   1.3145
B( 31-C , 72-H ) :   0.9837 B( 32-C , 33-C ) :   1.5884 B( 32-C , 73-H ) :   0.9367
B( 33-C , 34-C ) :   1.1297 B( 33-C , 37-C ) :   0.9867 B( 34-C , 35-C ) :   1.0312
B( 34-C , 45-C ) :   1.6537 B( 35-C , 36-C ) :   1.3582 B( 35-C , 38-C ) :   1.4120
B( 36-C , 37-C ) :   0.9785 B( 36-C , 41-C ) :   1.4201 B( 37-C , 44-O ) :   2.0042
B( 38-C , 39-C ) :   1.4167 B( 38-C , 74-H ) :   0.9907 B( 39-C , 40-C ) :   1.4239
B( 39-C , 43-Cl) :   1.0395 B( 40-C , 41-C ) :   1.3946 B( 40-C , 42-Cl) :   1.0117
B( 41-C , 75-H ) :   1.0160 B( 45-C , 46-C ) :   1.0692 B( 45-C , 47-C ) :   1.0692
B( 46-C , 64-N ) :   2.9781 B( 47-C , 65-N ) :   2.9721 B( 48-C , 51-C ) :   1.0374
B( 48-C , 76-H ) :   0.9727 B( 48-C , 77-H ) :   0.9733 B( 49-C , 50-C ) :   1.0476
B( 49-C , 78-H ) :   0.9710 B( 49-C , 79-H ) :   0.9688 B( 50-C , 80-H ) :   0.9823
B( 50-C , 81-H ) :   0.9851 B( 50-C , 82-H ) :   0.9817 B( 51-C , 83-H ) :   0.9836
B( 51-C , 84-H ) :   0.9872 B( 51-C , 85-H ) :   0.9804 B( 52-C , 55-C ) :   1.0366
B( 52-C , 86-H ) :   0.9727 B( 52-C , 87-H ) :   0.9729 B( 53-C , 54-C ) :   1.0500
B( 53-C , 88-H ) :   0.9692 B( 53-C , 89-H ) :   0.9694 B( 54-C , 90-H ) :   0.9796
B( 54-C , 91-H ) :   0.9844 B( 54-C , 92-H ) :   0.9829 B( 55-C , 93-H ) :   0.9828
B( 55-C , 94-H ) :   0.9872 B( 55-C , 95-H ) :   0.9815 B( 59-C , 60-C ) :   1.0565
B( 59-C , 61-C ) :   1.0700 B( 60-C , 63-N ) :   2.9952 B( 61-C , 62-N ) :   3.0146

-----------------------------------------------------------------------------
         ABSORPTION SPECTRUM VIA TRANSITION ELECTRIC DIPOLE MOMENTS
-----------------------------------------------------------------------------
State   Energy    Wavelength  fosc         T2        TX        TY        TZ
        (cm-1)      (nm)                 (au**2)    (au)      (au)      (au)
-----------------------------------------------------------------------------
   1   18938.5    528.0   2.574683584  44.75628  -3.80058   4.91170   2.48737
   2   25009.8    399.8   0.367751497   4.84083  -0.15921  -1.71966  -1.36317
   3   32429.3    308.4   0.183141171   1.85919   0.97081   0.92448   0.24910

FINAL SINGLE POINT ENERGY     -5779.116821356810

DIPOLE MOMENT
-------------
                                X             Y             Z
Electronic contribution:    -36.53881     -37.20226     -10.16919
Nuclear contribution   :     36.32375      37.93612      12.70522
                        -----------------------------------------
Total Dipole Moment    :     -0.21506       0.73386       2.53603
                        -----------------------------------------
Magnitude (a.u.)       :      2.64882
Magnitude (Debye)      :      6.73278

Rotational constants in cm-1:     0.002134     0.000213     0.000199
Rotational constants in MHz :    63.983756     6.391502     5.957991

                             ****ORCA TERMINATED NORMALLY****
TOTAL RUN TIME: 0 days 12 hours 59 minutes 51 seconds 71 msec
