                         Program Version 4.2.0 -  RELEASE  -
|  1> # ORCA input file
|  2> # CPDT-4Cl.out: Geometry 103
|  3> ! Engrad Keepdens
|  4> %maxcore 1000
|  5> %tddft
|  6>   nroots 3
|  7>   # nroots is the number of states to be computed
|  8>   Iroot 1
|  9>   end
| 10> * xyz 0 1
| 11>    C       -0.57575         2.01495         1.56806
| 12>    C       -1.63919         2.35525         2.41426
| 13>    C       -1.58080         3.50067         3.23958
| 14>    C       -0.43707         4.30746         3.23674
| 15>    C        0.61909         3.95079         2.41249
| 16>    C        0.56491         2.81932         1.57077
| 17>    C        1.94214         4.62201         2.26629
| 18>    C        2.73638         3.73034         1.35969
| 19>    C        1.81397         2.76246         0.77645
| 20>    C        4.10419         3.85762         1.30100
| 21>    C        5.08317         2.90612         0.90263
| 22>    C        6.38165         3.17481         0.43648
| 23>    C        7.07001         2.02268         0.03556
| 24>    C        6.32059         0.85707         0.27332
| 25>    S        4.77190         1.16547         0.94235
| 26>    C        8.39493         1.67089        -0.64947
| 27>    C        8.27667         0.14835        -0.70435
| 28>    C        7.06119        -0.27946        -0.16322
| 29>    C        9.03152        -0.91045        -1.23774
| 30>    C        8.38983        -2.14586        -1.10492
| 31>    S        6.82955        -1.98278        -0.29876
| 32>    C        8.80459        -3.43495        -1.57563
| 33>    S       10.26741        -3.60426        -2.54570
| 34>    C        9.96871        -5.29677        -2.73325
| 35>    C        8.80557        -5.70978        -2.07522
| 36>    C        8.14736        -4.65895        -1.41914
| 37>    C       10.54718        -6.41772        -3.40268
| 38>    C        9.74597        -7.55668        -3.16031
| 39>    C        8.55523        -7.19935        -2.27415
| 40>    S       11.88036        -6.74985        -4.42109
| 41>    C       11.38381        -8.45918        -4.55660
| 42>    C       10.22655        -8.70183        -3.78667
| 43>    C       12.15476        -9.25753        -5.43116
| 44>    C       12.04198       -10.57541        -5.84800
| 45>    C       12.90823       -11.21885        -6.84312
| 46>    C       12.41502       -12.60683        -7.03326
| 47>    C       11.33174       -12.82034        -6.16269
| 48>    C       11.04241       -11.58327        -5.39883
| 49>    C       12.81388       -13.64066        -7.88555
| 50>    C       12.12825       -14.86148        -7.83068
| 51>    C       11.06334       -15.06653        -6.92704
| 52>    C       10.65406       -14.02620        -6.08710
| 53>   Cl       10.25007       -16.59199        -6.85112
| 54>   Cl       12.61171       -16.12926        -8.90510
| 55>    O       10.14403       -11.48036        -4.57847
| 56>    C       14.00059       -10.68767        -7.51174
| 57>    C       14.78857       -11.45121        -8.42930
| 58>    C       14.46715        -9.34550        -7.35171
| 59>    C        8.58529        -7.94970        -0.91822
| 60>    C        7.19965        -7.40528        -3.01001
| 61>    C        6.88549        -8.83620        -3.44390
| 62>    C        9.88607        -7.79491        -0.13216
| 63>    C        9.64223         2.12920         0.14243
| 64>    C        8.43392         2.20452        -2.11194
| 65>    C        8.39597         3.72131        -2.27976
| 66>    C        9.73385         1.60118         1.57198
| 67>    O        2.31173         5.63995         2.81252
| 68>   Cl       -3.04096         1.33928         2.42651
| 69>   Cl       -2.91082         3.92047         4.26505
| 70>    C        1.95871         2.10698        -0.43386
| 71>    C        1.00243         1.16039        -0.91226
| 72>    C        3.03246         2.39606        -1.33224
| 73>    N        3.87306         2.65770        -2.09058
| 74>    N        0.24256         0.36515        -1.28840
| 75>    N       15.44654       -12.06183        -9.16782
| 76>    N       14.86557        -8.25848        -7.24175
| 77>    H       -0.66849         1.12669         0.94723
| 78>    H       -0.37909         5.19605         3.86647
| 79>    H        4.48843         4.80925         1.68986
| 80>    H        6.75841         4.19507         0.36484
| 81>    H       10.00227        -0.80376        -1.72321
| 82>    H        7.21784        -4.75878        -0.85787
| 83>    H        9.80052        -9.70120        -3.74205
| 84>    H       12.97634        -8.70100        -5.88084
| 85>    H       13.63130       -13.54299        -8.59454
| 86>    H        9.82220       -14.15379        -5.39362
| 87>    H        8.39269        -9.01749        -1.10702
| 88>    H        7.73472        -7.58442        -0.31694
| 89>    H        7.19121        -6.74672        -3.89356
| 90>    H        6.40320        -7.03241        -2.34289
| 91>    H        7.61742        -9.21162        -4.17266
| 92>    H        5.89638        -8.87752        -3.92645
| 93>    H        6.86599        -9.53706        -2.59590
| 94>    H       10.74557        -8.17188        -0.70760
| 95>    H        9.83954        -8.36345         0.80819
| 96>    H       10.08698        -6.74247         0.12069
| 97>    H        9.65749         3.23062         0.15340
| 98>    H       10.53152         1.81676        -0.43271
| 99>    H        7.58591         1.76005        -2.65627
|100>    H        9.34865         1.80068        -2.57836
|101>    H        7.42396         4.13443        -1.97189
|102>    H        8.54080         3.98668        -3.33811
|103>    H        9.18346         4.23296        -1.70737
|104>    H        8.84386         1.88043         2.15825
|105>    H       10.61268         2.01972         2.08564
|106>    H        9.82011         0.50353         1.59552
|107> *
|108>
|109>                          ****END OF INPUT****

CARTESIAN COORDINATES (ANGSTROEM)
---------------------------------
  C     -0.575750    2.014950    1.568060
  C     -1.639190    2.355250    2.414260
  C     -1.580800    3.500670    3.239580
  C     -0.437070    4.307460    3.236740
  C      0.619090    3.950790    2.412490
  C      0.564910    2.819320    1.570770
  C      1.942140    4.622010    2.266290
  C      2.736380    3.730340    1.359690
  C      1.813970    2.762460    0.776450
  C      4.104190    3.857620    1.301000
  C      5.083170    2.906120    0.902630
  C      6.381650    3.174810    0.436480
  C      7.070010    2.022680    0.035560
  C      6.320590    0.857070    0.273320
  S      4.771900    1.165470    0.942350
  C      8.394930    1.670890   -0.649470
  C      8.276670    0.148350   -0.704350
  C      7.061190   -0.279460   -0.163220
  C      9.031520   -0.910450   -1.237740
  C      8.389830   -2.145860   -1.104920
  S      6.829550   -1.982780   -0.298760
  C      8.804590   -3.434950   -1.575630
  S     10.267410   -3.604260   -2.545700
  C      9.968710   -5.296770   -2.733250
  C      8.805570   -5.709780   -2.075220
  C      8.147360   -4.658950   -1.419140
  C     10.547180   -6.417720   -3.402680
  C      9.745970   -7.556680   -3.160310
  C      8.555230   -7.199350   -2.274150
  S     11.880360   -6.749850   -4.421090
  C     11.383810   -8.459180   -4.556600
  C     10.226550   -8.701830   -3.786670
  C     12.154760   -9.257530   -5.431160
  C     12.041980  -10.575410   -5.848000
  C     12.908230  -11.218850   -6.843120
  C     12.415020  -12.606830   -7.033260
  C     11.331740  -12.820340   -6.162690
  C     11.042410  -11.583270   -5.398830
  C     12.813880  -13.640660   -7.885550
  C     12.128250  -14.861480   -7.830680
  C     11.063340  -15.066530   -6.927040
  C     10.654060  -14.026200   -6.087100
  Cl    10.250070  -16.591990   -6.851120
  Cl    12.611710  -16.129260   -8.905100
  O     10.144030  -11.480360   -4.578470
  C     14.000590  -10.687670   -7.511740
  C     14.788570  -11.451210   -8.429300
  C     14.467150   -9.345500   -7.351710
  C      8.585290   -7.949700   -0.918220
  C      7.199650   -7.405280   -3.010010
  C      6.885490   -8.836200   -3.443900
  C      9.886070   -7.794910   -0.132160
  C      9.642230    2.129200    0.142430
  C      8.433920    2.204520   -2.111940
  C      8.395970    3.721310   -2.279760
  C      9.733850    1.601180    1.571980
  O      2.311730    5.639950    2.812520
  Cl    -3.040960    1.339280    2.426510
  Cl    -2.910820    3.920470    4.265050
  C      1.958710    2.106980   -0.433860
  C      1.002430    1.160390   -0.912260
  C      3.032460    2.396060   -1.332240
  N      3.873060    2.657700   -2.090580
  N      0.242560    0.365150   -1.288400
  N     15.446540  -12.061830   -9.167820
  N     14.865570   -8.258480   -7.241750
  H     -0.668490    1.126690    0.947230
  H     -0.379090    5.196050    3.866470
  H      4.488430    4.809250    1.689860
  H      6.758410    4.195070    0.364840
  H     10.002270   -0.803760   -1.723210
  H      7.217840   -4.758780   -0.857870
  H      9.800520   -9.701200   -3.742050
  H     12.976340   -8.701000   -5.880840
  H     13.631300  -13.542990   -8.594540
  H      9.822200  -14.153790   -5.393620
  H      8.392690   -9.017490   -1.107020
  H      7.734720   -7.584420   -0.316940
  H      7.191210   -6.746720   -3.893560
  H      6.403200   -7.032410   -2.342890
  H      7.617420   -9.211620   -4.172660
  H      5.896380   -8.877520   -3.926450
  H      6.865990   -9.537060   -2.595900
  H     10.745570   -8.171880   -0.707600
  H      9.839540   -8.363450    0.808190
  H     10.086980   -6.742470    0.120690
  H      9.657490    3.230620    0.153400
  H     10.531520    1.816760   -0.432710
  H      7.585910    1.760050   -2.656270
  H      9.348650    1.800680   -2.578360
  H      7.423960    4.134430   -1.971890
  H      8.540800    3.986680   -3.338110
  H      9.183460    4.232960   -1.707370
  H      8.843860    1.880430    2.158250
  H     10.612680    2.019720    2.085640
  H      9.820110    0.503530    1.595520

 Total Charge           Charge          ....    0
 Multiplicity           Mult            ....    1
 Number of Electrons    NEL             ....  518
 Basis Dimension        Dim             .... 1106

ORBITAL ENERGIES
----------------

  NO   OCC          E(Eh)            E(eV)
   0   2.0000    -104.824281     -2852.4137
   1   2.0000    -104.822802     -2852.3734
   2   2.0000    -104.821902     -2852.3490
   3   2.0000    -104.818620     -2852.2597
   4   2.0000     -91.991519     -2503.2165
   5   2.0000     -91.990519     -2503.1893
   6   2.0000     -91.989920     -2503.1730
   7   2.0000     -91.988407     -2503.1318
   8   2.0000     -20.569844      -559.7339
   9   2.0000     -20.568782      -559.7050
  10   2.0000     -15.597949      -424.4418
  11   2.0000     -15.595515      -424.3755
  12   2.0000     -15.594318      -424.3430
  13   2.0000     -15.590279      -424.2330
  14   2.0000     -11.369886      -309.3903
  15   2.0000     -11.369490      -309.3796
  16   2.0000     -11.350043      -308.8504
  17   2.0000     -11.349668      -308.8402
  18   2.0000     -11.348954      -308.8207
  19   2.0000     -11.347692      -308.7864
  20   2.0000     -11.346378      -308.7506
  21   2.0000     -11.344644      -308.7034
  22   2.0000     -11.331326      -308.3410
  23   2.0000     -11.327923      -308.2485
  24   2.0000     -11.326055      -308.1976
  25   2.0000     -11.325413      -308.1802
  26   2.0000     -11.324318      -308.1504
  27   2.0000     -11.323710      -308.1338
  28   2.0000     -11.322234      -308.0937
  29   2.0000     -11.320757      -308.0535
  30   2.0000     -11.309345      -307.7429
  31   2.0000     -11.308123      -307.7097
  32   2.0000     -11.307791      -307.7006
  33   2.0000     -11.305649      -307.6424
  34   2.0000     -11.304888      -307.6216
  35   2.0000     -11.304294      -307.6055
  36   2.0000     -11.304075      -307.5995
  37   2.0000     -11.303444      -307.5824
  38   2.0000     -11.302654      -307.5609
  39   2.0000     -11.301221      -307.5219
  40   2.0000     -11.299994      -307.4885
  41   2.0000     -11.299202      -307.4669
  42   2.0000     -11.299129      -307.4649
  43   2.0000     -11.295002      -307.3526
  44   2.0000     -11.294843      -307.3483
  45   2.0000     -11.290707      -307.2358
  46   2.0000     -11.287886      -307.1590
  47   2.0000     -11.287512      -307.1488
  48   2.0000     -11.286701      -307.1268
  49   2.0000     -11.285162      -307.0849
  50   2.0000     -11.284945      -307.0790
  51   2.0000     -11.284660      -307.0712
  52   2.0000     -11.283668      -307.0442
  53   2.0000     -11.281902      -306.9962
  54   2.0000     -11.281885      -306.9957
  55   2.0000     -11.278420      -306.9014
  56   2.0000     -11.273673      -306.7722
  57   2.0000     -11.269683      -306.6637
  58   2.0000     -11.259220      -306.3790
  59   2.0000     -11.257230      -306.3248
  60   2.0000     -11.256856      -306.3146
  61   2.0000     -11.256249      -306.2981
  62   2.0000     -11.241700      -305.9022
  63   2.0000     -11.241590      -305.8992
  64   2.0000     -11.240123      -305.8593
  65   2.0000     -11.238459      -305.8140
  66   2.0000     -10.587621      -288.1038
  67   2.0000     -10.586177      -288.0645
  68   2.0000     -10.585271      -288.0399
  69   2.0000     -10.582021      -287.9514
  70   2.0000      -9.026122      -245.6133
  71   2.0000      -9.025286      -245.5905
  72   2.0000      -9.024772      -245.5765
  73   2.0000      -9.023252      -245.5352
  74   2.0000      -8.062707      -219.3974
  75   2.0000      -8.061259      -219.3580
  76   2.0000      -8.060358      -219.3335
  77   2.0000      -8.058941      -219.2949
  78   2.0000      -8.058932      -219.2947
  79   2.0000      -8.057489      -219.2554
  80   2.0000      -8.057474      -219.2550
  81   2.0000      -8.057105      -219.2450
  82   2.0000      -8.056596      -219.2311
  83   2.0000      -8.056593      -219.2310
  84   2.0000      -8.053340      -219.1425
  85   2.0000      -8.053320      -219.1420
  86   2.0000      -6.713620      -182.6869
  87   2.0000      -6.712796      -182.6645
  88   2.0000      -6.712687      -182.6615
  89   2.0000      -6.712278      -182.6504
  90   2.0000      -6.711836      -182.6384
  91   2.0000      -6.711215      -182.6214
  92   2.0000      -6.710715      -182.6079
  93   2.0000      -6.710671      -182.6067
  94   2.0000      -6.709875      -182.5850
  95   2.0000      -6.709574      -182.5768
  96   2.0000      -6.709368      -182.5712
  97   2.0000      -6.707821      -182.5291
  98   2.0000      -1.397755       -38.0348
  99   2.0000      -1.397593       -38.0304
 100   2.0000      -1.251300       -34.0496
 101   2.0000      -1.248067       -33.9616
 102   2.0000      -1.246783       -33.9267
 103   2.0000      -1.242796       -33.8182
 104   2.0000      -1.236051       -33.6346
 105   2.0000      -1.234346       -33.5883
 106   2.0000      -1.221043       -33.2263
 107   2.0000      -1.218944       -33.1691
 108   2.0000      -1.206796       -32.8386
 109   2.0000      -1.202336       -32.7172
 110   2.0000      -1.198473       -32.6121
 111   2.0000      -1.185513       -32.2594
 112   2.0000      -1.158134       -31.5144
 113   2.0000      -1.154773       -31.4230
 114   2.0000      -1.148591       -31.2547
 115   2.0000      -1.135400       -30.8958
 116   2.0000      -1.127967       -30.6935
 117   2.0000      -1.124265       -30.5928
 118   2.0000      -1.101220       -29.9657
 119   2.0000      -1.096847       -29.8467
 120   2.0000      -1.081698       -29.4345
 121   2.0000      -1.069522       -29.1032
 122   2.0000      -1.052065       -28.6282
 123   2.0000      -1.048424       -28.5291
 124   2.0000      -1.044530       -28.4231
 125   2.0000      -1.036239       -28.1975
 126   2.0000      -1.030046       -28.0290
 127   2.0000      -1.029590       -28.0166
 128   2.0000      -1.027612       -27.9627
 129   2.0000      -1.023641       -27.8547
 130   2.0000      -1.019888       -27.7526
 131   2.0000      -1.012474       -27.5508
 132   2.0000      -0.993780       -27.0421
 133   2.0000      -0.970902       -26.4196
 134   2.0000      -0.949023       -25.8242
 135   2.0000      -0.935593       -25.4588
 136   2.0000      -0.930980       -25.3333
 137   2.0000      -0.926204       -25.2033
 138   2.0000      -0.922632       -25.1061
 139   2.0000      -0.910006       -24.7625
 140   2.0000      -0.883200       -24.0331
 141   2.0000      -0.865750       -23.5582
 142   2.0000      -0.853876       -23.2351
 143   2.0000      -0.851672       -23.1752
 144   2.0000      -0.847649       -23.0657
 145   2.0000      -0.837378       -22.7862
 146   2.0000      -0.833229       -22.6733
 147   2.0000      -0.829653       -22.5760
 148   2.0000      -0.825186       -22.4544
 149   2.0000      -0.816898       -22.2289
 150   2.0000      -0.810069       -22.0431
 151   2.0000      -0.788561       -21.4578
 152   2.0000      -0.779237       -21.2041
 153   2.0000      -0.769052       -20.9270
 154   2.0000      -0.765144       -20.8206
 155   2.0000      -0.757223       -20.6051
 156   2.0000      -0.752629       -20.4801
 157   2.0000      -0.751165       -20.4403
 158   2.0000      -0.744613       -20.2619
 159   2.0000      -0.739498       -20.1228
 160   2.0000      -0.729964       -19.8633
 161   2.0000      -0.719622       -19.5819
 162   2.0000      -0.710193       -19.3253
 163   2.0000      -0.699400       -19.0316
 164   2.0000      -0.694165       -18.8892
 165   2.0000      -0.686376       -18.6772
 166   2.0000      -0.680436       -18.5156
 167   2.0000      -0.672404       -18.2971
 168   2.0000      -0.671545       -18.2737
 169   2.0000      -0.661775       -18.0078
 170   2.0000      -0.661401       -17.9976
 171   2.0000      -0.652232       -17.7481
 172   2.0000      -0.651204       -17.7202
 173   2.0000      -0.649735       -17.6802
 174   2.0000      -0.647802       -17.6276
 175   2.0000      -0.646635       -17.5958
 176   2.0000      -0.640613       -17.4320
 177   2.0000      -0.638080       -17.3630
 178   2.0000      -0.631410       -17.1815
 179   2.0000      -0.629925       -17.1411
 180   2.0000      -0.627822       -17.0839
 181   2.0000      -0.625384       -17.0176
 182   2.0000      -0.623361       -16.9625
 183   2.0000      -0.620631       -16.8882
 184   2.0000      -0.615427       -16.7466
 185   2.0000      -0.612871       -16.6771
 186   2.0000      -0.608809       -16.5665
 187   2.0000      -0.599086       -16.3020
 188   2.0000      -0.597023       -16.2458
 189   2.0000      -0.592147       -16.1131
 190   2.0000      -0.585172       -15.9233
 191   2.0000      -0.583192       -15.8694
 192   2.0000      -0.582366       -15.8470
 193   2.0000      -0.580065       -15.7844
 194   2.0000      -0.577932       -15.7263
 195   2.0000      -0.577550       -15.7159
 196   2.0000      -0.576668       -15.6919
 197   2.0000      -0.575524       -15.6608
 198   2.0000      -0.572936       -15.5904
 199   2.0000      -0.571778       -15.5589
 200   2.0000      -0.570382       -15.5209
 201   2.0000      -0.569909       -15.5080
 202   2.0000      -0.567063       -15.4306
 203   2.0000      -0.565492       -15.3878
 204   2.0000      -0.564973       -15.3737
 205   2.0000      -0.561854       -15.2888
 206   2.0000      -0.559111       -15.2142
 207   2.0000      -0.557064       -15.1585
 208   2.0000      -0.554517       -15.0892
 209   2.0000      -0.548421       -14.9233
 210   2.0000      -0.546487       -14.8707
 211   2.0000      -0.543274       -14.7832
 212   2.0000      -0.539827       -14.6895
 213   2.0000      -0.531368       -14.4593
 214   2.0000      -0.529938       -14.4203
 215   2.0000      -0.528399       -14.3785
 216   2.0000      -0.516719       -14.0606
 217   2.0000      -0.513476       -13.9724
 218   2.0000      -0.510848       -13.9009
 219   2.0000      -0.509809       -13.8726
 220   2.0000      -0.507610       -13.8128
 221   2.0000      -0.507265       -13.8034
 222   2.0000      -0.505607       -13.7583
 223   2.0000      -0.499943       -13.6041
 224   2.0000      -0.499403       -13.5895
 225   2.0000      -0.498759       -13.5719
 226   2.0000      -0.496068       -13.4987
 227   2.0000      -0.494123       -13.4458
 228   2.0000      -0.493937       -13.4407
 229   2.0000      -0.492799       -13.4097
 230   2.0000      -0.490247       -13.3403
 231   2.0000      -0.488973       -13.3056
 232   2.0000      -0.488164       -13.2836
 233   2.0000      -0.486086       -13.2271
 234   2.0000      -0.483360       -13.1529
 235   2.0000      -0.480351       -13.0710
 236   2.0000      -0.477014       -12.9802
 237   2.0000      -0.475824       -12.9478
 238   2.0000      -0.473513       -12.8849
 239   2.0000      -0.469076       -12.7642
 240   2.0000      -0.466309       -12.6889
 241   2.0000      -0.462523       -12.5859
 242   2.0000      -0.460559       -12.5325
 243   2.0000      -0.450437       -12.2570
 244   2.0000      -0.445200       -12.1145
 245   2.0000      -0.435824       -11.8594
 246   2.0000      -0.414199       -11.2709
 247   2.0000      -0.393010       -10.6943
 248   2.0000      -0.388858       -10.5814
 249   2.0000      -0.382839       -10.4176
 250   2.0000      -0.380161       -10.3447
 251   2.0000      -0.379991       -10.3401
 252   2.0000      -0.376760       -10.2522
 253   2.0000      -0.373574       -10.1655
 254   2.0000      -0.355644        -9.6776
 255   2.0000      -0.349281        -9.5044
 256   2.0000      -0.343664        -9.3516
 257   2.0000      -0.302816        -8.2400
 258   2.0000      -0.262244        -7.1360
 259   0.0000      -0.039098        -1.0639
 260   0.0000      -0.019496        -0.5305
 261   0.0000       0.007453         0.2028
 262   0.0000       0.015394         0.4189
 263   0.0000       0.035779         0.9736

MULLIKEN ATOMIC CHARGES
-----------------------
   0 C :    0.032962
   1 C :    0.032380
   2 C :    0.040723
   3 C :    0.055474
   4 C :   -0.175331
   5 C :   -0.044499
   6 C :    0.474075
   7 C :   -0.336557
   8 C :    0.218411
   9 C :    0.182600
  10 C :   -0.242963
  11 C :    0.106657
  12 C :   -0.060247
  13 C :   -0.030757
  14 S :    0.192896
  15 C :   -0.320396
  16 C :   -0.020251
  17 C :   -0.097251
  18 C :    0.002059
  19 C :   -0.111313
  20 S :    0.185672
  21 C :   -0.094029
  22 S :    0.192826
  23 C :   -0.113856
  24 C :   -0.006214
  25 C :   -0.012526
  26 C :   -0.021490
  27 C :   -0.084984
  28 C :   -0.314215
  29 S :    0.199444
  30 C :   -0.275626
  31 C :    0.090720
  32 C :    0.160510
  33 C :   -0.315422
  34 C :    0.247367
  35 C :   -0.031468
  36 C :   -0.180519
  37 C :    0.522724
  38 C :    0.037060
  39 C :    0.027914
  40 C :    0.049331
  41 C :    0.049829
  42 Cl:   -0.079581
  43 Cl:   -0.072968
  44 O :   -0.400999
  45 C :   -0.354263
  46 C :    0.044734
  47 C :    0.049217
  48 C :    0.021346
  49 C :    0.028607
  50 C :   -0.034034
  51 C :   -0.031280
  52 C :    0.019315
  53 C :    0.025415
  54 C :   -0.031300
  55 C :   -0.026192
  56 O :   -0.353373
  57 Cl:   -0.072791
  58 Cl:   -0.077557
  59 C :   -0.325926
  60 C :    0.046431
  61 C :    0.057048
  62 N :   -0.075589
  63 N :   -0.084844
  64 N :   -0.090018
  65 N :   -0.097483
  66 H :    0.088668
  67 H :    0.077647
  68 H :    0.094275
  69 H :    0.062165
  70 H :    0.061200
  71 H :    0.062879
  72 H :    0.123054
  73 H :    0.089046
  74 H :    0.091578
  75 H :    0.073852
  76 H :    0.051507
  77 H :    0.035489
  78 H :    0.046211
  79 H :    0.035263
  80 H :    0.050169
  81 H :    0.046784
  82 H :    0.037440
  83 H :    0.049238
  84 H :    0.043278
  85 H :    0.045927
  86 H :    0.044153
  87 H :    0.036600
  88 H :    0.060964
  89 H :    0.033940
  90 H :    0.050020
  91 H :    0.049476
  92 H :    0.030172
  93 H :    0.044464
  94 H :    0.042866
  95 H :    0.046040
Sum of atomic charges:   -0.0000000

LOEWDIN ATOMIC CHARGES
----------------------
   0 C :   -0.002868
   1 C :   -0.108330
   2 C :   -0.113707
   3 C :    0.014386
   4 C :   -0.055716
   5 C :   -0.018443
   6 C :    0.170187
   7 C :   -0.161872
   8 C :    0.106312
   9 C :    0.113129
  10 C :   -0.217362
  11 C :    0.032713
  12 C :   -0.062461
  13 C :   -0.133513
  14 S :    0.440399
  15 C :   -0.027646
  16 C :   -0.014414
  17 C :   -0.201837
  18 C :   -0.047015
  19 C :   -0.163212
  20 S :    0.421806
  21 C :   -0.152982
  22 S :    0.419979
  23 C :   -0.212479
  24 C :   -0.004040
  25 C :   -0.057016
  26 C :   -0.126200
  27 C :   -0.072241
  28 C :   -0.030550
  29 S :    0.435694
  30 C :   -0.219266
  31 C :    0.045094
  32 C :    0.110278
  33 C :   -0.174615
  34 C :    0.127351
  35 C :   -0.022508
  36 C :   -0.052477
  37 C :    0.178045
  38 C :    0.002427
  39 C :   -0.111383
  40 C :   -0.112232
  41 C :    0.011377
  42 Cl:    0.123701
  43 Cl:    0.126499
  44 O :   -0.249026
  45 C :   -0.183206
  46 C :    0.019054
  47 C :    0.018882
  48 C :   -0.000940
  49 C :    0.002479
  50 C :   -0.037149
  51 C :   -0.037280
  52 C :   -0.003720
  53 C :    0.003978
  54 C :   -0.038037
  55 C :   -0.037286
  56 O :   -0.232920
  57 Cl:    0.127089
  58 Cl:    0.124542
  59 C :   -0.168838
  60 C :    0.016718
  61 C :    0.008604
  62 N :   -0.098516
  63 N :   -0.096570
  64 N :   -0.102285
  65 N :   -0.103851
  66 H :    0.049229
  67 H :    0.052929
  68 H :    0.059311
  69 H :    0.040194
  70 H :    0.033263
  71 H :    0.032539
  72 H :    0.045911
  73 H :    0.046162
  74 H :    0.049320
  75 H :    0.051500
  76 H :    0.019960
  77 H :    0.016271
  78 H :    0.022916
  79 H :    0.015307
  80 H :    0.022195
  81 H :    0.025283
  82 H :    0.017737
  83 H :    0.021180
  84 H :    0.022371
  85 H :    0.019303
  86 H :    0.016815
  87 H :    0.017517
  88 H :    0.029033
  89 H :    0.014301
  90 H :    0.021409
  91 H :    0.027224
  92 H :    0.013873
  93 H :    0.020020
  94 H :    0.022110
  95 H :    0.020102

  Mayer bond orders larger than 0.100000
B(  0-C ,  1-C ) :   1.4204 B(  0-C ,  5-C ) :   1.4152 B(  0-C , 66-H ) :   0.9891
B(  1-C ,  2-C ) :   1.4172 B(  1-C , 57-Cl) :   1.0350 B(  2-C ,  3-C ) :   1.4037
B(  2-C , 58-Cl) :   1.0158 B(  3-C ,  4-C ) :   1.4198 B(  3-C , 67-H ) :   1.0074
B(  4-C ,  5-C ) :   1.3536 B(  4-C ,  6-C ) :   0.9407 B(  5-C ,  8-C ) :   1.0366
B(  6-C ,  7-C ) :   0.9952 B(  6-C , 56-O ) :   2.0987 B(  7-C ,  8-C ) :   1.0734
B(  7-C ,  9-C ) :   1.6810 B(  8-C , 59-C ) :   1.7074 B(  9-C , 10-C ) :   1.1953
B(  9-C , 68-H ) :   0.9564 B( 10-C , 11-C ) :   1.4502 B( 10-C , 14-S ) :   1.0726
B( 11-C , 12-C ) :   1.3933 B( 11-C , 69-H ) :   0.9956 B( 12-C , 13-C ) :   1.5352
B( 12-C , 15-C ) :   0.9111 B( 13-C , 14-S ) :   1.1077 B( 13-C , 17-C ) :   1.2579
B( 15-C , 16-C ) :   0.9441 B( 15-C , 52-C ) :   1.0090 B( 15-C , 53-C ) :   1.0022
B( 16-C , 17-C ) :   1.5873 B( 16-C , 18-C ) :   1.3405 B( 17-C , 20-S ) :   1.0629
B( 18-C , 19-C ) :   1.5566 B( 18-C , 70-H ) :   0.9928 B( 19-C , 20-S ) :   1.1123
B( 19-C , 21-C ) :   1.1794 B( 21-C , 22-S ) :   1.1149 B( 21-C , 25-C ) :   1.5515
B( 22-S , 23-C ) :   1.0516 B( 23-C , 24-C ) :   1.5805 B( 23-C , 26-C ) :   1.2668
B( 24-C , 25-C ) :   1.3454 B( 24-C , 28-C ) :   0.9416 B( 25-C , 71-H ) :   0.9916
B( 26-C , 27-C ) :   1.4804 B( 26-C , 29-S ) :   1.1451 B( 27-C , 28-C ) :   0.9082
B( 27-C , 31-C ) :   1.4234 B( 28-C , 48-C ) :   1.0054 B( 28-C , 49-C ) :   1.0075
B( 29-S , 30-C ) :   1.0714 B( 30-C , 31-C ) :   1.3821 B( 30-C , 32-C ) :   1.3109
B( 31-C , 72-H ) :   0.9767 B( 32-C , 33-C ) :   1.5855 B( 32-C , 73-H ) :   0.9354
B( 33-C , 34-C ) :   1.1297 B( 33-C , 37-C ) :   0.9911 B( 34-C , 35-C ) :   1.0300
B( 34-C , 45-C ) :   1.6552 B( 35-C , 36-C ) :   1.3660 B( 35-C , 38-C ) :   1.4099
B( 36-C , 37-C ) :   0.9797 B( 36-C , 41-C ) :   1.4198 B( 37-C , 44-O ) :   1.9936
B( 38-C , 39-C ) :   1.4221 B( 38-C , 74-H ) :   0.9857 B( 39-C , 40-C ) :   1.4175
B( 39-C , 43-Cl) :   1.0406 B( 40-C , 41-C ) :   1.3975 B( 40-C , 42-Cl) :   1.0139
B( 41-C , 75-H ) :   1.0089 B( 45-C , 46-C ) :   1.0597 B( 45-C , 47-C ) :   1.0594
B( 46-C , 64-N ) :   2.9740 B( 47-C , 65-N ) :   2.9600 B( 48-C , 51-C ) :   1.0345
B( 48-C , 76-H ) :   0.9723 B( 48-C , 77-H ) :   0.9738 B( 49-C , 50-C ) :   1.0436
B( 49-C , 78-H ) :   0.9712 B( 49-C , 79-H ) :   0.9695 B( 50-C , 80-H ) :   0.9808
B( 50-C , 81-H ) :   0.9847 B( 50-C , 82-H ) :   0.9831 B( 51-C , 83-H ) :   0.9812
B( 51-C , 84-H ) :   0.9869 B( 51-C , 85-H ) :   0.9830 B( 52-C , 55-C ) :   1.0347
B( 52-C , 86-H ) :   0.9726 B( 52-C , 87-H ) :   0.9728 B( 53-C , 54-C ) :   1.0437
B( 53-C , 88-H ) :   0.9700 B( 53-C , 89-H ) :   0.9694 B( 54-C , 90-H ) :   0.9806
B( 54-C , 91-H ) :   0.9844 B( 54-C , 92-H ) :   0.9833 B( 55-C , 93-H ) :   0.9824
B( 55-C , 94-H ) :   0.9871 B( 55-C , 95-H ) :   0.9819 B( 59-C , 60-C ) :   1.0425
B( 59-C , 61-C ) :   1.0654 B( 60-C , 63-N ) :   2.9865 B( 61-C , 62-N ) :   3.0124

-----------------------------------------------------------------------------
         ABSORPTION SPECTRUM VIA TRANSITION ELECTRIC DIPOLE MOMENTS
-----------------------------------------------------------------------------
State   Energy    Wavelength  fosc         T2        TX        TY        TZ
        (cm-1)      (nm)                 (au**2)    (au)      (au)      (au)
-----------------------------------------------------------------------------
   1   19495.2    512.9   2.430032767  41.03546  -3.67524   4.66663   2.39805
   2   25055.7    399.1   0.504713301   6.63152   0.40228   1.83519   1.76119
   3   32479.3    307.9   0.187892566   1.90449  -0.77347  -1.13495  -0.13457

FINAL SINGLE POINT ENERGY     -5779.113759741444

DIPOLE MOMENT
-------------
                                X             Y             Z
Electronic contribution:    -41.98741     -39.92228     -16.67419
Nuclear contribution   :     42.18295      41.06498      19.65509
                        -----------------------------------------
Total Dipole Moment    :      0.19555       1.14270       2.98089
                        -----------------------------------------
Magnitude (a.u.)       :      3.19839
Magnitude (Debye)      :      8.12967

Rotational constants in cm-1:     0.001911     0.000217     0.000201
Rotational constants in MHz :    57.296606     6.512111     6.023367

                             ****ORCA TERMINATED NORMALLY****
TOTAL RUN TIME: 0 days 9 hours 1 minutes 39 seconds 482 msec
