                         Program Version 4.2.0 -  RELEASE  -
|  1> # ORCA input file
|  2> # F-2F.out
|  3> ! Engrad Keepdens
|  4> %maxcore 1000
|  5> %tddft
|  6>   nroots 3
|  7>   # nroots is the number of states to be computed
|  8>   Iroot 1
|  9>   end
| 10> * xyz 0 1
| 11>    C        3.26108        -0.86534         1.50009
| 12>    O        3.48750         0.29369         1.20413
| 13>    C        1.98805        -1.39197         2.03768
| 14>    C        0.82389        -0.70374         2.31350
| 15>    C       -0.24448        -1.42661         2.81966
| 16>    F       -1.39358        -0.80080         3.10334
| 17>    C       -0.13334        -2.79976         3.03675
| 18>    F       -1.18059        -3.47341         3.52631
| 19>    C        1.03751        -3.49026         2.75896
| 20>    C        2.11105        -2.77447         2.25328
| 21>    C        3.46128        -3.19273         1.86908
| 22>    C        3.94193        -4.47353         1.96340
| 23>    C        5.24160        -4.89800         1.61594
| 24>    N        6.27619        -5.32865         1.36171
| 25>    C        3.18809        -5.56866         2.43680
| 26>    N        2.63392        -6.50099         2.81244
| 27>    C        4.16233        -2.01457         1.40295
| 28>    C       16.07039        14.33566        -1.38539
| 29>    O       15.38483        15.12025        -0.77203
| 30>    C       17.52165        14.43174        -1.67028
| 31>    C       18.42372        15.38543        -1.24334
| 32>    C       19.74931        15.23038        -1.61776
| 33>    F       20.65926        16.12830        -1.22092
| 34>    C       20.14661        14.14573        -2.39965
| 35>    F       21.43554        14.01335        -2.73284
| 36>    C       19.23849        13.19316        -2.83874
| 37>    C       17.91261        13.34214        -2.46743
| 38>    C       16.72772        12.53849        -2.77894
| 39>    C       16.63274        11.65959        -3.82885
| 40>    C       15.41669        11.10791        -4.27804
| 41>    N       14.44924        10.64951        -4.69252
| 42>    C       17.72472        11.26000        -4.62492
| 43>    N       18.58346        10.87310        -5.28117
| 44>    C       15.64710        13.03783        -1.96647
| 45>    C        8.07253         2.38295        -0.37663
| 46>    C        9.40594         2.02160        -0.67637
| 47>    C       10.34577         2.99057        -0.93960
| 48>    C        9.94033         4.32078        -0.86915
| 49>    C        8.61240         4.68038        -0.56035
| 50>    C        7.65817         3.71237        -0.33833
| 51>    C        8.46460         6.18433        -0.53566
| 52>    C        7.40052         6.67537        -1.52951
| 53>    C        7.71608         6.27065        -2.96496
| 54>    C        8.20101         6.72008         0.89238
| 55>    C        6.91938         6.24372         1.56269
| 56>    C        9.85623         6.63384        -0.92451
| 57>    C       10.70772         5.52596        -1.08953
| 58>    C       12.05754         5.67524        -1.39754
| 59>    C       12.54863         6.95368        -1.53685
| 60>    C       11.69264         8.06341        -1.33893
| 61>    C       10.33990         7.91664        -1.04398
| 62>    C        5.46067        -1.98392         0.94762
| 63>    C       14.43207        12.52450        -1.59603
| 64>    C       12.50119         9.23452        -1.43880
| 65>    C       13.83238         8.89711        -1.67930
| 66>    C       13.97266         7.40323        -1.82472
| 67>    S       12.25454        10.91648        -1.30886
| 68>    C       13.95904        11.20428        -1.63141
| 69>    C       14.65017        10.00466        -1.80349
| 70>    C        9.57780         0.51240        -0.67597
| 71>    C        8.20893         0.07237        -0.23269
| 72>    C        7.35806         1.17653        -0.10352
| 73>    C        7.58923        -1.10401         0.11893
| 74>    C        6.25229        -0.91845         0.51311
| 75>    S        5.78654         0.77587         0.42479
| 76>    C       14.37856         7.13059        -3.29112
| 77>    C       14.91982         6.77578        -0.78493
| 78>    C       10.67487         0.05434         0.29706
| 79>    C        9.87743         0.06888        -2.12587
| 80>    C       10.46108         0.58374         1.71054
| 81>    C        9.87240        -1.43712        -2.35091
| 82>    C       14.46218         5.66392        -3.69005
| 83>    C       16.37906         7.19861        -0.89116
| 84>    H        0.74332         0.35804         2.14378
| 85>    H        1.06980        -4.55095         2.94537
| 86>    H       18.11493        16.22300        -0.63854
| 87>    H       19.59314        12.37114        -3.43902
| 88>    H       11.36650         2.73681        -1.18208
| 89>    H        6.62434         3.94814        -0.14247
| 90>    H        7.33428         7.76320        -1.46450
| 91>    H        6.43196         6.26072        -1.24856
| 92>    H        8.66517         6.69397        -3.28637
| 93>    H        6.93670         6.62786        -3.63374
| 94>    H        7.77593         5.18797        -3.05410
| 95>    H        8.18634         7.81059         0.83529
| 96>    H        9.05066         6.43495         1.51882
| 97>    H        6.04522         6.47537         0.96052
| 98>    H        6.80982         6.74772         2.52054
| 99>    H        6.94933         5.17396         1.74896
|100>    H       12.69083         4.80815        -1.49842
|101>    H        9.71547         8.78585        -0.90380
|102>    H        5.98366        -2.93238         0.92516
|103>    H       13.77422        13.24738        -1.12192
|104>    H       15.71210         9.97251        -1.96340
|105>    H        8.04630        -2.07770         0.13129
|106>    H       15.34227         7.61018        -3.46912
|107>    H       13.65051         7.63199        -3.93330
|108>    H       14.85579         5.69089        -0.87638
|109>    H       14.54416         7.04079         0.20726
|110>    H       11.64139         0.39702        -0.07759
|111>    H       10.69013        -1.03557         0.32483
|112>    H       10.85190         0.47345        -2.40710
|113>    H        9.12919         0.52603        -2.77865
|114>    H       10.45909         1.67155         1.72051
|115>    H       11.25712         0.23476         2.36384
|116>    H        9.51202         0.23580         2.11211
|117>    H       10.61903        -1.93323        -1.73712
|118>    H       10.10018        -1.64705        -3.39346
|119>    H        8.89636        -1.85868        -2.12725
|120>    H       15.16717         5.12040        -3.06631
|121>    H       14.80222         5.59457        -4.72080
|122>    H       13.48810         5.18692        -3.62513
|123>    H       16.79079         6.96343        -1.86867
|124>    H       16.96351         6.66812        -0.14249
|125>    H       16.49134         8.26355        -0.70858
|126> *
|127>
|128>                          ****END OF INPUT****

CARTESIAN COORDINATES (ANGSTROEM)
---------------------------------
  C      3.261080   -0.865340    1.500090
  O      3.487500    0.293690    1.204130
  C      1.988050   -1.391970    2.037680
  C      0.823890   -0.703740    2.313500
  C     -0.244480   -1.426610    2.819660
  F     -1.393580   -0.800800    3.103340
  C     -0.133340   -2.799760    3.036750
  F     -1.180590   -3.473410    3.526310
  C      1.037510   -3.490260    2.758960
  C      2.111050   -2.774470    2.253280
  C      3.461280   -3.192730    1.869080
  C      3.941930   -4.473530    1.963400
  C      5.241600   -4.898000    1.615940
  N      6.276190   -5.328650    1.361710
  C      3.188090   -5.568660    2.436800
  N      2.633920   -6.500990    2.812440
  C      4.162330   -2.014570    1.402950
  C     16.070390   14.335660   -1.385390
  O     15.384830   15.120250   -0.772030
  C     17.521650   14.431740   -1.670280
  C     18.423720   15.385430   -1.243340
  C     19.749310   15.230380   -1.617760
  F     20.659260   16.128300   -1.220920
  C     20.146610   14.145730   -2.399650
  F     21.435540   14.013350   -2.732840
  C     19.238490   13.193160   -2.838740
  C     17.912610   13.342140   -2.467430
  C     16.727720   12.538490   -2.778940
  C     16.632740   11.659590   -3.828850
  C     15.416690   11.107910   -4.278040
  N     14.449240   10.649510   -4.692520
  C     17.724720   11.260000   -4.624920
  N     18.583460   10.873100   -5.281170
  C     15.647100   13.037830   -1.966470
  C      8.072530    2.382950   -0.376630
  C      9.405940    2.021600   -0.676370
  C     10.345770    2.990570   -0.939600
  C      9.940330    4.320780   -0.869150
  C      8.612400    4.680380   -0.560350
  C      7.658170    3.712370   -0.338330
  C      8.464600    6.184330   -0.535660
  C      7.400520    6.675370   -1.529510
  C      7.716080    6.270650   -2.964960
  C      8.201010    6.720080    0.892380
  C      6.919380    6.243720    1.562690
  C      9.856230    6.633840   -0.924510
  C     10.707720    5.525960   -1.089530
  C     12.057540    5.675240   -1.397540
  C     12.548630    6.953680   -1.536850
  C     11.692640    8.063410   -1.338930
  C     10.339900    7.916640   -1.043980
  C      5.460670   -1.983920    0.947620
  C     14.432070   12.524500   -1.596030
  C     12.501190    9.234520   -1.438800
  C     13.832380    8.897110   -1.679300
  C     13.972660    7.403230   -1.824720
  S     12.254540   10.916480   -1.308860
  C     13.959040   11.204280   -1.631410
  C     14.650170   10.004660   -1.803490
  C      9.577800    0.512400   -0.675970
  C      8.208930    0.072370   -0.232690
  C      7.358060    1.176530   -0.103520
  C      7.589230   -1.104010    0.118930
  C      6.252290   -0.918450    0.513110
  S      5.786540    0.775870    0.424790
  C     14.378560    7.130590   -3.291120
  C     14.919820    6.775780   -0.784930
  C     10.674870    0.054340    0.297060
  C      9.877430    0.068880   -2.125870
  C     10.461080    0.583740    1.710540
  C      9.872400   -1.437120   -2.350910
  C     14.462180    5.663920   -3.690050
  C     16.379060    7.198610   -0.891160
  H      0.743320    0.358040    2.143780
  H      1.069800   -4.550950    2.945370
  H     18.114930   16.223000   -0.638540
  H     19.593140   12.371140   -3.439020
  H     11.366500    2.736810   -1.182080
  H      6.624340    3.948140   -0.142470
  H      7.334280    7.763200   -1.464500
  H      6.431960    6.260720   -1.248560
  H      8.665170    6.693970   -3.286370
  H      6.936700    6.627860   -3.633740
  H      7.775930    5.187970   -3.054100
  H      8.186340    7.810590    0.835290
  H      9.050660    6.434950    1.518820
  H      6.045220    6.475370    0.960520
  H      6.809820    6.747720    2.520540
  H      6.949330    5.173960    1.748960
  H     12.690830    4.808150   -1.498420
  H      9.715470    8.785850   -0.903800
  H      5.983660   -2.932380    0.925160
  H     13.774220   13.247380   -1.121920
  H     15.712100    9.972510   -1.963400
  H      8.046300   -2.077700    0.131290
  H     15.342270    7.610180   -3.469120
  H     13.650510    7.631990   -3.933300
  H     14.855790    5.690890   -0.876380
  H     14.544160    7.040790    0.207260
  H     11.641390    0.397020   -0.077590
  H     10.690130   -1.035570    0.324830
  H     10.851900    0.473450   -2.407100
  H      9.129190    0.526030   -2.778650
  H     10.459090    1.671550    1.720510
  H     11.257120    0.234760    2.363840
  H      9.512020    0.235800    2.112110
  H     10.619030   -1.933230   -1.737120
  H     10.100180   -1.647050   -3.393460
  H      8.896360   -1.858680   -2.127250
  H     15.167170    5.120400   -3.066310
  H     14.802220    5.594570   -4.720800
  H     13.488100    5.186920   -3.625130
  H     16.790790    6.963430   -1.868670
  H     16.963510    6.668120   -0.142490
  H     16.491340    8.263550   -0.708580

 Total Charge           Charge          ....    0
 Multiplicity           Mult            ....    1
 Number of Electrons    NEL             ....  520
 Basis Dimension        Dim             .... 1240

ORBITAL ENERGIES
----------------

  NO   OCC          E(Eh)            E(eV)
   0   2.0000     -91.985680     -2503.0576
   1   2.0000     -91.978291     -2502.8565
   2   2.0000     -26.335620      -716.6286
   3   2.0000     -26.334941      -716.6102
   4   2.0000     -26.334563      -716.5999
   5   2.0000     -26.332143      -716.5341
   6   2.0000     -20.569468      -559.7237
   7   2.0000     -20.566192      -559.6345
   8   2.0000     -15.593656      -424.3250
   9   2.0000     -15.593177      -424.3119
  10   2.0000     -15.592466      -424.2926
  11   2.0000     -15.586456      -424.1290
  12   2.0000     -11.378913      -309.6360
  13   2.0000     -11.377671      -309.6022
  14   2.0000     -11.376965      -309.5830
  15   2.0000     -11.375418      -309.5409
  16   2.0000     -11.367419      -309.3232
  17   2.0000     -11.364985      -309.2570
  18   2.0000     -11.345633      -308.7304
  19   2.0000     -11.342201      -308.6370
  20   2.0000     -11.324003      -308.1418
  21   2.0000     -11.321559      -308.0753
  22   2.0000     -11.320556      -308.0480
  23   2.0000     -11.317929      -307.9765
  24   2.0000     -11.306234      -307.6583
  25   2.0000     -11.305324      -307.6335
  26   2.0000     -11.304344      -307.6068
  27   2.0000     -11.303989      -307.5972
  28   2.0000     -11.302086      -307.5454
  29   2.0000     -11.301638      -307.5332
  30   2.0000     -11.300273      -307.4961
  31   2.0000     -11.298009      -307.4345
  32   2.0000     -11.296830      -307.4024
  33   2.0000     -11.296575      -307.3954
  34   2.0000     -11.296542      -307.3945
  35   2.0000     -11.295496      -307.3661
  36   2.0000     -11.294674      -307.3437
  37   2.0000     -11.293892      -307.3224
  38   2.0000     -11.291861      -307.2672
  39   2.0000     -11.291114      -307.2468
  40   2.0000     -11.289589      -307.2053
  41   2.0000     -11.287496      -307.1484
  42   2.0000     -11.274737      -306.8012
  43   2.0000     -11.273436      -306.7658
  44   2.0000     -11.272030      -306.7275
  45   2.0000     -11.271621      -306.7164
  46   2.0000     -11.270930      -306.6976
  47   2.0000     -11.270726      -306.6920
  48   2.0000     -11.270301      -306.6805
  49   2.0000     -11.269765      -306.6659
  50   2.0000     -11.269315      -306.6537
  51   2.0000     -11.269031      -306.6459
  52   2.0000     -11.268791      -306.6394
  53   2.0000     -11.267183      -306.5956
  54   2.0000     -11.265322      -306.5450
  55   2.0000     -11.264789      -306.5305
  56   2.0000     -11.264392      -306.5197
  57   2.0000     -11.262719      -306.4742
  58   2.0000     -11.261583      -306.4433
  59   2.0000     -11.261515      -306.4414
  60   2.0000     -11.258265      -306.3530
  61   2.0000     -11.250719      -306.1476
  62   2.0000     -11.249658      -306.1188
  63   2.0000     -11.249525      -306.1151
  64   2.0000     -11.247173      -306.0511
  65   2.0000     -11.246151      -306.0233
  66   2.0000     -11.244471      -305.9776
  67   2.0000     -11.239911      -305.8535
  68   2.0000     -11.236010      -305.7474
  69   2.0000     -11.233658      -305.6834
  70   2.0000     -11.233561      -305.6807
  71   2.0000     -11.231547      -305.6259
  72   2.0000     -11.228077      -305.5315
  73   2.0000      -9.021163      -245.4783
  74   2.0000      -9.012248      -245.2357
  75   2.0000      -6.708628      -182.5510
  76   2.0000      -6.707642      -182.5242
  77   2.0000      -6.705822      -182.4747
  78   2.0000      -6.699292      -182.2970
  79   2.0000      -6.698050      -182.2632
  80   2.0000      -6.696283      -182.2151
  81   2.0000      -1.645445       -44.7748
  82   2.0000      -1.643462       -44.7209
  83   2.0000      -1.630562       -44.3698
  84   2.0000      -1.628513       -44.3141
  85   2.0000      -1.403339       -38.1868
  86   2.0000      -1.399349       -38.0782
  87   2.0000      -1.256258       -34.1845
  88   2.0000      -1.252679       -34.0871
  89   2.0000      -1.243370       -33.8338
  90   2.0000      -1.238688       -33.7064
  91   2.0000      -1.233414       -33.5629
  92   2.0000      -1.232201       -33.5299
  93   2.0000      -1.229639       -33.4602
  94   2.0000      -1.225418       -33.3453
  95   2.0000      -1.215264       -33.0690
  96   2.0000      -1.182978       -32.1905
  97   2.0000      -1.176069       -32.0025
  98   2.0000      -1.167894       -31.7800
  99   2.0000      -1.158751       -31.5312
 100   2.0000      -1.127639       -30.6846
 101   2.0000      -1.111947       -30.2576
 102   2.0000      -1.107786       -30.1444
 103   2.0000      -1.105839       -30.0914
 104   2.0000      -1.099213       -29.9111
 105   2.0000      -1.092232       -29.7211
 106   2.0000      -1.078275       -29.3414
 107   2.0000      -1.074292       -29.2330
 108   2.0000      -1.071643       -29.1609
 109   2.0000      -1.051839       -28.6220
 110   2.0000      -1.038192       -28.2506
 111   2.0000      -1.035562       -28.1791
 112   2.0000      -1.031734       -28.0749
 113   2.0000      -1.029833       -28.0232
 114   2.0000      -1.028190       -27.9785
 115   2.0000      -1.027090       -27.9485
 116   2.0000      -1.020064       -27.7574
 117   2.0000      -1.016754       -27.6673
 118   2.0000      -0.992490       -27.0070
 119   2.0000      -0.977033       -26.5864
 120   2.0000      -0.951876       -25.9019
 121   2.0000      -0.945957       -25.7408
 122   2.0000      -0.943378       -25.6706
 123   2.0000      -0.942238       -25.6396
 124   2.0000      -0.931178       -25.3386
 125   2.0000      -0.924740       -25.1635
 126   2.0000      -0.909673       -24.7535
 127   2.0000      -0.889896       -24.2153
 128   2.0000      -0.874515       -23.7968
 129   2.0000      -0.867410       -23.6034
 130   2.0000      -0.864273       -23.5181
 131   2.0000      -0.861724       -23.4487
 132   2.0000      -0.853978       -23.2379
 133   2.0000      -0.852453       -23.1964
 134   2.0000      -0.848761       -23.0960
 135   2.0000      -0.842759       -22.9326
 136   2.0000      -0.830339       -22.5947
 137   2.0000      -0.829107       -22.5612
 138   2.0000      -0.817404       -22.2427
 139   2.0000      -0.810070       -22.0431
 140   2.0000      -0.803442       -21.8628
 141   2.0000      -0.798033       -21.7156
 142   2.0000      -0.787508       -21.4292
 143   2.0000      -0.786907       -21.4128
 144   2.0000      -0.783938       -21.3320
 145   2.0000      -0.780561       -21.2401
 146   2.0000      -0.778126       -21.1739
 147   2.0000      -0.774917       -21.0866
 148   2.0000      -0.762005       -20.7352
 149   2.0000      -0.754692       -20.5362
 150   2.0000      -0.752092       -20.4655
 151   2.0000      -0.745307       -20.2808
 152   2.0000      -0.742648       -20.2085
 153   2.0000      -0.740702       -20.1555
 154   2.0000      -0.735267       -20.0076
 155   2.0000      -0.730667       -19.8825
 156   2.0000      -0.726054       -19.7569
 157   2.0000      -0.716911       -19.5082
 158   2.0000      -0.714564       -19.4443
 159   2.0000      -0.714222       -19.4350
 160   2.0000      -0.712590       -19.3906
 161   2.0000      -0.702292       -19.1103
 162   2.0000      -0.698408       -19.0047
 163   2.0000      -0.689488       -18.7619
 164   2.0000      -0.682380       -18.5685
 165   2.0000      -0.678363       -18.4592
 166   2.0000      -0.674084       -18.3427
 167   2.0000      -0.667889       -18.1742
 168   2.0000      -0.666824       -18.1452
 169   2.0000      -0.662016       -18.0144
 170   2.0000      -0.659354       -17.9419
 171   2.0000      -0.656302       -17.8589
 172   2.0000      -0.654873       -17.8200
 173   2.0000      -0.651950       -17.7405
 174   2.0000      -0.647445       -17.6179
 175   2.0000      -0.644982       -17.5509
 176   2.0000      -0.643086       -17.4993
 177   2.0000      -0.641875       -17.4663
 178   2.0000      -0.635632       -17.2964
 179   2.0000      -0.635200       -17.2847
 180   2.0000      -0.634463       -17.2646
 181   2.0000      -0.630346       -17.1526
 182   2.0000      -0.629220       -17.1219
 183   2.0000      -0.626375       -17.0445
 184   2.0000      -0.625881       -17.0311
 185   2.0000      -0.623064       -16.9544
 186   2.0000      -0.621790       -16.9198
 187   2.0000      -0.614892       -16.7320
 188   2.0000      -0.612972       -16.6798
 189   2.0000      -0.609955       -16.5977
 190   2.0000      -0.605189       -16.4680
 191   2.0000      -0.600680       -16.3453
 192   2.0000      -0.593763       -16.1571
 193   2.0000      -0.592407       -16.1202
 194   2.0000      -0.588918       -16.0253
 195   2.0000      -0.586672       -15.9642
 196   2.0000      -0.583044       -15.8654
 197   2.0000      -0.580698       -15.8016
 198   2.0000      -0.579248       -15.7621
 199   2.0000      -0.578782       -15.7495
 200   2.0000      -0.578330       -15.7372
 201   2.0000      -0.577230       -15.7072
 202   2.0000      -0.573582       -15.6080
 203   2.0000      -0.571237       -15.5441
 204   2.0000      -0.568694       -15.4749
 205   2.0000      -0.566033       -15.4025
 206   2.0000      -0.564028       -15.3480
 207   2.0000      -0.562671       -15.3111
 208   2.0000      -0.561813       -15.2877
 209   2.0000      -0.555538       -15.1169
 210   2.0000      -0.549776       -14.9602
 211   2.0000      -0.545523       -14.8444
 212   2.0000      -0.543573       -14.7914
 213   2.0000      -0.539761       -14.6876
 214   2.0000      -0.538868       -14.6633
 215   2.0000      -0.536839       -14.6081
 216   2.0000      -0.536002       -14.5854
 217   2.0000      -0.532640       -14.4939
 218   2.0000      -0.530573       -14.4376
 219   2.0000      -0.527617       -14.3572
 220   2.0000      -0.525431       -14.2977
 221   2.0000      -0.522129       -14.2079
 222   2.0000      -0.519169       -14.1273
 223   2.0000      -0.515630       -14.0310
 224   2.0000      -0.511982       -13.9317
 225   2.0000      -0.511125       -13.9084
 226   2.0000      -0.508057       -13.8249
 227   2.0000      -0.505609       -13.7583
 228   2.0000      -0.501718       -13.6524
 229   2.0000      -0.498828       -13.5738
 230   2.0000      -0.498099       -13.5540
 231   2.0000      -0.494560       -13.4577
 232   2.0000      -0.489431       -13.3181
 233   2.0000      -0.487452       -13.2642
 234   2.0000      -0.483760       -13.1638
 235   2.0000      -0.481353       -13.0983
 236   2.0000      -0.480250       -13.0683
 237   2.0000      -0.477648       -12.9975
 238   2.0000      -0.476910       -12.9774
 239   2.0000      -0.475034       -12.9263
 240   2.0000      -0.474909       -12.9229
 241   2.0000      -0.473490       -12.8843
 242   2.0000      -0.470191       -12.7946
 243   2.0000      -0.465999       -12.6805
 244   2.0000      -0.451967       -12.2986
 245   2.0000      -0.440029       -11.9738
 246   2.0000      -0.435668       -11.8551
 247   2.0000      -0.420519       -11.4429
 248   2.0000      -0.399866       -10.8809
 249   2.0000      -0.393320       -10.7028
 250   2.0000      -0.388074       -10.5600
 251   2.0000      -0.377772       -10.2797
 252   2.0000      -0.375359       -10.2140
 253   2.0000      -0.366575        -9.9750
 254   2.0000      -0.360693        -9.8150
 255   2.0000      -0.357771        -9.7355
 256   2.0000      -0.355716        -9.6795
 257   2.0000      -0.345052        -9.3893
 258   2.0000      -0.301816        -8.2128
 259   2.0000      -0.268967        -7.3190
 260   0.0000      -0.031056        -0.8451
 261   0.0000      -0.017551        -0.4776
 262   0.0000       0.012747         0.3469
 263   0.0000       0.018337         0.4990
 264   0.0000       0.049455         1.3457

MULLIKEN ATOMIC CHARGES
-----------------------
   0 C :    0.530356
   1 O :   -0.398596
   2 C :   -0.175081
   3 C :   -0.032877
   4 C :    0.345483
   5 F :   -0.313064
   6 C :    0.353572
   7 F :   -0.309817
   8 C :   -0.052717
   9 C :   -0.029690
  10 C :    0.269479
  11 C :   -0.385739
  12 C :    0.036941
  13 N :   -0.079791
  14 C :    0.030572
  15 N :   -0.067830
  16 C :   -0.325697
  17 C :    0.470231
  18 O :   -0.353217
  19 C :   -0.158279
  20 C :   -0.028781
  21 C :    0.342421
  22 F :   -0.312460
  23 C :    0.352369
  24 F :   -0.309921
  25 C :   -0.056253
  26 C :   -0.049759
  27 C :    0.244160
  28 C :   -0.387018
  29 C :    0.032712
  30 N :   -0.050618
  31 C :    0.041790
  32 N :   -0.064475
  33 C :   -0.342252
  34 C :   -0.090635
  35 C :    0.001736
  36 C :   -0.025545
  37 C :    0.019125
  38 C :   -0.015447
  39 C :    0.006334
  40 C :   -0.338789
  41 C :    0.030195
  42 C :   -0.013301
  43 C :    0.041927
  44 C :   -0.008022
  45 C :   -0.020179
  46 C :    0.010646
  47 C :   -0.025519
  48 C :    0.021164
  49 C :   -0.081350
  50 C :    0.005782
  51 C :    0.095187
  52 C :    0.223185
  53 C :    0.018648
  54 C :   -0.054316
  55 C :   -0.327278
  56 S :    0.198726
  57 C :   -0.243134
  58 C :    0.084575
  59 C :   -0.323526
  60 C :   -0.037885
  61 C :    0.048212
  62 C :    0.021699
  63 C :   -0.169319
  64 S :    0.249772
  65 C :    0.028370
  66 C :    0.026764
  67 C :    0.029156
  68 C :    0.048595
  69 C :   -0.012049
  70 C :   -0.010256
  71 C :   -0.005376
  72 C :   -0.009605
  73 H :    0.076692
  74 H :    0.096613
  75 H :    0.079671
  76 H :    0.092302
  77 H :    0.016511
  78 H :    0.032943
  79 H :    0.029781
  80 H :    0.038700
  81 H :    0.043957
  82 H :    0.035648
  83 H :    0.041402
  84 H :    0.027951
  85 H :    0.036897
  86 H :    0.026407
  87 H :    0.039166
  88 H :    0.040827
  89 H :    0.020874
  90 H :    0.025262
  91 H :    0.082875
  92 H :    0.083319
  93 H :    0.070034
  94 H :    0.060820
  95 H :    0.036755
  96 H :    0.056441
  97 H :    0.033312
  98 H :    0.039334
  99 H :    0.028905
 100 H :    0.040392
 101 H :    0.028121
 102 H :    0.038502
 103 H :    0.042833
 104 H :    0.036297
 105 H :    0.042135
 106 H :    0.030188
 107 H :    0.041944
 108 H :    0.036321
 109 H :    0.020855
 110 H :    0.045107
 111 H :    0.035362
 112 H :    0.034816
 113 H :    0.041468
 114 H :    0.027843
Sum of atomic charges:   -0.0000000

LOEWDIN ATOMIC CHARGES
----------------------
   0 C :    0.167291
   1 O :   -0.257428
   2 C :   -0.050978
   3 C :    0.008921
   4 C :    0.122789
   5 F :   -0.111192
   6 C :    0.123703
   7 F :   -0.109276
   8 C :   -0.001226
   9 C :   -0.022975
  10 C :    0.122902
  11 C :   -0.182780
  12 C :    0.014462
  13 N :   -0.101158
  14 C :    0.011999
  15 N :   -0.095816
  16 C :   -0.181572
  17 C :    0.164887
  18 O :   -0.232439
  19 C :   -0.053889
  20 C :    0.011556
  21 C :    0.121276
  22 F :   -0.110770
  23 C :    0.125211
  24 F :   -0.109063
  25 C :   -0.006627
  26 C :   -0.021238
  27 C :    0.109691
  28 C :   -0.180443
  29 C :    0.011956
  30 N :   -0.082298
  31 C :    0.008997
  32 N :   -0.093376
  33 C :   -0.165403
  34 C :   -0.055089
  35 C :    0.022011
  36 C :   -0.021889
  37 C :   -0.000609
  38 C :   -0.005820
  39 C :    0.003043
  40 C :   -0.037399
  41 C :    0.000561
  42 C :   -0.032092
  43 C :    0.005209
  44 C :   -0.034017
  45 C :    0.003146
  46 C :   -0.012405
  47 C :   -0.014228
  48 C :    0.016186
  49 C :   -0.043242
  50 C :   -0.005895
  51 C :    0.117418
  52 C :    0.114593
  53 C :   -0.119855
  54 C :   -0.056703
  55 C :   -0.033839
  56 S :    0.441516
  57 C :   -0.216608
  58 C :    0.038320
  59 C :   -0.036516
  60 C :   -0.076811
  61 C :   -0.116477
  62 C :    0.032948
  63 C :   -0.218998
  64 S :    0.497543
  65 C :    0.005128
  66 C :    0.000192
  67 C :    0.000158
  68 C :    0.006035
  69 C :   -0.032012
  70 C :   -0.032860
  71 C :   -0.034331
  72 C :   -0.032185
  73 H :    0.055082
  74 H :    0.054866
  75 H :    0.056166
  76 H :    0.053748
  77 H :    0.024105
  78 H :    0.029395
  79 H :    0.013737
  80 H :    0.013474
  81 H :    0.018307
  82 H :    0.018308
  83 H :    0.017980
  84 H :    0.012339
  85 H :    0.019313
  86 H :    0.013622
  87 H :    0.021750
  88 H :    0.016579
  89 H :    0.023909
  90 H :    0.027214
  91 H :    0.051482
  92 H :    0.052354
  93 H :    0.032152
  94 H :    0.038029
  95 H :    0.013710
  96 H :    0.027485
  97 H :    0.011744
  98 H :    0.020853
  99 H :    0.013243
 100 H :    0.015196
 101 H :    0.012309
 102 H :    0.019957
 103 H :    0.017926
 104 H :    0.018594
 105 H :    0.018129
 106 H :    0.014650
 107 H :    0.022781
 108 H :    0.015999
 109 H :    0.011055
 110 H :    0.024424
 111 H :    0.015392
 112 H :    0.016396
 113 H :    0.023036
 114 H :    0.013397

  Mayer bond orders larger than 0.100000
B(  0-C ,  1-O ) :   2.0004 B(  0-C ,  2-C ) :   0.9834 B(  0-C , 16-C ) :   1.0033
B(  2-C ,  3-C ) :   1.3922 B(  2-C ,  9-C ) :   1.3712 B(  3-C ,  4-C ) :   1.3754
B(  3-C , 73-H ) :   1.0141 B(  4-C ,  5-F ) :   0.9339 B(  4-C ,  6-C ) :   1.3422
B(  6-C ,  7-F ) :   0.9435 B(  6-C ,  8-C ) :   1.4002 B(  8-C ,  9-C ) :   1.3782
B(  8-C , 74-H ) :   0.9901 B(  9-C , 10-C ) :   1.0380 B( 10-C , 11-C ) :   1.6559
B( 10-C , 16-C ) :   1.1341 B( 11-C , 12-C ) :   1.0716 B( 11-C , 14-C ) :   1.0665
B( 12-C , 13-N ) :   2.9697 B( 14-C , 15-N ) :   2.9838 B( 16-C , 51-C ) :   1.5329
B( 17-C , 18-O ) :   2.0993 B( 17-C , 19-C ) :   0.9443 B( 17-C , 33-C ) :   1.0084
B( 19-C , 20-C ) :   1.3917 B( 19-C , 26-C ) :   1.3665 B( 20-C , 21-C ) :   1.3794
B( 20-C , 75-H ) :   1.0132 B( 21-C , 22-F ) :   0.9349 B( 21-C , 23-C ) :   1.3417
B( 23-C , 24-F ) :   0.9416 B( 23-C , 25-C ) :   1.4010 B( 25-C , 26-C ) :   1.3837
B( 25-C , 76-H ) :   0.9932 B( 26-C , 27-C ) :   1.0421 B( 27-C , 28-C ) :   1.6709
B( 27-C , 33-C ) :   1.1022 B( 28-C , 29-C ) :   1.0867 B( 28-C , 31-C ) :   1.0514
B( 29-C , 30-N ) :   2.9916 B( 31-C , 32-N ) :   2.9970 B( 33-C , 52-C ) :   1.6478
B( 34-C , 35-C ) :   1.3913 B( 34-C , 39-C ) :   1.3504 B( 34-C , 61-C ) :   1.1374
B( 35-C , 36-C ) :   1.4763 B( 35-C , 59-C ) :   0.9464 B( 36-C , 37-C ) :   1.3776
B( 36-C , 77-H ) :   1.0053 B( 37-C , 38-C ) :   1.3977 B( 37-C , 46-C ) :   1.0372
B( 38-C , 39-C ) :   1.4795 B( 38-C , 40-C ) :   0.9235 B( 39-C , 78-H ) :   1.0067
B( 40-C , 41-C ) :   1.0114 B( 40-C , 43-C ) :   0.9980 B( 40-C , 45-C ) :   0.9476
B( 41-C , 42-C ) :   1.0397 B( 41-C , 79-H ) :   0.9721 B( 41-C , 80-H ) :   0.9717
B( 42-C , 81-H ) :   0.9806 B( 42-C , 82-H ) :   0.9871 B( 42-C , 83-H ) :   0.9822
B( 43-C , 44-C ) :   1.0507 B( 43-C , 84-H ) :   0.9684 B( 43-C , 85-H ) :   0.9709
B( 44-C , 86-H ) :   0.9826 B( 44-C , 87-H ) :   0.9843 B( 44-C , 88-H ) :   0.9794
B( 45-C , 46-C ) :   1.3986 B( 45-C , 50-C ) :   1.4708 B( 46-C , 47-C ) :   1.3781
B( 47-C , 48-C ) :   1.4857 B( 47-C , 89-H ) :   1.0007 B( 48-C , 49-C ) :   1.3972
B( 48-C , 55-C ) :   0.9474 B( 49-C , 50-C ) :   1.3577 B( 49-C , 53-C ) :   1.1320
B( 50-C , 90-H ) :   1.0064 B( 51-C , 63-C ) :   1.3504 B( 51-C , 91-H ) :   0.9607
B( 52-C , 57-C ) :   1.2154 B( 52-C , 92-H ) :   0.9483 B( 53-C , 54-C ) :   1.5321
B( 53-C , 56-S ) :   1.1387 B( 54-C , 55-C ) :   0.9431 B( 54-C , 58-C ) :   1.4304
B( 55-C , 65-C ) :   0.9769 B( 55-C , 66-C ) :   1.0001 B( 56-S , 57-C ) :   1.0864
B( 57-C , 58-C ) :   1.4231 B( 58-C , 93-H ) :   0.9881 B( 59-C , 60-C ) :   0.9064
B( 59-C , 67-C ) :   1.0181 B( 59-C , 68-C ) :   1.0040 B( 60-C , 61-C ) :   1.4709
B( 60-C , 62-C ) :   1.4406 B( 61-C , 64-S ) :   1.1356 B( 62-C , 63-C ) :   1.3823
B( 62-C , 94-H ) :   1.0091 B( 63-C , 64-S ) :   1.0386 B( 65-C , 71-C ) :   1.0495
B( 65-C , 95-H ) :   0.9727 B( 65-C , 96-H ) :   0.9680 B( 66-C , 72-C ) :   1.0470
B( 66-C , 97-H ) :   0.9710 B( 66-C , 98-H ) :   0.9704 B( 67-C , 69-C ) :   1.0391
B( 67-C , 99-H ) :   0.9724 B( 67-C ,100-H ) :   0.9723 B( 68-C , 70-C ) :   1.0470
B( 68-C ,101-H ) :   0.9691 B( 68-C ,102-H ) :   0.9703 B( 69-C ,103-H ) :   0.9807
B( 69-C ,104-H ) :   0.9871 B( 69-C ,105-H ) :   0.9827 B( 70-C ,106-H ) :   0.9828
B( 70-C ,107-H ) :   0.9854 B( 70-C ,108-H ) :   0.9815 B( 71-C ,109-H ) :   0.9812
B( 71-C ,110-H ) :   0.9850 B( 71-C ,111-H ) :   0.9795 B( 72-C ,112-H ) :   0.9817
B( 72-C ,113-H ) :   0.9851 B( 72-C ,114-H ) :   0.9819

-----------------------------------------------------------------------------
         ABSORPTION SPECTRUM VIA TRANSITION ELECTRIC DIPOLE MOMENTS
-----------------------------------------------------------------------------
State   Energy    Wavelength  fosc         T2        TX        TY        TZ
        (cm-1)      (nm)                 (au**2)    (au)      (au)      (au)
-----------------------------------------------------------------------------
   1   22371.5    447.0   2.922928848  43.01299  -4.18950  -4.78264   1.60855
   2   26057.6    383.8   0.226498652   2.86158  -0.90642  -1.37686   0.37980
   3   34635.6    288.7   0.158640669   1.50788   0.54560   0.92994   0.58772

FINAL SINGLE POINT ENERGY     -3891.925418581507

DIPOLE MOMENT
-------------
                                X             Y             Z
Electronic contribution:    -24.18599      26.04535      18.82678
Nuclear contribution   :     24.34987     -25.29828     -18.17806
                        -----------------------------------------
Total Dipole Moment    :      0.16388       0.74708       0.64872
                        -----------------------------------------
Magnitude (a.u.)       :      1.00291
Magnitude (Debye)      :      2.54919

Rotational constants in cm-1:     0.002910     0.000224     0.000214
Rotational constants in MHz :    87.232436     6.707366     6.413898

                             ****ORCA TERMINATED NORMALLY****
TOTAL RUN TIME: 0 days 16 hours 51 minutes 7 seconds 545 msec
