                         Program Version 4.2.0 -  RELEASE  -
|  1> # ORCA input file
|  2> # F-2F.out: Geometry 41
|  3> ! Engrad Keepdens
|  4> %maxcore 1000
|  5> %tddft
|  6>   nroots 3
|  7>   # nroots is the number of states to be computed
|  8>   Iroot 1
|  9>   end
| 10> * xyz 0 1
| 11>    C        2.98213        -0.88739         1.55338
| 12>    O        3.18296         0.27144         1.23232
| 13>    C        1.71372        -1.42580         2.10346
| 14>    C        0.53195        -0.73403         2.34255
| 15>    C       -0.52424        -1.44054         2.90646
| 16>    F       -1.68666        -0.84353         3.15488
| 17>    C       -0.37858        -2.80201         3.22965
| 18>    F       -1.40731        -3.42848         3.79730
| 19>    C        0.80175        -3.49575         2.97143
| 20>    C        1.86674        -2.79576         2.38786
| 21>    C        3.22948        -3.22061         1.97386
| 22>    C        3.70059        -4.52132         2.04356
| 23>    C        5.00623        -4.91423         1.61178
| 24>    N        6.06334        -5.25106         1.26379
| 25>    C        2.92000        -5.60860         2.54653
| 26>    N        2.30881        -6.51069         2.95137
| 27>    C        3.92712        -2.02750         1.48583
| 28>    C       15.77300        14.45819        -1.65014
| 29>    O       14.84466        15.10820        -1.21555
| 30>    C       17.21599        14.80439        -1.59234
| 31>    C       17.80437        15.91368        -0.99345
| 32>    C       19.19114        16.00729        -1.03571
| 33>    F       19.82633        17.03094        -0.47002
| 34>    C       19.95104        15.01510        -1.68071
| 35>    F       21.27366        15.15231        -1.69906
| 36>    C       19.35951        13.90877        -2.28709
| 37>    C       17.96414        13.79701        -2.23507
| 38>    C       17.02842        12.77676        -2.78536
| 39>    C       17.37448        11.82390        -3.73227
| 40>    C       16.41737        11.08422        -4.48680
| 41>    N       15.67257        10.46614        -5.13121
| 42>    C       18.73078        11.57598        -4.11142
| 43>    N       19.83156        11.35195        -4.40989
| 44>    C       15.70315        13.10030        -2.29080
| 45>    C        8.08342         2.33259        -0.26811
| 46>    C        9.37715         1.90972        -0.68169
| 47>    C       10.33461         2.85127        -1.03722
| 48>    C        9.99001         4.21156        -0.95515
| 49>    C        8.70450         4.62510        -0.51439
| 50>    C        7.73435         3.68892        -0.18801
| 51>    C        8.61836         6.14479        -0.45503
| 52>    C        7.38690         6.72040        -1.18284
| 53>    C        7.28920         6.34515        -2.66017
| 54>    C        8.68405         6.63158         1.03062
| 55>    C        7.47689         6.34052         1.91680
| 56>    C        9.95119         6.54156        -1.07953
| 57>    C       10.77266         5.40435        -1.27778
| 58>    C       12.11514         5.53362        -1.67450
| 59>    C       12.62097         6.81198        -1.88827
| 60>    C       11.77390         7.94513        -1.71511
| 61>    C       10.43581         7.81919        -1.31611
| 62>    C        5.23384        -1.96170         1.03961
| 63>    C       14.50131        12.43970        -2.13566
| 64>    C       12.59499         9.11486        -1.90212
| 65>    C       13.92712         8.75909        -2.13575
| 66>    C       14.06288         7.24323        -2.20513
| 67>    S       12.34857        10.80775        -1.86907
| 68>    C       14.07528        11.09154        -2.18090
| 69>    C       14.76344         9.86910        -2.29344
| 70>    C        9.48542         0.37678        -0.68772
| 71>    C        8.10546        -0.00433        -0.15709
| 72>    C        7.32619         1.14348         0.03250
| 73>    C        7.40411        -1.15950         0.19102
| 74>    C        6.07619        -0.90552         0.61374
| 75>    S        5.72832         0.83448         0.57312
| 76>    C       14.49354         6.86781        -3.65264
| 77>    C       15.00724         6.67625        -1.11390
| 78>    C       10.64436        -0.12395         0.20630
| 79>    C        9.68498        -0.10207        -2.15528
| 80>    C       10.59746         0.34941         1.65656
| 81>    C        9.63167        -1.61093        -2.38322
| 82>    C       14.64561         5.37859        -3.95301
| 83>    C       16.47318         7.09061        -1.21505
| 84>    H        0.43228         0.32411         2.09514
| 85>    H        0.84601        -4.54855         3.24156
| 86>    H       17.20508        16.68313        -0.50413
| 87>    H       20.00811        13.17873        -2.76705
| 88>    H       11.32700         2.54608        -1.37815
| 89>    H        6.72974         3.98447         0.11866
| 90>    H        7.40327         7.81848        -1.06934
| 91>    H        6.47955         6.38205        -0.65743
| 92>    H        8.18595         6.66222        -3.21503
| 93>    H        6.41984         6.82708        -3.13235
| 94>    H        7.18282         5.25699        -2.79034
| 95>    H        8.86644         7.71962         1.01108
| 96>    H        9.58555         6.18420         1.47969
| 97>    H        6.56212         6.82348         1.54261
| 98>    H        7.66142         6.73001         2.93011
| 99>    H        7.27855         5.26233         2.01094
|100>    H       12.74967         4.65134        -1.77258
|101>    H        9.81858         8.70483        -1.14977
|102>    H        5.77025        -2.90938         1.00836
|103>    H       13.72960        13.13777        -1.78345
|104>    H       15.83695         9.81531        -2.44533
|105>    H        7.79805        -2.17654         0.17183
|106>    H       15.44010         7.38869        -3.86949
|107>    H       13.75857         7.31243        -4.34215
|108>    H       14.93503         5.57686        -1.14238
|109>    H       14.60295         6.97894        -0.13378
|110>    H       11.59016         0.19737        -0.26392
|111>    H       10.65042        -1.22529         0.17850
|112>    H       10.65706         0.28984        -2.49937
|113>    H        8.92082         0.38775        -2.77993
|114>    H       10.68332         1.44477         1.72909
|115>    H       11.42033        -0.09312         2.23784
|116>    H        9.65447         0.05281         2.14260
|117>    H       10.34543        -2.15850        -1.75094
|118>    H        9.87917        -1.84734        -3.42963
|119>    H        8.62755        -2.01527        -2.18366
|120>    H       15.34512         4.88080        -3.26358
|121>    H       15.04154         5.23966        -4.97103
|122>    H       13.68324         4.84838        -3.89945
|123>    H       16.91003         6.83902        -2.19329
|124>    H       17.07062         6.57245        -0.45030
|125>    H       16.60590         8.17049        -1.05313
|126> *
|127>
|128>                          ****END OF INPUT****

CARTESIAN COORDINATES (ANGSTROEM)
---------------------------------
  C      2.982130   -0.887390    1.553380
  O      3.182960    0.271440    1.232320
  C      1.713720   -1.425800    2.103460
  C      0.531950   -0.734030    2.342550
  C     -0.524240   -1.440540    2.906460
  F     -1.686660   -0.843530    3.154880
  C     -0.378580   -2.802010    3.229650
  F     -1.407310   -3.428480    3.797300
  C      0.801750   -3.495750    2.971430
  C      1.866740   -2.795760    2.387860
  C      3.229480   -3.220610    1.973860
  C      3.700590   -4.521320    2.043560
  C      5.006230   -4.914230    1.611780
  N      6.063340   -5.251060    1.263790
  C      2.920000   -5.608600    2.546530
  N      2.308810   -6.510690    2.951370
  C      3.927120   -2.027500    1.485830
  C     15.773000   14.458190   -1.650140
  O     14.844660   15.108200   -1.215550
  C     17.215990   14.804390   -1.592340
  C     17.804370   15.913680   -0.993450
  C     19.191140   16.007290   -1.035710
  F     19.826330   17.030940   -0.470020
  C     19.951040   15.015100   -1.680710
  F     21.273660   15.152310   -1.699060
  C     19.359510   13.908770   -2.287090
  C     17.964140   13.797010   -2.235070
  C     17.028420   12.776760   -2.785360
  C     17.374480   11.823900   -3.732270
  C     16.417370   11.084220   -4.486800
  N     15.672570   10.466140   -5.131210
  C     18.730780   11.575980   -4.111420
  N     19.831560   11.351950   -4.409890
  C     15.703150   13.100300   -2.290800
  C      8.083420    2.332590   -0.268110
  C      9.377150    1.909720   -0.681690
  C     10.334610    2.851270   -1.037220
  C      9.990010    4.211560   -0.955150
  C      8.704500    4.625100   -0.514390
  C      7.734350    3.688920   -0.188010
  C      8.618360    6.144790   -0.455030
  C      7.386900    6.720400   -1.182840
  C      7.289200    6.345150   -2.660170
  C      8.684050    6.631580    1.030620
  C      7.476890    6.340520    1.916800
  C      9.951190    6.541560   -1.079530
  C     10.772660    5.404350   -1.277780
  C     12.115140    5.533620   -1.674500
  C     12.620970    6.811980   -1.888270
  C     11.773900    7.945130   -1.715110
  C     10.435810    7.819190   -1.316110
  C      5.233840   -1.961700    1.039610
  C     14.501310   12.439700   -2.135660
  C     12.594990    9.114860   -1.902120
  C     13.927120    8.759090   -2.135750
  C     14.062880    7.243230   -2.205130
  S     12.348570   10.807750   -1.869070
  C     14.075280   11.091540   -2.180900
  C     14.763440    9.869100   -2.293440
  C      9.485420    0.376780   -0.687720
  C      8.105460   -0.004330   -0.157090
  C      7.326190    1.143480    0.032500
  C      7.404110   -1.159500    0.191020
  C      6.076190   -0.905520    0.613740
  S      5.728320    0.834480    0.573120
  C     14.493540    6.867810   -3.652640
  C     15.007240    6.676250   -1.113900
  C     10.644360   -0.123950    0.206300
  C      9.684980   -0.102070   -2.155280
  C     10.597460    0.349410    1.656560
  C      9.631670   -1.610930   -2.383220
  C     14.645610    5.378590   -3.953010
  C     16.473180    7.090610   -1.215050
  H      0.432280    0.324110    2.095140
  H      0.846010   -4.548550    3.241560
  H     17.205080   16.683130   -0.504130
  H     20.008110   13.178730   -2.767050
  H     11.327000    2.546080   -1.378150
  H      6.729740    3.984470    0.118660
  H      7.403270    7.818480   -1.069340
  H      6.479550    6.382050   -0.657430
  H      8.185950    6.662220   -3.215030
  H      6.419840    6.827080   -3.132350
  H      7.182820    5.256990   -2.790340
  H      8.866440    7.719620    1.011080
  H      9.585550    6.184200    1.479690
  H      6.562120    6.823480    1.542610
  H      7.661420    6.730010    2.930110
  H      7.278550    5.262330    2.010940
  H     12.749670    4.651340   -1.772580
  H      9.818580    8.704830   -1.149770
  H      5.770250   -2.909380    1.008360
  H     13.729600   13.137770   -1.783450
  H     15.836950    9.815310   -2.445330
  H      7.798050   -2.176540    0.171830
  H     15.440100    7.388690   -3.869490
  H     13.758570    7.312430   -4.342150
  H     14.935030    5.576860   -1.142380
  H     14.602950    6.978940   -0.133780
  H     11.590160    0.197370   -0.263920
  H     10.650420   -1.225290    0.178500
  H     10.657060    0.289840   -2.499370
  H      8.920820    0.387750   -2.779930
  H     10.683320    1.444770    1.729090
  H     11.420330   -0.093120    2.237840
  H      9.654470    0.052810    2.142600
  H     10.345430   -2.158500   -1.750940
  H      9.879170   -1.847340   -3.429630
  H      8.627550   -2.015270   -2.183660
  H     15.345120    4.880800   -3.263580
  H     15.041540    5.239660   -4.971030
  H     13.683240    4.848380   -3.899450
  H     16.910030    6.839020   -2.193290
  H     17.070620    6.572450   -0.450300
  H     16.605900    8.170490   -1.053130

 Total Charge           Charge          ....    0
 Multiplicity           Mult            ....    1
 Number of Electrons    NEL             ....  520
 Basis Dimension        Dim             .... 1240

ORBITAL ENERGIES
----------------

  NO   OCC          E(Eh)            E(eV)
   0   2.0000     -91.986574     -2503.0819
   1   2.0000     -91.980948     -2502.9288
   2   2.0000     -26.337436      -716.6781
   3   2.0000     -26.337080      -716.6684
   4   2.0000     -26.335541      -716.6265
   5   2.0000     -26.334036      -716.5855
   6   2.0000     -20.569666      -559.7291
   7   2.0000     -20.567816      -559.6787
   8   2.0000     -15.599004      -424.4705
   9   2.0000     -15.598636      -424.4605
  10   2.0000     -15.598312      -424.4517
  11   2.0000     -15.593634      -424.3244
  12   2.0000     -11.379420      -309.6498
  13   2.0000     -11.378893      -309.6354
  14   2.0000     -11.378302      -309.6193
  15   2.0000     -11.377081      -309.5861
  16   2.0000     -11.368518      -309.3531
  17   2.0000     -11.367601      -309.3281
  18   2.0000     -11.353161      -308.9352
  19   2.0000     -11.350920      -308.8742
  20   2.0000     -11.331479      -308.3452
  21   2.0000     -11.326797      -308.2178
  22   2.0000     -11.326242      -308.2027
  23   2.0000     -11.324761      -308.1624
  24   2.0000     -11.312236      -307.8216
  25   2.0000     -11.312085      -307.8175
  26   2.0000     -11.310643      -307.7782
  27   2.0000     -11.310269      -307.7681
  28   2.0000     -11.308675      -307.7247
  29   2.0000     -11.307653      -307.6969
  30   2.0000     -11.306436      -307.6638
  31   2.0000     -11.306254      -307.6588
  32   2.0000     -11.303784      -307.5916
  33   2.0000     -11.302013      -307.5434
  34   2.0000     -11.299514      -307.4754
  35   2.0000     -11.298784      -307.4556
  36   2.0000     -11.298460      -307.4467
  37   2.0000     -11.298309      -307.4426
  38   2.0000     -11.297409      -307.4181
  39   2.0000     -11.297015      -307.4074
  40   2.0000     -11.291979      -307.2704
  41   2.0000     -11.290298      -307.2246
  42   2.0000     -11.280703      -306.9635
  43   2.0000     -11.280103      -306.9472
  44   2.0000     -11.279602      -306.9336
  45   2.0000     -11.279530      -306.9316
  46   2.0000     -11.278146      -306.8939
  47   2.0000     -11.277481      -306.8759
  48   2.0000     -11.276575      -306.8512
  49   2.0000     -11.275752      -306.8288
  50   2.0000     -11.275040      -306.8094
  51   2.0000     -11.274943      -306.8068
  52   2.0000     -11.274843      -306.8041
  53   2.0000     -11.274463      -306.7937
  54   2.0000     -11.272084      -306.7290
  55   2.0000     -11.271968      -306.7258
  56   2.0000     -11.271388      -306.7100
  57   2.0000     -11.268601      -306.6342
  58   2.0000     -11.267330      -306.5996
  59   2.0000     -11.267285      -306.5984
  60   2.0000     -11.265094      -306.5388
  61   2.0000     -11.254722      -306.2565
  62   2.0000     -11.254604      -306.2534
  63   2.0000     -11.254192      -306.2421
  64   2.0000     -11.252931      -306.2078
  65   2.0000     -11.251703      -306.1744
  66   2.0000     -11.249075      -306.1029
  67   2.0000     -11.244224      -305.9709
  68   2.0000     -11.242149      -305.9144
  69   2.0000     -11.240306      -305.8643
  70   2.0000     -11.240014      -305.8563
  71   2.0000     -11.237745      -305.7946
  72   2.0000     -11.235501      -305.7335
  73   2.0000      -9.021696      -245.4928
  74   2.0000      -9.014664      -245.3015
  75   2.0000      -6.709139      -182.5650
  76   2.0000      -6.708104      -182.5368
  77   2.0000      -6.706317      -182.4882
  78   2.0000      -6.701771      -182.3645
  79   2.0000      -6.700683      -182.3349
  80   2.0000      -6.698938      -182.2874
  81   2.0000      -1.650184       -44.9038
  82   2.0000      -1.649048       -44.8729
  83   2.0000      -1.634242       -44.4700
  84   2.0000      -1.633031       -44.4370
  85   2.0000      -1.398262       -38.0486
  86   2.0000      -1.397728       -38.0341
  87   2.0000      -1.247031       -33.9334
  88   2.0000      -1.245653       -33.8959
  89   2.0000      -1.236090       -33.6357
  90   2.0000      -1.231205       -33.5028
  91   2.0000      -1.225893       -33.3582
  92   2.0000      -1.225299       -33.3421
  93   2.0000      -1.223316       -33.2881
  94   2.0000      -1.220805       -33.2198
  95   2.0000      -1.208322       -32.8801
  96   2.0000      -1.175308       -31.9818
  97   2.0000      -1.168488       -31.7962
  98   2.0000      -1.161282       -31.6001
  99   2.0000      -1.151904       -31.3449
 100   2.0000      -1.121246       -30.5106
 101   2.0000      -1.105875       -30.0924
 102   2.0000      -1.101650       -29.9774
 103   2.0000      -1.099976       -29.9319
 104   2.0000      -1.092968       -29.7412
 105   2.0000      -1.086483       -29.5647
 106   2.0000      -1.073178       -29.2027
 107   2.0000      -1.068694       -29.0807
 108   2.0000      -1.066972       -29.0338
 109   2.0000      -1.047584       -28.5062
 110   2.0000      -1.033466       -28.1221
 111   2.0000      -1.031455       -28.0673
 112   2.0000      -1.026753       -27.9394
 113   2.0000      -1.025471       -27.9045
 114   2.0000      -1.023794       -27.8588
 115   2.0000      -1.022628       -27.8271
 116   2.0000      -1.015907       -27.6442
 117   2.0000      -1.013407       -27.5762
 118   2.0000      -0.988428       -26.8965
 119   2.0000      -0.972245       -26.4561
 120   2.0000      -0.948408       -25.8075
 121   2.0000      -0.942267       -25.6404
 122   2.0000      -0.937932       -25.5224
 123   2.0000      -0.936734       -25.4898
 124   2.0000      -0.929127       -25.2828
 125   2.0000      -0.921703       -25.0808
 126   2.0000      -0.907316       -24.6893
 127   2.0000      -0.887742       -24.1567
 128   2.0000      -0.872135       -23.7320
 129   2.0000      -0.863870       -23.5071
 130   2.0000      -0.860288       -23.4096
 131   2.0000      -0.858530       -23.3618
 132   2.0000      -0.851521       -23.1711
 133   2.0000      -0.850242       -23.1363
 134   2.0000      -0.846635       -23.0381
 135   2.0000      -0.839595       -22.8465
 136   2.0000      -0.827531       -22.5183
 137   2.0000      -0.825478       -22.4624
 138   2.0000      -0.814869       -22.1737
 139   2.0000      -0.806493       -21.9458
 140   2.0000      -0.802529       -21.8379
 141   2.0000      -0.797843       -21.7104
 142   2.0000      -0.785253       -21.3678
 143   2.0000      -0.784964       -21.3600
 144   2.0000      -0.782826       -21.3018
 145   2.0000      -0.778873       -21.1942
 146   2.0000      -0.775857       -21.1121
 147   2.0000      -0.771640       -20.9974
 148   2.0000      -0.758889       -20.6504
 149   2.0000      -0.753162       -20.4946
 150   2.0000      -0.749717       -20.4008
 151   2.0000      -0.744854       -20.2685
 152   2.0000      -0.743743       -20.2383
 153   2.0000      -0.742862       -20.2143
 154   2.0000      -0.732701       -19.9378
 155   2.0000      -0.728353       -19.8195
 156   2.0000      -0.722557       -19.6618
 157   2.0000      -0.716533       -19.4978
 158   2.0000      -0.715513       -19.4701
 159   2.0000      -0.712241       -19.3811
 160   2.0000      -0.710682       -19.3386
 161   2.0000      -0.699490       -19.0341
 162   2.0000      -0.697064       -18.9681
 163   2.0000      -0.687544       -18.7090
 164   2.0000      -0.678732       -18.4692
 165   2.0000      -0.674556       -18.3556
 166   2.0000      -0.671718       -18.2784
 167   2.0000      -0.663176       -18.0459
 168   2.0000      -0.662402       -18.0249
 169   2.0000      -0.657317       -17.8865
 170   2.0000      -0.656317       -17.8593
 171   2.0000      -0.652165       -17.7463
 172   2.0000      -0.649136       -17.6639
 173   2.0000      -0.646378       -17.5888
 174   2.0000      -0.642983       -17.4965
 175   2.0000      -0.639755       -17.4086
 176   2.0000      -0.638693       -17.3797
 177   2.0000      -0.636286       -17.3142
 178   2.0000      -0.632202       -17.2031
 179   2.0000      -0.631193       -17.1756
 180   2.0000      -0.629481       -17.1290
 181   2.0000      -0.626419       -17.0457
 182   2.0000      -0.625534       -17.0216
 183   2.0000      -0.622393       -16.9362
 184   2.0000      -0.620152       -16.8752
 185   2.0000      -0.619787       -16.8653
 186   2.0000      -0.618366       -16.8266
 187   2.0000      -0.612435       -16.6652
 188   2.0000      -0.609936       -16.5972
 189   2.0000      -0.607806       -16.5392
 190   2.0000      -0.601008       -16.3542
 191   2.0000      -0.596087       -16.2203
 192   2.0000      -0.589141       -16.0313
 193   2.0000      -0.588978       -16.0269
 194   2.0000      -0.584857       -15.9148
 195   2.0000      -0.582771       -15.8580
 196   2.0000      -0.581812       -15.8319
 197   2.0000      -0.581739       -15.8299
 198   2.0000      -0.580368       -15.7926
 199   2.0000      -0.576842       -15.6967
 200   2.0000      -0.573735       -15.6121
 201   2.0000      -0.573151       -15.5962
 202   2.0000      -0.572757       -15.5855
 203   2.0000      -0.569922       -15.5084
 204   2.0000      -0.566183       -15.4066
 205   2.0000      -0.563097       -15.3227
 206   2.0000      -0.561084       -15.2679
 207   2.0000      -0.560401       -15.2493
 208   2.0000      -0.558431       -15.1957
 209   2.0000      -0.554893       -15.0994
 210   2.0000      -0.546970       -14.8838
 211   2.0000      -0.543813       -14.7979
 212   2.0000      -0.542360       -14.7584
 213   2.0000      -0.538458       -14.6522
 214   2.0000      -0.535701       -14.5772
 215   2.0000      -0.534210       -14.5366
 216   2.0000      -0.532985       -14.5033
 217   2.0000      -0.530024       -14.4227
 218   2.0000      -0.528395       -14.3784
 219   2.0000      -0.526561       -14.3285
 220   2.0000      -0.522857       -14.2277
 221   2.0000      -0.520088       -14.1523
 222   2.0000      -0.515112       -14.0169
 223   2.0000      -0.511094       -13.9076
 224   2.0000      -0.509130       -13.8541
 225   2.0000      -0.507924       -13.8213
 226   2.0000      -0.504939       -13.7401
 227   2.0000      -0.501018       -13.6334
 228   2.0000      -0.497676       -13.5425
 229   2.0000      -0.497134       -13.5277
 230   2.0000      -0.495097       -13.4723
 231   2.0000      -0.492470       -13.4008
 232   2.0000      -0.487400       -13.2628
 233   2.0000      -0.486177       -13.2295
 234   2.0000      -0.482491       -13.1292
 235   2.0000      -0.479967       -13.0606
 236   2.0000      -0.478781       -13.0283
 237   2.0000      -0.477818       -13.0021
 238   2.0000      -0.475074       -12.9274
 239   2.0000      -0.474803       -12.9200
 240   2.0000      -0.474488       -12.9115
 241   2.0000      -0.472065       -12.8455
 242   2.0000      -0.469097       -12.7648
 243   2.0000      -0.466513       -12.6945
 244   2.0000      -0.450522       -12.2593
 245   2.0000      -0.442385       -12.0379
 246   2.0000      -0.438288       -11.9264
 247   2.0000      -0.419723       -11.4213
 248   2.0000      -0.397486       -10.8161
 249   2.0000      -0.390252       -10.6193
 250   2.0000      -0.386182       -10.5086
 251   2.0000      -0.378163       -10.2903
 252   2.0000      -0.374731       -10.1969
 253   2.0000      -0.365304        -9.9404
 254   2.0000      -0.359627        -9.7859
 255   2.0000      -0.357113        -9.7175
 256   2.0000      -0.354934        -9.6582
 257   2.0000      -0.345257        -9.3949
 258   2.0000      -0.304418        -8.2836
 259   2.0000      -0.272088        -7.4039
 260   0.0000      -0.031227        -0.8497
 261   0.0000      -0.018442        -0.5018
 262   0.0000       0.011196         0.3046
 263   0.0000       0.017403         0.4736
 264   0.0000       0.048317         1.3148

MULLIKEN ATOMIC CHARGES
-----------------------
   0 C :    0.514130
   1 O :   -0.383849
   2 C :   -0.186014
   3 C :   -0.036906
   4 C :    0.343886
   5 F :   -0.304443
   6 C :    0.343444
   7 F :   -0.303410
   8 C :   -0.055428
   9 C :   -0.028914
  10 C :    0.251023
  11 C :   -0.354934
  12 C :    0.051862
  13 N :   -0.104254
  14 C :    0.042835
  15 N :   -0.085544
  16 C :   -0.308635
  17 C :    0.457535
  18 O :   -0.362934
  19 C :   -0.163465
  20 C :   -0.030633
  21 C :    0.339915
  22 F :   -0.304768
  23 C :    0.344287
  24 F :   -0.302259
  25 C :   -0.063641
  26 C :   -0.045428
  27 C :    0.256256
  28 C :   -0.367113
  29 C :    0.031853
  30 N :   -0.066817
  31 C :    0.048663
  32 N :   -0.087223
  33 C :   -0.337730
  34 C :   -0.089832
  35 C :   -0.000548
  36 C :   -0.017272
  37 C :    0.006434
  38 C :   -0.014060
  39 C :    0.007886
  40 C :   -0.336300
  41 C :    0.010765
  42 C :   -0.023108
  43 C :    0.037683
  44 C :   -0.023484
  45 C :   -0.022302
  46 C :    0.005014
  47 C :   -0.017752
  48 C :    0.016600
  49 C :   -0.081748
  50 C :    0.010381
  51 C :    0.087356
  52 C :    0.201762
  53 C :    0.012850
  54 C :   -0.086362
  55 C :   -0.320379
  56 S :    0.186887
  57 C :   -0.249324
  58 C :    0.132994
  59 C :   -0.312932
  60 C :   -0.038715
  61 C :    0.021089
  62 C :    0.024294
  63 C :   -0.179192
  64 S :    0.253715
  65 C :    0.026246
  66 C :    0.019053
  67 C :    0.015649
  68 C :    0.034589
  69 C :   -0.023850
  70 C :   -0.030691
  71 C :   -0.028663
  72 C :   -0.030771
  73 H :    0.086955
  74 H :    0.105527
  75 H :    0.088721
  76 H :    0.104420
  77 H :    0.027828
  78 H :    0.041719
  79 H :    0.032802
  80 H :    0.042601
  81 H :    0.043689
  82 H :    0.040496
  83 H :    0.043806
  84 H :    0.032406
  85 H :    0.039509
  86 H :    0.035394
  87 H :    0.044169
  88 H :    0.040042
  89 H :    0.031195
  90 H :    0.036380
  91 H :    0.089828
  92 H :    0.095210
  93 H :    0.077950
  94 H :    0.074328
  95 H :    0.048789
  96 H :    0.050688
  97 H :    0.037026
  98 H :    0.043029
  99 H :    0.031534
 100 H :    0.043876
 101 H :    0.032285
 102 H :    0.043788
 103 H :    0.044667
 104 H :    0.040957
 105 H :    0.044444
 106 H :    0.034633
 107 H :    0.046661
 108 H :    0.042146
 109 H :    0.028024
 110 H :    0.049867
 111 H :    0.037217
 112 H :    0.040288
 113 H :    0.045882
 114 H :    0.033918
Sum of atomic charges:   -0.0000000

LOEWDIN ATOMIC CHARGES
----------------------
   0 C :    0.168316
   1 O :   -0.252115
   2 C :   -0.052537
   3 C :    0.002623
   4 C :    0.120490
   5 F :   -0.102911
   6 C :    0.120194
   7 F :   -0.103501
   8 C :   -0.006691
   9 C :   -0.023541
  10 C :    0.128648
  11 C :   -0.182839
  12 C :    0.023415
  13 N :   -0.109297
  14 C :    0.017294
  15 N :   -0.100707
  16 C :   -0.177509
  17 C :    0.170606
  18 O :   -0.237598
  19 C :   -0.055892
  20 C :    0.005476
  21 C :    0.118685
  22 F :   -0.103435
  23 C :    0.121136
  24 F :   -0.102024
  25 C :   -0.011374
  26 C :   -0.020267
  27 C :    0.117997
  28 C :   -0.182547
  29 C :    0.011752
  30 N :   -0.091802
  31 C :    0.016705
  32 N :   -0.099919
  33 C :   -0.167663
  34 C :   -0.051684
  35 C :    0.018256
  36 C :   -0.022085
  37 C :   -0.004310
  38 C :   -0.003171
  39 C :   -0.004213
  40 C :   -0.034098
  41 C :   -0.007225
  42 C :   -0.036917
  43 C :    0.002927
  44 C :   -0.039493
  45 C :    0.000831
  46 C :   -0.009987
  47 C :   -0.018191
  48 C :    0.016589
  49 C :   -0.045470
  50 C :   -0.007607
  51 C :    0.116726
  52 C :    0.109354
  53 C :   -0.118630
  54 C :   -0.062658
  55 C :   -0.029232
  56 S :    0.429687
  57 C :   -0.213932
  58 C :    0.047340
  59 C :   -0.029548
  60 C :   -0.077918
  61 C :   -0.115892
  62 C :    0.033872
  63 C :   -0.217906
  64 S :    0.474437
  65 C :   -0.000122
  66 C :   -0.004013
  67 C :   -0.005392
  68 C :    0.001322
  69 C :   -0.037545
  70 C :   -0.038530
  71 C :   -0.040095
  72 C :   -0.037894
  73 H :    0.058575
  74 H :    0.057103
  75 H :    0.059356
  76 H :    0.056478
  77 H :    0.027054
  78 H :    0.031276
  79 H :    0.015466
  80 H :    0.015843
  81 H :    0.019482
  82 H :    0.020881
  83 H :    0.019850
  84 H :    0.014529
  85 H :    0.021042
  86 H :    0.016306
  87 H :    0.024382
  88 H :    0.017669
  89 H :    0.026684
  90 H :    0.030181
  91 H :    0.052553
  92 H :    0.055074
  93 H :    0.036558
  94 H :    0.042120
  95 H :    0.018930
  96 H :    0.026666
  97 H :    0.013426
  98 H :    0.021922
  99 H :    0.014985
 100 H :    0.016752
 101 H :    0.013893
 102 H :    0.021944
 103 H :    0.019452
 104 H :    0.021322
 105 H :    0.019932
 106 H :    0.016191
 107 H :    0.025180
 108 H :    0.018348
 109 H :    0.013743
 110 H :    0.026584
 111 H :    0.016178
 112 H :    0.018905
 113 H :    0.024930
 114 H :    0.015507

  Mayer bond orders larger than 0.100000
B(  0-C ,  1-O ) :   2.0420 B(  0-C ,  2-C ) :   0.9767 B(  0-C , 16-C ) :   0.9887
B(  2-C ,  3-C ) :   1.3802 B(  2-C ,  9-C ) :   1.3899 B(  3-C ,  4-C ) :   1.3924
B(  3-C , 73-H ) :   1.0063 B(  4-C ,  5-F ) :   0.9414 B(  4-C ,  6-C ) :   1.3246
B(  6-C ,  7-F ) :   0.9475 B(  6-C ,  8-C ) :   1.4227 B(  8-C ,  9-C ) :   1.3625
B(  8-C , 74-H ) :   0.9845 B(  9-C , 10-C ) :   1.0392 B( 10-C , 11-C ) :   1.6605
B( 10-C , 16-C ) :   1.1253 B( 11-C , 12-C ) :   1.0597 B( 11-C , 14-C ) :   1.0580
B( 12-C , 13-N ) :   2.9654 B( 14-C , 15-N ) :   2.9796 B( 16-C , 51-C ) :   1.5725
B( 17-C , 18-O ) :   2.0682 B( 17-C , 19-C ) :   0.9531 B( 17-C , 33-C ) :   1.0138
B( 19-C , 20-C ) :   1.3803 B( 19-C , 26-C ) :   1.3834 B( 20-C , 21-C ) :   1.3933
B( 20-C , 75-H ) :   1.0059 B( 21-C , 22-F ) :   0.9420 B( 21-C , 23-C ) :   1.3265
B( 23-C , 24-F ) :   0.9474 B( 23-C , 25-C ) :   1.4209 B( 25-C , 26-C ) :   1.3694
B( 25-C , 76-H ) :   0.9854 B( 26-C , 27-C ) :   1.0414 B( 27-C , 28-C ) :   1.6584
B( 27-C , 33-C ) :   1.1036 B( 28-C , 29-C ) :   1.0900 B( 28-C , 31-C ) :   1.0371
B( 29-C , 30-N ) :   2.9827 B( 31-C , 32-N ) :   2.9873 B( 33-C , 52-C ) :   1.6586
B( 34-C , 35-C ) :   1.3985 B( 34-C , 39-C ) :   1.3558 B( 34-C , 61-C ) :   1.1306
B( 35-C , 36-C ) :   1.4754 B( 35-C , 59-C ) :   0.9451 B( 36-C , 37-C ) :   1.3836
B( 36-C , 77-H ) :   0.9995 B( 37-C , 38-C ) :   1.3954 B( 37-C , 46-C ) :   1.0387
B( 38-C , 39-C ) :   1.4822 B( 38-C , 40-C ) :   0.9255 B( 39-C , 78-H ) :   0.9999
B( 40-C , 41-C ) :   1.0132 B( 40-C , 43-C ) :   0.9854 B( 40-C , 45-C ) :   0.9570
B( 41-C , 42-C ) :   1.0384 B( 41-C , 79-H ) :   0.9722 B( 41-C , 80-H ) :   0.9699
B( 42-C , 81-H ) :   0.9821 B( 42-C , 82-H ) :   0.9871 B( 42-C , 83-H ) :   0.9806
B( 43-C , 44-C ) :   1.0433 B( 43-C , 84-H ) :   0.9691 B( 43-C , 85-H ) :   0.9707
B( 44-C , 86-H ) :   0.9820 B( 44-C , 87-H ) :   0.9845 B( 44-C , 88-H ) :   0.9807
B( 45-C , 46-C ) :   1.3971 B( 45-C , 50-C ) :   1.4738 B( 46-C , 47-C ) :   1.3811
B( 47-C , 48-C ) :   1.4856 B( 47-C , 89-H ) :   0.9961 B( 48-C , 49-C ) :   1.3979
B( 48-C , 55-C ) :   0.9492 B( 49-C , 50-C ) :   1.3634 B( 49-C , 53-C ) :   1.1213
B( 50-C , 90-H ) :   1.0000 B( 51-C , 63-C ) :   1.3235 B( 51-C , 91-H ) :   0.9575
B( 52-C , 57-C ) :   1.2244 B( 52-C , 92-H ) :   0.9358 B( 53-C , 54-C ) :   1.5326
B( 53-C , 56-S ) :   1.1419 B( 54-C , 55-C ) :   0.9436 B( 54-C , 58-C ) :   1.4207
B( 55-C , 65-C ) :   0.9761 B( 55-C , 66-C ) :   0.9946 B( 56-S , 57-C ) :   1.0917
B( 57-C , 58-C ) :   1.4167 B( 58-C , 93-H ) :   0.9829 B( 59-C , 60-C ) :   0.9107
B( 59-C , 67-C ) :   1.0081 B( 59-C , 68-C ) :   1.0037 B( 60-C , 61-C ) :   1.5021
B( 60-C , 62-C ) :   1.4095 B( 61-C , 64-S ) :   1.1262 B( 62-C , 63-C ) :   1.4124
B( 62-C , 94-H ) :   1.0006 B( 63-C , 64-S ) :   1.0414 B( 65-C , 71-C ) :   1.0435
B( 65-C , 95-H ) :   0.9729 B( 65-C , 96-H ) :   0.9690 B( 66-C , 72-C ) :   1.0416
B( 66-C , 97-H ) :   0.9719 B( 66-C , 98-H ) :   0.9707 B( 67-C , 69-C ) :   1.0372
B( 67-C , 99-H ) :   0.9719 B( 67-C ,100-H ) :   0.9722 B( 68-C , 70-C ) :   1.0415
B( 68-C ,101-H ) :   0.9695 B( 68-C ,102-H ) :   0.9709 B( 69-C ,103-H ) :   0.9811
B( 69-C ,104-H ) :   0.9869 B( 69-C ,105-H ) :   0.9824 B( 70-C ,106-H ) :   0.9837
B( 70-C ,107-H ) :   0.9851 B( 70-C ,108-H ) :   0.9811 B( 71-C ,109-H ) :   0.9820
B( 71-C ,110-H ) :   0.9853 B( 71-C ,111-H ) :   0.9798 B( 72-C ,112-H ) :   0.9825
B( 72-C ,113-H ) :   0.9852 B( 72-C ,114-H ) :   0.9815

-----------------------------------------------------------------------------
         ABSORPTION SPECTRUM VIA TRANSITION ELECTRIC DIPOLE MOMENTS
-----------------------------------------------------------------------------
State   Energy    Wavelength  fosc         T2        TX        TY        TZ
        (cm-1)      (nm)                 (au**2)    (au)      (au)      (au)
-----------------------------------------------------------------------------
   1   23047.6    433.9   3.243514579  46.33040   4.42946   4.92479  -1.56742
   2   26681.1    374.8   0.060412214   0.74541   0.36761   0.68730  -0.37133
   3   34929.9    286.3   0.080644439   0.76007   0.14872   0.74998   0.41890

FINAL SINGLE POINT ENERGY     -3891.927485609165

DIPOLE MOMENT
-------------
                                X             Y             Z
Electronic contribution:    -27.10414      32.37997      22.02344
Nuclear contribution   :     27.18265     -31.67482     -21.57984
                        -----------------------------------------
Total Dipole Moment    :      0.07851       0.70515       0.44360
                        -----------------------------------------
Magnitude (a.u.)       :      0.83677
Magnitude (Debye)      :      2.12691

Rotational constants in cm-1:     0.002732     0.000215     0.000205
Rotational constants in MHz :    81.899464     6.441340     6.152679

                             ****ORCA TERMINATED NORMALLY****
TOTAL RUN TIME: 0 days 15 hours 25 minutes 46 seconds 446 msec
