                         Program Version 4.2.0 -  RELEASE  -
|  1> # ORCA input file
|  2> # F-H.out: Geometry 28
|  3> ! Engrad Keepdens
|  4> %maxcore 1000
|  5> %tddft
|  6>   nroots 3
|  7>   # nroots is the number of states to be computed
|  8>   Iroot 1
|  9>   end
| 10> * xyz 0 1
| 11>    C       -6.01883         0.63269        -1.11843
| 12>    O       -7.14191         0.32733        -1.46460
| 13>    C       -5.39558         1.98002        -1.16321
| 14>    C       -5.94160         3.16119        -1.64970
| 15>    C       -5.15686         4.31778        -1.60775
| 16>    C       -3.85716         4.26701        -1.08488
| 17>    C       -3.31161         3.07770        -0.58478
| 18>    C       -4.09261         1.91618        -0.62285
| 19>    C       -3.85349         0.53463        -0.12481
| 20>    C       -2.91508         0.18336         0.83101
| 21>    C       -3.00403        -1.03216         1.57672
| 22>    N       -3.09128        -1.99107         2.22756
| 23>    C       -1.88313         1.07571         1.25798
| 24>    N       -1.03228         1.79119         1.59744
| 25>    C       -4.94945        -0.29174        -0.60809
| 26>    C        5.49378       -17.25425        -0.55250
| 27>    O        4.27937       -17.13884        -0.51639
| 28>    C        6.20514       -18.55258        -0.49745
| 29>    C        5.63969       -19.81780        -0.39811
| 30>    C        6.49770       -20.92036        -0.37134
| 31>    C        7.88504       -20.73066        -0.43870
| 32>    C        8.44919       -19.45285        -0.53909
| 33>    C        7.59407       -18.34289        -0.57388
| 34>    C        7.84648       -16.88389        -0.69916
| 35>    C        9.10376       -16.32535        -0.86245
| 36>    C        9.34762       -14.92772        -1.04154
| 37>    N        9.57963       -13.79860        -1.19351
| 38>    C       10.30367       -17.10392        -0.89573
| 39>    N       11.29593       -17.70849        -0.92728
| 40>    C        6.54516       -16.20029        -0.65451
| 41>    C       -1.63313        -5.63818        -0.92806
| 42>    C       -2.36643        -6.86491        -0.89705
| 43>    C       -1.67634        -8.06982        -0.88295
| 44>    C       -0.27387        -8.03941        -0.85283
| 45>    C        0.45031        -6.82282        -0.84087
| 46>    C       -0.22863        -5.61034        -0.91089
| 47>    C        1.94987        -7.09788        -0.71295
| 48>    C        2.79400        -6.42664        -1.81646
| 49>    C        2.42864        -6.82585        -3.24506
| 50>    C        2.46536        -6.69730         0.70612
| 51>    C        2.41081        -5.21797         1.07682
| 52>    C        1.98434        -8.62517        -0.78856
| 53>    C        0.67068        -9.14898        -0.82324
| 54>    C        0.42688       -10.53006        -0.81497
| 55>    C        1.51560       -11.39040        -0.79767
| 56>    C        2.84095       -10.86157        -0.76361
| 57>    C        3.08209        -9.47705        -0.75673
| 58>    C       -5.16238        -1.63640        -0.78497
| 59>    C        6.35996       -14.82755        -0.67808
| 60>    C        3.73704       -11.99634        -0.70872
| 61>    C        3.01302       -13.19404        -0.68447
| 62>    C        1.52047       -12.92247        -0.75496
| 63>    S        5.43308       -12.25457        -0.69498
| 64>    C        5.19244       -14.02242        -0.66789
| 65>    C        3.82031       -14.33081        -0.66939
| 66>    C       -3.88054        -6.60868        -0.86738
| 67>    C       -3.90150        -5.08947        -0.90103
| 68>    C       -2.60863        -4.56941        -0.93099
| 69>    C       -4.88555        -4.10031        -0.85602
| 70>    C       -4.35198        -2.80110        -0.80900
| 71>    S       -2.58467        -2.84921        -0.89216
| 72>    C        0.97429       -13.56385        -2.06272
| 73>    C        0.77462       -13.40313         0.51988
| 74>    C       -4.54206        -7.04500         0.47776
| 75>    C       -4.61538        -7.12424        -2.13925
| 76>    C       -4.30401        -8.46362         0.99740
| 77>    C       -4.83013        -8.62611        -2.31272
| 78>    C       -0.51456       -13.39058        -2.34906
| 79>    C        0.69954       -14.91384         0.71976
| 80>    H       -6.95630         3.16382        -2.05211
| 81>    H       -5.55435         5.26138        -1.98826
| 82>    H       -3.25175         5.17597        -1.06132
| 83>    H       -2.30081         3.07565        -0.18273
| 84>    H        4.55368       -19.92248        -0.34498
| 85>    H        6.08899       -21.93070        -0.29506
| 86>    H        8.54715       -21.59880        -0.41364
| 87>    H        9.53030       -19.34926        -0.59057
| 88>    H       -2.19920        -9.02551        -0.88138
| 89>    H        0.30144        -4.65717        -0.94224
| 90>    H        3.85519        -6.66333        -1.62204
| 91>    H        2.70723        -5.33274        -1.70836
| 92>    H        2.57469        -7.90432        -3.41243
| 93>    H        3.05608        -6.28675        -3.96994
| 94>    H        1.37756        -6.58644        -3.47076
| 95>    H        3.50697        -7.05351         0.78231
| 96>    H        1.89115        -7.27835         1.44526
| 97>    H        2.94566        -4.58420         0.35357
| 98>    H        2.88752        -5.06143         2.05677
| 99>    H        1.37730        -4.84980         1.15447
|100>    H       -0.59581       -10.90891        -0.80952
|101>    H        4.10391        -9.09261        -0.71425
|102>    H       -6.20666        -1.84234        -1.05781
|103>    H        7.27507       -14.23624        -0.71803
|104>    H        3.49115       -15.36616        -0.66707
|105>    H       -5.96248        -4.27547        -0.83196
|106>    H        1.21513       -14.63849        -2.02529
|107>    H        1.56131       -13.15726        -2.90235
|108>    H       -0.24504       -12.98516         0.49850
|109>    H        1.26916       -12.93741         1.38779
|110>    H       -5.62643        -6.86435         0.37243
|111>    H       -4.19805        -6.33869         1.25022
|112>    H       -4.06413        -6.73211        -3.00994
|113>    H       -5.59999        -6.62758        -2.16138
|114>    H       -4.60019        -9.24042         0.28054
|115>    H       -4.89562        -8.62163         1.91235
|116>    H       -3.24865        -8.62622         1.26141
|117>    H       -3.88821        -9.19100        -2.27877
|118>    H       -5.29375        -8.82124        -3.29275
|119>    H       -5.50516        -9.03972        -1.55094
|120>    H       -1.14280       -13.74329        -1.51674
|121>    H       -0.79794       -13.97569        -3.23729
|122>    H       -0.77737       -12.34201        -2.55245
|123>    H        0.16412       -15.14498         1.65379
|124>    H        1.69621       -15.37283         0.78909
|125>    H        0.15731       -15.41379        -0.09663
|126> *
|127>
|128>                          ****END OF INPUT****

CARTESIAN COORDINATES (ANGSTROEM)
---------------------------------
  C     -6.018830    0.632690   -1.118430
  O     -7.141910    0.327330   -1.464600
  C     -5.395580    1.980020   -1.163210
  C     -5.941600    3.161190   -1.649700
  C     -5.156860    4.317780   -1.607750
  C     -3.857160    4.267010   -1.084880
  C     -3.311610    3.077700   -0.584780
  C     -4.092610    1.916180   -0.622850
  C     -3.853490    0.534630   -0.124810
  C     -2.915080    0.183360    0.831010
  C     -3.004030   -1.032160    1.576720
  N     -3.091280   -1.991070    2.227560
  C     -1.883130    1.075710    1.257980
  N     -1.032280    1.791190    1.597440
  C     -4.949450   -0.291740   -0.608090
  C      5.493780  -17.254250   -0.552500
  O      4.279370  -17.138840   -0.516390
  C      6.205140  -18.552580   -0.497450
  C      5.639690  -19.817800   -0.398110
  C      6.497700  -20.920360   -0.371340
  C      7.885040  -20.730660   -0.438700
  C      8.449190  -19.452850   -0.539090
  C      7.594070  -18.342890   -0.573880
  C      7.846480  -16.883890   -0.699160
  C      9.103760  -16.325350   -0.862450
  C      9.347620  -14.927720   -1.041540
  N      9.579630  -13.798600   -1.193510
  C     10.303670  -17.103920   -0.895730
  N     11.295930  -17.708490   -0.927280
  C      6.545160  -16.200290   -0.654510
  C     -1.633130   -5.638180   -0.928060
  C     -2.366430   -6.864910   -0.897050
  C     -1.676340   -8.069820   -0.882950
  C     -0.273870   -8.039410   -0.852830
  C      0.450310   -6.822820   -0.840870
  C     -0.228630   -5.610340   -0.910890
  C      1.949870   -7.097880   -0.712950
  C      2.794000   -6.426640   -1.816460
  C      2.428640   -6.825850   -3.245060
  C      2.465360   -6.697300    0.706120
  C      2.410810   -5.217970    1.076820
  C      1.984340   -8.625170   -0.788560
  C      0.670680   -9.148980   -0.823240
  C      0.426880  -10.530060   -0.814970
  C      1.515600  -11.390400   -0.797670
  C      2.840950  -10.861570   -0.763610
  C      3.082090   -9.477050   -0.756730
  C     -5.162380   -1.636400   -0.784970
  C      6.359960  -14.827550   -0.678080
  C      3.737040  -11.996340   -0.708720
  C      3.013020  -13.194040   -0.684470
  C      1.520470  -12.922470   -0.754960
  S      5.433080  -12.254570   -0.694980
  C      5.192440  -14.022420   -0.667890
  C      3.820310  -14.330810   -0.669390
  C     -3.880540   -6.608680   -0.867380
  C     -3.901500   -5.089470   -0.901030
  C     -2.608630   -4.569410   -0.930990
  C     -4.885550   -4.100310   -0.856020
  C     -4.351980   -2.801100   -0.809000
  S     -2.584670   -2.849210   -0.892160
  C      0.974290  -13.563850   -2.062720
  C      0.774620  -13.403130    0.519880
  C     -4.542060   -7.045000    0.477760
  C     -4.615380   -7.124240   -2.139250
  C     -4.304010   -8.463620    0.997400
  C     -4.830130   -8.626110   -2.312720
  C     -0.514560  -13.390580   -2.349060
  C      0.699540  -14.913840    0.719760
  H     -6.956300    3.163820   -2.052110
  H     -5.554350    5.261380   -1.988260
  H     -3.251750    5.175970   -1.061320
  H     -2.300810    3.075650   -0.182730
  H      4.553680  -19.922480   -0.344980
  H      6.088990  -21.930700   -0.295060
  H      8.547150  -21.598800   -0.413640
  H      9.530300  -19.349260   -0.590570
  H     -2.199200   -9.025510   -0.881380
  H      0.301440   -4.657170   -0.942240
  H      3.855190   -6.663330   -1.622040
  H      2.707230   -5.332740   -1.708360
  H      2.574690   -7.904320   -3.412430
  H      3.056080   -6.286750   -3.969940
  H      1.377560   -6.586440   -3.470760
  H      3.506970   -7.053510    0.782310
  H      1.891150   -7.278350    1.445260
  H      2.945660   -4.584200    0.353570
  H      2.887520   -5.061430    2.056770
  H      1.377300   -4.849800    1.154470
  H     -0.595810  -10.908910   -0.809520
  H      4.103910   -9.092610   -0.714250
  H     -6.206660   -1.842340   -1.057810
  H      7.275070  -14.236240   -0.718030
  H      3.491150  -15.366160   -0.667070
  H     -5.962480   -4.275470   -0.831960
  H      1.215130  -14.638490   -2.025290
  H      1.561310  -13.157260   -2.902350
  H     -0.245040  -12.985160    0.498500
  H      1.269160  -12.937410    1.387790
  H     -5.626430   -6.864350    0.372430
  H     -4.198050   -6.338690    1.250220
  H     -4.064130   -6.732110   -3.009940
  H     -5.599990   -6.627580   -2.161380
  H     -4.600190   -9.240420    0.280540
  H     -4.895620   -8.621630    1.912350
  H     -3.248650   -8.626220    1.261410
  H     -3.888210   -9.191000   -2.278770
  H     -5.293750   -8.821240   -3.292750
  H     -5.505160   -9.039720   -1.550940
  H     -1.142800  -13.743290   -1.516740
  H     -0.797940  -13.975690   -3.237290
  H     -0.777370  -12.342010   -2.552450
  H      0.164120  -15.144980    1.653790
  H      1.696210  -15.372830    0.789090
  H      0.157310  -15.413790   -0.096630

 Total Charge           Charge          ....    0
 Multiplicity           Mult            ....    1
 Number of Electrons    NEL             ....  488
 Basis Dimension        Dim             .... 1204

ORBITAL ENERGIES
----------------

  NO   OCC          E(Eh)            E(eV)
   0   2.0000     -91.978186     -2502.8537
   1   2.0000     -91.976348     -2502.8037
   2   2.0000     -20.561280      -559.5009
   3   2.0000     -20.555705      -559.3492
   4   2.0000     -15.588871      -424.1948
   5   2.0000     -15.587469      -424.1566
   6   2.0000     -15.584107      -424.0651
   7   2.0000     -15.583309      -424.0434
   8   2.0000     -11.360652      -309.1391
   9   2.0000     -11.354820      -308.9804
  10   2.0000     -11.339489      -308.5632
  11   2.0000     -11.339095      -308.5525
  12   2.0000     -11.319911      -308.0304
  13   2.0000     -11.317686      -307.9699
  14   2.0000     -11.316353      -307.9336
  15   2.0000     -11.314788      -307.8910
  16   2.0000     -11.304329      -307.6064
  17   2.0000     -11.301637      -307.5332
  18   2.0000     -11.301467      -307.5285
  19   2.0000     -11.299802      -307.4832
  20   2.0000     -11.297845      -307.4300
  21   2.0000     -11.296760      -307.4005
  22   2.0000     -11.294522      -307.3396
  23   2.0000     -11.292148      -307.2750
  24   2.0000     -11.289321      -307.1980
  25   2.0000     -11.288491      -307.1755
  26   2.0000     -11.287061      -307.1366
  27   2.0000     -11.276294      -306.8436
  28   2.0000     -11.275929      -306.8336
  29   2.0000     -11.275822      -306.8307
  30   2.0000     -11.275403      -306.8193
  31   2.0000     -11.275261      -306.8155
  32   2.0000     -11.275182      -306.8133
  33   2.0000     -11.275028      -306.8091
  34   2.0000     -11.274962      -306.8073
  35   2.0000     -11.274380      -306.7915
  36   2.0000     -11.274331      -306.7901
  37   2.0000     -11.274167      -306.7857
  38   2.0000     -11.273568      -306.7694
  39   2.0000     -11.272883      -306.7507
  40   2.0000     -11.270865      -306.6958
  41   2.0000     -11.270766      -306.6931
  42   2.0000     -11.269781      -306.6663
  43   2.0000     -11.269346      -306.6545
  44   2.0000     -11.268971      -306.6443
  45   2.0000     -11.268737      -306.6379
  46   2.0000     -11.267796      -306.6123
  47   2.0000     -11.267689      -306.6094
  48   2.0000     -11.266386      -306.5739
  49   2.0000     -11.266046      -306.5647
  50   2.0000     -11.265057      -306.5378
  51   2.0000     -11.263338      -306.4910
  52   2.0000     -11.262754      -306.4751
  53   2.0000     -11.261316      -306.4360
  54   2.0000     -11.260006      -306.4003
  55   2.0000     -11.258628      -306.3629
  56   2.0000     -11.256162      -306.2958
  57   2.0000     -11.252134      -306.1861
  58   2.0000     -11.249901      -306.1254
  59   2.0000     -11.247426      -306.0580
  60   2.0000     -11.246719      -306.0388
  61   2.0000     -11.245057      -305.9936
  62   2.0000     -11.244892      -305.9891
  63   2.0000     -11.241241      -305.8897
  64   2.0000     -11.238252      -305.8084
  65   2.0000     -11.236383      -305.7575
  66   2.0000     -11.233754      -305.6860
  67   2.0000     -11.231471      -305.6239
  68   2.0000     -11.229817      -305.5789
  69   2.0000      -9.012832      -245.2516
  70   2.0000      -9.011129      -245.2053
  71   2.0000      -6.700276      -182.3238
  72   2.0000      -6.699310      -182.2975
  73   2.0000      -6.698557      -182.2770
  74   2.0000      -6.697538      -182.2493
  75   2.0000      -6.697474      -182.2475
  76   2.0000      -6.695773      -182.2012
  77   2.0000      -1.389822       -37.8190
  78   2.0000      -1.384920       -37.6856
  79   2.0000      -1.234451       -33.5911
  80   2.0000      -1.233439       -33.5636
  81   2.0000      -1.227689       -33.4071
  82   2.0000      -1.223401       -33.2904
  83   2.0000      -1.213368       -33.0174
  84   2.0000      -1.210524       -32.9400
  85   2.0000      -1.206637       -32.8343
  86   2.0000      -1.206332       -32.8260
  87   2.0000      -1.200093       -32.6562
  88   2.0000      -1.164935       -31.6995
  89   2.0000      -1.153590       -31.3908
  90   2.0000      -1.144410       -31.1410
  91   2.0000      -1.139492       -31.0071
  92   2.0000      -1.113659       -30.3042
  93   2.0000      -1.098455       -29.8905
  94   2.0000      -1.091846       -29.7106
  95   2.0000      -1.088935       -29.6314
  96   2.0000      -1.080906       -29.4130
  97   2.0000      -1.073366       -29.2078
  98   2.0000      -1.061596       -28.8875
  99   2.0000      -1.041229       -28.3333
 100   2.0000      -1.040733       -28.3198
 101   2.0000      -1.037290       -28.2261
 102   2.0000      -1.025837       -27.9144
 103   2.0000      -1.024770       -27.8854
 104   2.0000      -1.020838       -27.7784
 105   2.0000      -1.018275       -27.7087
 106   2.0000      -1.018021       -27.7018
 107   2.0000      -1.014098       -27.5950
 108   2.0000      -1.011087       -27.5131
 109   2.0000      -1.002023       -27.2664
 110   2.0000      -0.974117       -26.5071
 111   2.0000      -0.960143       -26.1268
 112   2.0000      -0.938380       -25.5346
 113   2.0000      -0.936242       -25.4764
 114   2.0000      -0.921288       -25.0695
 115   2.0000      -0.918337       -24.9892
 116   2.0000      -0.917191       -24.9580
 117   2.0000      -0.908270       -24.7153
 118   2.0000      -0.882846       -24.0235
 119   2.0000      -0.858529       -23.3618
 120   2.0000      -0.855993       -23.2928
 121   2.0000      -0.853493       -23.2247
 122   2.0000      -0.850570       -23.1452
 123   2.0000      -0.841569       -22.9003
 124   2.0000      -0.839266       -22.8376
 125   2.0000      -0.832672       -22.6582
 126   2.0000      -0.827960       -22.5299
 127   2.0000      -0.821982       -22.3673
 128   2.0000      -0.812323       -22.1044
 129   2.0000      -0.804580       -21.8937
 130   2.0000      -0.801541       -21.8110
 131   2.0000      -0.789717       -21.4893
 132   2.0000      -0.777797       -21.1649
 133   2.0000      -0.772405       -21.0182
 134   2.0000      -0.765433       -20.8285
 135   2.0000      -0.765143       -20.8206
 136   2.0000      -0.750993       -20.4356
 137   2.0000      -0.742216       -20.1967
 138   2.0000      -0.739367       -20.1192
 139   2.0000      -0.731498       -19.9051
 140   2.0000      -0.725286       -19.7360
 141   2.0000      -0.723142       -19.6777
 142   2.0000      -0.706795       -19.2329
 143   2.0000      -0.699699       -19.0398
 144   2.0000      -0.692988       -18.8572
 145   2.0000      -0.683434       -18.5972
 146   2.0000      -0.680301       -18.5119
 147   2.0000      -0.674813       -18.3626
 148   2.0000      -0.670164       -18.2361
 149   2.0000      -0.663572       -18.0567
 150   2.0000      -0.660024       -17.9602
 151   2.0000      -0.654477       -17.8092
 152   2.0000      -0.650796       -17.7091
 153   2.0000      -0.643180       -17.5018
 154   2.0000      -0.641400       -17.4534
 155   2.0000      -0.639314       -17.3966
 156   2.0000      -0.636637       -17.3238
 157   2.0000      -0.635831       -17.3019
 158   2.0000      -0.633533       -17.2393
 159   2.0000      -0.631701       -17.1894
 160   2.0000      -0.631241       -17.1769
 161   2.0000      -0.630602       -17.1595
 162   2.0000      -0.622399       -16.9363
 163   2.0000      -0.621506       -16.9120
 164   2.0000      -0.619909       -16.8686
 165   2.0000      -0.616784       -16.7836
 166   2.0000      -0.610399       -16.6098
 167   2.0000      -0.609621       -16.5886
 168   2.0000      -0.607693       -16.5362
 169   2.0000      -0.602874       -16.4050
 170   2.0000      -0.598645       -16.2900
 171   2.0000      -0.596040       -16.2191
 172   2.0000      -0.591774       -16.1030
 173   2.0000      -0.586438       -15.9578
 174   2.0000      -0.582657       -15.8549
 175   2.0000      -0.581885       -15.8339
 176   2.0000      -0.577558       -15.7162
 177   2.0000      -0.574988       -15.6462
 178   2.0000      -0.573964       -15.6184
 179   2.0000      -0.571388       -15.5483
 180   2.0000      -0.570584       -15.5264
 181   2.0000      -0.568478       -15.4691
 182   2.0000      -0.565386       -15.3849
 183   2.0000      -0.563903       -15.3446
 184   2.0000      -0.563157       -15.3243
 185   2.0000      -0.562725       -15.3125
 186   2.0000      -0.560044       -15.2396
 187   2.0000      -0.559677       -15.2296
 188   2.0000      -0.552268       -15.0280
 189   2.0000      -0.549663       -14.9571
 190   2.0000      -0.547939       -14.9102
 191   2.0000      -0.546378       -14.8677
 192   2.0000      -0.542909       -14.7733
 193   2.0000      -0.540189       -14.6993
 194   2.0000      -0.535087       -14.5605
 195   2.0000      -0.534752       -14.5513
 196   2.0000      -0.533533       -14.5182
 197   2.0000      -0.532748       -14.4968
 198   2.0000      -0.532198       -14.4818
 199   2.0000      -0.528840       -14.3905
 200   2.0000      -0.525688       -14.3047
 201   2.0000      -0.521681       -14.1957
 202   2.0000      -0.521121       -14.1804
 203   2.0000      -0.519325       -14.1316
 204   2.0000      -0.517220       -14.0743
 205   2.0000      -0.513893       -13.9838
 206   2.0000      -0.512420       -13.9437
 207   2.0000      -0.507828       -13.8187
 208   2.0000      -0.503745       -13.7076
 209   2.0000      -0.498691       -13.5701
 210   2.0000      -0.497570       -13.5396
 211   2.0000      -0.488407       -13.2902
 212   2.0000      -0.488099       -13.2818
 213   2.0000      -0.485911       -13.2223
 214   2.0000      -0.484783       -13.1916
 215   2.0000      -0.484561       -13.1856
 216   2.0000      -0.481074       -13.0907
 217   2.0000      -0.477600       -12.9962
 218   2.0000      -0.471758       -12.8372
 219   2.0000      -0.471115       -12.8197
 220   2.0000      -0.469607       -12.7786
 221   2.0000      -0.468254       -12.7418
 222   2.0000      -0.467423       -12.7192
 223   2.0000      -0.465595       -12.6695
 224   2.0000      -0.464645       -12.6436
 225   2.0000      -0.461715       -12.5639
 226   2.0000      -0.458931       -12.4882
 227   2.0000      -0.458362       -12.4727
 228   2.0000      -0.439438       -11.9577
 229   2.0000      -0.436363       -11.8740
 230   2.0000      -0.429108       -11.6766
 231   2.0000      -0.411228       -11.1901
 232   2.0000      -0.386833       -10.5263
 233   2.0000      -0.370368       -10.0782
 234   2.0000      -0.369660       -10.0590
 235   2.0000      -0.367915       -10.0115
 236   2.0000      -0.366055        -9.9609
 237   2.0000      -0.357810        -9.7365
 238   2.0000      -0.350807        -9.5459
 239   2.0000      -0.349520        -9.5109
 240   2.0000      -0.344262        -9.3678
 241   2.0000      -0.335779        -9.1370
 242   2.0000      -0.296847        -8.0776
 243   2.0000      -0.263953        -7.1825
 244   0.0000      -0.021348        -0.5809
 245   0.0000      -0.008872        -0.2414
 246   0.0000       0.022720         0.6182
 247   0.0000       0.028962         0.7881
 248   0.0000       0.058728         1.5981

MULLIKEN ATOMIC CHARGES
-----------------------
   0 C :    0.460813
   1 O :   -0.369066
   2 C :   -0.173619
   3 C :    0.015124
   4 C :   -0.019136
   5 C :   -0.016613
   6 C :   -0.019392
   7 C :   -0.056416
   8 C :    0.245922
   9 C :   -0.335097
  10 C :    0.039804
  11 N :   -0.073295
  12 C :    0.050533
  13 N :   -0.094265
  14 C :   -0.324269
  15 C :    0.518182
  16 O :   -0.406001
  17 C :   -0.184472
  18 C :    0.011528
  19 C :   -0.014010
  20 C :   -0.015663
  21 C :   -0.019602
  22 C :   -0.041004
  23 C :    0.246705
  24 C :   -0.358434
  25 C :    0.046473
  26 N :   -0.097789
  27 C :    0.049025
  28 N :   -0.095416
  29 C :   -0.307987
  30 C :   -0.083817
  31 C :    0.017843
  32 C :   -0.032931
  33 C :   -0.001357
  34 C :   -0.004618
  35 C :   -0.001935
  36 C :   -0.328103
  37 C :    0.011876
  38 C :   -0.022371
  39 C :    0.034588
  40 C :   -0.028269
  41 C :   -0.026459
  42 C :    0.009879
  43 C :   -0.027777
  44 C :    0.017530
  45 C :   -0.092886
  46 C :    0.014000
  47 C :    0.122766
  48 C :    0.160617
  49 C :    0.016863
  50 C :   -0.064697
  51 C :   -0.307180
  52 S :    0.184481
  53 C :   -0.272534
  54 C :    0.082451
  55 C :   -0.295859
  56 C :   -0.063983
  57 C :    0.010679
  58 C :    0.061772
  59 C :   -0.167588
  60 S :    0.204060
  61 C :    0.015903
  62 C :    0.020534
  63 C :    0.018915
  64 C :    0.026113
  65 C :   -0.032071
  66 C :   -0.019524
  67 C :   -0.025719
  68 C :   -0.030188
  69 H :    0.066887
  70 H :    0.062619
  71 H :    0.063180
  72 H :    0.082379
  73 H :    0.064573
  74 H :    0.061933
  75 H :    0.062323
  76 H :    0.086999
  77 H :    0.027765
  78 H :    0.037261
  79 H :    0.033097
  80 H :    0.040937
  81 H :    0.043940
  82 H :    0.038578
  83 H :    0.042513
  84 H :    0.032298
  85 H :    0.041736
  86 H :    0.030605
  87 H :    0.045208
  88 H :    0.048492
  89 H :    0.028551
  90 H :    0.036563
  91 H :    0.091586
  92 H :    0.088583
  93 H :    0.125809
  94 H :    0.059708
  95 H :    0.045543
  96 H :    0.042611
  97 H :    0.033267
  98 H :    0.042336
  99 H :    0.030596
 100 H :    0.058427
 101 H :    0.042824
 102 H :    0.029905
 103 H :    0.024382
 104 H :    0.043286
 105 H :    0.049240
 106 H :    0.029555
 107 H :    0.042572
 108 H :    0.042170
 109 H :    0.029829
 110 H :    0.043877
 111 H :    0.037890
 112 H :    0.041827
 113 H :    0.048461
 114 H :    0.033713
Sum of atomic charges:   -0.0000000

LOEWDIN ATOMIC CHARGES
----------------------
   0 C :    0.171139
   1 O :   -0.242934
   2 C :   -0.058465
   3 C :    0.019213
   4 C :   -0.002554
   5 C :    0.001372
   6 C :    0.004288
   7 C :   -0.021497
   8 C :    0.115499
   9 C :   -0.175101
  10 C :    0.001310
  11 N :   -0.098472
  12 C :    0.019649
  13 N :   -0.104369
  14 C :   -0.161185
  15 C :    0.178787
  16 O :   -0.248720
  17 C :   -0.055025
  18 C :    0.016440
  19 C :   -0.000203
  20 C :   -0.000944
  21 C :    0.008713
  22 C :   -0.026803
  23 C :    0.129253
  24 C :   -0.184836
  25 C :    0.018450
  26 N :   -0.106278
  27 C :    0.021655
  28 N :   -0.108006
  29 C :   -0.166898
  30 C :   -0.040486
  31 C :    0.011519
  32 C :   -0.019922
  33 C :   -0.012783
  34 C :    0.000039
  35 C :   -0.009958
  36 C :   -0.032123
  37 C :   -0.006738
  38 C :   -0.037289
  39 C :    0.002327
  40 C :   -0.039583
  41 C :   -0.001413
  42 C :   -0.008314
  43 C :   -0.022336
  44 C :    0.016917
  45 C :   -0.047024
  46 C :   -0.006282
  47 C :    0.106436
  48 C :    0.110876
  49 C :   -0.118616
  50 C :   -0.071170
  51 C :   -0.030556
  52 S :    0.422762
  53 C :   -0.214941
  54 C :    0.041587
  55 C :   -0.029716
  56 C :   -0.066181
  57 C :   -0.123236
  58 C :    0.025385
  59 C :   -0.206939
  60 S :    0.442794
  61 C :   -0.002320
  62 C :   -0.003027
  63 C :   -0.001808
  64 C :   -0.001226
  65 C :   -0.040739
  66 C :   -0.038299
  67 C :   -0.039911
  68 C :   -0.037924
  69 H :    0.044552
  70 H :    0.036309
  71 H :    0.037714
  72 H :    0.042634
  73 H :    0.043480
  74 H :    0.036106
  75 H :    0.037603
  76 H :    0.043398
  77 H :    0.024413
  78 H :    0.030206
  79 H :    0.015770
  80 H :    0.015081
  81 H :    0.019249
  82 H :    0.020215
  83 H :    0.019275
  84 H :    0.014286
  85 H :    0.021554
  86 H :    0.014861
  87 H :    0.024819
  88 H :    0.019840
  89 H :    0.025331
  90 H :    0.030764
  91 H :    0.059337
  92 H :    0.046495
  93 H :    0.042757
  94 H :    0.038768
  95 H :    0.018132
  96 H :    0.022583
  97 H :    0.011915
  98 H :    0.022361
  99 H :    0.014773
 100 H :    0.027999
 101 H :    0.022374
 102 H :    0.014710
 103 H :    0.012197
 104 H :    0.024176
 105 H :    0.019461
 106 H :    0.014203
 107 H :    0.023801
 108 H :    0.016278
 109 H :    0.014793
 110 H :    0.024054
 111 H :    0.016209
 112 H :    0.023214
 113 H :    0.022586
 114 H :    0.016100

  Mayer bond orders larger than 0.100000
B(  0-C ,  1-O ) :   2.0646 B(  0-C ,  2-C ) :   0.9559 B(  0-C , 14-C ) :   1.0010
B(  2-C ,  3-C ) :   1.4373 B(  2-C ,  7-C ) :   1.3548 B(  3-C ,  4-C ) :   1.3986
B(  3-C , 69-H ) :   1.0012 B(  4-C ,  5-C ) :   1.4047 B(  4-C , 70-H ) :   0.9967
B(  5-C ,  6-C ) :   1.4239 B(  5-C , 71-H ) :   0.9936 B(  6-C ,  7-C ) :   1.4226
B(  6-C , 72-H ) :   0.9873 B(  7-C ,  8-C ) :   1.0353 B(  8-C ,  9-C ) :   1.6893
B(  8-C , 14-C ) :   1.0676 B(  9-C , 10-C ) :   1.0672 B(  9-C , 12-C ) :   1.0449
B( 10-C , 11-N ) :   3.0108 B( 12-C , 13-N ) :   2.9887 B( 14-C , 47-C ) :   1.6944
B( 15-C , 16-O ) :   1.9815 B( 15-C , 17-C ) :   0.9881 B( 15-C , 29-C ) :   0.9813
B( 17-C , 18-C ) :   1.4358 B( 17-C , 22-C ) :   1.3674 B( 18-C , 19-C ) :   1.3958
B( 18-C , 73-H ) :   1.0013 B( 19-C , 20-C ) :   1.4027 B( 19-C , 74-H ) :   0.9964
B( 20-C , 21-C ) :   1.4291 B( 20-C , 75-H ) :   0.9933 B( 21-C , 22-C ) :   1.4122
B( 21-C , 76-H ) :   0.9842 B( 22-C , 23-C ) :   1.0316 B( 23-C , 24-C ) :   1.6578
B( 23-C , 29-C ) :   1.1150 B( 24-C , 25-C ) :   1.0580 B( 24-C , 27-C ) :   1.0609
B( 25-C , 26-N ) :   2.9651 B( 27-C , 28-N ) :   2.9759 B( 29-C , 48-C ) :   1.6232
B( 30-C , 31-C ) :   1.3968 B( 30-C , 35-C ) :   1.3662 B( 30-C , 57-C ) :   1.1287
B( 31-C , 32-C ) :   1.4894 B( 31-C , 55-C ) :   0.9337 B( 32-C , 33-C ) :   1.3766
B( 32-C , 77-H ) :   0.9969 B( 33-C , 34-C ) :   1.4078 B( 33-C , 42-C ) :   1.0398
B( 34-C , 35-C ) :   1.4695 B( 34-C , 36-C ) :   0.9248 B( 35-C , 78-H ) :   1.0013
B( 36-C , 37-C ) :   1.0090 B( 36-C , 39-C ) :   0.9905 B( 36-C , 41-C ) :   0.9504
B( 37-C , 38-C ) :   1.0389 B( 37-C , 79-H ) :   0.9718 B( 37-C , 80-H ) :   0.9712
B( 38-C , 81-H ) :   0.9810 B( 38-C , 82-H ) :   0.9870 B( 38-C , 83-H ) :   0.9816
B( 39-C , 40-C ) :   1.0437 B( 39-C , 84-H ) :   0.9695 B( 39-C , 85-H ) :   0.9706
B( 40-C , 86-H ) :   0.9832 B( 40-C , 87-H ) :   0.9843 B( 40-C , 88-H ) :   0.9795
B( 41-C , 42-C ) :   1.4011 B( 41-C , 46-C ) :   1.4697 B( 42-C , 43-C ) :   1.3798
B( 43-C , 44-C ) :   1.4853 B( 43-C , 89-H ) :   0.9951 B( 44-C , 45-C ) :   1.3979
B( 44-C , 51-C ) :   0.9516 B( 45-C , 46-C ) :   1.3643 B( 45-C , 49-C ) :   1.1226
B( 46-C , 90-H ) :   1.0010 B( 47-C , 59-C ) :   1.2232 B( 47-C , 91-H ) :   0.9492
B( 48-C , 53-C ) :   1.2721 B( 48-C , 92-H ) :   0.9378 B( 49-C , 50-C ) :   1.5275
B( 49-C , 52-S ) :   1.1416 B( 50-C , 51-C ) :   0.9460 B( 50-C , 54-C ) :   1.3712
B( 51-C , 61-C ) :   0.9825 B( 51-C , 62-C ) :   0.9898 B( 52-S , 53-C ) :   1.0793
B( 53-C , 54-C ) :   1.4274 B( 54-C , 93-H ) :   0.9736 B( 55-C , 56-C ) :   0.9611
B( 55-C , 63-C ) :   0.9688 B( 55-C , 64-C ) :   0.9840 B( 56-C , 57-C ) :   1.5481
B( 56-C , 58-C ) :   1.3637 B( 57-C , 60-S ) :   1.1315 B( 58-C , 59-C ) :   1.4651
B( 58-C , 94-H ) :   0.9993 B( 59-C , 60-S ) :   1.0624 B( 61-C , 67-C ) :   1.0451
B( 61-C , 95-H ) :   0.9735 B( 61-C , 96-H ) :   0.9698 B( 62-C , 68-C ) :   1.0414
B( 62-C , 97-H ) :   0.9723 B( 62-C , 98-H ) :   0.9704 B( 63-C , 65-C ) :   1.0527
B( 63-C , 99-H ) :   0.9706 B( 63-C ,100-H ) :   0.9722 B( 64-C , 66-C ) :   1.0485
B( 64-C ,101-H ) :   0.9712 B( 64-C ,102-H ) :   0.9709 B( 65-C ,103-H ) :   0.9827
B( 65-C ,104-H ) :   0.9833 B( 65-C ,105-H ) :   0.9781 B( 66-C ,106-H ) :   0.9828
B( 66-C ,107-H ) :   0.9832 B( 66-C ,108-H ) :   0.9789 B( 67-C ,109-H ) :   0.9819
B( 67-C ,110-H ) :   0.9851 B( 67-C ,111-H ) :   0.9797 B( 68-C ,112-H ) :   0.9852
B( 68-C ,113-H ) :   0.9828 B( 68-C ,114-H ) :   0.9806

-----------------------------------------------------------------------------
         ABSORPTION SPECTRUM VIA TRANSITION ELECTRIC DIPOLE MOMENTS
-----------------------------------------------------------------------------
State   Energy    Wavelength  fosc         T2        TX        TY        TZ
        (cm-1)      (nm)                 (au**2)    (au)      (au)      (au)
-----------------------------------------------------------------------------
   1   23206.1    430.9   2.890863685  41.01103  -3.43498   5.39272   0.36121
   2   26691.1    374.7   0.288232827   3.55511  -1.80171   0.28084  -0.47967
   3   35455.5    282.0   0.206980822   1.92186   0.62116  -1.01353   0.71329

FINAL SINGLE POINT ENERGY     -3496.864598316402

DIPOLE MOMENT
-------------
                                X             Y             Z
Electronic contribution:     37.78410      23.82883       5.63695
Nuclear contribution   :    -41.24551     -25.29492      -7.04156
                        -----------------------------------------
Total Dipole Moment    :     -3.46140      -1.46609      -1.40462
                        -----------------------------------------
Magnitude (a.u.)       :      4.01294
Magnitude (Debye)      :     10.20008

Rotational constants in cm-1:     0.003061     0.000274     0.000258
Rotational constants in MHz :    91.754265     8.212074     7.732195

                             ****ORCA TERMINATED NORMALLY****
TOTAL RUN TIME: 0 days 16 hours 35 minutes 26 seconds 603 msec
