                         Program Version 4.2.0 -  RELEASE  -
|  1> # ORCA input file
|  2> # F-H.out
|  3> ! Engrad Keepdens
|  4> %maxcore 1000
|  5> %tddft
|  6>   nroots 3
|  7>   # nroots is the number of states to be computed
|  8>   Iroot 1
|  9>   end
| 10> * xyz 0 1
| 11>    C       -5.56249         0.76389        -1.29998
| 12>    O       -6.65600         0.75873        -1.81845
| 13>    C       -4.64148         1.90694        -1.12495
| 14>    C       -4.77459         3.20816        -1.56857
| 15>    C       -3.74879         4.10281        -1.29612
| 16>    C       -2.61970         3.69283        -0.60133
| 17>    C       -2.48402         2.38825        -0.14482
| 18>    C       -3.50566         1.49043        -0.40540
| 19>    C       -3.68186         0.09032        -0.02522
| 20>    C       -3.07092        -0.52512         1.03592
| 21>    C       -3.50674        -1.75807         1.56420
| 22>    N       -3.86836        -2.73292         2.05093
| 23>    C       -2.01414         0.04358         1.77331
| 24>    N       -1.13840         0.45243         2.39295
| 25>    C       -4.82901        -0.40777        -0.75177
| 26>    C        5.54010       -17.04120        -0.42773
| 27>    O        4.32673       -17.00041        -0.36031
| 28>    C        6.35683       -18.26331        -0.29685
| 29>    C        5.93047       -19.55768        -0.07309
| 30>    C        6.88896       -20.55668         0.01699
| 31>    C        8.23570       -20.25018        -0.11396
| 32>    C        8.66670       -18.94934        -0.33953
| 33>    C        7.71694       -17.94367        -0.43363
| 34>    C        7.83793       -16.50516        -0.66768
| 35>    C        9.02149       -15.85396        -0.90307
| 36>    C        9.19291       -14.48078        -1.17986
| 37>    N        9.44197       -13.38602        -1.42456
| 38>    C       10.28384       -16.48543        -0.91946
| 39>    N       11.34657       -16.91960        -0.94662
| 40>    C        6.50029       -15.93598        -0.63620
| 41>    C       -1.84615        -5.70385        -0.97815
| 42>    C       -2.57082        -6.91703        -0.87603
| 43>    C       -1.88132        -8.10877        -0.82886
| 44>    C       -0.48963        -8.06582        -0.85470
| 45>    C        0.22131        -6.85292        -0.92799
| 46>    C       -0.45600        -5.65750        -1.01606
| 47>    C        1.70991        -7.10888        -0.91947
| 48>    C        2.40748        -6.51085        -2.15070
| 49>    C        1.85960        -7.07261        -3.45776
| 50>    C        2.37081        -6.63496         0.39717
| 51>    C        2.27943        -5.14354         0.69043
| 52>    C        1.75682        -8.62104        -0.91938
| 53>    C        0.45863        -9.15854        -0.84807
| 54>    C        0.23490       -10.53193        -0.79427
| 55>    C        1.33014       -11.36587        -0.83137
| 56>    C        2.63289       -10.81501        -0.87623
| 57>    C        2.86031        -9.44268        -0.92370
| 58>    C       -5.24016        -1.67029        -1.05419
| 59>    C        6.25309       -14.58981        -0.73738
| 60>    C        3.54995       -11.90705        -0.82794
| 61>    C        2.86935       -13.12148        -0.75217
| 62>    C        1.37958       -12.88545        -0.77787
| 63>    S        5.24387       -12.09417        -0.83878
| 64>    C        5.05962       -13.85099        -0.75165
| 65>    C        3.71540       -14.21559        -0.72672
| 66>    C       -4.06948        -6.65540        -0.86189
| 67>    C       -4.09204        -5.14828        -0.95656
| 68>    C       -2.80201        -4.64499        -1.01395
| 69>    C       -5.06132        -4.15667        -0.98290
| 70>    C       -4.51385        -2.88024        -1.00822
| 71>    S       -2.75767        -2.93620        -1.07186
| 72>    C        0.82847       -13.53803        -2.06415
| 73>    C        0.68762       -13.36612         0.51245
| 74>    C       -4.77254        -7.05305         0.45923
| 75>    C       -4.77692        -7.19915        -2.12395
| 76>    C       -4.30314        -8.33593         1.13422
| 77>    C       -4.93106        -8.70945        -2.23395
| 78>    C       -0.66118       -13.34985        -2.31824
| 79>    C        0.68304       -14.87459         0.72298
| 80>    H       -5.65882         3.50817        -2.10959
| 81>    H       -3.82778         5.12680        -1.62903
| 82>    H       -1.82826         4.40147        -0.40827
| 83>    H       -1.59580         2.08871         0.38829
| 84>    H        4.87694       -19.76993         0.02605
| 85>    H        6.58722       -21.57875         0.19005
| 86>    H        8.96980       -21.03845        -0.03939
| 87>    H        9.72012       -18.74471        -0.43422
| 88>    H       -2.38392        -9.05959        -0.76747
| 89>    H        0.04783        -4.70925        -1.12000
| 90>    H        3.47712        -6.71960        -2.08513
| 91>    H        2.27439        -5.42855        -2.14611
| 92>    H        2.00251        -8.14995        -3.50477
| 93>    H        2.37225        -6.62077        -4.30365
| 94>    H        0.79559        -6.86412        -3.54863
| 95>    H        3.42271        -6.92671         0.36046
| 96>    H        1.90564        -7.18281         1.22112
| 97>    H        2.70608        -4.55223        -0.11538
| 98>    H        2.83601        -4.92342         1.59880
| 99>    H        1.24854        -4.83863         0.84780
|100>    H       -0.76973       -10.91606        -0.71333
|101>    H        3.86834        -9.05813        -0.95889
|102>    H       -6.24716        -1.74460        -1.45492
|103>    H        7.13150       -13.95995        -0.81437
|104>    H        3.41569       -15.24610        -0.69564
|105>    H       -6.12326        -4.31986        -0.94209
|106>    H        1.05590       -14.60404        -2.01837
|107>    H        1.38426       -13.12241        -2.90927
|108>    H       -0.34027       -12.99974         0.50854
|109>    H        1.19745       -12.89000         1.35452
|110>    H       -5.84392        -7.11837         0.25793
|111>    H       -4.62408        -6.23598         1.16985
|112>    H       -4.22166        -6.83721        -2.99404
|113>    H       -5.77094        -6.74623        -2.15861
|114>    H       -4.42233        -9.20384         0.49303
|115>    H       -4.89565        -8.49678         2.03272
|116>    H       -3.25984        -8.25731         1.42873
|117>    H       -3.96506        -9.20457        -2.25381
|118>    H       -5.44657        -8.94644        -3.16273
|119>    H       -5.52220        -9.10566        -1.41346
|120>    H       -1.25592       -13.71379        -1.48483
|121>    H       -0.94675       -13.91026        -3.20599
|122>    H       -0.89717       -12.30376        -2.49291
|123>    H        0.19354       -15.10375         1.66728
|124>    H        1.69379       -15.26895         0.76361
|125>    H        0.14112       -15.38413        -0.06887
|126> *
|127>
|128>                          ****END OF INPUT****

CARTESIAN COORDINATES (ANGSTROEM)
---------------------------------
  C     -5.562490    0.763890   -1.299980
  O     -6.656000    0.758730   -1.818450
  C     -4.641480    1.906940   -1.124950
  C     -4.774590    3.208160   -1.568570
  C     -3.748790    4.102810   -1.296120
  C     -2.619700    3.692830   -0.601330
  C     -2.484020    2.388250   -0.144820
  C     -3.505660    1.490430   -0.405400
  C     -3.681860    0.090320   -0.025220
  C     -3.070920   -0.525120    1.035920
  C     -3.506740   -1.758070    1.564200
  N     -3.868360   -2.732920    2.050930
  C     -2.014140    0.043580    1.773310
  N     -1.138400    0.452430    2.392950
  C     -4.829010   -0.407770   -0.751770
  C      5.540100  -17.041200   -0.427730
  O      4.326730  -17.000410   -0.360310
  C      6.356830  -18.263310   -0.296850
  C      5.930470  -19.557680   -0.073090
  C      6.888960  -20.556680    0.016990
  C      8.235700  -20.250180   -0.113960
  C      8.666700  -18.949340   -0.339530
  C      7.716940  -17.943670   -0.433630
  C      7.837930  -16.505160   -0.667680
  C      9.021490  -15.853960   -0.903070
  C      9.192910  -14.480780   -1.179860
  N      9.441970  -13.386020   -1.424560
  C     10.283840  -16.485430   -0.919460
  N     11.346570  -16.919600   -0.946620
  C      6.500290  -15.935980   -0.636200
  C     -1.846150   -5.703850   -0.978150
  C     -2.570820   -6.917030   -0.876030
  C     -1.881320   -8.108770   -0.828860
  C     -0.489630   -8.065820   -0.854700
  C      0.221310   -6.852920   -0.927990
  C     -0.456000   -5.657500   -1.016060
  C      1.709910   -7.108880   -0.919470
  C      2.407480   -6.510850   -2.150700
  C      1.859600   -7.072610   -3.457760
  C      2.370810   -6.634960    0.397170
  C      2.279430   -5.143540    0.690430
  C      1.756820   -8.621040   -0.919380
  C      0.458630   -9.158540   -0.848070
  C      0.234900  -10.531930   -0.794270
  C      1.330140  -11.365870   -0.831370
  C      2.632890  -10.815010   -0.876230
  C      2.860310   -9.442680   -0.923700
  C     -5.240160   -1.670290   -1.054190
  C      6.253090  -14.589810   -0.737380
  C      3.549950  -11.907050   -0.827940
  C      2.869350  -13.121480   -0.752170
  C      1.379580  -12.885450   -0.777870
  S      5.243870  -12.094170   -0.838780
  C      5.059620  -13.850990   -0.751650
  C      3.715400  -14.215590   -0.726720
  C     -4.069480   -6.655400   -0.861890
  C     -4.092040   -5.148280   -0.956560
  C     -2.802010   -4.644990   -1.013950
  C     -5.061320   -4.156670   -0.982900
  C     -4.513850   -2.880240   -1.008220
  S     -2.757670   -2.936200   -1.071860
  C      0.828470  -13.538030   -2.064150
  C      0.687620  -13.366120    0.512450
  C     -4.772540   -7.053050    0.459230
  C     -4.776920   -7.199150   -2.123950
  C     -4.303140   -8.335930    1.134220
  C     -4.931060   -8.709450   -2.233950
  C     -0.661180  -13.349850   -2.318240
  C      0.683040  -14.874590    0.722980
  H     -5.658820    3.508170   -2.109590
  H     -3.827780    5.126800   -1.629030
  H     -1.828260    4.401470   -0.408270
  H     -1.595800    2.088710    0.388290
  H      4.876940  -19.769930    0.026050
  H      6.587220  -21.578750    0.190050
  H      8.969800  -21.038450   -0.039390
  H      9.720120  -18.744710   -0.434220
  H     -2.383920   -9.059590   -0.767470
  H      0.047830   -4.709250   -1.120000
  H      3.477120   -6.719600   -2.085130
  H      2.274390   -5.428550   -2.146110
  H      2.002510   -8.149950   -3.504770
  H      2.372250   -6.620770   -4.303650
  H      0.795590   -6.864120   -3.548630
  H      3.422710   -6.926710    0.360460
  H      1.905640   -7.182810    1.221120
  H      2.706080   -4.552230   -0.115380
  H      2.836010   -4.923420    1.598800
  H      1.248540   -4.838630    0.847800
  H     -0.769730  -10.916060   -0.713330
  H      3.868340   -9.058130   -0.958890
  H     -6.247160   -1.744600   -1.454920
  H      7.131500  -13.959950   -0.814370
  H      3.415690  -15.246100   -0.695640
  H     -6.123260   -4.319860   -0.942090
  H      1.055900  -14.604040   -2.018370
  H      1.384260  -13.122410   -2.909270
  H     -0.340270  -12.999740    0.508540
  H      1.197450  -12.890000    1.354520
  H     -5.843920   -7.118370    0.257930
  H     -4.624080   -6.235980    1.169850
  H     -4.221660   -6.837210   -2.994040
  H     -5.770940   -6.746230   -2.158610
  H     -4.422330   -9.203840    0.493030
  H     -4.895650   -8.496780    2.032720
  H     -3.259840   -8.257310    1.428730
  H     -3.965060   -9.204570   -2.253810
  H     -5.446570   -8.946440   -3.162730
  H     -5.522200   -9.105660   -1.413460
  H     -1.255920  -13.713790   -1.484830
  H     -0.946750  -13.910260   -3.205990
  H     -0.897170  -12.303760   -2.492910
  H      0.193540  -15.103750    1.667280
  H      1.693790  -15.268950    0.763610
  H      0.141120  -15.384130   -0.068870

 Total Charge           Charge          ....    0
 Multiplicity           Mult            ....    1
 Number of Electrons    NEL             ....  488
 Basis Dimension        Dim             .... 1204

ORBITAL ENERGIES
----------------

  NO   OCC          E(Eh)            E(eV)
   0   2.0000     -91.974763     -2502.7605
   1   2.0000     -91.973751     -2502.7330
   2   2.0000     -20.559399      -559.4497
   3   2.0000     -20.555427      -559.3416
   4   2.0000     -15.583090      -424.0374
   5   2.0000     -15.582021      -424.0084
   6   2.0000     -15.579210      -423.9319
   7   2.0000     -15.576430      -423.8562
   8   2.0000     -11.357045      -309.0409
   9   2.0000     -11.353377      -308.9411
  10   2.0000     -11.331583      -308.3481
  11   2.0000     -11.329966      -308.3041
  12   2.0000     -11.313065      -307.8442
  13   2.0000     -11.311582      -307.8038
  14   2.0000     -11.310155      -307.7650
  15   2.0000     -11.306903      -307.6765
  16   2.0000     -11.298120      -307.4375
  17   2.0000     -11.293738      -307.3182
  18   2.0000     -11.293438      -307.3101
  19   2.0000     -11.291181      -307.2487
  20   2.0000     -11.289837      -307.2121
  21   2.0000     -11.289760      -307.2100
  22   2.0000     -11.288904      -307.1867
  23   2.0000     -11.286599      -307.1240
  24   2.0000     -11.284427      -307.0649
  25   2.0000     -11.280821      -306.9667
  26   2.0000     -11.280790      -306.9659
  27   2.0000     -11.273080      -306.7561
  28   2.0000     -11.272922      -306.7518
  29   2.0000     -11.271771      -306.7205
  30   2.0000     -11.271148      -306.7035
  31   2.0000     -11.270969      -306.6987
  32   2.0000     -11.270612      -306.6890
  33   2.0000     -11.270324      -306.6811
  34   2.0000     -11.269746      -306.6654
  35   2.0000     -11.269064      -306.6468
  36   2.0000     -11.268408      -306.6290
  37   2.0000     -11.266447      -306.5756
  38   2.0000     -11.266292      -306.5714
  39   2.0000     -11.266226      -306.5696
  40   2.0000     -11.265984      -306.5630
  41   2.0000     -11.265713      -306.5556
  42   2.0000     -11.264989      -306.5359
  43   2.0000     -11.264788      -306.5305
  44   2.0000     -11.262019      -306.4551
  45   2.0000     -11.261775      -306.4485
  46   2.0000     -11.261353      -306.4370
  47   2.0000     -11.260269      -306.4075
  48   2.0000     -11.259523      -306.3872
  49   2.0000     -11.258524      -306.3600
  50   2.0000     -11.257509      -306.3324
  51   2.0000     -11.257320      -306.3273
  52   2.0000     -11.257216      -306.3244
  53   2.0000     -11.254429      -306.2486
  54   2.0000     -11.253166      -306.2142
  55   2.0000     -11.252178      -306.1873
  56   2.0000     -11.251845      -306.1783
  57   2.0000     -11.246166      -306.0237
  58   2.0000     -11.242903      -305.9349
  59   2.0000     -11.241863      -305.9066
  60   2.0000     -11.241331      -305.8922
  61   2.0000     -11.240060      -305.8576
  62   2.0000     -11.239267      -305.8360
  63   2.0000     -11.234093      -305.6952
  64   2.0000     -11.231956      -305.6371
  65   2.0000     -11.228473      -305.5423
  66   2.0000     -11.227683      -305.5208
  67   2.0000     -11.225203      -305.4533
  68   2.0000     -11.223089      -305.3958
  69   2.0000      -9.010247      -245.1813
  70   2.0000      -9.009081      -245.1496
  71   2.0000      -6.697692      -182.2535
  72   2.0000      -6.696662      -182.2254
  73   2.0000      -6.696609      -182.2240
  74   2.0000      -6.695610      -182.1968
  75   2.0000      -6.694888      -182.1772
  76   2.0000      -6.693750      -182.1462
  77   2.0000      -1.390700       -37.8429
  78   2.0000      -1.387295       -37.7502
  79   2.0000      -1.243439       -33.8357
  80   2.0000      -1.241093       -33.7719
  81   2.0000      -1.234625       -33.5959
  82   2.0000      -1.230192       -33.4752
  83   2.0000      -1.217850       -33.1394
  84   2.0000      -1.217105       -33.1191
  85   2.0000      -1.215607       -33.0784
  86   2.0000      -1.213028       -33.0082
  87   2.0000      -1.206791       -32.8385
  88   2.0000      -1.171939       -31.8901
  89   2.0000      -1.161344       -31.6018
  90   2.0000      -1.151474       -31.3332
  91   2.0000      -1.146064       -31.1860
  92   2.0000      -1.119424       -30.4611
  93   2.0000      -1.103948       -30.0400
  94   2.0000      -1.097515       -29.8649
  95   2.0000      -1.094452       -29.7815
  96   2.0000      -1.087048       -29.5801
  97   2.0000      -1.079611       -29.3777
  98   2.0000      -1.067097       -29.0372
  99   2.0000      -1.047995       -28.5174
 100   2.0000      -1.045843       -28.4588
 101   2.0000      -1.041825       -28.3495
 102   2.0000      -1.030245       -28.0344
 103   2.0000      -1.027952       -27.9720
 104   2.0000      -1.023636       -27.8546
 105   2.0000      -1.022791       -27.8316
 106   2.0000      -1.022662       -27.8280
 107   2.0000      -1.016525       -27.6611
 108   2.0000      -1.015347       -27.6290
 109   2.0000      -1.005154       -27.3516
 110   2.0000      -0.977163       -26.5899
 111   2.0000      -0.964684       -26.2504
 112   2.0000      -0.941367       -25.6159
 113   2.0000      -0.938347       -25.5337
 114   2.0000      -0.927207       -25.2306
 115   2.0000      -0.924785       -25.1647
 116   2.0000      -0.920127       -25.0379
 117   2.0000      -0.912126       -24.8202
 118   2.0000      -0.886175       -24.1140
 119   2.0000      -0.862222       -23.4622
 120   2.0000      -0.858642       -23.3648
 121   2.0000      -0.857084       -23.3224
 122   2.0000      -0.850280       -23.1373
 123   2.0000      -0.844348       -22.9759
 124   2.0000      -0.843378       -22.9495
 125   2.0000      -0.835878       -22.7454
 126   2.0000      -0.831995       -22.6397
 127   2.0000      -0.825094       -22.4520
 128   2.0000      -0.816171       -22.2092
 129   2.0000      -0.809030       -22.0148
 130   2.0000      -0.805066       -21.9070
 131   2.0000      -0.791821       -21.5466
 132   2.0000      -0.781426       -21.2637
 133   2.0000      -0.772266       -21.0144
 134   2.0000      -0.768482       -20.9115
 135   2.0000      -0.768040       -20.8994
 136   2.0000      -0.752978       -20.4896
 137   2.0000      -0.746645       -20.3172
 138   2.0000      -0.743149       -20.2221
 139   2.0000      -0.735976       -20.0269
 140   2.0000      -0.730743       -19.8845
 141   2.0000      -0.727576       -19.7984
 142   2.0000      -0.709923       -19.3180
 143   2.0000      -0.704635       -19.1741
 144   2.0000      -0.697060       -18.9680
 145   2.0000      -0.687260       -18.7013
 146   2.0000      -0.683201       -18.5909
 147   2.0000      -0.677277       -18.4296
 148   2.0000      -0.674213       -18.3463
 149   2.0000      -0.666315       -18.1314
 150   2.0000      -0.662612       -18.0306
 151   2.0000      -0.658641       -17.9225
 152   2.0000      -0.653798       -17.7908
 153   2.0000      -0.648063       -17.6347
 154   2.0000      -0.645349       -17.5608
 155   2.0000      -0.643918       -17.5219
 156   2.0000      -0.641685       -17.4611
 157   2.0000      -0.639594       -17.4042
 158   2.0000      -0.638532       -17.3753
 159   2.0000      -0.636603       -17.3228
 160   2.0000      -0.635635       -17.2965
 161   2.0000      -0.634708       -17.2713
 162   2.0000      -0.628354       -17.0984
 163   2.0000      -0.626707       -17.0536
 164   2.0000      -0.623676       -16.9711
 165   2.0000      -0.620700       -16.8901
 166   2.0000      -0.614747       -16.7281
 167   2.0000      -0.613545       -16.6954
 168   2.0000      -0.610821       -16.6213
 169   2.0000      -0.605680       -16.4814
 170   2.0000      -0.599868       -16.3232
 171   2.0000      -0.598974       -16.2989
 172   2.0000      -0.595405       -16.2018
 173   2.0000      -0.589400       -16.0384
 174   2.0000      -0.586212       -15.9516
 175   2.0000      -0.585488       -15.9319
 176   2.0000      -0.581925       -15.8350
 177   2.0000      -0.580217       -15.7885
 178   2.0000      -0.577896       -15.7254
 179   2.0000      -0.570792       -15.5320
 180   2.0000      -0.569181       -15.4882
 181   2.0000      -0.568132       -15.4597
 182   2.0000      -0.567023       -15.4295
 183   2.0000      -0.566629       -15.4188
 184   2.0000      -0.564430       -15.3589
 185   2.0000      -0.561870       -15.2893
 186   2.0000      -0.561548       -15.2805
 187   2.0000      -0.561085       -15.2679
 188   2.0000      -0.554628       -15.0922
 189   2.0000      -0.551788       -15.0149
 190   2.0000      -0.550185       -14.9713
 191   2.0000      -0.548684       -14.9304
 192   2.0000      -0.542847       -14.7716
 193   2.0000      -0.541020       -14.7219
 194   2.0000      -0.537321       -14.6212
 195   2.0000      -0.536151       -14.5894
 196   2.0000      -0.534776       -14.5520
 197   2.0000      -0.532983       -14.5032
 198   2.0000      -0.531369       -14.4593
 199   2.0000      -0.528732       -14.3875
 200   2.0000      -0.526840       -14.3360
 201   2.0000      -0.525636       -14.3033
 202   2.0000      -0.523675       -14.2499
 203   2.0000      -0.520848       -14.1730
 204   2.0000      -0.519060       -14.1243
 205   2.0000      -0.515653       -14.0316
 206   2.0000      -0.514779       -14.0079
 207   2.0000      -0.509648       -13.8682
 208   2.0000      -0.507939       -13.8217
 209   2.0000      -0.502170       -13.6647
 210   2.0000      -0.500748       -13.6261
 211   2.0000      -0.493199       -13.4206
 212   2.0000      -0.489794       -13.3280
 213   2.0000      -0.488518       -13.2933
 214   2.0000      -0.488187       -13.2843
 215   2.0000      -0.487432       -13.2637
 216   2.0000      -0.483287       -13.1509
 217   2.0000      -0.479462       -13.0468
 218   2.0000      -0.473293       -12.8790
 219   2.0000      -0.470683       -12.8079
 220   2.0000      -0.469744       -12.7824
 221   2.0000      -0.468973       -12.7614
 222   2.0000      -0.468100       -12.7376
 223   2.0000      -0.465174       -12.6580
 224   2.0000      -0.464405       -12.6371
 225   2.0000      -0.462611       -12.5883
 226   2.0000      -0.459113       -12.4931
 227   2.0000      -0.458912       -12.4876
 228   2.0000      -0.441081       -12.0024
 229   2.0000      -0.436411       -11.8754
 230   2.0000      -0.430718       -11.7204
 231   2.0000      -0.410739       -11.1768
 232   2.0000      -0.386894       -10.5279
 233   2.0000      -0.373249       -10.1566
 234   2.0000      -0.372272       -10.1300
 235   2.0000      -0.368735       -10.0338
 236   2.0000      -0.367287        -9.9944
 237   2.0000      -0.358955        -9.7677
 238   2.0000      -0.351839        -9.5740
 239   2.0000      -0.349991        -9.5237
 240   2.0000      -0.344803        -9.3826
 241   2.0000      -0.335072        -9.1178
 242   2.0000      -0.295048        -8.0287
 243   2.0000      -0.260842        -7.0979
 244   0.0000      -0.019597        -0.5333
 245   0.0000      -0.007187        -0.1956
 246   0.0000       0.024514         0.6670
 247   0.0000       0.030257         0.8233
 248   0.0000       0.060306         1.6410

MULLIKEN ATOMIC CHARGES
-----------------------
   0 C :    0.473267
   1 O :   -0.357970
   2 C :   -0.173094
   3 C :    0.018586
   4 C :   -0.012634
   5 C :   -0.003875
   6 C :   -0.013665
   7 C :   -0.059065
   8 C :    0.232835
   9 C :   -0.346396
  10 C :    0.042681
  11 N :   -0.062179
  12 C :    0.039833
  13 N :   -0.071419
  14 C :   -0.327845
  15 C :    0.520434
  16 O :   -0.396029
  17 C :   -0.179574
  18 C :    0.014153
  19 C :   -0.006417
  20 C :   -0.002461
  21 C :   -0.016824
  22 C :   -0.043875
  23 C :    0.267871
  24 C :   -0.390818
  25 C :    0.032871
  26 N :   -0.074313
  27 C :    0.036042
  28 N :   -0.077948
  29 C :   -0.304139
  30 C :   -0.074227
  31 C :    0.020407
  32 C :   -0.038177
  33 C :    0.005055
  34 C :    0.002504
  35 C :   -0.017160
  36 C :   -0.337576
  37 C :    0.028803
  38 C :   -0.011727
  39 C :    0.043696
  40 C :   -0.008430
  41 C :   -0.027570
  42 C :    0.019962
  43 C :   -0.032093
  44 C :    0.023223
  45 C :   -0.090390
  46 C :    0.007307
  47 C :    0.171922
  48 C :    0.147437
  49 C :    0.019585
  50 C :   -0.058395
  51 C :   -0.312254
  52 S :    0.183008
  53 C :   -0.251851
  54 C :    0.077825
  55 C :   -0.308632
  56 C :   -0.052026
  57 C :    0.019040
  58 C :    0.097738
  59 C :   -0.213639
  60 S :    0.170930
  61 C :    0.022896
  62 C :    0.023700
  63 C :    0.032723
  64 C :    0.029618
  65 C :   -0.025013
  66 C :    0.000696
  67 C :   -0.004057
  68 C :   -0.009443
  69 H :    0.057821
  70 H :    0.054265
  71 H :    0.054885
  72 H :    0.071625
  73 H :    0.054185
  74 H :    0.053014
  75 H :    0.053491
  76 H :    0.077078
  77 H :    0.017066
  78 H :    0.026334
  79 H :    0.030359
  80 H :    0.037387
  81 H :    0.042126
  82 H :    0.033688
  83 H :    0.040698
  84 H :    0.028322
  85 H :    0.037999
  86 H :    0.023936
  87 H :    0.040719
  88 H :    0.043691
  89 H :    0.019102
  90 H :    0.026221
  91 H :    0.082304
  92 H :    0.082704
  93 H :    0.108128
  94 H :    0.044707
  95 H :    0.041028
  96 H :    0.038734
  97 H :    0.030504
  98 H :    0.039368
  99 H :    0.026351
 100 H :    0.064547
 101 H :    0.038234
 102 H :    0.026721
 103 H :    0.018419
 104 H :    0.038831
 105 H :    0.052721
 106 H :    0.028195
 107 H :    0.038181
 108 H :    0.033724
 109 H :    0.024223
 110 H :    0.039323
 111 H :    0.034837
 112 H :    0.037570
 113 H :    0.044681
 114 H :    0.028503
Sum of atomic charges:   -0.0000000

LOEWDIN ATOMIC CHARGES
----------------------
   0 C :    0.165879
   1 O :   -0.236004
   2 C :   -0.056810
   3 C :    0.023371
   4 C :   -0.000744
   5 C :    0.005583
   6 C :    0.006111
   7 C :   -0.021273
   8 C :    0.104956
   9 C :   -0.173017
  10 C :    0.001725
  11 N :   -0.096671
  12 C :    0.013577
  13 N :   -0.097249
  14 C :   -0.154014
  15 C :    0.172726
  16 O :   -0.244785
  17 C :   -0.053118
  18 C :    0.019931
  19 C :    0.001521
  20 C :    0.002606
  21 C :    0.011025
  22 C :   -0.026277
  23 C :    0.123917
  24 C :   -0.184901
  25 C :    0.010208
  26 N :   -0.099709
  27 C :    0.016019
  28 N :   -0.103646
  29 C :   -0.164588
  30 C :   -0.037820
  31 C :    0.010146
  32 C :   -0.013764
  33 C :   -0.015081
  34 C :    0.001769
  35 C :   -0.011079
  36 C :   -0.037561
  37 C :    0.000401
  38 C :   -0.032422
  39 C :    0.005917
  40 C :   -0.033991
  41 C :   -0.000134
  42 C :   -0.007663
  43 C :   -0.019354
  44 C :    0.016587
  45 C :   -0.048727
  46 C :   -0.004193
  47 C :    0.108773
  48 C :    0.107742
  49 C :   -0.120707
  50 C :   -0.067684
  51 C :   -0.033392
  52 S :    0.433855
  53 C :   -0.214328
  54 C :    0.041663
  55 C :   -0.032466
  56 C :   -0.057716
  57 C :   -0.129481
  58 C :    0.028572
  59 C :   -0.205606
  60 S :    0.441097
  61 C :    0.002304
  62 C :    0.000520
  63 C :    0.001823
  64 C :    0.003969
  65 C :   -0.033621
  66 C :   -0.033758
  67 C :   -0.034361
  68 C :   -0.031924
  69 H :    0.041444
  70 H :    0.033614
  71 H :    0.035170
  72 H :    0.040204
  73 H :    0.039993
  74 H :    0.033249
  75 H :    0.034910
  76 H :    0.041146
  77 H :    0.022056
  78 H :    0.026736
  79 H :    0.013971
  80 H :    0.013077
  81 H :    0.017651
  82 H :    0.017333
  83 H :    0.017775
  84 H :    0.012532
  85 H :    0.019992
  86 H :    0.012611
  87 H :    0.022408
  88 H :    0.017678
  89 H :    0.022854
  90 H :    0.027651
  91 H :    0.055347
  92 H :    0.044087
  93 H :    0.039292
  94 H :    0.035112
  95 H :    0.015819
  96 H :    0.021120
  97 H :    0.010287
  98 H :    0.021281
  99 H :    0.013337
 100 H :    0.028909
 101 H :    0.020148
 102 H :    0.012338
 103 H :    0.007542
 104 H :    0.021506
 105 H :    0.019365
 106 H :    0.013493
 107 H :    0.021489
 108 H :    0.014563
 109 H :    0.012690
 110 H :    0.021850
 111 H :    0.015194
 112 H :    0.021387
 113 H :    0.021099
 114 H :    0.014036

  Mayer bond orders larger than 0.100000
B(  0-C ,  1-O ) :   2.0991 B(  0-C ,  2-C ) :   0.9496 B(  0-C , 14-C ) :   0.9891
B(  2-C ,  3-C ) :   1.4399 B(  2-C ,  7-C ) :   1.3466 B(  3-C ,  4-C ) :   1.3951
B(  3-C , 69-H ) :   1.0070 B(  4-C ,  5-C ) :   1.4084 B(  4-C , 70-H ) :   1.0005
B(  5-C ,  6-C ) :   1.4149 B(  5-C , 71-H ) :   0.9970 B(  6-C ,  7-C ) :   1.4291
B(  6-C , 72-H ) :   0.9918 B(  7-C ,  8-C ) :   1.0391 B(  8-C ,  9-C ) :   1.7023
B(  8-C , 14-C ) :   1.0638 B(  9-C , 10-C ) :   1.0669 B(  9-C , 12-C ) :   1.0579
B( 10-C , 11-N ) :   3.0206 B( 12-C , 13-N ) :   2.9980 B( 14-C , 47-C ) :   1.7052
B( 15-C , 16-O ) :   2.0038 B( 15-C , 17-C ) :   0.9844 B( 15-C , 29-C ) :   0.9742
B( 17-C , 18-C ) :   1.4410 B( 17-C , 22-C ) :   1.3574 B( 18-C , 19-C ) :   1.3895
B( 18-C , 73-H ) :   1.0074 B( 19-C , 20-C ) :   1.4081 B( 19-C , 74-H ) :   1.0002
B( 20-C , 21-C ) :   1.4194 B( 20-C , 75-H ) :   0.9964 B( 21-C , 22-C ) :   1.4201
B( 21-C , 76-H ) :   0.9879 B( 22-C , 23-C ) :   1.0306 B( 23-C , 24-C ) :   1.6522
B( 23-C , 29-C ) :   1.1173 B( 24-C , 25-C ) :   1.0676 B( 24-C , 27-C ) :   1.0713
B( 25-C , 26-N ) :   2.9733 B( 27-C , 28-N ) :   2.9799 B( 29-C , 48-C ) :   1.6277
B( 30-C , 31-C ) :   1.3995 B( 30-C , 35-C ) :   1.3581 B( 30-C , 57-C ) :   1.1342
B( 31-C , 32-C ) :   1.4849 B( 31-C , 55-C ) :   0.9343 B( 32-C , 33-C ) :   1.3764
B( 32-C , 77-H ) :   1.0034 B( 33-C , 34-C ) :   1.4069 B( 33-C , 42-C ) :   1.0359
B( 34-C , 35-C ) :   1.4697 B( 34-C , 36-C ) :   0.9217 B( 35-C , 78-H ) :   1.0074
B( 36-C , 37-C ) :   1.0139 B( 36-C , 39-C ) :   0.9960 B( 36-C , 41-C ) :   0.9474
B( 37-C , 38-C ) :   1.0403 B( 37-C , 79-H ) :   0.9720 B( 37-C , 80-H ) :   0.9716
B( 38-C , 81-H ) :   0.9804 B( 38-C , 82-H ) :   0.9872 B( 38-C , 83-H ) :   0.9820
B( 39-C , 40-C ) :   1.0504 B( 39-C , 84-H ) :   0.9687 B( 39-C , 85-H ) :   0.9705
B( 40-C , 86-H ) :   0.9826 B( 40-C , 87-H ) :   0.9844 B( 40-C , 88-H ) :   0.9793
B( 41-C , 42-C ) :   1.3976 B( 41-C , 46-C ) :   1.4722 B( 42-C , 43-C ) :   1.3803
B( 43-C , 44-C ) :   1.4824 B( 43-C , 89-H ) :   1.0000 B( 44-C , 45-C ) :   1.3986
B( 44-C , 51-C ) :   0.9500 B( 45-C , 46-C ) :   1.3558 B( 45-C , 49-C ) :   1.1306
B( 46-C , 90-H ) :   1.0072 B( 47-C , 59-C ) :   1.1746 B( 47-C , 91-H ) :   0.9621
B( 48-C , 53-C ) :   1.2746 B( 48-C , 92-H ) :   0.9373 B( 49-C , 50-C ) :   1.5215
B( 49-C , 52-S ) :   1.1424 B( 50-C , 51-C ) :   0.9468 B( 50-C , 54-C ) :   1.3822
B( 51-C , 61-C ) :   0.9822 B( 51-C , 62-C ) :   0.9936 B( 52-S , 53-C ) :   1.0794
B( 53-C , 54-C ) :   1.4249 B( 54-C , 93-H ) :   0.9847 B( 55-C , 56-C ) :   0.9624
B( 55-C , 63-C ) :   0.9578 B( 55-C , 64-C ) :   0.9903 B( 56-C , 57-C ) :   1.5679
B( 56-C , 58-C ) :   1.3539 B( 57-C , 60-S ) :   1.1029 B( 58-C , 59-C ) :   1.4802
B( 58-C , 94-H ) :   1.0030 B( 59-C , 60-S ) :   1.0788 B( 61-C , 67-C ) :   1.0498
B( 61-C , 95-H ) :   0.9735 B( 61-C , 96-H ) :   0.9691 B( 62-C , 68-C ) :   1.0456
B( 62-C , 97-H ) :   0.9717 B( 62-C , 98-H ) :   0.9701 B( 63-C , 65-C ) :   1.0656
B( 63-C , 99-H ) :   0.9706 B( 63-C ,100-H ) :   0.9732 B( 64-C , 66-C ) :   1.0527
B( 64-C ,101-H ) :   0.9710 B( 64-C ,102-H ) :   0.9697 B( 65-C ,103-H ) :   0.9815
B( 65-C ,104-H ) :   0.9832 B( 65-C ,105-H ) :   0.9763 B( 66-C ,106-H ) :   0.9816
B( 66-C ,107-H ) :   0.9841 B( 66-C ,108-H ) :   0.9789 B( 67-C ,109-H ) :   0.9816
B( 67-C ,110-H ) :   0.9851 B( 67-C ,111-H ) :   0.9794 B( 68-C ,112-H ) :   0.9852
B( 68-C ,113-H ) :   0.9831 B( 68-C ,114-H ) :   0.9803

-----------------------------------------------------------------------------
         ABSORPTION SPECTRUM VIA TRANSITION ELECTRIC DIPOLE MOMENTS
-----------------------------------------------------------------------------
State   Energy    Wavelength  fosc         T2        TX        TY        TZ
        (cm-1)      (nm)                 (au**2)    (au)      (au)      (au)
-----------------------------------------------------------------------------
   1   22768.5    439.2   2.400337301  34.70672  -3.16157   4.95147   0.44055
   2   26286.2    380.4   0.577659759   7.23468   2.40672  -1.06414   0.55675
   3   35362.3    282.8   0.340906700   3.17374  -0.53986   1.50104  -0.79319

FINAL SINGLE POINT ENERGY     -3496.867277478631

DIPOLE MOMENT
-------------
                                X             Y             Z
Electronic contribution:     37.63234      23.37050       6.08944
Nuclear contribution   :    -40.53748     -25.00434      -7.43165
                        -----------------------------------------
Total Dipole Moment    :     -2.90514      -1.63384      -1.34221
                        -----------------------------------------
Magnitude (a.u.)       :      3.59316
Magnitude (Debye)      :      9.13308

Rotational constants in cm-1:     0.002915     0.000291     0.000273
Rotational constants in MHz :    87.402974     8.737504     8.196005

                             ****ORCA TERMINATED NORMALLY****
TOTAL RUN TIME: 0 days 16 hours 37 minutes 38 seconds 710 msec
