                         Program Version 4.2.0 -  RELEASE  -
|  1> # ORCA input file
|  2> # FDICTF.out
|  3> ! Engrad Keepdens
|  4> %maxcore 1000
|  5> %tddft
|  6>   nroots 3
|  7>   # nroots is the number of states to be computed
|  8>   Iroot 1
|  9>   end
| 10> * xyz 0 1
| 11>    C        0.07759        -1.52869         0.93688
| 12>    O        0.48555        -1.65927         2.06911
| 13>    C        0.37228        -0.43876        -0.01512
| 14>    C        1.12046         0.70580         0.17670
| 15>    C        1.23074         1.60199        -0.87766
| 16>    C        0.59696         1.34976        -2.08554
| 17>    C       -0.15051         0.19610        -2.28561
| 18>    C       -0.25864        -0.70905        -1.24287
| 19>    C       -0.92348        -2.01126        -1.15458
| 20>    C       -1.27562        -2.77974        -2.23586
| 21>    C       -1.65469        -4.13344        -2.16044
| 22>    N       -1.94455        -5.24479        -2.16997
| 23>    C       -1.22616        -2.33334        -3.57183
| 24>    N       -1.23665        -2.02161        -4.67696
| 25>    C       -0.87739        -2.42213         0.22766
| 26>    C       -1.54716        -3.36406         0.95649
| 27>    C       -2.72105        -4.07795         0.65803
| 28>    C       -3.71448        -3.83011        -0.28565
| 29>    C       -4.72576        -4.77448        -0.24657
| 30>    C       -4.52112        -5.75173         0.71862
| 31>    S       -3.09798        -5.49733         1.62570
| 32>    C       -5.56603        -6.72237         0.67563
| 33>    C       -6.45030        -6.34224        -0.36392
| 34>    C       -5.97698        -5.06435        -1.04042
| 35>    C       -6.94934        -3.88386        -0.82271
| 36>    C       -8.26583        -3.93167        -1.58523
| 37>    C       -5.55249        -5.24516        -2.52023
| 38>    C       -6.37024        -6.21576        -3.36287
| 39>    C       -7.55397        -7.12449        -0.62586
| 40>    C       -7.75194        -8.26484         0.14853
| 41>    C       -6.87526        -8.62457         1.18974
| 42>    C       -5.76149        -7.85989         1.45313
| 43>    C       -7.33376        -9.90252         1.85141
| 44>    C       -6.23829       -10.97883         1.85679
| 45>    C       -5.76617       -11.33305         0.45126
| 46>    C       -7.88928        -9.64560         3.27302
| 47>    C       -6.90362        -9.05729         4.27362
| 48>    C       -8.51070       -10.28729         0.98196
| 49>    C       -8.76694        -9.28873         0.02484
| 50>    C       -9.82976        -9.38579        -0.86960
| 51>    C      -10.61623       -10.51469        -0.81565
| 52>    C      -10.35753       -11.50850         0.15765
| 53>    C       -9.30916       -11.40477         1.06680
| 54>    C      -11.35075       -12.51911        -0.00984
| 55>    C      -12.23553       -12.18502        -1.02663
| 56>    C      -11.82484       -10.88111        -1.66377
| 57>    C      -11.44206       -11.19661        -3.12673
| 58>    C      -10.90262       -10.02858        -3.94095
| 59>    C      -12.88910        -9.77728        -1.51570
| 60>    C      -14.20234       -10.03978        -2.24068
| 61>    C      -13.20314       -13.15835        -1.23287
| 62>    C      -13.04662       -14.25410        -0.39405
| 63>    S      -11.69216       -14.03511         0.70353
| 64>    C      -13.88910       -15.38654        -0.34416
| 65>    C      -13.63148       -16.62433         0.16211
| 66>    C      -12.39501       -17.28954         0.50915
| 67>    C      -11.18614       -17.11930        -0.11350
| 68>    C      -10.03256       -17.86849         0.19037
| 69>    N       -9.06100       -18.43832         0.41286
| 70>    C      -10.99470       -16.23986        -1.19945
| 71>    N      -10.81884       -15.57537        -2.11910
| 72>    C      -12.73586       -18.39332         1.40442
| 73>    C      -11.93971       -19.24179         2.15536
| 74>    C      -12.55546       -20.24799         2.88822
| 75>    C      -13.93287       -20.41543         2.87248
| 76>    C      -14.73962       -19.56572         2.12815
| 77>    C      -14.13369       -18.55796         1.40360
| 78>    C      -14.75357       -17.51596         0.55769
| 79>    O      -15.92350       -17.37849         0.27990
| 80>    H        1.60249         0.88447         1.12548
| 81>    H        1.81210         2.50372        -0.75752
| 82>    H        0.68559         2.06279        -2.89149
| 83>    H       -0.63788         0.02707        -3.23230
| 84>    H       -1.13090        -3.53640         1.94534
| 85>    H       -3.69909        -2.97210        -0.93372
| 86>    H       -6.41891        -2.97009        -1.10298
| 87>    H       -7.16279        -3.82362         0.24840
| 88>    H       -8.09758        -3.95390        -2.65802
| 89>    H       -8.84336        -3.03840        -1.35479
| 90>    H       -8.85695        -4.79517        -1.29592
| 91>    H       -4.51710        -5.59623        -2.52715
| 92>    H       -5.56088        -4.25943        -2.99072
| 93>    H       -6.30695        -7.22389        -2.96157
| 94>    H       -5.96461        -6.22904        -4.37245
| 95>    H       -7.41519        -5.92650        -3.42381
| 96>    H       -8.24689        -6.89094        -1.41685
| 97>    H       -5.04148        -8.12193         2.21262
| 98>    H       -6.62674       -11.87404         2.34659
| 99>    H       -5.38764       -10.62009         2.43727
|100>    H       -6.58824       -11.72138        -0.14595
|101>    H       -4.98815       -12.09115         0.49814
|102>    H       -5.36213       -10.45621        -0.05017
|103>    H       -8.26454       -10.59644         3.65777
|104>    H       -8.74235        -8.96757         3.18174
|105>    H       -6.02943        -9.69192         4.39030
|106>    H       -7.38721        -8.96986         5.24427
|107>    H       -6.58318        -8.06548         3.96672
|108>    H      -10.02149        -8.59201        -1.57412
|109>    H       -9.14120       -12.18128         1.79775
|110>    H      -12.32530       -11.60324        -3.62169
|111>    H      -10.69076       -11.98988        -3.10541
|112>    H      -11.60357        -9.19795        -3.96078
|113>    H      -10.73808       -10.35456        -4.96566
|114>    H       -9.95221        -9.68285        -3.54442
|115>    H      -12.46203        -8.83932        -1.87335
|116>    H      -13.09104        -9.65543        -0.44788
|117>    H      -14.87566        -9.19957        -2.08440
|118>    H      -14.68587       -10.93326        -1.85655
|119>    H      -14.04886       -10.15435        -3.31012
|120>    H      -13.97332       -13.13141        -1.98229
|121>    H      -14.90681       -15.23081        -0.69087
|122>    H      -10.86815       -19.12521         2.18626
|123>    H      -11.94602       -20.91372         3.48086
|124>    H      -14.37986       -21.21320         3.44640
|125>    H      -15.81256       -19.67911         2.10583
|126> *
|127>
|128>                          ****END OF INPUT****

CARTESIAN COORDINATES (ANGSTROEM)
---------------------------------
  C      0.077590   -1.528690    0.936880
  O      0.485550   -1.659270    2.069110
  C      0.372280   -0.438760   -0.015120
  C      1.120460    0.705800    0.176700
  C      1.230740    1.601990   -0.877660
  C      0.596960    1.349760   -2.085540
  C     -0.150510    0.196100   -2.285610
  C     -0.258640   -0.709050   -1.242870
  C     -0.923480   -2.011260   -1.154580
  C     -1.275620   -2.779740   -2.235860
  C     -1.654690   -4.133440   -2.160440
  N     -1.944550   -5.244790   -2.169970
  C     -1.226160   -2.333340   -3.571830
  N     -1.236650   -2.021610   -4.676960
  C     -0.877390   -2.422130    0.227660
  C     -1.547160   -3.364060    0.956490
  C     -2.721050   -4.077950    0.658030
  C     -3.714480   -3.830110   -0.285650
  C     -4.725760   -4.774480   -0.246570
  C     -4.521120   -5.751730    0.718620
  S     -3.097980   -5.497330    1.625700
  C     -5.566030   -6.722370    0.675630
  C     -6.450300   -6.342240   -0.363920
  C     -5.976980   -5.064350   -1.040420
  C     -6.949340   -3.883860   -0.822710
  C     -8.265830   -3.931670   -1.585230
  C     -5.552490   -5.245160   -2.520230
  C     -6.370240   -6.215760   -3.362870
  C     -7.553970   -7.124490   -0.625860
  C     -7.751940   -8.264840    0.148530
  C     -6.875260   -8.624570    1.189740
  C     -5.761490   -7.859890    1.453130
  C     -7.333760   -9.902520    1.851410
  C     -6.238290  -10.978830    1.856790
  C     -5.766170  -11.333050    0.451260
  C     -7.889280   -9.645600    3.273020
  C     -6.903620   -9.057290    4.273620
  C     -8.510700  -10.287290    0.981960
  C     -8.766940   -9.288730    0.024840
  C     -9.829760   -9.385790   -0.869600
  C    -10.616230  -10.514690   -0.815650
  C    -10.357530  -11.508500    0.157650
  C     -9.309160  -11.404770    1.066800
  C    -11.350750  -12.519110   -0.009840
  C    -12.235530  -12.185020   -1.026630
  C    -11.824840  -10.881110   -1.663770
  C    -11.442060  -11.196610   -3.126730
  C    -10.902620  -10.028580   -3.940950
  C    -12.889100   -9.777280   -1.515700
  C    -14.202340  -10.039780   -2.240680
  C    -13.203140  -13.158350   -1.232870
  C    -13.046620  -14.254100   -0.394050
  S    -11.692160  -14.035110    0.703530
  C    -13.889100  -15.386540   -0.344160
  C    -13.631480  -16.624330    0.162110
  C    -12.395010  -17.289540    0.509150
  C    -11.186140  -17.119300   -0.113500
  C    -10.032560  -17.868490    0.190370
  N     -9.061000  -18.438320    0.412860
  C    -10.994700  -16.239860   -1.199450
  N    -10.818840  -15.575370   -2.119100
  C    -12.735860  -18.393320    1.404420
  C    -11.939710  -19.241790    2.155360
  C    -12.555460  -20.247990    2.888220
  C    -13.932870  -20.415430    2.872480
  C    -14.739620  -19.565720    2.128150
  C    -14.133690  -18.557960    1.403600
  C    -14.753570  -17.515960    0.557690
  O    -15.923500  -17.378490    0.279900
  H      1.602490    0.884470    1.125480
  H      1.812100    2.503720   -0.757520
  H      0.685590    2.062790   -2.891490
  H     -0.637880    0.027070   -3.232300
  H     -1.130900   -3.536400    1.945340
  H     -3.699090   -2.972100   -0.933720
  H     -6.418910   -2.970090   -1.102980
  H     -7.162790   -3.823620    0.248400
  H     -8.097580   -3.953900   -2.658020
  H     -8.843360   -3.038400   -1.354790
  H     -8.856950   -4.795170   -1.295920
  H     -4.517100   -5.596230   -2.527150
  H     -5.560880   -4.259430   -2.990720
  H     -6.306950   -7.223890   -2.961570
  H     -5.964610   -6.229040   -4.372450
  H     -7.415190   -5.926500   -3.423810
  H     -8.246890   -6.890940   -1.416850
  H     -5.041480   -8.121930    2.212620
  H     -6.626740  -11.874040    2.346590
  H     -5.387640  -10.620090    2.437270
  H     -6.588240  -11.721380   -0.145950
  H     -4.988150  -12.091150    0.498140
  H     -5.362130  -10.456210   -0.050170
  H     -8.264540  -10.596440    3.657770
  H     -8.742350   -8.967570    3.181740
  H     -6.029430   -9.691920    4.390300
  H     -7.387210   -8.969860    5.244270
  H     -6.583180   -8.065480    3.966720
  H    -10.021490   -8.592010   -1.574120
  H     -9.141200  -12.181280    1.797750
  H    -12.325300  -11.603240   -3.621690
  H    -10.690760  -11.989880   -3.105410
  H    -11.603570   -9.197950   -3.960780
  H    -10.738080  -10.354560   -4.965660
  H     -9.952210   -9.682850   -3.544420
  H    -12.462030   -8.839320   -1.873350
  H    -13.091040   -9.655430   -0.447880
  H    -14.875660   -9.199570   -2.084400
  H    -14.685870  -10.933260   -1.856550
  H    -14.048860  -10.154350   -3.310120
  H    -13.973320  -13.131410   -1.982290
  H    -14.906810  -15.230810   -0.690870
  H    -10.868150  -19.125210    2.186260
  H    -11.946020  -20.913720    3.480860
  H    -14.379860  -21.213200    3.446400
  H    -15.812560  -19.679110    2.105830

 Total Charge           Charge          ....    0
 Multiplicity           Mult            ....    1
 Number of Electrons    NEL             ....  488
 Basis Dimension        Dim             .... 1204

ORBITAL ENERGIES
----------------

  NO   OCC          E(Eh)            E(eV)
   0   2.0000     -91.974023     -2502.7404
   1   2.0000     -91.971999     -2502.6853
   2   2.0000     -20.553874      -559.2994
   3   2.0000     -20.553488      -559.2889
   4   2.0000     -15.583246      -424.0417
   5   2.0000     -15.582745      -424.0281
   6   2.0000     -15.581303      -423.9888
   7   2.0000     -15.577238      -423.8782
   8   2.0000     -11.351845      -308.8994
   9   2.0000     -11.350869      -308.8728
  10   2.0000     -11.333441      -308.3986
  11   2.0000     -11.329769      -308.2987
  12   2.0000     -11.312046      -307.8164
  13   2.0000     -11.311268      -307.7953
  14   2.0000     -11.309619      -307.7504
  15   2.0000     -11.308513      -307.7203
  16   2.0000     -11.294359      -307.3351
  17   2.0000     -11.293174      -307.3029
  18   2.0000     -11.292045      -307.2722
  19   2.0000     -11.291310      -307.2522
  20   2.0000     -11.290712      -307.2359
  21   2.0000     -11.287800      -307.1567
  22   2.0000     -11.286829      -307.1302
  23   2.0000     -11.286532      -307.1221
  24   2.0000     -11.283686      -307.0447
  25   2.0000     -11.282946      -307.0246
  26   2.0000     -11.279834      -306.9399
  27   2.0000     -11.278838      -306.9128
  28   2.0000     -11.272540      -306.7414
  29   2.0000     -11.272100      -306.7294
  30   2.0000     -11.271733      -306.7195
  31   2.0000     -11.271611      -306.7161
  32   2.0000     -11.271054      -306.7010
  33   2.0000     -11.270466      -306.6850
  34   2.0000     -11.270024      -306.6730
  35   2.0000     -11.269339      -306.6543
  36   2.0000     -11.267844      -306.6136
  37   2.0000     -11.267638      -306.6080
  38   2.0000     -11.263814      -306.5040
  39   2.0000     -11.263498      -306.4954
  40   2.0000     -11.263192      -306.4870
  41   2.0000     -11.262810      -306.4767
  42   2.0000     -11.262545      -306.4694
  43   2.0000     -11.262495      -306.4681
  44   2.0000     -11.259519      -306.3871
  45   2.0000     -11.257606      -306.3350
  46   2.0000     -11.257329      -306.3275
  47   2.0000     -11.256862      -306.3148
  48   2.0000     -11.256383      -306.3018
  49   2.0000     -11.255376      -306.2744
  50   2.0000     -11.254796      -306.2586
  51   2.0000     -11.254068      -306.2387
  52   2.0000     -11.253996      -306.2368
  53   2.0000     -11.251385      -306.1658
  54   2.0000     -11.250727      -306.1478
  55   2.0000     -11.250227      -306.1342
  56   2.0000     -11.250082      -306.1303
  57   2.0000     -11.242946      -305.9361
  58   2.0000     -11.242250      -305.9172
  59   2.0000     -11.238963      -305.8277
  60   2.0000     -11.237694      -305.7932
  61   2.0000     -11.236447      -305.7593
  62   2.0000     -11.233633      -305.6827
  63   2.0000     -11.232356      -305.6479
  64   2.0000     -11.230856      -305.6071
  65   2.0000     -11.227153      -305.5064
  66   2.0000     -11.226541      -305.4897
  67   2.0000     -11.222487      -305.3794
  68   2.0000     -11.217348      -305.2395
  69   2.0000      -9.009470      -245.1602
  70   2.0000      -9.007388      -245.1035
  71   2.0000      -6.696959      -182.2335
  72   2.0000      -6.695981      -182.2069
  73   2.0000      -6.694915      -182.1779
  74   2.0000      -6.694132      -182.1566
  75   2.0000      -6.693913      -182.1506
  76   2.0000      -6.692062      -182.1003
  77   2.0000      -1.385720       -37.7074
  78   2.0000      -1.385658       -37.7057
  79   2.0000      -1.244295       -33.8590
  80   2.0000      -1.241620       -33.7862
  81   2.0000      -1.232171       -33.5291
  82   2.0000      -1.228191       -33.4208
  83   2.0000      -1.219534       -33.1852
  84   2.0000      -1.216077       -33.0911
  85   2.0000      -1.215577       -33.0775
  86   2.0000      -1.213879       -33.0313
  87   2.0000      -1.204420       -32.7739
  88   2.0000      -1.170326       -31.8462
  89   2.0000      -1.160402       -31.5762
  90   2.0000      -1.150999       -31.3203
  91   2.0000      -1.144880       -31.1538
  92   2.0000      -1.116652       -30.3856
  93   2.0000      -1.101648       -29.9774
  94   2.0000      -1.095901       -29.8210
  95   2.0000      -1.094920       -29.7943
  96   2.0000      -1.086427       -29.5632
  97   2.0000      -1.078364       -29.3438
  98   2.0000      -1.065436       -28.9920
  99   2.0000      -1.047389       -28.5009
 100   2.0000      -1.046570       -28.4786
 101   2.0000      -1.040626       -28.3169
 102   2.0000      -1.027951       -27.9720
 103   2.0000      -1.025656       -27.9095
 104   2.0000      -1.021149       -27.7869
 105   2.0000      -1.019960       -27.7545
 106   2.0000      -1.018726       -27.7210
 107   2.0000      -1.016250       -27.6536
 108   2.0000      -1.012635       -27.5552
 109   2.0000      -1.004076       -27.3223
 110   2.0000      -0.975627       -26.5482
 111   2.0000      -0.962994       -26.2044
 112   2.0000      -0.940372       -25.5888
 113   2.0000      -0.936208       -25.4755
 114   2.0000      -0.928063       -25.2539
 115   2.0000      -0.922976       -25.1155
 116   2.0000      -0.917899       -24.9773
 117   2.0000      -0.909705       -24.7543
 118   2.0000      -0.883992       -24.0546
 119   2.0000      -0.859736       -23.3946
 120   2.0000      -0.857546       -23.3350
 121   2.0000      -0.854067       -23.2404
 122   2.0000      -0.845383       -23.0040
 123   2.0000      -0.844775       -22.9875
 124   2.0000      -0.842468       -22.9247
 125   2.0000      -0.839749       -22.8507
 126   2.0000      -0.826012       -22.4769
 127   2.0000      -0.823819       -22.4173
 128   2.0000      -0.809529       -22.0284
 129   2.0000      -0.808883       -22.0108
 130   2.0000      -0.803205       -21.8563
 131   2.0000      -0.790495       -21.5105
 132   2.0000      -0.780186       -21.2299
 133   2.0000      -0.774813       -21.0837
 134   2.0000      -0.768090       -20.9008
 135   2.0000      -0.760803       -20.7025
 136   2.0000      -0.751342       -20.4451
 137   2.0000      -0.747671       -20.3452
 138   2.0000      -0.743830       -20.2407
 139   2.0000      -0.735300       -20.0085
 140   2.0000      -0.728264       -19.8171
 141   2.0000      -0.723569       -19.6893
 142   2.0000      -0.707570       -19.2540
 143   2.0000      -0.704561       -19.1721
 144   2.0000      -0.693333       -18.8665
 145   2.0000      -0.690728       -18.7957
 146   2.0000      -0.685999       -18.6670
 147   2.0000      -0.674558       -18.3557
 148   2.0000      -0.672385       -18.2965
 149   2.0000      -0.664464       -18.0810
 150   2.0000      -0.661121       -17.9900
 151   2.0000      -0.657022       -17.8785
 152   2.0000      -0.650637       -17.7047
 153   2.0000      -0.645927       -17.5766
 154   2.0000      -0.643448       -17.5091
 155   2.0000      -0.642241       -17.4763
 156   2.0000      -0.638887       -17.3850
 157   2.0000      -0.636689       -17.3252
 158   2.0000      -0.635441       -17.2912
 159   2.0000      -0.634414       -17.2633
 160   2.0000      -0.633904       -17.2494
 161   2.0000      -0.633434       -17.2366
 162   2.0000      -0.627332       -17.0706
 163   2.0000      -0.626158       -17.0386
 164   2.0000      -0.621197       -16.9036
 165   2.0000      -0.619066       -16.8456
 166   2.0000      -0.614665       -16.7259
 167   2.0000      -0.610486       -16.6122
 168   2.0000      -0.606988       -16.5170
 169   2.0000      -0.603571       -16.4240
 170   2.0000      -0.600204       -16.3324
 171   2.0000      -0.595925       -16.2159
 172   2.0000      -0.591957       -16.1080
 173   2.0000      -0.588390       -16.0109
 174   2.0000      -0.586279       -15.9535
 175   2.0000      -0.581754       -15.8303
 176   2.0000      -0.580139       -15.7864
 177   2.0000      -0.578874       -15.7519
 178   2.0000      -0.576397       -15.6846
 179   2.0000      -0.571799       -15.5595
 180   2.0000      -0.570982       -15.5372
 181   2.0000      -0.568576       -15.4717
 182   2.0000      -0.567685       -15.4475
 183   2.0000      -0.566359       -15.4114
 184   2.0000      -0.564302       -15.3555
 185   2.0000      -0.562330       -15.3018
 186   2.0000      -0.560439       -15.2503
 187   2.0000      -0.558176       -15.1887
 188   2.0000      -0.554390       -15.0857
 189   2.0000      -0.550503       -14.9800
 190   2.0000      -0.548171       -14.9165
 191   2.0000      -0.544768       -14.8239
 192   2.0000      -0.539281       -14.6746
 193   2.0000      -0.538122       -14.6430
 194   2.0000      -0.536422       -14.5968
 195   2.0000      -0.536023       -14.5859
 196   2.0000      -0.534042       -14.5320
 197   2.0000      -0.531281       -14.4569
 198   2.0000      -0.530055       -14.4235
 199   2.0000      -0.527913       -14.3652
 200   2.0000      -0.525064       -14.2877
 201   2.0000      -0.524484       -14.2719
 202   2.0000      -0.523712       -14.2509
 203   2.0000      -0.518050       -14.0969
 204   2.0000      -0.515876       -14.0377
 205   2.0000      -0.513625       -13.9765
 206   2.0000      -0.512011       -13.9325
 207   2.0000      -0.507469       -13.8089
 208   2.0000      -0.506298       -13.7771
 209   2.0000      -0.501201       -13.6384
 210   2.0000      -0.498562       -13.5666
 211   2.0000      -0.493597       -13.4315
 212   2.0000      -0.492392       -13.3987
 213   2.0000      -0.490604       -13.3500
 214   2.0000      -0.486481       -13.2378
 215   2.0000      -0.484188       -13.1754
 216   2.0000      -0.482069       -13.1178
 217   2.0000      -0.476591       -12.9687
 218   2.0000      -0.472440       -12.8557
 219   2.0000      -0.470738       -12.8094
 220   2.0000      -0.468578       -12.7507
 221   2.0000      -0.467677       -12.7261
 222   2.0000      -0.465199       -12.6587
 223   2.0000      -0.463444       -12.6109
 224   2.0000      -0.459669       -12.5082
 225   2.0000      -0.459018       -12.4905
 226   2.0000      -0.457858       -12.4590
 227   2.0000      -0.455743       -12.4014
 228   2.0000      -0.439814       -11.9679
 229   2.0000      -0.437392       -11.9020
 230   2.0000      -0.423910       -11.5352
 231   2.0000      -0.405716       -11.0401
 232   2.0000      -0.384148       -10.4532
 233   2.0000      -0.372406       -10.1337
 234   2.0000      -0.371716       -10.1149
 235   2.0000      -0.367112        -9.9896
 236   2.0000      -0.365117        -9.9353
 237   2.0000      -0.355794        -9.6817
 238   2.0000      -0.350336        -9.5331
 239   2.0000      -0.347366        -9.4523
 240   2.0000      -0.344410        -9.3719
 241   2.0000      -0.335193        -9.1211
 242   2.0000      -0.293263        -7.9801
 243   2.0000      -0.257653        -7.0111
 244   0.0000      -0.017674        -0.4809
 245   0.0000      -0.006762        -0.1840
 246   0.0000       0.025502         0.6939
 247   0.0000       0.031910         0.8683
 248   0.0000       0.061427         1.6715

MULLIKEN ATOMIC CHARGES
-----------------------
   0 C :    0.466711
   1 O :   -0.360928
   2 C :   -0.166346
   3 C :    0.018045
   4 C :   -0.010895
   5 C :   -0.004288
   6 C :   -0.017883
   7 C :   -0.063441
   8 C :    0.252930
   9 C :   -0.386586
  10 C :    0.050107
  11 N :   -0.066840
  12 C :    0.045331
  13 N :   -0.073951
  14 C :   -0.335452
  15 C :    0.215522
  16 C :   -0.239406
  17 C :    0.085465
  18 C :   -0.060868
  19 C :    0.016294
  20 S :    0.188665
  21 C :   -0.078156
  22 C :    0.025577
  23 C :   -0.316663
  24 C :    0.032566
  25 C :    0.000750
  26 C :    0.019672
  27 C :   -0.023597
  28 C :   -0.040711
  29 C :    0.012063
  30 C :   -0.003123
  31 C :   -0.015420
  32 C :   -0.335246
  33 C :    0.026238
  34 C :   -0.011901
  35 C :    0.047637
  36 C :   -0.007424
  37 C :   -0.025347
  38 C :    0.014372
  39 C :   -0.028817
  40 C :    0.015931
  41 C :   -0.079104
  42 C :    0.001570
  43 C :    0.019003
  44 C :   -0.036750
  45 C :   -0.318199
  46 C :    0.023360
  47 C :   -0.004941
  48 C :    0.026843
  49 C :   -0.006538
  50 C :    0.089192
  51 C :   -0.218766
  52 S :    0.172359
  53 C :    0.174010
  54 C :   -0.329584
  55 C :    0.232404
  56 C :   -0.345061
  57 C :    0.039206
  58 N :   -0.072307
  59 C :    0.043105
  60 N :   -0.061918
  61 C :   -0.059122
  62 C :   -0.013527
  63 C :   -0.004069
  64 C :   -0.012817
  65 C :    0.018323
  66 C :   -0.173191
  67 C :    0.473714
  68 O :   -0.358368
  69 H :    0.057526
  70 H :    0.054015
  71 H :    0.054226
  72 H :    0.072296
  73 H :    0.082327
  74 H :    0.059077
  75 H :    0.026235
  76 H :    0.036087
  77 H :    0.034820
  78 H :    0.037033
  79 H :    0.027884
  80 H :    0.082588
  81 H :    0.025591
  82 H :    0.051323
  83 H :    0.040764
  84 H :    0.016193
  85 H :    0.017473
  86 H :    0.025660
  87 H :    0.029546
  88 H :    0.036190
  89 H :    0.045315
  90 H :    0.035552
  91 H :    0.043140
  92 H :    0.027234
  93 H :    0.035636
  94 H :    0.025019
  95 H :    0.036800
  96 H :    0.039318
  97 H :    0.018289
  98 H :    0.022626
  99 H :    0.032047
 100 H :    0.057086
 101 H :    0.020138
 102 H :    0.041481
 103 H :    0.037579
 104 H :    0.032032
 105 H :    0.038964
 106 H :    0.039294
 107 H :    0.028211
 108 H :    0.030364
 109 H :    0.048233
 110 H :    0.082108
 111 H :    0.071461
 112 H :    0.054473
 113 H :    0.053835
 114 H :    0.057493
Sum of atomic charges:   -0.0000000

LOEWDIN ATOMIC CHARGES
----------------------
   0 C :    0.164937
   1 O :   -0.237755
   2 C :   -0.055552
   3 C :    0.022868
   4 C :    0.000029
   5 C :    0.003995
   6 C :    0.005774
   7 C :   -0.023450
   8 C :    0.113361
   9 C :   -0.183111
  10 C :    0.018087
  11 N :   -0.087794
  12 C :    0.012777
  13 N :   -0.101098
  14 C :   -0.159396
  15 C :    0.109016
  16 C :   -0.213301
  17 C :    0.032852
  18 C :   -0.053836
  19 C :   -0.129318
  20 S :    0.433936
  21 C :   -0.042281
  22 C :    0.013035
  23 C :   -0.032389
  24 C :    0.003769
  25 C :   -0.033624
  26 C :    0.000179
  27 C :   -0.032914
  28 C :   -0.015072
  29 C :   -0.010878
  30 C :   -0.000656
  31 C :   -0.009507
  32 C :   -0.037442
  33 C :   -0.000425
  34 C :   -0.031627
  35 C :    0.006124
  36 C :   -0.034665
  37 C :    0.002064
  38 C :   -0.013329
  39 C :   -0.016573
  40 C :    0.013404
  41 C :   -0.041053
  42 C :   -0.009384
  43 C :   -0.123754
  44 C :   -0.060295
  45 C :   -0.032948
  46 C :    0.003220
  47 C :   -0.034533
  48 C :    0.000408
  49 C :   -0.032607
  50 C :    0.027513
  51 C :   -0.209101
  52 S :    0.441270
  53 C :    0.109546
  54 C :   -0.154962
  55 C :    0.104500
  56 C :   -0.172657
  57 C :    0.013778
  58 N :   -0.097921
  59 C :    0.001927
  60 N :   -0.095682
  61 C :   -0.021241
  62 C :    0.006113
  63 C :    0.005226
  64 C :   -0.001121
  65 C :    0.023127
  66 C :   -0.056810
  67 C :    0.165766
  68 O :   -0.236504
  69 H :    0.041450
  70 H :    0.033555
  71 H :    0.034939
  72 H :    0.039896
  73 H :    0.051377
  74 H :    0.033196
  75 H :    0.012134
  76 H :    0.019175
  77 H :    0.015333
  78 H :    0.020872
  79 H :    0.013471
  80 H :    0.029187
  81 H :    0.013146
  82 H :    0.018690
  83 H :    0.022533
  84 H :    0.006039
  85 H :    0.022273
  86 H :    0.026393
  87 H :    0.013537
  88 H :    0.012511
  89 H :    0.018988
  90 H :    0.018351
  91 H :    0.018573
  92 H :    0.012338
  93 H :    0.019049
  94 H :    0.013025
  95 H :    0.020419
  96 H :    0.016183
  97 H :    0.022740
  98 H :    0.026350
  99 H :    0.012513
 100 H :    0.028381
 101 H :    0.010790
 102 H :    0.022875
 103 H :    0.016260
 104 H :    0.011173
 105 H :    0.020940
 106 H :    0.021804
 107 H :    0.014130
 108 H :    0.014606
 109 H :    0.033914
 110 H :    0.055001
 111 H :    0.040144
 112 H :    0.034992
 113 H :    0.033419
 114 H :    0.041300

  Mayer bond orders larger than 0.100000
B(  0-C ,  1-O ) :   2.0899 B(  0-C ,  2-C ) :   0.9489 B(  0-C , 14-C ) :   0.9999
B(  2-C ,  3-C ) :   1.4429 B(  2-C ,  7-C ) :   1.3489 B(  3-C ,  4-C ) :   1.3907
B(  3-C , 69-H ) :   1.0071 B(  4-C ,  5-C ) :   1.4110 B(  4-C , 70-H ) :   1.0005
B(  5-C ,  6-C ) :   1.4145 B(  5-C , 71-H ) :   0.9970 B(  6-C ,  7-C ) :   1.4290
B(  6-C , 72-H ) :   0.9910 B(  7-C ,  8-C ) :   1.0377 B(  8-C ,  9-C ) :   1.6660
B(  8-C , 14-C ) :   1.0889 B(  9-C , 10-C ) :   1.0882 B(  9-C , 12-C ) :   1.0535
B( 10-C , 11-N ) :   2.9624 B( 12-C , 13-N ) :   2.9951 B( 14-C , 15-C ) :   1.6777
B( 15-C , 16-C ) :   1.1882 B( 15-C , 73-H ) :   0.9474 B( 16-C , 17-C ) :   1.4454
B( 16-C , 20-S ) :   1.0895 B( 17-C , 18-C ) :   1.4068 B( 17-C , 74-H ) :   0.9938
B( 18-C , 19-C ) :   1.5501 B( 18-C , 23-C ) :   0.9602 B( 19-C , 20-S ) :   1.1243
B( 19-C , 21-C ) :   1.1301 B( 21-C , 22-C ) :   1.4016 B( 21-C , 31-C ) :   1.3545
B( 22-C , 23-C ) :   0.9331 B( 22-C , 28-C ) :   1.4826 B( 23-C , 24-C ) :   0.9935
B( 23-C , 26-C ) :   0.9522 B( 24-C , 25-C ) :   1.0533 B( 24-C , 75-H ) :   0.9700
B( 24-C , 76-H ) :   0.9708 B( 25-C , 77-H ) :   0.9789 B( 25-C , 78-H ) :   0.9843
B( 25-C , 79-H ) :   0.9814 B( 26-C , 27-C ) :   1.0679 B( 26-C , 80-H ) :   0.9699
B( 26-C , 81-H ) :   0.9696 B( 27-C , 82-H ) :   0.9759 B( 27-C , 83-H ) :   0.9829
B( 27-C , 84-H ) :   0.9813 B( 28-C , 29-C ) :   1.3792 B( 28-C , 85-H ) :   1.0034
B( 29-C , 30-C ) :   1.4038 B( 29-C , 38-C ) :   1.0354 B( 30-C , 31-C ) :   1.4738
B( 30-C , 32-C ) :   0.9213 B( 31-C , 86-H ) :   1.0072 B( 32-C , 33-C ) :   1.0160
B( 32-C , 35-C ) :   0.9951 B( 32-C , 37-C ) :   0.9491 B( 33-C , 34-C ) :   1.0407
B( 33-C , 87-H ) :   0.9716 B( 33-C , 88-H ) :   0.9711 B( 34-C , 89-H ) :   0.9806
B( 34-C , 90-H ) :   0.9870 B( 34-C , 91-H ) :   0.9818 B( 35-C , 36-C ) :   1.0503
B( 35-C , 92-H ) :   0.9690 B( 35-C , 93-H ) :   0.9703 B( 36-C , 94-H ) :   0.9825
B( 36-C , 95-H ) :   0.9847 B( 36-C , 96-H ) :   0.9794 B( 37-C , 38-C ) :   1.4012
B( 37-C , 42-C ) :   1.4682 B( 38-C , 39-C ) :   1.3785 B( 39-C , 40-C ) :   1.4850
B( 39-C , 97-H ) :   1.0003 B( 40-C , 41-C ) :   1.3990 B( 40-C , 45-C ) :   0.9504
B( 41-C , 42-C ) :   1.3597 B( 41-C , 43-C ) :   1.1335 B( 42-C , 98-H ) :   1.0067
B( 43-C , 44-C ) :   1.5645 B( 43-C , 52-S ) :   1.1076 B( 44-C , 45-C ) :   0.9479
B( 44-C , 50-C ) :   1.3576 B( 45-C , 46-C ) :   0.9793 B( 45-C , 48-C ) :   0.9963
B( 46-C , 47-C ) :   1.0489 B( 46-C , 99-H ) :   0.9734 B( 46-C ,100-H ) :   0.9685
B( 47-C ,101-H ) :   0.9815 B( 47-C ,102-H ) :   0.9850 B( 47-C ,103-H ) :   0.9796
B( 48-C , 49-C ) :   1.0462 B( 48-C ,104-H ) :   0.9717 B( 48-C ,105-H ) :   0.9701
B( 49-C ,106-H ) :   0.9858 B( 49-C ,107-H ) :   0.9822 B( 49-C ,108-H ) :   0.9814
B( 50-C , 51-C ) :   1.4793 B( 50-C ,109-H ) :   1.0002 B( 51-C , 52-S ) :   1.0776
B( 51-C , 53-C ) :   1.1740 B( 53-C , 54-C ) :   1.7028 B( 53-C ,110-H ) :   0.9624
B( 54-C , 55-C ) :   1.0656 B( 54-C , 67-C ) :   0.9893 B( 55-C , 56-C ) :   1.7019
B( 55-C , 61-C ) :   1.0385 B( 56-C , 57-C ) :   1.0584 B( 56-C , 59-C ) :   1.0669
B( 57-C , 58-N ) :   2.9977 B( 59-C , 60-N ) :   3.0194 B( 61-C , 62-C ) :   1.4293
B( 61-C , 66-C ) :   1.3471 B( 62-C , 63-C ) :   1.4149 B( 62-C ,111-H ) :   0.9918
B( 63-C , 64-C ) :   1.4085 B( 63-C ,112-H ) :   0.9971 B( 64-C , 65-C ) :   1.3950
B( 64-C ,113-H ) :   1.0006 B( 65-C , 66-C ) :   1.4399 B( 65-C ,114-H ) :   1.0070
B( 66-C , 67-C ) :   0.9494 B( 67-C , 68-O ) :   2.0993

-----------------------------------------------------------------------------
         ABSORPTION SPECTRUM VIA TRANSITION ELECTRIC DIPOLE MOMENTS
-----------------------------------------------------------------------------
State   Energy    Wavelength  fosc         T2        TX        TY        TZ
        (cm-1)      (nm)                 (au**2)    (au)      (au)      (au)
-----------------------------------------------------------------------------
   1   22442.4    445.6   2.127001006  31.20135   3.24715   4.50462  -0.60482
   2   25342.5    394.6   0.192395052   2.49931   1.32963  -0.52254  -0.67700
   3   34457.5    290.2   0.764486058   7.30402  -2.14865  -1.52432  -0.60314

FINAL SINGLE POINT ENERGY     -3496.855585254382

DIPOLE MOMENT
-------------
                                X             Y             Z
Electronic contribution:     26.29028     -21.53256      14.80466
Nuclear contribution   :    -28.50590      23.76822     -12.96943
                        -----------------------------------------
Total Dipole Moment    :     -2.21562       2.23566       1.83522
                        -----------------------------------------
Magnitude (a.u.)       :      3.64351
Magnitude (Debye)      :      9.26108

Rotational constants in cm-1:     0.003035     0.000306     0.000293
Rotational constants in MHz :    90.975137     9.185461     8.795122

                             ****ORCA TERMINATED NORMALLY****
TOTAL RUN TIME: 0 days 19 hours 5 minutes 29 seconds 760 msec
