                         Program Version 4.2.0 -  RELEASE  -
|  1> # ORCA input file
|  2> # FDICTF.out: Geometry 32
|  3> ! Engrad Keepdens
|  4> %maxcore 1000
|  5> %tddft
|  6>   nroots 3
|  7>   # nroots is the number of states to be computed
|  8>   Iroot 1
|  9>   end
| 10> * xyz 0 1
| 11>    C        0.11292        -1.35880         0.97510
| 12>    O        0.66676        -1.74807         1.98245
| 13>    C        0.09486         0.02634         0.43875
| 14>    C        0.67159         1.16585         0.98525
| 15>    C        0.46650         2.38536         0.33084
| 16>    C       -0.30174         2.43556        -0.84065
| 17>    C       -0.86213         1.28146        -1.40256
| 18>    C       -0.65740         0.05803        -0.75454
| 19>    C       -1.06983        -1.32988        -1.09519
| 20>    C       -1.46891        -1.74451        -2.35758
| 21>    C       -1.53834        -3.11750        -2.73930
| 22>    N       -1.60343        -4.22873        -3.07537
| 23>    C       -1.76301        -0.82447        -3.41254
| 24>    N       -2.03664        -0.08402        -4.26595
| 25>    C       -0.76482        -2.16248         0.05678
| 26>    C       -1.20959        -3.37790         0.52969
| 27>    C       -2.32565        -4.17594         0.18121
| 28>    C       -3.42699        -3.89711        -0.64411
| 29>    C       -4.37907        -4.91588        -0.63337
| 30>    C       -4.04182        -5.97780         0.20535
| 31>    S       -2.52778        -5.74654         0.98241
| 32>    C       -5.08405        -6.97750         0.19572
| 33>    C       -6.09838        -6.51584        -0.70018
| 34>    C       -5.70111        -5.17322        -1.33861
| 35>    C       -6.64851        -3.98855        -0.99422
| 36>    C       -8.09644        -4.01248        -1.48048
| 37>    C       -5.37651        -5.31830        -2.85794
| 38>    C       -6.44452        -5.88856        -3.78948
| 39>    C       -7.23010        -7.29839        -0.90674
| 40>    C       -7.34561        -8.51328        -0.20939
| 41>    C       -6.34900        -8.94743         0.70120
| 42>    C       -5.20037        -8.18900         0.89477
| 43>    C       -6.73039       -10.29129         1.31775
| 44>    C       -5.65655       -11.37507         1.05370
| 45>    C       -5.36555       -11.64065        -0.42203
| 46>    C       -7.05234       -10.17427         2.83597
| 47>    C       -5.88962        -9.85476         3.76962
| 48>    C       -8.03436       -10.59525         0.58886
| 49>    C       -8.38457        -9.53887        -0.28543
| 50>    C       -9.54638        -9.59699        -1.07418
| 51>    C      -10.34546       -10.73139        -0.98751
| 52>    C      -10.00611       -11.77066        -0.07148
| 53>    C       -8.84797       -11.71291         0.71744
| 54>    C      -11.04641       -12.76670        -0.16731
| 55>    C      -12.00555       -12.39887        -1.11453
| 56>    C      -11.63545       -11.06707        -1.75216
| 57>    C      -11.35582       -11.31474        -3.26291
| 58>    C      -10.92192       -10.10450        -4.08487
| 59>    C      -12.69508        -9.96412        -1.49772
| 60>    C      -14.08423       -10.22356        -2.07702
| 61>    C      -13.00733       -13.36492        -1.25805
| 62>    C      -12.82229       -14.48027        -0.41799
| 63>    S      -11.36798       -14.28337         0.56717
| 64>    C      -13.77208       -15.52588        -0.28958
| 65>    C      -13.84466       -16.69625         0.42938
| 66>    C      -12.89737       -17.52414         1.16066
| 67>    C      -11.55816       -17.70788         0.86074
| 68>    C      -10.70305       -18.54625         1.64122
| 69>    N       -9.99779       -19.20981         2.28394
| 70>    C      -10.96493       -17.19164        -0.33110
| 71>    N      -10.47521       -16.81778        -1.31648
| 72>    C      -13.67907       -18.35236         2.11699
| 73>    C      -13.29053       -19.22058         3.14497
| 74>    C      -14.28534       -19.91886         3.84157
| 75>    C      -15.64348       -19.77486         3.52369
| 76>    C      -16.03779       -18.91174         2.49555
| 77>    C      -15.05077       -18.21214         1.81364
| 78>    C      -15.21949       -17.23692         0.70564
| 79>    O      -16.25758       -16.90713         0.16959
| 80>    H        1.25587         1.09028         1.90428
| 81>    H        0.90126         3.30180         0.73596
| 82>    H       -0.47081         3.39497        -1.33497
| 83>    H       -1.44366         1.35562        -2.31848
| 84>    H       -0.64176        -3.70717         1.41023
| 85>    H       -3.53108        -2.96100        -1.18689
| 86>    H       -6.15875        -3.07731        -1.37982
| 87>    H       -6.64613        -3.88920         0.10380
| 88>    H       -8.17879        -3.92478        -2.57268
| 89>    H       -8.64592        -3.16448        -1.04351
| 90>    H       -8.62080        -4.92707        -1.16835
| 91>    H       -4.47624        -5.94792        -2.93722
| 92>    H       -5.06378        -4.32306        -3.21615
| 93>    H       -6.71843        -6.91848        -3.51687
| 94>    H       -6.04520        -5.91991        -4.81560
| 95>    H       -7.36476        -5.29154        -3.81366
| 96>    H       -8.00999        -6.99197        -1.60291
| 97>    H       -4.39958        -8.51866         1.55871
| 98>    H       -5.98416       -12.30593         1.54899
| 99>    H       -4.72668       -11.07265         1.56168
|100>    H       -6.26182       -11.99683        -0.95212
|101>    H       -4.58370       -12.40670        -0.53918
|102>    H       -5.01591       -10.72837        -0.92978
|103>    H       -7.50965       -11.12927         3.14606
|104>    H       -7.83870        -9.41077         2.95508
|105>    H       -5.08062       -10.59692         3.69799
|106>    H       -6.24411        -9.85221         4.81263
|107>    H       -5.45767        -8.86271         3.56816
|108>    H       -9.80545        -8.77001        -1.73678
|109>    H       -8.59814       -12.52730         1.40145
|110>    H      -12.26546       -11.75134        -3.70627
|111>    H      -10.58713       -12.10165        -3.33328
|112>    H      -11.65742        -9.28608        -4.04736
|113>    H      -10.80063       -10.39464        -5.14017
|114>    H       -9.95513        -9.70450        -3.74594
|115>    H      -12.29932        -9.01572        -1.89499
|116>    H      -12.77473        -9.82257        -0.40765
|117>    H      -14.74886        -9.36940        -1.87305
|118>    H      -14.55115       -11.10935        -1.62152
|119>    H      -14.06272       -10.37303        -3.16824
|120>    H      -13.85969       -13.30254        -1.93525
|121>    H      -14.72318       -15.29824        -0.78962
|122>    H      -12.24651       -19.35914         3.42001
|123>    H      -13.99025       -20.58921         4.65233
|124>    H      -16.39218       -20.33822         4.08436
|125>    H      -17.08474       -18.77550         2.21518
|126> *
|127>
|128>                          ****END OF INPUT****

CARTESIAN COORDINATES (ANGSTROEM)
---------------------------------
  C      0.112920   -1.358800    0.975100
  O      0.666760   -1.748070    1.982450
  C      0.094860    0.026340    0.438750
  C      0.671590    1.165850    0.985250
  C      0.466500    2.385360    0.330840
  C     -0.301740    2.435560   -0.840650
  C     -0.862130    1.281460   -1.402560
  C     -0.657400    0.058030   -0.754540
  C     -1.069830   -1.329880   -1.095190
  C     -1.468910   -1.744510   -2.357580
  C     -1.538340   -3.117500   -2.739300
  N     -1.603430   -4.228730   -3.075370
  C     -1.763010   -0.824470   -3.412540
  N     -2.036640   -0.084020   -4.265950
  C     -0.764820   -2.162480    0.056780
  C     -1.209590   -3.377900    0.529690
  C     -2.325650   -4.175940    0.181210
  C     -3.426990   -3.897110   -0.644110
  C     -4.379070   -4.915880   -0.633370
  C     -4.041820   -5.977800    0.205350
  S     -2.527780   -5.746540    0.982410
  C     -5.084050   -6.977500    0.195720
  C     -6.098380   -6.515840   -0.700180
  C     -5.701110   -5.173220   -1.338610
  C     -6.648510   -3.988550   -0.994220
  C     -8.096440   -4.012480   -1.480480
  C     -5.376510   -5.318300   -2.857940
  C     -6.444520   -5.888560   -3.789480
  C     -7.230100   -7.298390   -0.906740
  C     -7.345610   -8.513280   -0.209390
  C     -6.349000   -8.947430    0.701200
  C     -5.200370   -8.189000    0.894770
  C     -6.730390  -10.291290    1.317750
  C     -5.656550  -11.375070    1.053700
  C     -5.365550  -11.640650   -0.422030
  C     -7.052340  -10.174270    2.835970
  C     -5.889620   -9.854760    3.769620
  C     -8.034360  -10.595250    0.588860
  C     -8.384570   -9.538870   -0.285430
  C     -9.546380   -9.596990   -1.074180
  C    -10.345460  -10.731390   -0.987510
  C    -10.006110  -11.770660   -0.071480
  C     -8.847970  -11.712910    0.717440
  C    -11.046410  -12.766700   -0.167310
  C    -12.005550  -12.398870   -1.114530
  C    -11.635450  -11.067070   -1.752160
  C    -11.355820  -11.314740   -3.262910
  C    -10.921920  -10.104500   -4.084870
  C    -12.695080   -9.964120   -1.497720
  C    -14.084230  -10.223560   -2.077020
  C    -13.007330  -13.364920   -1.258050
  C    -12.822290  -14.480270   -0.417990
  S    -11.367980  -14.283370    0.567170
  C    -13.772080  -15.525880   -0.289580
  C    -13.844660  -16.696250    0.429380
  C    -12.897370  -17.524140    1.160660
  C    -11.558160  -17.707880    0.860740
  C    -10.703050  -18.546250    1.641220
  N     -9.997790  -19.209810    2.283940
  C    -10.964930  -17.191640   -0.331100
  N    -10.475210  -16.817780   -1.316480
  C    -13.679070  -18.352360    2.116990
  C    -13.290530  -19.220580    3.144970
  C    -14.285340  -19.918860    3.841570
  C    -15.643480  -19.774860    3.523690
  C    -16.037790  -18.911740    2.495550
  C    -15.050770  -18.212140    1.813640
  C    -15.219490  -17.236920    0.705640
  O    -16.257580  -16.907130    0.169590
  H      1.255870    1.090280    1.904280
  H      0.901260    3.301800    0.735960
  H     -0.470810    3.394970   -1.334970
  H     -1.443660    1.355620   -2.318480
  H     -0.641760   -3.707170    1.410230
  H     -3.531080   -2.961000   -1.186890
  H     -6.158750   -3.077310   -1.379820
  H     -6.646130   -3.889200    0.103800
  H     -8.178790   -3.924780   -2.572680
  H     -8.645920   -3.164480   -1.043510
  H     -8.620800   -4.927070   -1.168350
  H     -4.476240   -5.947920   -2.937220
  H     -5.063780   -4.323060   -3.216150
  H     -6.718430   -6.918480   -3.516870
  H     -6.045200   -5.919910   -4.815600
  H     -7.364760   -5.291540   -3.813660
  H     -8.009990   -6.991970   -1.602910
  H     -4.399580   -8.518660    1.558710
  H     -5.984160  -12.305930    1.548990
  H     -4.726680  -11.072650    1.561680
  H     -6.261820  -11.996830   -0.952120
  H     -4.583700  -12.406700   -0.539180
  H     -5.015910  -10.728370   -0.929780
  H     -7.509650  -11.129270    3.146060
  H     -7.838700   -9.410770    2.955080
  H     -5.080620  -10.596920    3.697990
  H     -6.244110   -9.852210    4.812630
  H     -5.457670   -8.862710    3.568160
  H     -9.805450   -8.770010   -1.736780
  H     -8.598140  -12.527300    1.401450
  H    -12.265460  -11.751340   -3.706270
  H    -10.587130  -12.101650   -3.333280
  H    -11.657420   -9.286080   -4.047360
  H    -10.800630  -10.394640   -5.140170
  H     -9.955130   -9.704500   -3.745940
  H    -12.299320   -9.015720   -1.894990
  H    -12.774730   -9.822570   -0.407650
  H    -14.748860   -9.369400   -1.873050
  H    -14.551150  -11.109350   -1.621520
  H    -14.062720  -10.373030   -3.168240
  H    -13.859690  -13.302540   -1.935250
  H    -14.723180  -15.298240   -0.789620
  H    -12.246510  -19.359140    3.420010
  H    -13.990250  -20.589210    4.652330
  H    -16.392180  -20.338220    4.084360
  H    -17.084740  -18.775500    2.215180

 Total Charge           Charge          ....    0
 Multiplicity           Mult            ....    1
 Number of Electrons    NEL             ....  488
 Basis Dimension        Dim             .... 1204

ORBITAL ENERGIES
----------------

  NO   OCC          E(Eh)            E(eV)
   0   2.0000     -91.978552     -2502.8636
   1   2.0000     -91.977959     -2502.8475
   2   2.0000     -20.555507      -559.3438
   3   2.0000     -20.554264      -559.3100
   4   2.0000     -15.589525      -424.2125
   5   2.0000     -15.589212      -424.2040
   6   2.0000     -15.586298      -424.1247
   7   2.0000     -15.582048      -424.0091
   8   2.0000     -11.354631      -308.9752
   9   2.0000     -11.353704      -308.9500
  10   2.0000     -11.341270      -308.6116
  11   2.0000     -11.337538      -308.5101
  12   2.0000     -11.320806      -308.0548
  13   2.0000     -11.318209      -307.9841
  14   2.0000     -11.316265      -307.9312
  15   2.0000     -11.314835      -307.8923
  16   2.0000     -11.302634      -307.5603
  17   2.0000     -11.302422      -307.5545
  18   2.0000     -11.301344      -307.5252
  19   2.0000     -11.299202      -307.4669
  20   2.0000     -11.298834      -307.4569
  21   2.0000     -11.296003      -307.3799
  22   2.0000     -11.294330      -307.3343
  23   2.0000     -11.292975      -307.2975
  24   2.0000     -11.290056      -307.2180
  25   2.0000     -11.289229      -307.1955
  26   2.0000     -11.287927      -307.1601
  27   2.0000     -11.287909      -307.1596
  28   2.0000     -11.276777      -306.8567
  29   2.0000     -11.276403      -306.8465
  30   2.0000     -11.275488      -306.8216
  31   2.0000     -11.275270      -306.8157
  32   2.0000     -11.274859      -306.8045
  33   2.0000     -11.274856      -306.8044
  34   2.0000     -11.274442      -306.7932
  35   2.0000     -11.274146      -306.7851
  36   2.0000     -11.273997      -306.7811
  37   2.0000     -11.273344      -306.7633
  38   2.0000     -11.273274      -306.7614
  39   2.0000     -11.273054      -306.7554
  40   2.0000     -11.271055      -306.7010
  41   2.0000     -11.269526      -306.6594
  42   2.0000     -11.269481      -306.6582
  43   2.0000     -11.269339      -306.6543
  44   2.0000     -11.268317      -306.6265
  45   2.0000     -11.268286      -306.6256
  46   2.0000     -11.267208      -306.5963
  47   2.0000     -11.266965      -306.5897
  48   2.0000     -11.266902      -306.5880
  49   2.0000     -11.266232      -306.5698
  50   2.0000     -11.264914      -306.5339
  51   2.0000     -11.264212      -306.5148
  52   2.0000     -11.263845      -306.5048
  53   2.0000     -11.260865      -306.4237
  54   2.0000     -11.260123      -306.4035
  55   2.0000     -11.259027      -306.3737
  56   2.0000     -11.258374      -306.3559
  57   2.0000     -11.250363      -306.1379
  58   2.0000     -11.250300      -306.1362
  59   2.0000     -11.248470      -306.0864
  60   2.0000     -11.246206      -306.0248
  61   2.0000     -11.244207      -305.9704
  62   2.0000     -11.243136      -305.9413
  63   2.0000     -11.241273      -305.8906
  64   2.0000     -11.238381      -305.8119
  65   2.0000     -11.237869      -305.7980
  66   2.0000     -11.235180      -305.7248
  67   2.0000     -11.231663      -305.6291
  68   2.0000     -11.226646      -305.4926
  69   2.0000      -9.013369      -245.2662
  70   2.0000      -9.012809      -245.2510
  71   2.0000      -6.700827      -182.3388
  72   2.0000      -6.700242      -182.3228
  73   2.0000      -6.699846      -182.3121
  74   2.0000      -6.699253      -182.2959
  75   2.0000      -6.698027      -182.2626
  76   2.0000      -6.697444      -182.2467
  77   2.0000      -1.385017       -37.6882
  78   2.0000      -1.383689       -37.6521
  79   2.0000      -1.236309       -33.6417
  80   2.0000      -1.232499       -33.5380
  81   2.0000      -1.228011       -33.4159
  82   2.0000      -1.224422       -33.3182
  83   2.0000      -1.214341       -33.0439
  84   2.0000      -1.209499       -32.9121
  85   2.0000      -1.208123       -32.8747
  86   2.0000      -1.205170       -32.7943
  87   2.0000      -1.200429       -32.6653
  88   2.0000      -1.165696       -31.7202
  89   2.0000      -1.154181       -31.4069
  90   2.0000      -1.144270       -31.1372
  91   2.0000      -1.139542       -31.0085
  92   2.0000      -1.113770       -30.3072
  93   2.0000      -1.098623       -29.8950
  94   2.0000      -1.092186       -29.7199
  95   2.0000      -1.089993       -29.6602
  96   2.0000      -1.081223       -29.4216
  97   2.0000      -1.072905       -29.1952
  98   2.0000      -1.061070       -28.8732
  99   2.0000      -1.041961       -28.3532
 100   2.0000      -1.039925       -28.2978
 101   2.0000      -1.037791       -28.2397
 102   2.0000      -1.026647       -27.9365
 103   2.0000      -1.024069       -27.8663
 104   2.0000      -1.020989       -27.7825
 105   2.0000      -1.018497       -27.7147
 106   2.0000      -1.017305       -27.6823
 107   2.0000      -1.014711       -27.6117
 108   2.0000      -1.012855       -27.5612
 109   2.0000      -1.002909       -27.2905
 110   2.0000      -0.973918       -26.5017
 111   2.0000      -0.960137       -26.1267
 112   2.0000      -0.939846       -25.5745
 113   2.0000      -0.935378       -25.4529
 114   2.0000      -0.923050       -25.1175
 115   2.0000      -0.918405       -24.9911
 116   2.0000      -0.915967       -24.9247
 117   2.0000      -0.906586       -24.6695
 118   2.0000      -0.882444       -24.0125
 119   2.0000      -0.860099       -23.4045
 120   2.0000      -0.856404       -23.3039
 121   2.0000      -0.852160       -23.1885
 122   2.0000      -0.846652       -23.0386
 123   2.0000      -0.842627       -22.9291
 124   2.0000      -0.841425       -22.8963
 125   2.0000      -0.837212       -22.7817
 126   2.0000      -0.825326       -22.4583
 127   2.0000      -0.822029       -22.3685
 128   2.0000      -0.806155       -21.9366
 129   2.0000      -0.805522       -21.9194
 130   2.0000      -0.800427       -21.7807
 131   2.0000      -0.790035       -21.4979
 132   2.0000      -0.777534       -21.1578
 133   2.0000      -0.773068       -21.0363
 134   2.0000      -0.767736       -20.8912
 135   2.0000      -0.760762       -20.7014
 136   2.0000      -0.751301       -20.4439
 137   2.0000      -0.746182       -20.3046
 138   2.0000      -0.740071       -20.1384
 139   2.0000      -0.732156       -19.9230
 140   2.0000      -0.723547       -19.6887
 141   2.0000      -0.720253       -19.5991
 142   2.0000      -0.705733       -19.2040
 143   2.0000      -0.701013       -19.0755
 144   2.0000      -0.690518       -18.7900
 145   2.0000      -0.688786       -18.7428
 146   2.0000      -0.683551       -18.6004
 147   2.0000      -0.673935       -18.3387
 148   2.0000      -0.669850       -18.2275
 149   2.0000      -0.661924       -18.0119
 150   2.0000      -0.659290       -17.9402
 151   2.0000      -0.655290       -17.8314
 152   2.0000      -0.649487       -17.6734
 153   2.0000      -0.644007       -17.5243
 154   2.0000      -0.640303       -17.4235
 155   2.0000      -0.639538       -17.4027
 156   2.0000      -0.636261       -17.3135
 157   2.0000      -0.634211       -17.2578
 158   2.0000      -0.631977       -17.1970
 159   2.0000      -0.631173       -17.1751
 160   2.0000      -0.629883       -17.1400
 161   2.0000      -0.629059       -17.1176
 162   2.0000      -0.624565       -16.9953
 163   2.0000      -0.622085       -16.9278
 164   2.0000      -0.620009       -16.8713
 165   2.0000      -0.616830       -16.7848
 166   2.0000      -0.612223       -16.6594
 167   2.0000      -0.606584       -16.5060
 168   2.0000      -0.604408       -16.4468
 169   2.0000      -0.601739       -16.3742
 170   2.0000      -0.599896       -16.3240
 171   2.0000      -0.594642       -16.1810
 172   2.0000      -0.591986       -16.1088
 173   2.0000      -0.585375       -15.9289
 174   2.0000      -0.581757       -15.8304
 175   2.0000      -0.581540       -15.8245
 176   2.0000      -0.580310       -15.7910
 177   2.0000      -0.576562       -15.6891
 178   2.0000      -0.574187       -15.6244
 179   2.0000      -0.572705       -15.5841
 180   2.0000      -0.570026       -15.5112
 181   2.0000      -0.569123       -15.4866
 182   2.0000      -0.568054       -15.4575
 183   2.0000      -0.565625       -15.3914
 184   2.0000      -0.564360       -15.3570
 185   2.0000      -0.561757       -15.2862
 186   2.0000      -0.559203       -15.2167
 187   2.0000      -0.556764       -15.1503
 188   2.0000      -0.553647       -15.0655
 189   2.0000      -0.548051       -14.9132
 190   2.0000      -0.547340       -14.8939
 191   2.0000      -0.544192       -14.8082
 192   2.0000      -0.539474       -14.6798
 193   2.0000      -0.538090       -14.6422
 194   2.0000      -0.536911       -14.6101
 195   2.0000      -0.535437       -14.5700
 196   2.0000      -0.534152       -14.5350
 197   2.0000      -0.533410       -14.5148
 198   2.0000      -0.532913       -14.5013
 199   2.0000      -0.530966       -14.4483
 200   2.0000      -0.525964       -14.3122
 201   2.0000      -0.521690       -14.1959
 202   2.0000      -0.520821       -14.1723
 203   2.0000      -0.519392       -14.1334
 204   2.0000      -0.516541       -14.0558
 205   2.0000      -0.514447       -13.9988
 206   2.0000      -0.513181       -13.9644
 207   2.0000      -0.508155       -13.8276
 208   2.0000      -0.503191       -13.6925
 209   2.0000      -0.500146       -13.6097
 210   2.0000      -0.498338       -13.5605
 211   2.0000      -0.490228       -13.3398
 212   2.0000      -0.488718       -13.2987
 213   2.0000      -0.487189       -13.2571
 214   2.0000      -0.484876       -13.1941
 215   2.0000      -0.484203       -13.1758
 216   2.0000      -0.481581       -13.1045
 217   2.0000      -0.477981       -13.0065
 218   2.0000      -0.474120       -12.9015
 219   2.0000      -0.472646       -12.8613
 220   2.0000      -0.469935       -12.7876
 221   2.0000      -0.469737       -12.7822
 222   2.0000      -0.467884       -12.7318
 223   2.0000      -0.463287       -12.6067
 224   2.0000      -0.461613       -12.5611
 225   2.0000      -0.460860       -12.5406
 226   2.0000      -0.457593       -12.4517
 227   2.0000      -0.456880       -12.4323
 228   2.0000      -0.439254       -11.9527
 229   2.0000      -0.436630       -11.8813
 230   2.0000      -0.425319       -11.5735
 231   2.0000      -0.408345       -11.1116
 232   2.0000      -0.385413       -10.4876
 233   2.0000      -0.370070       -10.0701
 234   2.0000      -0.369206       -10.0466
 235   2.0000      -0.368795       -10.0354
 236   2.0000      -0.367070        -9.9885
 237   2.0000      -0.357525        -9.7288
 238   2.0000      -0.350252        -9.5308
 239   2.0000      -0.348690        -9.4883
 240   2.0000      -0.344282        -9.3684
 241   2.0000      -0.336556        -9.1582
 242   2.0000      -0.296565        -8.0699
 243   2.0000      -0.263331        -7.1656
 244   0.0000      -0.021592        -0.5876
 245   0.0000      -0.009440        -0.2569
 246   0.0000       0.023209         0.6316
 247   0.0000       0.030071         0.8183
 248   0.0000       0.059432         1.6172

MULLIKEN ATOMIC CHARGES
-----------------------
   0 C :    0.460763
   1 O :   -0.366033
   2 C :   -0.173856
   3 C :    0.014871
   4 C :   -0.018010
   5 C :   -0.016458
   6 C :   -0.023444
   7 C :   -0.057432
   8 C :    0.245677
   9 C :   -0.380725
  10 C :    0.041377
  11 N :   -0.069115
  12 C :    0.056886
  13 N :   -0.094307
  14 C :   -0.332728
  15 C :    0.204707
  16 C :   -0.242272
  17 C :    0.119334
  18 C :   -0.097159
  19 C :    0.013147
  20 S :    0.189196
  21 C :   -0.083853
  22 C :    0.018185
  23 C :   -0.305388
  24 C :    0.020295
  25 C :   -0.020775
  26 C :    0.030204
  27 C :   -0.027187
  28 C :   -0.029014
  29 C :   -0.002100
  30 C :   -0.005139
  31 C :   -0.004094
  32 C :   -0.325604
  33 C :    0.010007
  34 C :   -0.025710
  35 C :    0.034943
  36 C :   -0.026930
  37 C :   -0.030478
  38 C :    0.007710
  39 C :   -0.022993
  40 C :    0.010112
  41 C :   -0.084917
  42 C :    0.010215
  43 C :    0.010061
  44 C :   -0.046151
  45 C :   -0.309143
  46 C :    0.021621
  47 C :   -0.028079
  48 C :    0.022257
  49 C :   -0.031855
  50 C :    0.052790
  51 C :   -0.167570
  52 S :    0.203601
  53 C :    0.129528
  54 C :   -0.325333
  55 C :    0.245854
  56 C :   -0.340113
  57 C :    0.051428
  58 N :   -0.095510
  59 C :    0.037254
  60 N :   -0.070675
  61 C :   -0.054802
  62 C :   -0.021087
  63 C :   -0.017618
  64 C :   -0.018362
  65 C :    0.014698
  66 C :   -0.176640
  67 C :    0.462268
  68 O :   -0.369234
  69 H :    0.067552
  70 H :    0.062774
  71 H :    0.062682
  72 H :    0.082403
  73 H :    0.091560
  74 H :    0.074921
  75 H :    0.031825
  76 H :    0.042393
  77 H :    0.040236
  78 H :    0.040640
  79 H :    0.033428
  80 H :    0.060393
  81 H :    0.036106
  82 H :    0.041854
  83 H :    0.046791
  84 H :    0.022634
  85 H :    0.031152
  86 H :    0.036694
  87 H :    0.034800
  88 H :    0.041095
  89 H :    0.048048
  90 H :    0.041149
  91 H :    0.045249
  92 H :    0.032295
  93 H :    0.039723
  94 H :    0.034551
  95 H :    0.043076
  96 H :    0.038572
  97 H :    0.029101
  98 H :    0.037347
  99 H :    0.035964
 100 H :    0.051452
 101 H :    0.029793
 102 H :    0.046522
 103 H :    0.040286
 104 H :    0.036266
 105 H :    0.043480
 106 H :    0.045464
 107 H :    0.036288
 108 H :    0.035135
 109 H :    0.062788
 110 H :    0.089499
 111 H :    0.083102
 112 H :    0.062723
 113 H :    0.061972
 114 H :    0.067124
Sum of atomic charges:   -0.0000000

LOEWDIN ATOMIC CHARGES
----------------------
   0 C :    0.169824
   1 O :   -0.241090
   2 C :   -0.057396
   3 C :    0.019244
   4 C :   -0.001767
   5 C :    0.000194
   6 C :    0.003427
   7 C :   -0.023718
   8 C :    0.119179
   9 C :   -0.186611
  10 C :    0.012654
  11 N :   -0.093069
  12 C :    0.018596
  13 N :   -0.107124
  14 C :   -0.161141
  15 C :    0.108586
  16 C :   -0.211913
  17 C :    0.039945
  18 C :   -0.058679
  19 C :   -0.126149
  20 S :    0.424579
  21 C :   -0.042166
  22 C :    0.013023
  23 C :   -0.030256
  24 C :   -0.002507
  25 C :   -0.038831
  26 C :    0.001606
  27 C :   -0.040818
  28 C :   -0.020264
  29 C :   -0.011131
  30 C :   -0.000428
  31 C :   -0.011698
  32 C :   -0.033425
  33 C :   -0.004695
  34 C :   -0.037248
  35 C :    0.000950
  36 C :   -0.039663
  37 C :   -0.000117
  38 C :   -0.010826
  39 C :   -0.020951
  40 C :    0.014593
  41 C :   -0.043579
  42 C :   -0.007690
  43 C :   -0.119584
  44 C :   -0.069179
  45 C :   -0.029224
  46 C :   -0.001685
  47 C :   -0.039731
  48 C :   -0.003680
  49 C :   -0.038488
  50 C :    0.025622
  51 C :   -0.210163
  52 S :    0.449762
  53 C :    0.108097
  54 C :   -0.163467
  55 C :    0.115162
  56 C :   -0.177609
  57 C :    0.020259
  58 N :   -0.105591
  59 C :   -0.001093
  60 N :   -0.096988
  61 C :   -0.021932
  62 C :    0.003983
  63 C :    0.000507
  64 C :   -0.002626
  65 C :    0.018580
  66 C :   -0.058203
  67 C :    0.170846
  68 O :   -0.243697
  69 H :    0.044867
  70 H :    0.036323
  71 H :    0.037526
  72 H :    0.042175
  73 H :    0.055253
  74 H :    0.036681
  75 H :    0.015355
  76 H :    0.021573
  77 H :    0.016100
  78 H :    0.023302
  79 H :    0.015687
  80 H :    0.029262
  81 H :    0.017447
  82 H :    0.016854
  83 H :    0.025959
  84 H :    0.011644
  85 H :    0.024959
  86 H :    0.029263
  87 H :    0.015710
  88 H :    0.014357
  89 H :    0.020519
  90 H :    0.021422
  91 H :    0.020022
  92 H :    0.014569
  93 H :    0.021023
  94 H :    0.016327
  95 H :    0.023544
  96 H :    0.016750
  97 H :    0.025423
  98 H :    0.030744
  99 H :    0.014184
 100 H :    0.026230
 101 H :    0.014191
 102 H :    0.025039
 103 H :    0.017580
 104 H :    0.013136
 105 H :    0.022483
 106 H :    0.024512
 107 H :    0.016675
 108 H :    0.016403
 109 H :    0.037841
 110 H :    0.058851
 111 H :    0.042788
 112 H :    0.037541
 113 H :    0.035913
 114 H :    0.044663

  Mayer bond orders larger than 0.100000
B(  0-C ,  1-O ) :   2.0716 B(  0-C ,  2-C ) :   0.9502 B(  0-C , 14-C ) :   1.0039
B(  2-C ,  3-C ) :   1.4409 B(  2-C ,  7-C ) :   1.3562 B(  3-C ,  4-C ) :   1.3952
B(  3-C , 69-H ) :   1.0011 B(  4-C ,  5-C ) :   1.4070 B(  4-C , 70-H ) :   0.9967
B(  5-C ,  6-C ) :   1.4227 B(  5-C , 71-H ) :   0.9936 B(  6-C ,  7-C ) :   1.4225
B(  6-C , 72-H ) :   0.9872 B(  7-C ,  8-C ) :   1.0364 B(  8-C ,  9-C ) :   1.6587
B(  8-C , 14-C ) :   1.0924 B(  9-C , 10-C ) :   1.0837 B(  9-C , 12-C ) :   1.0410
B( 10-C , 11-N ) :   2.9888 B( 12-C , 13-N ) :   2.9879 B( 14-C , 15-C ) :   1.6776
B( 15-C , 16-C ) :   1.2029 B( 15-C , 73-H ) :   0.9427 B( 16-C , 17-C ) :   1.4400
B( 16-C , 20-S ) :   1.0892 B( 17-C , 18-C ) :   1.4061 B( 17-C , 74-H ) :   0.9845
B( 18-C , 19-C ) :   1.5451 B( 18-C , 23-C ) :   0.9608 B( 19-C , 20-S ) :   1.1288
B( 19-C , 21-C ) :   1.1258 B( 21-C , 22-C ) :   1.3968 B( 21-C , 31-C ) :   1.3635
B( 22-C , 23-C ) :   0.9322 B( 22-C , 28-C ) :   1.4888 B( 23-C , 24-C ) :   0.9858
B( 23-C , 26-C ) :   0.9665 B( 24-C , 25-C ) :   1.0506 B( 24-C , 75-H ) :   0.9691
B( 24-C , 76-H ) :   0.9724 B( 25-C , 77-H ) :   0.9813 B( 25-C , 78-H ) :   0.9833
B( 25-C , 79-H ) :   0.9816 B( 26-C , 27-C ) :   1.0517 B( 26-C , 80-H ) :   0.9707
B( 26-C , 81-H ) :   0.9694 B( 27-C , 82-H ) :   0.9783 B( 27-C , 83-H ) :   0.9832
B( 27-C , 84-H ) :   0.9828 B( 28-C , 29-C ) :   1.3792 B( 28-C , 85-H ) :   0.9953
B( 29-C , 30-C ) :   1.4077 B( 29-C , 38-C ) :   1.0372 B( 30-C , 31-C ) :   1.4728
B( 30-C , 32-C ) :   0.9242 B( 31-C , 86-H ) :   1.0001 B( 32-C , 33-C ) :   1.0040
B( 32-C , 35-C ) :   0.9956 B( 32-C , 37-C ) :   0.9501 B( 33-C , 34-C ) :   1.0379
B( 33-C , 87-H ) :   0.9721 B( 33-C , 88-H ) :   0.9710 B( 34-C , 89-H ) :   0.9808
B( 34-C , 90-H ) :   0.9870 B( 34-C , 91-H ) :   0.9817 B( 35-C , 36-C ) :   1.0449
B( 35-C , 92-H ) :   0.9696 B( 35-C , 93-H ) :   0.9711 B( 36-C , 94-H ) :   0.9824
B( 36-C , 95-H ) :   0.9849 B( 36-C , 96-H ) :   0.9804 B( 37-C , 38-C ) :   1.4073
B( 37-C , 42-C ) :   1.4674 B( 38-C , 39-C ) :   1.3778 B( 39-C , 40-C ) :   1.4877
B( 39-C , 97-H ) :   0.9958 B( 40-C , 41-C ) :   1.3957 B( 40-C , 45-C ) :   0.9516
B( 41-C , 42-C ) :   1.3672 B( 41-C , 43-C ) :   1.1280 B( 42-C , 98-H ) :   0.9994
B( 43-C , 44-C ) :   1.5372 B( 43-C , 52-S ) :   1.1452 B( 44-C , 45-C ) :   0.9440
B( 44-C , 50-C ) :   1.3757 B( 45-C , 46-C ) :   0.9777 B( 45-C , 48-C ) :   0.9947
B( 46-C , 47-C ) :   1.0442 B( 46-C , 99-H ) :   0.9736 B( 46-C ,100-H ) :   0.9697
B( 47-C ,101-H ) :   0.9820 B( 47-C ,102-H ) :   0.9850 B( 47-C ,103-H ) :   0.9800
B( 48-C , 49-C ) :   1.0422 B( 48-C ,104-H ) :   0.9719 B( 48-C ,105-H ) :   0.9702
B( 49-C ,106-H ) :   0.9858 B( 49-C ,107-H ) :   0.9815 B( 49-C ,108-H ) :   0.9823
B( 50-C , 51-C ) :   1.4566 B( 50-C ,109-H ) :   0.9982 B( 51-C , 52-S ) :   1.0600
B( 51-C , 53-C ) :   1.2310 B( 53-C , 54-C ) :   1.6810 B( 53-C ,110-H ) :   0.9514
B( 54-C , 55-C ) :   1.0728 B( 54-C , 67-C ) :   1.0031 B( 55-C , 56-C ) :   1.6847
B( 55-C , 61-C ) :   1.0364 B( 56-C , 57-C ) :   1.0442 B( 56-C , 59-C ) :   1.0686
B( 57-C , 58-N ) :   2.9880 B( 59-C , 60-N ) :   3.0104 B( 61-C , 62-C ) :   1.4219
B( 61-C , 66-C ) :   1.3545 B( 62-C , 63-C ) :   1.4238 B( 62-C ,111-H ) :   0.9869
B( 63-C , 64-C ) :   1.4064 B( 63-C ,112-H ) :   0.9936 B( 64-C , 65-C ) :   1.3961
B( 64-C ,113-H ) :   0.9968 B( 65-C , 66-C ) :   1.4403 B( 65-C ,114-H ) :   1.0007
B( 66-C , 67-C ) :   0.9541 B( 67-C , 68-O ) :   2.0652

-----------------------------------------------------------------------------
         ABSORPTION SPECTRUM VIA TRANSITION ELECTRIC DIPOLE MOMENTS
-----------------------------------------------------------------------------
State   Energy    Wavelength  fosc         T2        TX        TY        TZ
        (cm-1)      (nm)                 (au**2)    (au)      (au)      (au)
-----------------------------------------------------------------------------
   1   22863.4    437.4   2.623924287  37.78203  -3.46875  -5.00393   0.84292
   2   26043.7    384.0   0.055118619   0.69674   0.54795  -0.62569  -0.07075
   3   34781.5    287.5   0.570766466   5.40238   2.02634   0.77371   0.83528

FINAL SINGLE POINT ENERGY     -3496.855581340957

DIPOLE MOMENT
-------------
                                X             Y             Z
Electronic contribution:     23.93536     -19.18025      18.58190
Nuclear contribution   :    -26.46711      21.08640     -16.85337
                        -----------------------------------------
Total Dipole Moment    :     -2.53174       1.90615       1.72854
                        -----------------------------------------
Magnitude (a.u.)       :      3.60984
Magnitude (Debye)      :      9.17549

Rotational constants in cm-1:     0.003091     0.000286     0.000272
Rotational constants in MHz :    92.668831     8.577575     8.161675

                             ****ORCA TERMINATED NORMALLY****
TOTAL RUN TIME: 0 days 16 hours 43 minutes 32 seconds 195 msec
