                         Program Version 4.2.0 -  RELEASE  -
|  1> # ORCA input file
|  2> # FO-2F.out
|  3> ! Engrad Keepdens
|  4> %maxcore 1000
|  5> %tddft
|  6>   nroots 3
|  7>   # nroots is the number of states to be computed
|  8>   Iroot 1
|  9>   end
| 10> * xyz 0 1
| 11>    C        4.49030        -3.25906         2.00713
| 12>    O        5.64130        -3.42251         2.35873
| 13>    C        3.33413        -4.03274         2.51163
| 14>    C        3.34172        -5.07238         3.42027
| 15>    C        2.12625        -5.65582         3.73784
| 16>    F        2.08396        -6.66864         4.61238
| 17>    C        0.94535        -5.19808         3.15249
| 18>    F       -0.21473        -5.78220         3.47383
| 19>    C        0.93955        -4.15178         2.24212
| 20>    C        2.15254        -3.56241         1.91944
| 21>    C        2.48934        -2.46203         1.01559
| 22>    C        1.56867        -1.71606         0.32653
| 23>    C        1.83448        -0.61558        -0.51694
| 24>    N        1.94061         0.29370        -1.21115
| 25>    C        0.17476        -1.93462         0.38247
| 26>    N       -0.96670        -2.05283         0.37673
| 27>    C        3.93406        -2.30348         1.03012
| 28>    C        4.60340        -1.43085         0.20571
| 29>    C        5.96640        -1.13145         0.06766
| 30>    C        7.10737        -1.55620         0.73915
| 31>    C        8.27510        -0.98830         0.25250
| 32>    C        8.05610        -0.10279        -0.79535
| 33>    S        6.38981         0.02075        -1.19446
| 34>    C        9.13276         0.56786        -1.44748
| 35>    C       10.43249         0.14484        -1.08748
| 36>    O       10.66596        -0.81146        -0.16949
| 37>    C        9.66564        -1.16405         0.79888
| 38>    C        9.95277        -2.62494         1.17512
| 39>    C        9.68143        -3.58405         0.02167
| 40>    C        9.80011        -0.21111         2.01275
| 41>    C       11.17710        -0.23930         2.66372
| 42>    C       11.53368         0.66894        -1.75616
| 43>    C       11.33159         1.63528        -2.72516
| 44>    C       10.04015         2.10942        -3.03857
| 45>    C        8.94704         1.55419        -2.42444
| 46>    C       10.10753         3.18915        -4.09322
| 47>    C        9.24364         2.86237        -5.32081
| 48>    C        9.65135         1.55409        -5.98846
| 49>    C        9.76367         4.58089        -3.50959
| 50>    C        8.36065         4.73008        -2.93689
| 51>    C       11.58499         3.19271        -4.41917
| 52>    C       12.28577         2.29885        -3.58589
| 53>    C       13.65589         2.13567        -3.69282
| 54>    C       14.34768         2.87394        -4.64640
| 55>    C       13.65123         3.79822        -5.45820
| 56>    C       12.26449         3.94685        -5.34038
| 57>    C       14.45392         4.56617        -6.35207
| 58>    C       15.80124         4.30647        -6.53776
| 59>    C       16.42343         3.11025        -5.87022
| 60>    C       17.84342         3.40705        -5.36568
| 61>    C       17.89045         4.63208        -4.45920
| 62>    C       16.39449         1.95005        -6.89536
| 63>    C       16.96159         0.64336        -6.35475
| 64>    O       15.68354         2.71023        -4.70588
| 65>    C       16.40033         5.19472        -7.42323
| 66>    C       15.52166         6.13259        -7.94873
| 67>    S       13.92073         5.91912        -7.27476
| 68>    C       15.87209         7.18740        -8.81290
| 69>    C       15.07388         8.02693        -9.53597
| 70>    C       13.68513         7.94925        -9.92579
| 71>    C       12.98788         6.80407       -10.21005
| 72>    C       11.65036         6.78613       -10.65246
| 73>    N       10.55427         6.72077       -10.98651
| 74>    C       13.57455         5.52138       -10.17921
| 75>    N       14.03808         4.47196       -10.21900
| 76>    C       13.25697         9.30511       -10.26944
| 77>    C       12.00270         9.82085       -10.55037
| 78>    C       11.91522        11.16241       -10.89163
| 79>    F       10.71344        11.68829       -11.15298
| 80>    C       13.04777        11.97444       -10.96467
| 81>    F       12.91645        13.26187       -11.30632
| 82>    C       14.30550        11.46416       -10.68435
| 83>    C       14.39303        10.13163       -10.33306
| 84>    C       15.59579         9.34951        -9.95863
| 85>    O       16.74599         9.72117        -9.94657
| 86>    H        4.25854        -5.42131         3.86809
| 87>    H       -0.00098        -3.83960         1.81935
| 88>    H        3.98153        -0.87316        -0.48410
| 89>    H        7.05938        -2.25758         1.55060
| 90>    H        9.34570        -2.89397         2.03918
| 91>    H       11.00464        -2.69328         1.45125
| 92>    H        8.62508        -3.59805        -0.23647
| 93>    H        9.97816        -4.59149         0.30099
| 94>    H       10.25118        -3.28657        -0.85575
| 95>    H        9.03122        -0.47432         2.74080
| 96>    H        9.59341         0.80298         1.65726
| 97>    H       11.34951        -1.18169         3.17569
| 98>    H       11.25448         0.56368         3.39274
| 99>    H       11.95090        -0.10093         1.91259
|100>    H       12.51892         0.30779        -1.50950
|101>    H        7.93693         1.83809        -2.67840
|102>    H        9.33032         3.67957        -6.03950
|103>    H        8.19982         2.79347        -5.01348
|104>    H       10.68087         1.60181        -6.33622
|105>    H        9.00955         1.35648        -6.84343
|106>    H        9.56298         0.72322        -5.29168
|107>    H        9.90500         5.31588        -4.30478
|108>    H       10.48969         4.80257        -2.72264
|109>    H        7.60142         4.50671        -3.68115
|110>    H        8.21562         5.75658        -2.60729
|111>    H        8.21862         4.07826        -2.07931
|112>    H       14.19899         1.44996        -3.06294
|113>    H       11.76255         4.65076        -5.98807
|114>    H       18.50425         3.54078        -6.22217
|115>    H       18.17980         2.53827        -4.80082
|116>    H       17.61332         5.53433        -4.99997
|117>    H       18.89404         4.76328        -4.06314
|118>    H       17.20414         4.50415        -3.62551
|119>    H       16.94226         2.26283        -7.78553
|120>    H       15.35098         1.79653        -7.18465
|121>    H       18.03890         0.70418        -6.22763
|122>    H       16.74586        -0.16448        -7.04932
|123>    H       16.50801         0.40537        -5.39580
|124>    H       17.43433         5.16136        -7.71541
|125>    H       16.93053         7.43029        -8.83917
|126>    H       11.10198         9.23044       -10.50418
|127>    H       15.18109        12.09091       -10.74199
|128> *
|129>
|130>                          ****END OF INPUT****

CARTESIAN COORDINATES (ANGSTROEM)
---------------------------------
  C      4.490300   -3.259060    2.007130
  O      5.641300   -3.422510    2.358730
  C      3.334130   -4.032740    2.511630
  C      3.341720   -5.072380    3.420270
  C      2.126250   -5.655820    3.737840
  F      2.083960   -6.668640    4.612380
  C      0.945350   -5.198080    3.152490
  F     -0.214730   -5.782200    3.473830
  C      0.939550   -4.151780    2.242120
  C      2.152540   -3.562410    1.919440
  C      2.489340   -2.462030    1.015590
  C      1.568670   -1.716060    0.326530
  C      1.834480   -0.615580   -0.516940
  N      1.940610    0.293700   -1.211150
  C      0.174760   -1.934620    0.382470
  N     -0.966700   -2.052830    0.376730
  C      3.934060   -2.303480    1.030120
  C      4.603400   -1.430850    0.205710
  C      5.966400   -1.131450    0.067660
  C      7.107370   -1.556200    0.739150
  C      8.275100   -0.988300    0.252500
  C      8.056100   -0.102790   -0.795350
  S      6.389810    0.020750   -1.194460
  C      9.132760    0.567860   -1.447480
  C     10.432490    0.144840   -1.087480
  O     10.665960   -0.811460   -0.169490
  C      9.665640   -1.164050    0.798880
  C      9.952770   -2.624940    1.175120
  C      9.681430   -3.584050    0.021670
  C      9.800110   -0.211110    2.012750
  C     11.177100   -0.239300    2.663720
  C     11.533680    0.668940   -1.756160
  C     11.331590    1.635280   -2.725160
  C     10.040150    2.109420   -3.038570
  C      8.947040    1.554190   -2.424440
  C     10.107530    3.189150   -4.093220
  C      9.243640    2.862370   -5.320810
  C      9.651350    1.554090   -5.988460
  C      9.763670    4.580890   -3.509590
  C      8.360650    4.730080   -2.936890
  C     11.584990    3.192710   -4.419170
  C     12.285770    2.298850   -3.585890
  C     13.655890    2.135670   -3.692820
  C     14.347680    2.873940   -4.646400
  C     13.651230    3.798220   -5.458200
  C     12.264490    3.946850   -5.340380
  C     14.453920    4.566170   -6.352070
  C     15.801240    4.306470   -6.537760
  C     16.423430    3.110250   -5.870220
  C     17.843420    3.407050   -5.365680
  C     17.890450    4.632080   -4.459200
  C     16.394490    1.950050   -6.895360
  C     16.961590    0.643360   -6.354750
  O     15.683540    2.710230   -4.705880
  C     16.400330    5.194720   -7.423230
  C     15.521660    6.132590   -7.948730
  S     13.920730    5.919120   -7.274760
  C     15.872090    7.187400   -8.812900
  C     15.073880    8.026930   -9.535970
  C     13.685130    7.949250   -9.925790
  C     12.987880    6.804070  -10.210050
  C     11.650360    6.786130  -10.652460
  N     10.554270    6.720770  -10.986510
  C     13.574550    5.521380  -10.179210
  N     14.038080    4.471960  -10.219000
  C     13.256970    9.305110  -10.269440
  C     12.002700    9.820850  -10.550370
  C     11.915220   11.162410  -10.891630
  F     10.713440   11.688290  -11.152980
  C     13.047770   11.974440  -10.964670
  F     12.916450   13.261870  -11.306320
  C     14.305500   11.464160  -10.684350
  C     14.393030   10.131630  -10.333060
  C     15.595790    9.349510   -9.958630
  O     16.745990    9.721170   -9.946570
  H      4.258540   -5.421310    3.868090
  H     -0.000980   -3.839600    1.819350
  H      3.981530   -0.873160   -0.484100
  H      7.059380   -2.257580    1.550600
  H      9.345700   -2.893970    2.039180
  H     11.004640   -2.693280    1.451250
  H      8.625080   -3.598050   -0.236470
  H      9.978160   -4.591490    0.300990
  H     10.251180   -3.286570   -0.855750
  H      9.031220   -0.474320    2.740800
  H      9.593410    0.802980    1.657260
  H     11.349510   -1.181690    3.175690
  H     11.254480    0.563680    3.392740
  H     11.950900   -0.100930    1.912590
  H     12.518920    0.307790   -1.509500
  H      7.936930    1.838090   -2.678400
  H      9.330320    3.679570   -6.039500
  H      8.199820    2.793470   -5.013480
  H     10.680870    1.601810   -6.336220
  H      9.009550    1.356480   -6.843430
  H      9.562980    0.723220   -5.291680
  H      9.905000    5.315880   -4.304780
  H     10.489690    4.802570   -2.722640
  H      7.601420    4.506710   -3.681150
  H      8.215620    5.756580   -2.607290
  H      8.218620    4.078260   -2.079310
  H     14.198990    1.449960   -3.062940
  H     11.762550    4.650760   -5.988070
  H     18.504250    3.540780   -6.222170
  H     18.179800    2.538270   -4.800820
  H     17.613320    5.534330   -4.999970
  H     18.894040    4.763280   -4.063140
  H     17.204140    4.504150   -3.625510
  H     16.942260    2.262830   -7.785530
  H     15.350980    1.796530   -7.184650
  H     18.038900    0.704180   -6.227630
  H     16.745860   -0.164480   -7.049320
  H     16.508010    0.405370   -5.395800
  H     17.434330    5.161360   -7.715410
  H     16.930530    7.430290   -8.839170
  H     11.101980    9.230440  -10.504180
  H     15.181090   12.090910  -10.741990

 Total Charge           Charge          ....    0
 Multiplicity           Mult            ....    1
 Number of Electrons    NEL             ....  536
 Basis Dimension        Dim             .... 1268

ORBITAL ENERGIES
----------------

  NO   OCC          E(Eh)            E(eV)
   0   2.0000     -91.983264     -2502.9919
   1   2.0000     -91.982909     -2502.9822
   2   2.0000     -26.336474      -716.6519
   3   2.0000     -26.336030      -716.6398
   4   2.0000     -26.335609      -716.6283
   5   2.0000     -26.333981      -716.5840
   6   2.0000     -20.604947      -560.6891
   7   2.0000     -20.603913      -560.6610
   8   2.0000     -20.574803      -559.8688
   9   2.0000     -20.568562      -559.6990
  10   2.0000     -15.594657      -424.3522
  11   2.0000     -15.594051      -424.3357
  12   2.0000     -15.589500      -424.2119
  13   2.0000     -15.588808      -424.1930
  14   2.0000     -11.379931      -309.6637
  15   2.0000     -11.379271      -309.6457
  16   2.0000     -11.378432      -309.6229
  17   2.0000     -11.377756      -309.6045
  18   2.0000     -11.373442      -309.4871
  19   2.0000     -11.367686      -309.3305
  20   2.0000     -11.345138      -308.7169
  21   2.0000     -11.344718      -308.7055
  22   2.0000     -11.338433      -308.5344
  23   2.0000     -11.336065      -308.4700
  24   2.0000     -11.326349      -308.2056
  25   2.0000     -11.326312      -308.2046
  26   2.0000     -11.325333      -308.1780
  27   2.0000     -11.325315      -308.1775
  28   2.0000     -11.323360      -308.1243
  29   2.0000     -11.321814      -308.0822
  30   2.0000     -11.317544      -307.9660
  31   2.0000     -11.314313      -307.8781
  32   2.0000     -11.306539      -307.6666
  33   2.0000     -11.304501      -307.6111
  34   2.0000     -11.304494      -307.6109
  35   2.0000     -11.304355      -307.6071
  36   2.0000     -11.300444      -307.5007
  37   2.0000     -11.299962      -307.4876
  38   2.0000     -11.299415      -307.4727
  39   2.0000     -11.297858      -307.4303
  40   2.0000     -11.297541      -307.4217
  41   2.0000     -11.297418      -307.4184
  42   2.0000     -11.296770      -307.4007
  43   2.0000     -11.295946      -307.3783
  44   2.0000     -11.294977      -307.3519
  45   2.0000     -11.290992      -307.2435
  46   2.0000     -11.289856      -307.2126
  47   2.0000     -11.283831      -307.0486
  48   2.0000     -11.279252      -306.9241
  49   2.0000     -11.277087      -306.8651
  50   2.0000     -11.275526      -306.8227
  51   2.0000     -11.275428      -306.8200
  52   2.0000     -11.273454      -306.7663
  53   2.0000     -11.272911      -306.7515
  54   2.0000     -11.271824      -306.7219
  55   2.0000     -11.270605      -306.6888
  56   2.0000     -11.269024      -306.6457
  57   2.0000     -11.267366      -306.6006
  58   2.0000     -11.261731      -306.4473
  59   2.0000     -11.259026      -306.3737
  60   2.0000     -11.258736      -306.3658
  61   2.0000     -11.256305      -306.2996
  62   2.0000     -11.255407      -306.2752
  63   2.0000     -11.247469      -306.0592
  64   2.0000     -11.244495      -305.9783
  65   2.0000     -11.243404      -305.9486
  66   2.0000     -11.243203      -305.9431
  67   2.0000     -11.242359      -305.9201
  68   2.0000     -11.241389      -305.8938
  69   2.0000     -11.232229      -305.6445
  70   2.0000     -11.230150      -305.5879
  71   2.0000     -11.230131      -305.5874
  72   2.0000     -11.228880      -305.5534
  73   2.0000     -11.227755      -305.5227
  74   2.0000     -11.223554      -305.4084
  75   2.0000      -9.018989      -245.4192
  76   2.0000      -9.018601      -245.4086
  77   2.0000      -6.706430      -182.4912
  78   2.0000      -6.706110      -182.4825
  79   2.0000      -6.705363      -182.4622
  80   2.0000      -6.705054      -182.4538
  81   2.0000      -6.703567      -182.4133
  82   2.0000      -6.703194      -182.4032
  83   2.0000      -1.646066       -44.7917
  84   2.0000      -1.645312       -44.7712
  85   2.0000      -1.631139       -44.3855
  86   2.0000      -1.630345       -44.3639
  87   2.0000      -1.433026       -38.9946
  88   2.0000      -1.431889       -38.9637
  89   2.0000      -1.406917       -38.2842
  90   2.0000      -1.401424       -38.1347
  91   2.0000      -1.256273       -34.1849
  92   2.0000      -1.255079       -34.1524
  93   2.0000      -1.234333       -33.5879
  94   2.0000      -1.233933       -33.5770
  95   2.0000      -1.229819       -33.4651
  96   2.0000      -1.227653       -33.4061
  97   2.0000      -1.226257       -33.3682
  98   2.0000      -1.222539       -33.2670
  99   2.0000      -1.217925       -33.1414
 100   2.0000      -1.176701       -32.0197
 101   2.0000      -1.174802       -31.9680
 102   2.0000      -1.171062       -31.8662
 103   2.0000      -1.139634       -31.0110
 104   2.0000      -1.124238       -30.5921
 105   2.0000      -1.123583       -30.5742
 106   2.0000      -1.104972       -30.0678
 107   2.0000      -1.102836       -30.0097
 108   2.0000      -1.100511       -29.9464
 109   2.0000      -1.090846       -29.6834
 110   2.0000      -1.076337       -29.2886
 111   2.0000      -1.074994       -29.2521
 112   2.0000      -1.073330       -29.2068
 113   2.0000      -1.055459       -28.7205
 114   2.0000      -1.034366       -28.1465
 115   2.0000      -1.033709       -28.1287
 116   2.0000      -1.032047       -28.0834
 117   2.0000      -1.031438       -28.0669
 118   2.0000      -1.025702       -27.9108
 119   2.0000      -1.022938       -27.8355
 120   2.0000      -1.020350       -27.7651
 121   2.0000      -1.016685       -27.6654
 122   2.0000      -0.991943       -26.9921
 123   2.0000      -0.971649       -26.4399
 124   2.0000      -0.960767       -26.1438
 125   2.0000      -0.949697       -25.8426
 126   2.0000      -0.945746       -25.7351
 127   2.0000      -0.943843       -25.6833
 128   2.0000      -0.923639       -25.1335
 129   2.0000      -0.920203       -25.0400
 130   2.0000      -0.911829       -24.8121
 131   2.0000      -0.890551       -24.2331
 132   2.0000      -0.877181       -23.8693
 133   2.0000      -0.871933       -23.7265
 134   2.0000      -0.864501       -23.5243
 135   2.0000      -0.863541       -23.4981
 136   2.0000      -0.862057       -23.4578
 137   2.0000      -0.853373       -23.2214
 138   2.0000      -0.848747       -23.0956
 139   2.0000      -0.844609       -22.9830
 140   2.0000      -0.839203       -22.8359
 141   2.0000      -0.831978       -22.6393
 142   2.0000      -0.826004       -22.4767
 143   2.0000      -0.818874       -22.2827
 144   2.0000      -0.811918       -22.0934
 145   2.0000      -0.805315       -21.9137
 146   2.0000      -0.799756       -21.7625
 147   2.0000      -0.792674       -21.5698
 148   2.0000      -0.789254       -21.4767
 149   2.0000      -0.787753       -21.4358
 150   2.0000      -0.782150       -21.2834
 151   2.0000      -0.781648       -21.2697
 152   2.0000      -0.773221       -21.0404
 153   2.0000      -0.760938       -20.7062
 154   2.0000      -0.754602       -20.5338
 155   2.0000      -0.749754       -20.4018
 156   2.0000      -0.743950       -20.2439
 157   2.0000      -0.743010       -20.2183
 158   2.0000      -0.742497       -20.2044
 159   2.0000      -0.737648       -20.0724
 160   2.0000      -0.729346       -19.8465
 161   2.0000      -0.725937       -19.7538
 162   2.0000      -0.723004       -19.6739
 163   2.0000      -0.715050       -19.4575
 164   2.0000      -0.714362       -19.4388
 165   2.0000      -0.711172       -19.3520
 166   2.0000      -0.706805       -19.2331
 167   2.0000      -0.700478       -19.0610
 168   2.0000      -0.693419       -18.8689
 169   2.0000      -0.684849       -18.6357
 170   2.0000      -0.683442       -18.5974
 171   2.0000      -0.680468       -18.5165
 172   2.0000      -0.679641       -18.4940
 173   2.0000      -0.678270       -18.4567
 174   2.0000      -0.668577       -18.1929
 175   2.0000      -0.667274       -18.1574
 176   2.0000      -0.662815       -18.0361
 177   2.0000      -0.654841       -17.8191
 178   2.0000      -0.653550       -17.7840
 179   2.0000      -0.649692       -17.6790
 180   2.0000      -0.645205       -17.5569
 181   2.0000      -0.642069       -17.4716
 182   2.0000      -0.641505       -17.4562
 183   2.0000      -0.636872       -17.3302
 184   2.0000      -0.635806       -17.3012
 185   2.0000      -0.632235       -17.2040
 186   2.0000      -0.629889       -17.1401
 187   2.0000      -0.628699       -17.1078
 188   2.0000      -0.627615       -17.0783
 189   2.0000      -0.627407       -17.0726
 190   2.0000      -0.625748       -17.0275
 191   2.0000      -0.622856       -16.9488
 192   2.0000      -0.621852       -16.9214
 193   2.0000      -0.619222       -16.8499
 194   2.0000      -0.616079       -16.7644
 195   2.0000      -0.613314       -16.6891
 196   2.0000      -0.612777       -16.6745
 197   2.0000      -0.608130       -16.5481
 198   2.0000      -0.601787       -16.3755
 199   2.0000      -0.596195       -16.2233
 200   2.0000      -0.594052       -16.1650
 201   2.0000      -0.589911       -16.0523
 202   2.0000      -0.587884       -15.9971
 203   2.0000      -0.584616       -15.9082
 204   2.0000      -0.582194       -15.8423
 205   2.0000      -0.579868       -15.7790
 206   2.0000      -0.579491       -15.7688
 207   2.0000      -0.579327       -15.7643
 208   2.0000      -0.576045       -15.6750
 209   2.0000      -0.574648       -15.6370
 210   2.0000      -0.574254       -15.6262
 211   2.0000      -0.573270       -15.5995
 212   2.0000      -0.571971       -15.5641
 213   2.0000      -0.564869       -15.3709
 214   2.0000      -0.564504       -15.3609
 215   2.0000      -0.560433       -15.2501
 216   2.0000      -0.557000       -15.1567
 217   2.0000      -0.551448       -15.0057
 218   2.0000      -0.542492       -14.7619
 219   2.0000      -0.541254       -14.7283
 220   2.0000      -0.540048       -14.6955
 221   2.0000      -0.538830       -14.6623
 222   2.0000      -0.538004       -14.6398
 223   2.0000      -0.537046       -14.6138
 224   2.0000      -0.533745       -14.5239
 225   2.0000      -0.530973       -14.4485
 226   2.0000      -0.524361       -14.2686
 227   2.0000      -0.522348       -14.2138
 228   2.0000      -0.520497       -14.1635
 229   2.0000      -0.518798       -14.1172
 230   2.0000      -0.518590       -14.1115
 231   2.0000      -0.512431       -13.9440
 232   2.0000      -0.511615       -13.9218
 233   2.0000      -0.508131       -13.8269
 234   2.0000      -0.505949       -13.7676
 235   2.0000      -0.504339       -13.7238
 236   2.0000      -0.503642       -13.7048
 237   2.0000      -0.502553       -13.6752
 238   2.0000      -0.501312       -13.6414
 239   2.0000      -0.499832       -13.6011
 240   2.0000      -0.498371       -13.5614
 241   2.0000      -0.488877       -13.3030
 242   2.0000      -0.486018       -13.2252
 243   2.0000      -0.483525       -13.1574
 244   2.0000      -0.481290       -13.0966
 245   2.0000      -0.478592       -13.0232
 246   2.0000      -0.477366       -12.9898
 247   2.0000      -0.474015       -12.8986
 248   2.0000      -0.471145       -12.8205
 249   2.0000      -0.466334       -12.6896
 250   2.0000      -0.465091       -12.6558
 251   2.0000      -0.462352       -12.5812
 252   2.0000      -0.454943       -12.3796
 253   2.0000      -0.452801       -12.3213
 254   2.0000      -0.442781       -12.0487
 255   2.0000      -0.422245       -11.4899
 256   2.0000      -0.400263       -10.8917
 257   2.0000      -0.394829       -10.7438
 258   2.0000      -0.390119       -10.6157
 259   2.0000      -0.379090       -10.3156
 260   2.0000      -0.378521       -10.3001
 261   2.0000      -0.366346        -9.9688
 262   2.0000      -0.358578        -9.7574
 263   2.0000      -0.354230        -9.6391
 264   2.0000      -0.344190        -9.3659
 265   2.0000      -0.341934        -9.3045
 266   2.0000      -0.302327        -8.2267
 267   2.0000      -0.273205        -7.4343
 268   0.0000      -0.032205        -0.8763
 269   0.0000      -0.020571        -0.5598
 270   0.0000       0.011211         0.3051
 271   0.0000       0.017414         0.4738
 272   0.0000       0.043815         1.1923

MULLIKEN ATOMIC CHARGES
-----------------------
   0 C :    0.522077
   1 O :   -0.388228
   2 C :   -0.172297
   3 C :   -0.034038
   4 C :    0.346831
   5 F :   -0.312283
   6 C :    0.354483
   7 F :   -0.309017
   8 C :   -0.051566
   9 C :   -0.028291
  10 C :    0.259029
  11 C :   -0.379282
  12 C :    0.031312
  13 N :   -0.065690
  14 C :    0.028695
  15 N :   -0.065232
  16 C :   -0.303581
  17 C :    0.165236
  18 C :   -0.246955
  19 C :    0.081122
  20 C :   -0.168057
  21 C :    0.031274
  22 S :    0.164987
  23 C :   -0.179052
  24 C :    0.376284
  25 O :   -0.569906
  26 C :    0.106237
  27 C :   -0.031604
  28 C :   -0.006782
  29 C :    0.017530
  30 C :    0.001554
  31 C :   -0.086096
  32 C :    0.054138
  33 C :   -0.029672
  34 C :    0.012182
  35 C :   -0.318047
  36 C :    0.026420
  37 C :   -0.010680
  38 C :    0.047743
  39 C :   -0.009863
  40 C :   -0.041940
  41 C :    0.050032
  42 C :   -0.076667
  43 C :    0.365313
  44 C :   -0.171302
  45 C :    0.020634
  46 C :    0.034933
  47 C :   -0.153974
  48 C :    0.102690
  49 C :   -0.030656
  50 C :   -0.007999
  51 C :    0.022247
  52 C :   -0.000020
  53 O :   -0.572380
  54 C :    0.088453
  55 C :   -0.190751
  56 S :    0.156024
  57 C :    0.174896
  58 C :   -0.331228
  59 C :    0.232924
  60 C :   -0.342195
  61 C :    0.034535
  62 N :   -0.062618
  63 C :    0.035875
  64 N :   -0.054731
  65 C :   -0.046794
  66 C :   -0.053082
  67 C :    0.353473
  68 F :   -0.309075
  69 C :    0.341834
  70 F :   -0.312023
  71 C :   -0.027187
  72 C :   -0.164699
  73 C :    0.475851
  74 O :   -0.350205
  75 H :    0.076968
  76 H :    0.097910
  77 H :    0.083863
  78 H :    0.106416
  79 H :    0.040186
  80 H :    0.053295
  81 H :    0.039079
  82 H :    0.036512
  83 H :    0.042083
  84 H :    0.033594
  85 H :    0.034595
  86 H :    0.032346
  87 H :    0.037111
  88 H :    0.041239
  89 H :    0.030175
  90 H :    0.042357
  91 H :    0.032327
  92 H :    0.037549
  93 H :    0.042987
  94 H :    0.038062
  95 H :    0.039097
  96 H :    0.027123
  97 H :    0.034581
  98 H :    0.028642
  99 H :    0.039299
 100 H :    0.038343
 101 H :    0.029291
 102 H :    0.037085
 103 H :    0.029409
 104 H :    0.055968
 105 H :    0.034353
 106 H :    0.036739
 107 H :    0.046040
 108 H :    0.032740
 109 H :    0.043883
 110 H :    0.029666
 111 H :    0.039859
 112 H :    0.040627
 113 H :    0.051264
 114 H :    0.083692
 115 H :    0.092301
 116 H :    0.080237
Sum of atomic charges:   -0.0000000

LOEWDIN ATOMIC CHARGES
----------------------
   0 C :    0.172947
   1 O :   -0.238400
   2 C :   -0.051990
   3 C :    0.009102
   4 C :    0.123710
   5 F :   -0.110543
   6 C :    0.125078
   7 F :   -0.108619
   8 C :   -0.001147
   9 C :   -0.023448
  10 C :    0.120141
  11 C :   -0.176712
  12 C :    0.008891
  13 N :   -0.091212
  14 C :    0.012297
  15 N :   -0.092365
  16 C :   -0.164244
  17 C :    0.113213
  18 C :   -0.217010
  19 C :    0.050715
  20 C :   -0.090513
  21 C :   -0.103496
  22 S :    0.435735
  23 C :   -0.104414
  24 C :    0.123707
  25 O :   -0.162082
  26 C :    0.091469
  27 C :   -0.012869
  28 C :   -0.030412
  29 C :   -0.015236
  30 C :   -0.032319
  31 C :   -0.043856
  32 C :    0.010708
  33 C :   -0.022281
  34 C :    0.012495
  35 C :   -0.035971
  36 C :   -0.000774
  37 C :   -0.031920
  38 C :    0.004609
  39 C :   -0.034374
  40 C :   -0.016549
  41 C :    0.003360
  42 C :   -0.039608
  43 C :    0.119017
  44 C :   -0.095766
  45 C :    0.009358
  46 C :   -0.102706
  47 C :   -0.085949
  48 C :    0.091397
  49 C :   -0.013806
  50 C :   -0.031270
  51 C :   -0.014001
  52 C :   -0.032717
  53 O :   -0.164117
  54 C :    0.038720
  55 C :   -0.210215
  56 S :    0.449135
  57 C :    0.115678
  58 C :   -0.159429
  59 C :    0.102482
  60 C :   -0.169627
  61 C :    0.010119
  62 N :   -0.088743
  63 C :   -0.003847
  64 N :   -0.088869
  65 C :   -0.019202
  66 C :   -0.006243
  67 C :    0.126903
  68 F :   -0.108183
  69 C :    0.121229
  70 F :   -0.110434
  71 C :    0.012273
  72 C :   -0.055164
  73 C :    0.165906
  74 O :   -0.230261
  75 H :    0.055043
  76 H :    0.055166
  77 H :    0.045396
  78 H :    0.040413
  79 H :    0.020091
  80 H :    0.023960
  81 H :    0.015480
  82 H :    0.019348
  83 H :    0.020399
  84 H :    0.019147
  85 H :    0.018137
  86 H :    0.014849
  87 H :    0.019671
  88 H :    0.019367
  89 H :    0.033532
  90 H :    0.025991
  91 H :    0.014759
  92 H :    0.013199
  93 H :    0.017879
  94 H :    0.019342
  95 H :    0.016935
  96 H :    0.012212
  97 H :    0.018303
  98 H :    0.014375
  99 H :    0.021662
 100 H :    0.015551
 101 H :    0.033343
 102 H :    0.025441
 103 H :    0.014903
 104 H :    0.025417
 105 H :    0.013384
 106 H :    0.018877
 107 H :    0.022349
 108 H :    0.019191
 109 H :    0.022335
 110 H :    0.013514
 111 H :    0.020880
 112 H :    0.018994
 113 H :    0.036385
 114 H :    0.056834
 115 H :    0.054125
 116 H :    0.056342

  Mayer bond orders larger than 0.100000
B(  0-C ,  1-O ) :   2.0124 B(  0-C ,  2-C ) :   0.9835 B(  0-C , 16-C ) :   0.9793
B(  2-C ,  3-C ) :   1.3880 B(  2-C ,  9-C ) :   1.3735 B(  3-C ,  4-C ) :   1.3801
B(  3-C , 75-H ) :   1.0140 B(  4-C ,  5-F ) :   0.9351 B(  4-C ,  6-C ) :   1.3370
B(  6-C ,  7-F ) :   0.9447 B(  6-C ,  8-C ) :   1.4060 B(  8-C ,  9-C ) :   1.3718
B(  8-C , 76-H ) :   0.9898 B(  9-C , 10-C ) :   1.0385 B( 10-C , 11-C ) :   1.6676
B( 10-C , 16-C ) :   1.1187 B( 11-C , 12-C ) :   1.0672 B( 11-C , 14-C ) :   1.0668
B( 12-C , 13-N ) :   2.9746 B( 14-C , 15-N ) :   2.9842 B( 16-C , 17-C ) :   1.6211
B( 17-C , 18-C ) :   1.2715 B( 17-C , 77-H ) :   0.9384 B( 18-C , 19-C ) :   1.4402
B( 18-C , 22-S ) :   1.0838 B( 19-C , 20-C ) :   1.3598 B( 19-C , 78-H ) :   0.9873
B( 20-C , 21-C ) :   1.5317 B( 20-C , 26-C ) :   0.9573 B( 21-C , 22-S ) :   1.1735
B( 21-C , 23-C ) :   1.1111 B( 23-C , 24-C ) :   1.3226 B( 23-C , 34-C ) :   1.3134
B( 24-C , 25-O ) :   1.0074 B( 24-C , 31-C ) :   1.4267 B( 25-O , 26-C ) :   0.7714
B( 26-C , 27-C ) :   1.0066 B( 26-C , 29-C ) :   1.0095 B( 27-C , 28-C ) :   1.0462
B( 27-C , 79-H ) :   0.9627 B( 27-C , 80-H ) :   0.9680 B( 28-C , 81-H ) :   0.9787
B( 28-C , 82-H ) :   0.9867 B( 28-C , 83-H ) :   0.9828 B( 29-C , 30-C ) :   1.0456
B( 29-C , 84-H ) :   0.9625 B( 29-C , 85-H ) :   0.9662 B( 30-C , 86-H ) :   0.9824
B( 30-C , 87-H ) :   0.9871 B( 30-C , 88-H ) :   0.9818 B( 31-C , 32-C ) :   1.3825
B( 31-C , 89-H ) :   1.0134 B( 32-C , 33-C ) :   1.3684 B( 32-C , 41-C ) :   1.0402
B( 33-C , 34-C ) :   1.5247 B( 33-C , 35-C ) :   0.9210 B( 34-C , 90-H ) :   1.0033
B( 35-C , 36-C ) :   1.0162 B( 35-C , 38-C ) :   0.9970 B( 35-C , 40-C ) :   0.9464
B( 36-C , 37-C ) :   1.0405 B( 36-C , 91-H ) :   0.9717 B( 36-C , 92-H ) :   0.9713
B( 37-C , 93-H ) :   0.9807 B( 37-C , 94-H ) :   0.9870 B( 37-C , 95-H ) :   0.9821
B( 38-C , 39-C ) :   1.0499 B( 38-C , 96-H ) :   0.9686 B( 38-C , 97-H ) :   0.9706
B( 39-C , 98-H ) :   0.9828 B( 39-C , 99-H ) :   0.9846 B( 39-C ,100-H ) :   0.9796
B( 40-C , 41-C ) :   1.3729 B( 40-C , 45-C ) :   1.5123 B( 41-C , 42-C ) :   1.3766
B( 42-C , 43-C ) :   1.4336 B( 42-C ,101-H ) :   1.0133 B( 43-C , 44-C ) :   1.3248
B( 43-C , 53-O ) :   0.9995 B( 44-C , 45-C ) :   1.3228 B( 44-C , 46-C ) :   1.1128
B( 45-C ,102-H ) :   1.0020 B( 46-C , 47-C ) :   1.5654 B( 46-C , 56-S ) :   1.1507
B( 47-C , 48-C ) :   0.9558 B( 47-C , 54-C ) :   1.3429 B( 48-C , 49-C ) :   1.0063
B( 48-C , 51-C ) :   1.0086 B( 48-C , 53-O ) :   0.7746 B( 49-C , 50-C ) :   1.0444
B( 49-C ,103-H ) :   0.9633 B( 49-C ,104-H ) :   0.9680 B( 50-C ,105-H ) :   0.9795
B( 50-C ,106-H ) :   0.9870 B( 50-C ,107-H ) :   0.9826 B( 51-C , 52-C ) :   1.0444
B( 51-C ,108-H ) :   0.9618 B( 51-C ,109-H ) :   0.9657 B( 52-C ,110-H ) :   0.9821
B( 52-C ,111-H ) :   0.9872 B( 52-C ,112-H ) :   0.9818 B( 54-C , 55-C ) :   1.4841
B( 54-C ,113-H ) :   1.0032 B( 55-C , 56-S ) :   1.0690 B( 55-C , 57-C ) :   1.1952
B( 57-C , 58-C ) :   1.6791 B( 57-C ,114-H ) :   0.9621 B( 58-C , 59-C ) :   1.0725
B( 58-C , 73-C ) :   0.9983 B( 59-C , 60-C ) :   1.7046 B( 59-C , 65-C ) :   1.0448
B( 60-C , 61-C ) :   1.0536 B( 60-C , 63-C ) :   1.0677 B( 61-C , 62-N ) :   2.9988
B( 63-C , 64-N ) :   3.0222 B( 65-C , 66-C ) :   1.3828 B( 65-C , 72-C ) :   1.3646
B( 66-C , 67-C ) :   1.4030 B( 66-C ,115-H ) :   0.9934 B( 67-C , 68-F ) :   0.9420
B( 67-C , 69-C ) :   1.3380 B( 69-C , 70-F ) :   0.9354 B( 69-C , 71-C ) :   1.3841
B( 71-C , 72-C ) :   1.3880 B( 71-C ,116-H ) :   1.0128 B( 72-C , 73-C ) :   0.9472
B( 73-C , 74-O ) :   2.1062

-----------------------------------------------------------------------------
         ABSORPTION SPECTRUM VIA TRANSITION ELECTRIC DIPOLE MOMENTS
-----------------------------------------------------------------------------
State   Energy    Wavelength  fosc         T2        TX        TY        TZ
        (cm-1)      (nm)                 (au**2)    (au)      (au)      (au)
-----------------------------------------------------------------------------
   1   22580.4    442.9   1.902990985  27.74472  -2.75099  -3.00864   3.33539
   2   25971.7    385.0   0.940579998  11.92260   3.43234   0.32553   0.18878
   3   34862.1    286.8   0.346834510   3.27525   0.63044   1.40535  -0.95015

FINAL SINGLE POINT ENERGY     -4041.541838526342

DIPOLE MOMENT
-------------
                                X             Y             Z
Electronic contribution:    -78.02910      25.98826     -21.20282
Nuclear contribution   :     82.58952     -26.96152      23.79734
                        -----------------------------------------
Total Dipole Moment    :      4.56042      -0.97326       2.59452
                        -----------------------------------------
Magnitude (a.u.)       :      5.33631
Magnitude (Debye)      :     13.56382

Rotational constants in cm-1:     0.001693     0.000252     0.000227
Rotational constants in MHz :    50.759000     7.553165     6.802929

                             ****ORCA TERMINATED NORMALLY****
TOTAL RUN TIME: 0 days 19 hours 19 minutes 16 seconds 228 msec
