                         Program Version 4.2.0 -  RELEASE  -
|  1> # ORCA input file
|  2> # FO-2F.out: Geometry 97
|  3> ! Engrad Keepdens
|  4> %maxcore 1000
|  5> %tddft
|  6>   nroots 3
|  7>   # nroots is the number of states to be computed
|  8>   Iroot 1
|  9>   end
| 10> * xyz 0 1
| 11>    C        5.08002        -3.50737         1.97359
| 12>    O        6.23184        -3.34276         2.33578
| 13>    C        4.36498        -4.80815         1.99662
| 14>    C        4.89574        -6.04912         2.32864
| 15>    C        4.05598        -7.15227         2.23629
| 16>    F        4.50073        -8.37293         2.51971
| 17>    C        2.71745        -6.99568         1.83095
| 18>    F        1.95809        -8.08355         1.73941
| 19>    C        2.18384        -5.74794         1.51784
| 20>    C        3.02948        -4.63284         1.59057
| 21>    C        2.81624        -3.20009         1.27711
| 22>    C        1.59858        -2.62703         0.96209
| 23>    C        1.42547        -1.22510         0.73431
| 24>    N        1.25449        -0.09086         0.54722
| 25>    C        0.39317        -3.39052         0.85999
| 26>    N       -0.58769        -4.00705         0.76773
| 27>    C        4.11588        -2.52630         1.39062
| 28>    C        4.44351        -1.33334         0.77607
| 29>    C        5.70031        -0.67444         0.69515
| 30>    C        6.85014        -0.74600         1.48776
| 31>    C        7.94326        -0.05550         0.94663
| 32>    C        7.64958         0.56505        -0.27005
| 33>    S        5.99736         0.33909        -0.72376
| 34>    C        8.68095         1.16150        -1.08140
| 35>    C       10.01263         0.84371        -0.69063
| 36>    O       10.28581         0.13495         0.42391
| 37>    C        9.33375         0.08666         1.52445
| 38>    C        9.74974        -1.12801         2.36255
| 39>    C        9.74737        -2.45649         1.60960
| 40>    C        9.43858         1.41222         2.31357
| 41>    C       10.82111         1.71108         2.89255
| 42>    C       11.08646         1.18329        -1.51618
| 43>    C       10.83314         1.88657        -2.69255
| 44>    C        9.52171         2.28406        -3.05982
| 45>    C        8.45392         1.89697        -2.26729
| 46>    C        9.53798         3.05291        -4.38327
| 47>    C        8.73575         2.30601        -5.48199
| 48>    C        9.16725         0.86463        -5.74385
| 49>    C        9.04423         4.52020        -4.24642
| 50>    C        7.57397         4.72818        -3.88756
| 51>    C       11.03379         3.05215        -4.70383
| 52>    C       11.76077         2.33100        -3.72598
| 53>    C       13.13187         2.11014        -3.85002
| 54>    C       13.79566         2.64440        -4.95543
| 55>    C       13.10161         3.46318        -5.89052
| 56>    C       11.70465         3.63379        -5.76637
| 57>    C       13.93591         4.09582        -6.88232
| 58>    C       15.24177         3.66047        -7.12284
| 59>    C       15.76368         2.45864        -6.36634
| 60>    C       17.26146         2.56031        -6.04614
| 61>    C       17.66141         3.83930        -5.30976
| 62>    C       15.39859         1.17424        -7.14354
| 63>    C       15.62783        -0.13678        -6.39572
| 64>    O       15.12205         2.41676        -5.06261
| 65>    C       15.87916         4.41514        -8.11251
| 66>    C       15.09870         5.46759        -8.62139
| 67>    S       13.51868         5.46831        -7.84603
| 68>    C       15.66223         6.46967        -9.45295
| 69>    C       15.30730         7.72804        -9.88080
| 70>    C       14.09173         8.52282        -9.86082
| 71>    C       12.79780         8.05924       -10.02308
| 72>    C       11.65871         8.92004        -9.95489
| 73>    N       10.73162         9.61705        -9.87867
| 74>    C       12.52731         6.71832       -10.43199
| 75>    N       12.29644         5.64544       -10.81485
| 76>    C       14.49947         9.95099        -9.88599
| 77>    C       13.76656        11.13411        -9.73742
| 78>    C       14.44157        12.34528        -9.87288
| 79>    F       13.78252        13.48862        -9.70258
| 80>    C       15.81195        12.39815       -10.19161
| 81>    F       16.39205        13.58481       -10.35107
| 82>    C       16.54827        11.22714       -10.33293
| 83>    C       15.87840        10.01947       -10.17366
| 84>    C       16.44069         8.64556       -10.24461
| 85>    O       17.59006         8.33516       -10.47842
| 86>    H        5.93396        -6.15563         2.64629
| 87>    H        1.14349        -5.69795         1.20402
| 88>    H        3.66173        -0.87448         0.16667
| 89>    H        6.86955        -1.31405         2.41153
| 90>    H        9.08148        -1.17456         3.23799
| 91>    H       10.75798        -0.93137         2.75579
| 92>    H        8.73659        -2.75359         1.29513
| 93>    H       10.14339        -3.25693         2.25253
| 94>    H       10.38212        -2.39102         0.71440
| 95>    H        8.67846         1.38565         3.11224
| 96>    H        9.13276         2.22384         1.63249
| 97>    H       11.09813         1.00423         3.68847
| 98>    H       10.84794         2.72113         3.32991
| 99>    H       11.59294         1.65638         2.11017
|100>    H       12.09036         0.87227        -1.22328
|101>    H        7.42631         2.12854        -2.55353
|102>    H        8.80877         2.89515        -6.41258
|103>    H        7.67131         2.31476        -5.19810
|104>    H       10.21889         0.80588        -6.06532
|105>    H        8.55033         0.41564        -6.53682
|106>    H        9.05370         0.24279        -4.84222
|107>    H        9.24683         5.02086        -5.20861
|108>    H        9.68033         5.02440        -3.50139
|109>    H        6.89866         4.21374        -4.58644
|110>    H        7.32338         5.79954        -3.92926
|111>    H        7.34265         4.37623        -2.87134
|112>    H       13.70050         1.52941        -3.12208
|113>    H       11.17208         4.21946        -6.52006
|114>    H       17.82663         2.45332        -6.98650
|115>    H       17.51909         1.68534        -5.43076
|116>    H       17.57509         4.72934        -5.95021
|117>    H       18.70259         3.77809        -4.95824
|118>    H       17.01846         3.99473        -4.43193
|119>    H       15.96393         1.19450        -8.08897
|120>    H       14.33641         1.24931        -7.42875
|121>    H       16.68484        -0.29532        -6.13203
|122>    H       15.30779        -0.98662        -7.01785
|123>    H       15.04408        -0.16302        -5.46469
|124>    H       16.90088         4.24863        -8.45536
|125>    H       16.71375         6.26012        -9.69094
|126>    H       12.70398        11.15856        -9.50268
|127>    H       17.61158        11.26125       -10.57607
|128> *
|129>
|130>                          ****END OF INPUT****

CARTESIAN COORDINATES (ANGSTROEM)
---------------------------------
  C      5.080020   -3.507370    1.973590
  O      6.231840   -3.342760    2.335780
  C      4.364980   -4.808150    1.996620
  C      4.895740   -6.049120    2.328640
  C      4.055980   -7.152270    2.236290
  F      4.500730   -8.372930    2.519710
  C      2.717450   -6.995680    1.830950
  F      1.958090   -8.083550    1.739410
  C      2.183840   -5.747940    1.517840
  C      3.029480   -4.632840    1.590570
  C      2.816240   -3.200090    1.277110
  C      1.598580   -2.627030    0.962090
  C      1.425470   -1.225100    0.734310
  N      1.254490   -0.090860    0.547220
  C      0.393170   -3.390520    0.859990
  N     -0.587690   -4.007050    0.767730
  C      4.115880   -2.526300    1.390620
  C      4.443510   -1.333340    0.776070
  C      5.700310   -0.674440    0.695150
  C      6.850140   -0.746000    1.487760
  C      7.943260   -0.055500    0.946630
  C      7.649580    0.565050   -0.270050
  S      5.997360    0.339090   -0.723760
  C      8.680950    1.161500   -1.081400
  C     10.012630    0.843710   -0.690630
  O     10.285810    0.134950    0.423910
  C      9.333750    0.086660    1.524450
  C      9.749740   -1.128010    2.362550
  C      9.747370   -2.456490    1.609600
  C      9.438580    1.412220    2.313570
  C     10.821110    1.711080    2.892550
  C     11.086460    1.183290   -1.516180
  C     10.833140    1.886570   -2.692550
  C      9.521710    2.284060   -3.059820
  C      8.453920    1.896970   -2.267290
  C      9.537980    3.052910   -4.383270
  C      8.735750    2.306010   -5.481990
  C      9.167250    0.864630   -5.743850
  C      9.044230    4.520200   -4.246420
  C      7.573970    4.728180   -3.887560
  C     11.033790    3.052150   -4.703830
  C     11.760770    2.331000   -3.725980
  C     13.131870    2.110140   -3.850020
  C     13.795660    2.644400   -4.955430
  C     13.101610    3.463180   -5.890520
  C     11.704650    3.633790   -5.766370
  C     13.935910    4.095820   -6.882320
  C     15.241770    3.660470   -7.122840
  C     15.763680    2.458640   -6.366340
  C     17.261460    2.560310   -6.046140
  C     17.661410    3.839300   -5.309760
  C     15.398590    1.174240   -7.143540
  C     15.627830   -0.136780   -6.395720
  O     15.122050    2.416760   -5.062610
  C     15.879160    4.415140   -8.112510
  C     15.098700    5.467590   -8.621390
  S     13.518680    5.468310   -7.846030
  C     15.662230    6.469670   -9.452950
  C     15.307300    7.728040   -9.880800
  C     14.091730    8.522820   -9.860820
  C     12.797800    8.059240  -10.023080
  C     11.658710    8.920040   -9.954890
  N     10.731620    9.617050   -9.878670
  C     12.527310    6.718320  -10.431990
  N     12.296440    5.645440  -10.814850
  C     14.499470    9.950990   -9.885990
  C     13.766560   11.134110   -9.737420
  C     14.441570   12.345280   -9.872880
  F     13.782520   13.488620   -9.702580
  C     15.811950   12.398150  -10.191610
  F     16.392050   13.584810  -10.351070
  C     16.548270   11.227140  -10.332930
  C     15.878400   10.019470  -10.173660
  C     16.440690    8.645560  -10.244610
  O     17.590060    8.335160  -10.478420
  H      5.933960   -6.155630    2.646290
  H      1.143490   -5.697950    1.204020
  H      3.661730   -0.874480    0.166670
  H      6.869550   -1.314050    2.411530
  H      9.081480   -1.174560    3.237990
  H     10.757980   -0.931370    2.755790
  H      8.736590   -2.753590    1.295130
  H     10.143390   -3.256930    2.252530
  H     10.382120   -2.391020    0.714400
  H      8.678460    1.385650    3.112240
  H      9.132760    2.223840    1.632490
  H     11.098130    1.004230    3.688470
  H     10.847940    2.721130    3.329910
  H     11.592940    1.656380    2.110170
  H     12.090360    0.872270   -1.223280
  H      7.426310    2.128540   -2.553530
  H      8.808770    2.895150   -6.412580
  H      7.671310    2.314760   -5.198100
  H     10.218890    0.805880   -6.065320
  H      8.550330    0.415640   -6.536820
  H      9.053700    0.242790   -4.842220
  H      9.246830    5.020860   -5.208610
  H      9.680330    5.024400   -3.501390
  H      6.898660    4.213740   -4.586440
  H      7.323380    5.799540   -3.929260
  H      7.342650    4.376230   -2.871340
  H     13.700500    1.529410   -3.122080
  H     11.172080    4.219460   -6.520060
  H     17.826630    2.453320   -6.986500
  H     17.519090    1.685340   -5.430760
  H     17.575090    4.729340   -5.950210
  H     18.702590    3.778090   -4.958240
  H     17.018460    3.994730   -4.431930
  H     15.963930    1.194500   -8.088970
  H     14.336410    1.249310   -7.428750
  H     16.684840   -0.295320   -6.132030
  H     15.307790   -0.986620   -7.017850
  H     15.044080   -0.163020   -5.464690
  H     16.900880    4.248630   -8.455360
  H     16.713750    6.260120   -9.690940
  H     12.703980   11.158560   -9.502680
  H     17.611580   11.261250  -10.576070

 Total Charge           Charge          ....    0
 Multiplicity           Mult            ....    1
 Number of Electrons    NEL             ....  536
 Basis Dimension        Dim             .... 1268

ORBITAL ENERGIES
----------------

  NO   OCC          E(Eh)            E(eV)
   0   2.0000     -91.987583     -2503.1094
   1   2.0000     -91.983574     -2503.0003
   2   2.0000     -26.340367      -716.7578
   3   2.0000     -26.337612      -716.6829
   4   2.0000     -26.337412      -716.6774
   5   2.0000     -26.336176      -716.6438
   6   2.0000     -20.601874      -560.6055
   7   2.0000     -20.599977      -560.5539
   8   2.0000     -20.577562      -559.9439
   9   2.0000     -20.568888      -559.7079
  10   2.0000     -15.599869      -424.4940
  11   2.0000     -15.598699      -424.4622
  12   2.0000     -15.598511      -424.4571
  13   2.0000     -15.595195      -424.3668
  14   2.0000     -11.382483      -309.7331
  15   2.0000     -11.380815      -309.6877
  16   2.0000     -11.380232      -309.6719
  17   2.0000     -11.379131      -309.6419
  18   2.0000     -11.377668      -309.6021
  19   2.0000     -11.369306      -309.3745
  20   2.0000     -11.353537      -308.9455
  21   2.0000     -11.351331      -308.8854
  22   2.0000     -11.338332      -308.5317
  23   2.0000     -11.337997      -308.5226
  24   2.0000     -11.333218      -308.3926
  25   2.0000     -11.332484      -308.3726
  26   2.0000     -11.332251      -308.3662
  27   2.0000     -11.331658      -308.3501
  28   2.0000     -11.327777      -308.2445
  29   2.0000     -11.327549      -308.2383
  30   2.0000     -11.321670      -308.0783
  31   2.0000     -11.318587      -307.9944
  32   2.0000     -11.311547      -307.8028
  33   2.0000     -11.311053      -307.7894
  34   2.0000     -11.310446      -307.7729
  35   2.0000     -11.310380      -307.7711
  36   2.0000     -11.310116      -307.7639
  37   2.0000     -11.306932      -307.6773
  38   2.0000     -11.305246      -307.6314
  39   2.0000     -11.300964      -307.5149
  40   2.0000     -11.300696      -307.5076
  41   2.0000     -11.300674      -307.5070
  42   2.0000     -11.300615      -307.5054
  43   2.0000     -11.298896      -307.4586
  44   2.0000     -11.298829      -307.4568
  45   2.0000     -11.294637      -307.3427
  46   2.0000     -11.292541      -307.2857
  47   2.0000     -11.288714      -307.1815
  48   2.0000     -11.288255      -307.1690
  49   2.0000     -11.280855      -306.9677
  50   2.0000     -11.280822      -306.9668
  51   2.0000     -11.279179      -306.9221
  52   2.0000     -11.278340      -306.8992
  53   2.0000     -11.277563      -306.8781
  54   2.0000     -11.276246      -306.8422
  55   2.0000     -11.275501      -306.8220
  56   2.0000     -11.273687      -306.7726
  57   2.0000     -11.269905      -306.6697
  58   2.0000     -11.269563      -306.6604
  59   2.0000     -11.263054      -306.4833
  60   2.0000     -11.261439      -306.4393
  61   2.0000     -11.260756      -306.4208
  62   2.0000     -11.260555      -306.4153
  63   2.0000     -11.253583      -306.2256
  64   2.0000     -11.251331      -306.1643
  65   2.0000     -11.248670      -306.0919
  66   2.0000     -11.247474      -306.0593
  67   2.0000     -11.246571      -306.0348
  68   2.0000     -11.245400      -306.0029
  69   2.0000     -11.239240      -305.8353
  70   2.0000     -11.238296      -305.8096
  71   2.0000     -11.236785      -305.7685
  72   2.0000     -11.236547      -305.7620
  73   2.0000     -11.231217      -305.6169
  74   2.0000     -11.226907      -305.4997
  75   2.0000      -9.022499      -245.5147
  76   2.0000      -9.018906      -245.4169
  77   2.0000      -6.709853      -182.5844
  78   2.0000      -6.708836      -182.5567
  79   2.0000      -6.707037      -182.5078
  80   2.0000      -6.706354      -182.4892
  81   2.0000      -6.705308      -182.4607
  82   2.0000      -6.703478      -182.4109
  83   2.0000      -1.652812       -44.9753
  84   2.0000      -1.650176       -44.9036
  85   2.0000      -1.636823       -44.5402
  86   2.0000      -1.634789       -44.4849
  87   2.0000      -1.426543       -38.8182
  88   2.0000      -1.423507       -38.7356
  89   2.0000      -1.405610       -38.2486
  90   2.0000      -1.398729       -38.0613
  91   2.0000      -1.248944       -33.9855
  92   2.0000      -1.246508       -33.9192
  93   2.0000      -1.228358       -33.4253
  94   2.0000      -1.225417       -33.3453
  95   2.0000      -1.224449       -33.3190
  96   2.0000      -1.222245       -33.2590
  97   2.0000      -1.218888       -33.1676
  98   2.0000      -1.215503       -33.0755
  99   2.0000      -1.210163       -32.9302
 100   2.0000      -1.170606       -31.8538
 101   2.0000      -1.167821       -31.7780
 102   2.0000      -1.164043       -31.6752
 103   2.0000      -1.132721       -30.8229
 104   2.0000      -1.119470       -30.4623
 105   2.0000      -1.118248       -30.4291
 106   2.0000      -1.099536       -29.9199
 107   2.0000      -1.097801       -29.8727
 108   2.0000      -1.094426       -29.7808
 109   2.0000      -1.086119       -29.5548
 110   2.0000      -1.072009       -29.1709
 111   2.0000      -1.070155       -29.1204
 112   2.0000      -1.069026       -29.0897
 113   2.0000      -1.049794       -28.5664
 114   2.0000      -1.032142       -28.0860
 115   2.0000      -1.029230       -28.0068
 116   2.0000      -1.027579       -27.9619
 117   2.0000      -1.026509       -27.9327
 118   2.0000      -1.021203       -27.7883
 119   2.0000      -1.018713       -27.7206
 120   2.0000      -1.017312       -27.6825
 121   2.0000      -1.011745       -27.5310
 122   2.0000      -0.988289       -26.8927
 123   2.0000      -0.967029       -26.3142
 124   2.0000      -0.957039       -26.0423
 125   2.0000      -0.945296       -25.7228
 126   2.0000      -0.941112       -25.6090
 127   2.0000      -0.936862       -25.4933
 128   2.0000      -0.920983       -25.0612
 129   2.0000      -0.919356       -25.0169
 130   2.0000      -0.909264       -24.7423
 131   2.0000      -0.888107       -24.1666
 132   2.0000      -0.874649       -23.8004
 133   2.0000      -0.866731       -23.5850
 134   2.0000      -0.862044       -23.4574
 135   2.0000      -0.860063       -23.4035
 136   2.0000      -0.858753       -23.3679
 137   2.0000      -0.850319       -23.1384
 138   2.0000      -0.845474       -23.0065
 139   2.0000      -0.841493       -22.8982
 140   2.0000      -0.834353       -22.7039
 141   2.0000      -0.828422       -22.5425
 142   2.0000      -0.821716       -22.3600
 143   2.0000      -0.817136       -22.2354
 144   2.0000      -0.810620       -22.0581
 145   2.0000      -0.804287       -21.8858
 146   2.0000      -0.800963       -21.7953
 147   2.0000      -0.790117       -21.5002
 148   2.0000      -0.788330       -21.4516
 149   2.0000      -0.785285       -21.3687
 150   2.0000      -0.781014       -21.2525
 151   2.0000      -0.779453       -21.2100
 152   2.0000      -0.767713       -20.8905
 153   2.0000      -0.757642       -20.6165
 154   2.0000      -0.754394       -20.5281
 155   2.0000      -0.747415       -20.3382
 156   2.0000      -0.747247       -20.3336
 157   2.0000      -0.744760       -20.2659
 158   2.0000      -0.739487       -20.1225
 159   2.0000      -0.734824       -19.9956
 160   2.0000      -0.727617       -19.7995
 161   2.0000      -0.724077       -19.7031
 162   2.0000      -0.718955       -19.5637
 163   2.0000      -0.718912       -19.5626
 164   2.0000      -0.717062       -19.5122
 165   2.0000      -0.709159       -19.2972
 166   2.0000      -0.702103       -19.1052
 167   2.0000      -0.697869       -18.9900
 168   2.0000      -0.693384       -18.8679
 169   2.0000      -0.685038       -18.6408
 170   2.0000      -0.680189       -18.5089
 171   2.0000      -0.676193       -18.4002
 172   2.0000      -0.675939       -18.3932
 173   2.0000      -0.673379       -18.3236
 174   2.0000      -0.664672       -18.0867
 175   2.0000      -0.662874       -18.0377
 176   2.0000      -0.660355       -17.9692
 177   2.0000      -0.651980       -17.7413
 178   2.0000      -0.649983       -17.6869
 179   2.0000      -0.646332       -17.5876
 180   2.0000      -0.642304       -17.4780
 181   2.0000      -0.639694       -17.4070
 182   2.0000      -0.638918       -17.3858
 183   2.0000      -0.633662       -17.2428
 184   2.0000      -0.632663       -17.2156
 185   2.0000      -0.629121       -17.1192
 186   2.0000      -0.627457       -17.0740
 187   2.0000      -0.625515       -17.0211
 188   2.0000      -0.623658       -16.9706
 189   2.0000      -0.622764       -16.9463
 190   2.0000      -0.621270       -16.9056
 191   2.0000      -0.618486       -16.8298
 192   2.0000      -0.616517       -16.7763
 193   2.0000      -0.613576       -16.6963
 194   2.0000      -0.611587       -16.6421
 195   2.0000      -0.609684       -16.5903
 196   2.0000      -0.608839       -16.5673
 197   2.0000      -0.602115       -16.3844
 198   2.0000      -0.597849       -16.2683
 199   2.0000      -0.591290       -16.0898
 200   2.0000      -0.588433       -16.0121
 201   2.0000      -0.585613       -15.9353
 202   2.0000      -0.582562       -15.8523
 203   2.0000      -0.582026       -15.8377
 204   2.0000      -0.581151       -15.8139
 205   2.0000      -0.580252       -15.7895
 206   2.0000      -0.576289       -15.6816
 207   2.0000      -0.575288       -15.6544
 208   2.0000      -0.574514       -15.6333
 209   2.0000      -0.574025       -15.6200
 210   2.0000      -0.573113       -15.5952
 211   2.0000      -0.570481       -15.5236
 212   2.0000      -0.567347       -15.4383
 213   2.0000      -0.563740       -15.3402
 214   2.0000      -0.558703       -15.2031
 215   2.0000      -0.556576       -15.1452
 216   2.0000      -0.555617       -15.1191
 217   2.0000      -0.547628       -14.9017
 218   2.0000      -0.544650       -14.8207
 219   2.0000      -0.539182       -14.6719
 220   2.0000      -0.539137       -14.6707
 221   2.0000      -0.538840       -14.6626
 222   2.0000      -0.536782       -14.6066
 223   2.0000      -0.533919       -14.5287
 224   2.0000      -0.533652       -14.5214
 225   2.0000      -0.529869       -14.4185
 226   2.0000      -0.521936       -14.2026
 227   2.0000      -0.519956       -14.1487
 228   2.0000      -0.518000       -14.0955
 229   2.0000      -0.516040       -14.0422
 230   2.0000      -0.515464       -14.0265
 231   2.0000      -0.509191       -13.8558
 232   2.0000      -0.508324       -13.8322
 233   2.0000      -0.503890       -13.7115
 234   2.0000      -0.501434       -13.6447
 235   2.0000      -0.500592       -13.6218
 236   2.0000      -0.499470       -13.5913
 237   2.0000      -0.499133       -13.5821
 238   2.0000      -0.498119       -13.5545
 239   2.0000      -0.496784       -13.5182
 240   2.0000      -0.493478       -13.4282
 241   2.0000      -0.485631       -13.2147
 242   2.0000      -0.484448       -13.1825
 243   2.0000      -0.484149       -13.1744
 244   2.0000      -0.478761       -13.0277
 245   2.0000      -0.478364       -13.0169
 246   2.0000      -0.477009       -12.9801
 247   2.0000      -0.473382       -12.8814
 248   2.0000      -0.469557       -12.7773
 249   2.0000      -0.466550       -12.6955
 250   2.0000      -0.464242       -12.6327
 251   2.0000      -0.463075       -12.6009
 252   2.0000      -0.454226       -12.3601
 253   2.0000      -0.452224       -12.3056
 254   2.0000      -0.439657       -11.9637
 255   2.0000      -0.421541       -11.4707
 256   2.0000      -0.399102       -10.8601
 257   2.0000      -0.392549       -10.6818
 258   2.0000      -0.389268       -10.5925
 259   2.0000      -0.379390       -10.3237
 260   2.0000      -0.376972       -10.2579
 261   2.0000      -0.364089        -9.9074
 262   2.0000      -0.356961        -9.7134
 263   2.0000      -0.353569        -9.6211
 264   2.0000      -0.343854        -9.3567
 265   2.0000      -0.341218        -9.2850
 266   2.0000      -0.304562        -8.2876
 267   2.0000      -0.275392        -7.4938
 268   0.0000      -0.029029        -0.7899
 269   0.0000      -0.018367        -0.4998
 270   0.0000       0.009013         0.2453
 271   0.0000       0.015670         0.4264
 272   0.0000       0.042641         1.1603

MULLIKEN ATOMIC CHARGES
-----------------------
   0 C :    0.501755
   1 O :   -0.382219
   2 C :   -0.182780
   3 C :   -0.037702
   4 C :    0.344881
   5 F :   -0.303133
   6 C :    0.344279
   7 F :   -0.301308
   8 C :   -0.054997
   9 C :   -0.022538
  10 C :    0.216219
  11 C :   -0.336695
  12 C :    0.033769
  13 N :   -0.076082
  14 C :    0.045002
  15 N :   -0.082452
  16 C :   -0.274985
  17 C :    0.170832
  18 C :   -0.272544
  19 C :    0.125789
  20 C :   -0.157899
  21 C :    0.008797
  22 S :    0.162197
  23 C :   -0.176143
  24 C :    0.370614
  25 O :   -0.574382
  26 C :    0.109308
  27 C :   -0.045924
  28 C :   -0.023363
  29 C :    0.007372
  30 C :   -0.019473
  31 C :   -0.086634
  32 C :    0.041550
  33 C :   -0.030455
  34 C :    0.018866
  35 C :   -0.307672
  36 C :    0.013840
  37 C :   -0.025937
  38 C :    0.031169
  39 C :   -0.031173
  40 C :   -0.042851
  41 C :    0.040321
  42 C :   -0.081249
  43 C :    0.363914
  44 C :   -0.191736
  45 C :    0.031346
  46 C :    0.014829
  47 C :   -0.131512
  48 C :    0.113261
  49 C :   -0.034527
  50 C :   -0.022612
  51 C :   -0.003418
  52 C :   -0.009230
  53 O :   -0.575141
  54 C :    0.042814
  55 C :   -0.148310
  56 S :    0.197578
  57 C :    0.127032
  58 C :   -0.319215
  59 C :    0.245820
  60 C :   -0.330449
  61 C :    0.045938
  62 N :   -0.084856
  63 C :    0.026328
  64 N :   -0.062141
  65 C :   -0.042715
  66 C :   -0.059547
  67 C :    0.344652
  68 F :   -0.302466
  69 C :    0.339288
  70 F :   -0.304460
  71 C :   -0.031622
  72 C :   -0.168008
  73 C :    0.462571
  74 O :   -0.361864
  75 H :    0.087505
  76 H :    0.106518
  77 H :    0.095074
  78 H :    0.097835
  79 H :    0.037803
  80 H :    0.051874
  81 H :    0.056191
  82 H :    0.036323
  83 H :    0.046251
  84 H :    0.036058
  85 H :    0.042942
  86 H :    0.037597
  87 H :    0.043022
  88 H :    0.045512
  89 H :    0.040611
  90 H :    0.046306
  91 H :    0.035874
  92 H :    0.040499
  93 H :    0.044359
  94 H :    0.040272
  95 H :    0.044633
  96 H :    0.033410
  97 H :    0.039886
  98 H :    0.034010
  99 H :    0.046041
 100 H :    0.039048
 101 H :    0.041061
 102 H :    0.049775
 103 H :    0.032718
 104 H :    0.056255
 105 H :    0.034956
 106 H :    0.041983
 107 H :    0.054360
 108 H :    0.035082
 109 H :    0.047844
 110 H :    0.033736
 111 H :    0.044133
 112 H :    0.044772
 113 H :    0.066354
 114 H :    0.091917
 115 H :    0.103075
 116 H :    0.089017
Sum of atomic charges:   -0.0000000

LOEWDIN ATOMIC CHARGES
----------------------
   0 C :    0.175655
   1 O :   -0.234807
   2 C :   -0.053073
   3 C :    0.003172
   4 C :    0.120985
   5 F :   -0.101730
   6 C :    0.121033
   7 F :   -0.101291
   8 C :   -0.006325
   9 C :   -0.023514
  10 C :    0.122236
  11 C :   -0.171570
  12 C :    0.012008
  13 N :   -0.093567
  14 C :    0.018169
  15 N :   -0.095323
  16 C :   -0.155500
  17 C :    0.112596
  18 C :   -0.218542
  19 C :    0.048873
  20 C :   -0.091611
  21 C :   -0.106802
  22 S :    0.421082
  23 C :   -0.103393
  24 C :    0.123939
  25 O :   -0.176136
  26 C :    0.100228
  27 C :   -0.017360
  28 C :   -0.035271
  29 C :   -0.019471
  30 C :   -0.036621
  31 C :   -0.047772
  32 C :    0.007909
  33 C :   -0.024484
  34 C :    0.008616
  35 C :   -0.029916
  36 C :   -0.004802
  37 C :   -0.037866
  38 C :   -0.001360
  39 C :   -0.039531
  40 C :   -0.021466
  41 C :    0.007364
  42 C :   -0.046371
  43 C :    0.119252
  44 C :   -0.100836
  45 C :    0.010906
  46 C :   -0.102770
  47 C :   -0.093623
  48 C :    0.098852
  49 C :   -0.017195
  50 C :   -0.035620
  51 C :   -0.020676
  52 C :   -0.034657
  53 O :   -0.177635
  54 C :    0.031396
  55 C :   -0.214459
  56 S :    0.460247
  57 C :    0.112471
  58 C :   -0.163719
  59 C :    0.115302
  60 C :   -0.172594
  61 C :    0.016756
  62 N :   -0.096028
  63 C :   -0.004848
  64 N :   -0.090572
  65 C :   -0.018696
  66 C :   -0.010733
  67 C :    0.122762
  68 F :   -0.102284
  69 C :    0.118285
  70 F :   -0.103188
  71 C :    0.005610
  72 C :   -0.056433
  73 C :    0.171756
  74 O :   -0.237399
  75 H :    0.058597
  76 H :    0.057449
  77 H :    0.049256
  78 H :    0.043960
  79 H :    0.020335
  80 H :    0.024240
  81 H :    0.020584
  82 H :    0.020608
  83 H :    0.021356
  84 H :    0.021586
  85 H :    0.021003
  86 H :    0.016427
  87 H :    0.022359
  88 H :    0.021781
  89 H :    0.036812
  90 H :    0.028157
  91 H :    0.016264
  92 H :    0.014089
  93 H :    0.018735
  94 H :    0.021242
  95 H :    0.019298
  96 H :    0.014766
  97 H :    0.020485
  98 H :    0.016290
  99 H :    0.024808
 100 H :    0.016210
 101 H :    0.036985
 102 H :    0.031193
 103 H :    0.017129
 104 H :    0.026670
 105 H :    0.014549
 106 H :    0.021802
 107 H :    0.025346
 108 H :    0.021104
 109 H :    0.023047
 110 H :    0.016346
 111 H :    0.023309
 112 H :    0.021625
 113 H :    0.039890
 114 H :    0.060082
 115 H :    0.056810
 116 H :    0.059397

  Mayer bond orders larger than 0.100000
B(  0-C ,  1-O ) :   2.0132 B(  0-C ,  2-C ) :   0.9772 B(  0-C , 16-C ) :   0.9904
B(  2-C ,  3-C ) :   1.3798 B(  2-C ,  9-C ) :   1.3848 B(  3-C ,  4-C ) :   1.3946
B(  3-C , 75-H ) :   1.0062 B(  4-C ,  5-F ) :   0.9435 B(  4-C ,  6-C ) :   1.3218
B(  6-C ,  7-F ) :   0.9489 B(  6-C ,  8-C ) :   1.4244 B(  8-C ,  9-C ) :   1.3596
B(  8-C , 76-H ) :   0.9857 B(  9-C , 10-C ) :   1.0386 B( 10-C , 11-C ) :   1.6986
B( 10-C , 16-C ) :   1.0959 B( 11-C , 12-C ) :   1.0561 B( 11-C , 14-C ) :   1.0509
B( 12-C , 13-N ) :   2.9925 B( 14-C , 15-N ) :   2.9838 B( 16-C , 17-C ) :   1.6469
B( 17-C , 18-C ) :   1.2241 B( 17-C , 77-H ) :   0.9512 B( 18-C , 19-C ) :   1.4748
B( 18-C , 22-S ) :   1.0772 B( 19-C , 20-C ) :   1.3609 B( 19-C , 78-H ) :   0.9832
B( 20-C , 21-C ) :   1.5477 B( 20-C , 26-C ) :   0.9470 B( 21-C , 22-S ) :   1.1689
B( 21-C , 23-C ) :   1.1041 B( 23-C , 24-C ) :   1.3243 B( 23-C , 34-C ) :   1.3233
B( 24-C , 25-O ) :   1.0074 B( 24-C , 31-C ) :   1.4318 B( 25-O , 26-C ) :   0.7566
B( 26-C , 27-C ) :   1.0163 B( 26-C , 29-C ) :   1.0112 B( 27-C , 28-C ) :   1.0425
B( 27-C , 79-H ) :   0.9616 B( 27-C , 80-H ) :   0.9689 B( 28-C , 81-H ) :   0.9788
B( 28-C , 82-H ) :   0.9865 B( 28-C , 83-H ) :   0.9807 B( 29-C , 30-C ) :   1.0403
B( 29-C , 84-H ) :   0.9620 B( 29-C , 85-H ) :   0.9656 B( 30-C , 86-H ) :   0.9826
B( 30-C , 87-H ) :   0.9866 B( 30-C , 88-H ) :   0.9823 B( 31-C , 32-C ) :   1.3814
B( 31-C , 89-H ) :   1.0078 B( 32-C , 33-C ) :   1.3747 B( 32-C , 41-C ) :   1.0404
B( 33-C , 34-C ) :   1.5215 B( 33-C , 35-C ) :   0.9213 B( 34-C , 90-H ) :   0.9969
B( 35-C , 36-C ) :   0.9981 B( 35-C , 38-C ) :   1.0047 B( 35-C , 40-C ) :   0.9464
B( 36-C , 37-C ) :   1.0385 B( 36-C , 91-H ) :   0.9730 B( 36-C , 92-H ) :   0.9708
B( 37-C , 93-H ) :   0.9826 B( 37-C , 94-H ) :   0.9869 B( 37-C , 95-H ) :   0.9809
B( 38-C , 39-C ) :   1.0448 B( 38-C , 96-H ) :   0.9694 B( 38-C , 97-H ) :   0.9719
B( 39-C , 98-H ) :   0.9830 B( 39-C , 99-H ) :   0.9846 B( 39-C ,100-H ) :   0.9802
B( 40-C , 41-C ) :   1.3795 B( 40-C , 45-C ) :   1.5087 B( 41-C , 42-C ) :   1.3736
B( 42-C , 43-C ) :   1.4388 B( 42-C ,101-H ) :   1.0084 B( 43-C , 44-C ) :   1.3283
B( 43-C , 53-O ) :   0.9996 B( 44-C , 45-C ) :   1.3295 B( 44-C , 46-C ) :   1.1052
B( 45-C ,102-H ) :   0.9965 B( 46-C , 47-C ) :   1.5256 B( 46-C , 56-S ) :   1.1978
B( 47-C , 48-C ) :   0.9478 B( 47-C , 54-C ) :   1.3708 B( 48-C , 49-C ) :   1.0084
B( 48-C , 51-C ) :   1.0092 B( 48-C , 53-O ) :   0.7681 B( 49-C , 50-C ) :   1.0409
B( 49-C ,103-H ) :   0.9630 B( 49-C ,104-H ) :   0.9694 B( 50-C ,105-H ) :   0.9799
B( 50-C ,106-H ) :   0.9871 B( 50-C ,107-H ) :   0.9820 B( 51-C , 52-C ) :   1.0390
B( 51-C ,108-H ) :   0.9613 B( 51-C ,109-H ) :   0.9670 B( 52-C ,110-H ) :   0.9832
B( 52-C ,111-H ) :   0.9863 B( 52-C ,112-H ) :   0.9827 B( 54-C , 55-C ) :   1.4594
B( 54-C ,113-H ) :   0.9993 B( 55-C , 56-S ) :   1.0580 B( 55-C , 57-C ) :   1.2380
B( 57-C , 58-C ) :   1.6742 B( 57-C ,114-H ) :   0.9517 B( 58-C , 59-C ) :   1.0763
B( 58-C , 73-C ) :   1.0093 B( 59-C , 60-C ) :   1.6920 B( 59-C , 65-C ) :   1.0409
B( 60-C , 61-C ) :   1.0398 B( 60-C , 63-C ) :   1.0698 B( 61-C , 62-N ) :   2.9911
B( 63-C , 64-N ) :   3.0089 B( 65-C , 66-C ) :   1.3712 B( 65-C , 72-C ) :   1.3792
B( 66-C , 67-C ) :   1.4196 B( 66-C ,115-H ) :   0.9869 B( 67-C , 68-F ) :   0.9464
B( 67-C , 69-C ) :   1.3242 B( 69-C , 70-F ) :   0.9413 B( 69-C , 71-C ) :   1.3966
B( 71-C , 72-C ) :   1.3803 B( 71-C ,116-H ) :   1.0053 B( 72-C , 73-C ) :   0.9529
B( 73-C , 74-O ) :   2.0698

-----------------------------------------------------------------------------
         ABSORPTION SPECTRUM VIA TRANSITION ELECTRIC DIPOLE MOMENTS
-----------------------------------------------------------------------------
State   Energy    Wavelength  fosc         T2        TX        TY        TZ
        (cm-1)      (nm)                 (au**2)    (au)      (au)      (au)
-----------------------------------------------------------------------------
   1   23785.3    420.4   2.435809990  33.71398   3.12324   3.64707  -3.26469
   2   27133.5    368.5   0.486424048   5.90180   2.32995  -0.26031   0.63668
   3   35060.8    285.2   0.160289862   1.50508   0.74993   0.08699  -0.96702

FINAL SINGLE POINT ENERGY     -4041.528957890522

DIPOLE MOMENT
-------------
                                X             Y             Z
Electronic contribution:    -49.07900      20.82653     -22.13003
Nuclear contribution   :     53.36417     -21.99009      23.88847
                        -----------------------------------------
Total Dipole Moment    :      4.28517      -1.16356       1.75845
                        -----------------------------------------
Magnitude (a.u.)       :      4.77584
Magnitude (Debye)      :     12.13923

Rotational constants in cm-1:     0.001861     0.000237     0.000226
Rotational constants in MHz :    55.780428     7.096787     6.762904

                             ****ORCA TERMINATED NORMALLY****
TOTAL RUN TIME: 0 days 18 hours 39 minutes 5 seconds 818 msec
