                         Program Version 4.2.0 -  RELEASE  -
|  1> # ORCA input file
|  2> # H2.out
|  3> ! Engrad Keepdens
|  4> %maxcore 1000
|  5> %tddft
|  6>   nroots 3
|  7>   # nroots is the number of states to be computed
|  8>   Iroot 1
|  9>   end
| 10> * xyz 0 1
| 11>    C        1.75640        -1.75825        -1.75321
| 12>    O        2.27973        -1.32069        -2.75288
| 13>    C        2.38931        -2.06271        -0.45189
| 14>    C        3.71959        -1.98277        -0.08604
| 15>    C        4.07804        -2.35402         1.20040
| 16>    C        3.10716        -2.79808         2.09140
| 17>   Cl        3.57918        -3.27108         3.67900
| 18>    C        1.76213        -2.87260         1.74206
| 19>    C        1.40829        -2.49761         0.45868
| 20>    C        0.10028        -2.41408        -0.19024
| 21>    C       -1.10195        -2.29907         0.45867
| 22>    C       -2.27948        -1.87127        -0.18990
| 23>    N       -3.23661        -1.46832        -0.67944
| 24>    C       -1.28077        -2.50724         1.83971
| 25>    N       -1.49237        -2.70020         2.95154
| 26>    C        0.33599        -2.16105        -1.59249
| 27>    C       -0.46150        -2.31340        -2.68873
| 28>    C       -1.65158        -3.05611        -2.81961
| 29>    S       -2.02732        -4.39309        -1.73011
| 30>    C       -3.50031        -4.69919        -2.57272
| 31>    C       -3.66072        -3.81789        -3.65081
| 32>    C       -2.61516        -2.90522        -3.81098
| 33>    C       -2.60929        -1.82432        -4.83732
| 34>    C       -3.10663        -0.51143        -4.22694
| 35>    S       -5.14755        -4.07116        -4.53579
| 36>    C       -5.54631        -5.34904        -3.44398
| 37>    C       -4.58273        -5.57308        -2.45292
| 38>    N       -4.98471        -6.58627        -1.62714
| 39>    C       -4.02602        -7.18107        -0.72814
| 40>    C       -6.21935        -7.03254        -2.06799
| 41>    C       -6.57168        -6.27820        -3.22861
| 42>    C       -7.72743        -6.55448        -3.99103
| 43>    N       -8.15052        -5.96219        -5.09673
| 44>    S       -9.49780        -6.70971        -5.59386
| 45>    N       -9.59226        -7.81674        -4.41640
| 46>    C       -8.57176        -7.63879        -3.59217
| 47>    C       -8.27148        -8.32820        -2.39723
| 48>    C       -7.13573        -8.01034        -1.59171
| 49>    N       -7.20055        -8.77778        -0.44125
| 50>    C       -6.50077        -8.66452         0.81519
| 51>    C       -6.74062        -7.32395         1.53167
| 52>    C       -8.32228        -9.55667        -0.51481
| 53>    C       -8.99533        -9.31573        -1.71788
| 54>    S      -10.44926       -10.23017        -1.90272
| 55>    C      -10.16440       -10.95628        -0.33591
| 56>    C       -8.99648       -10.48722         0.28177
| 57>    S       -8.81177       -11.16875         1.85216
| 58>    C      -10.27746       -12.13011         1.63954
| 59>    C      -10.89608       -11.88294         0.41885
| 60>    C      -12.25083       -12.35682         0.00255
| 61>    C      -12.21484       -13.13914        -1.31027
| 62>    C      -10.69301       -12.88508         2.75843
| 63>    C      -11.34526       -14.08737         2.74110
| 64>    C      -11.98010       -14.73701         3.86570
| 65>    C      -12.27732       -14.16366         5.07483
| 66>    C      -12.00673       -12.82099         5.41278
| 67>    N      -11.83786       -11.73548         5.74708
| 68>    C      -12.91546       -14.83699         6.13705
| 69>    N      -13.42348       -15.33000         7.04063
| 70>    C      -12.33681       -16.09259         3.44854
| 71>    C      -12.96121       -17.12145         4.13262
| 72>    C      -13.18221       -18.31540         3.45251
| 73>   Cl      -13.96122       -19.60871         4.28239
| 74>    C      -12.79359       -18.49643         2.12984
| 75>    C      -12.16029       -17.46799         1.45044
| 76>    C      -11.94235       -16.27414         2.11135
| 77>    C      -11.28818       -15.04782         1.61346
| 78>    O      -10.71212       -14.91188         0.55543
| 79>    C       -3.54087        -8.56611        -1.19009
| 80>    C       -2.82537        -8.48528        -2.54992
| 81>    C       -2.61706        -9.15027        -0.11089
| 82>    C       -2.46007       -10.66156        -0.23061
| 83>    C       -3.73135        -8.78649        -3.73936
| 84>    C       -8.22130        -7.14138         1.90507
| 85>    C       -9.03510        -6.39432         0.85343
| 86>    C       -5.84768        -7.26555         2.78086
| 87>    C       -5.62945        -5.84146         3.27828
| 88>    H        4.45678        -1.63628        -0.79347
| 89>    H        5.10725        -2.30353         1.51874
| 90>    H        1.03498        -3.22228         2.45692
| 91>    H       -0.08221        -1.86056        -3.60012
| 92>    H       -3.26809        -2.11765        -5.65690
| 93>    H       -1.60099        -1.68393        -5.23213
| 94>    H       -4.11183        -0.63651        -3.83310
| 95>    H       -3.12071         0.26937        -4.98249
| 96>    H       -2.45829        -0.20149        -3.41088
| 97>    H       -4.43126        -7.22354         0.28163
| 98>    H       -3.16789        -6.50406        -0.69510
| 99>    H       -5.43663        -8.84621         0.66631
|100>    H       -6.87320        -9.47074         1.45310
|101>    H       -6.45554        -6.50763         0.85890
|102>    H      -12.88189       -11.47191        -0.13133
|103>    H      -12.68906       -12.97049         0.79005
|104>    H      -11.84697       -12.51338        -2.11893
|105>    H      -13.21621       -13.47933        -1.56134
|106>    H      -11.56374       -14.00260        -1.21071
|107>    H      -10.42223       -12.46304         3.71984
|108>    H      -13.27143       -17.02375         5.15984
|109>    H      -12.98758       -19.43894         1.64285
|110>    H      -11.84537       -17.58532         0.42516
|111>    H       -4.41024        -9.22398        -1.29910
|112>    H       -2.00629        -9.20559        -2.56137
|113>    H       -2.37997        -7.49532        -2.67056
|114>    H       -3.01868        -8.92315         0.88025
|115>    H       -1.63992        -8.66856        -0.18096
|116>    H       -3.42236       -11.15581        -0.11344
|117>    H       -1.78994       -11.03143         0.54122
|118>    H       -2.05002       -10.94051        -1.19765
|119>    H       -4.17293        -9.77604        -3.63973
|120>    H       -3.15410        -8.76425        -4.66076
|121>    H       -4.53615        -8.06273        -3.83187
|122>    H       -8.28004        -6.57575         2.83568
|123>    H       -8.67323        -8.11700         2.09593
|124>    H       -8.60059        -5.41526         0.66167
|125>    H      -10.05298        -6.24959         1.20783
|126>    H       -9.08346        -6.93495        -0.08749
|127>    H       -4.87151        -7.70586         2.55931
|128>    H       -6.30144        -7.86897         3.56918
|129>    H       -5.13866        -5.23925         2.51631
|130>    H       -5.00045        -5.84532         4.16456
|131>    H       -6.57165        -5.36437         3.53377
|132> *
|133>
|134>                          ****END OF INPUT****

CARTESIAN COORDINATES (ANGSTROEM)
---------------------------------
  C      1.756400   -1.758250   -1.753210
  O      2.279730   -1.320690   -2.752880
  C      2.389310   -2.062710   -0.451890
  C      3.719590   -1.982770   -0.086040
  C      4.078040   -2.354020    1.200400
  C      3.107160   -2.798080    2.091400
  Cl     3.579180   -3.271080    3.679000
  C      1.762130   -2.872600    1.742060
  C      1.408290   -2.497610    0.458680
  C      0.100280   -2.414080   -0.190240
  C     -1.101950   -2.299070    0.458670
  C     -2.279480   -1.871270   -0.189900
  N     -3.236610   -1.468320   -0.679440
  C     -1.280770   -2.507240    1.839710
  N     -1.492370   -2.700200    2.951540
  C      0.335990   -2.161050   -1.592490
  C     -0.461500   -2.313400   -2.688730
  C     -1.651580   -3.056110   -2.819610
  S     -2.027320   -4.393090   -1.730110
  C     -3.500310   -4.699190   -2.572720
  C     -3.660720   -3.817890   -3.650810
  C     -2.615160   -2.905220   -3.810980
  C     -2.609290   -1.824320   -4.837320
  C     -3.106630   -0.511430   -4.226940
  S     -5.147550   -4.071160   -4.535790
  C     -5.546310   -5.349040   -3.443980
  C     -4.582730   -5.573080   -2.452920
  N     -4.984710   -6.586270   -1.627140
  C     -4.026020   -7.181070   -0.728140
  C     -6.219350   -7.032540   -2.067990
  C     -6.571680   -6.278200   -3.228610
  C     -7.727430   -6.554480   -3.991030
  N     -8.150520   -5.962190   -5.096730
  S     -9.497800   -6.709710   -5.593860
  N     -9.592260   -7.816740   -4.416400
  C     -8.571760   -7.638790   -3.592170
  C     -8.271480   -8.328200   -2.397230
  C     -7.135730   -8.010340   -1.591710
  N     -7.200550   -8.777780   -0.441250
  C     -6.500770   -8.664520    0.815190
  C     -6.740620   -7.323950    1.531670
  C     -8.322280   -9.556670   -0.514810
  C     -8.995330   -9.315730   -1.717880
  S    -10.449260  -10.230170   -1.902720
  C    -10.164400  -10.956280   -0.335910
  C     -8.996480  -10.487220    0.281770
  S     -8.811770  -11.168750    1.852160
  C    -10.277460  -12.130110    1.639540
  C    -10.896080  -11.882940    0.418850
  C    -12.250830  -12.356820    0.002550
  C    -12.214840  -13.139140   -1.310270
  C    -10.693010  -12.885080    2.758430
  C    -11.345260  -14.087370    2.741100
  C    -11.980100  -14.737010    3.865700
  C    -12.277320  -14.163660    5.074830
  C    -12.006730  -12.820990    5.412780
  N    -11.837860  -11.735480    5.747080
  C    -12.915460  -14.836990    6.137050
  N    -13.423480  -15.330000    7.040630
  C    -12.336810  -16.092590    3.448540
  C    -12.961210  -17.121450    4.132620
  C    -13.182210  -18.315400    3.452510
  Cl   -13.961220  -19.608710    4.282390
  C    -12.793590  -18.496430    2.129840
  C    -12.160290  -17.467990    1.450440
  C    -11.942350  -16.274140    2.111350
  C    -11.288180  -15.047820    1.613460
  O    -10.712120  -14.911880    0.555430
  C     -3.540870   -8.566110   -1.190090
  C     -2.825370   -8.485280   -2.549920
  C     -2.617060   -9.150270   -0.110890
  C     -2.460070  -10.661560   -0.230610
  C     -3.731350   -8.786490   -3.739360
  C     -8.221300   -7.141380    1.905070
  C     -9.035100   -6.394320    0.853430
  C     -5.847680   -7.265550    2.780860
  C     -5.629450   -5.841460    3.278280
  H      4.456780   -1.636280   -0.793470
  H      5.107250   -2.303530    1.518740
  H      1.034980   -3.222280    2.456920
  H     -0.082210   -1.860560   -3.600120
  H     -3.268090   -2.117650   -5.656900
  H     -1.600990   -1.683930   -5.232130
  H     -4.111830   -0.636510   -3.833100
  H     -3.120710    0.269370   -4.982490
  H     -2.458290   -0.201490   -3.410880
  H     -4.431260   -7.223540    0.281630
  H     -3.167890   -6.504060   -0.695100
  H     -5.436630   -8.846210    0.666310
  H     -6.873200   -9.470740    1.453100
  H     -6.455540   -6.507630    0.858900
  H    -12.881890  -11.471910   -0.131330
  H    -12.689060  -12.970490    0.790050
  H    -11.846970  -12.513380   -2.118930
  H    -13.216210  -13.479330   -1.561340
  H    -11.563740  -14.002600   -1.210710
  H    -10.422230  -12.463040    3.719840
  H    -13.271430  -17.023750    5.159840
  H    -12.987580  -19.438940    1.642850
  H    -11.845370  -17.585320    0.425160
  H     -4.410240   -9.223980   -1.299100
  H     -2.006290   -9.205590   -2.561370
  H     -2.379970   -7.495320   -2.670560
  H     -3.018680   -8.923150    0.880250
  H     -1.639920   -8.668560   -0.180960
  H     -3.422360  -11.155810   -0.113440
  H     -1.789940  -11.031430    0.541220
  H     -2.050020  -10.940510   -1.197650
  H     -4.172930   -9.776040   -3.639730
  H     -3.154100   -8.764250   -4.660760
  H     -4.536150   -8.062730   -3.831870
  H     -8.280040   -6.575750    2.835680
  H     -8.673230   -8.117000    2.095930
  H     -8.600590   -5.415260    0.661670
  H    -10.052980   -6.249590    1.207830
  H     -9.083460   -6.934950   -0.087490
  H     -4.871510   -7.705860    2.559310
  H     -6.301440   -7.868970    3.569180
  H     -5.138660   -5.239250    2.516310
  H     -5.000450   -5.845320    4.164560
  H     -6.571650   -5.364370    3.533770

 Total Charge           Charge          ....    0
 Multiplicity           Mult            ....    1
 Number of Electrons    NEL             ....  590
 Basis Dimension        Dim             .... 1326

ORBITAL ENERGIES
----------------

  NO   OCC          E(Eh)            E(eV)
   0   2.0000    -104.817979     -2852.2422
   1   2.0000    -104.817624     -2852.2326
   2   2.0000     -92.020771     -2504.0125
   3   2.0000     -91.980528     -2502.9174
   4   2.0000     -91.980315     -2502.9116
   5   2.0000     -91.974179     -2502.7446
   6   2.0000     -91.972673     -2502.7037
   7   2.0000     -20.565798      -559.6238
   8   2.0000     -20.561820      -559.5156
   9   2.0000     -15.653860      -425.9632
  10   2.0000     -15.653691      -425.9586
  11   2.0000     -15.609671      -424.7608
  12   2.0000     -15.609609      -424.7591
  13   2.0000     -15.590814      -424.2476
  14   2.0000     -15.590454      -424.2378
  15   2.0000     -15.588197      -424.1764
  16   2.0000     -15.585553      -424.1044
  17   2.0000     -11.364746      -309.2505
  18   2.0000     -11.360311      -309.1298
  19   2.0000     -11.340032      -308.5779
  20   2.0000     -11.338892      -308.5469
  21   2.0000     -11.336548      -308.4832
  22   2.0000     -11.336324      -308.4771
  23   2.0000     -11.331200      -308.3376
  24   2.0000     -11.329708      -308.2970
  25   2.0000     -11.321317      -308.0687
  26   2.0000     -11.320877      -308.0567
  27   2.0000     -11.320814      -308.0550
  28   2.0000     -11.317098      -307.9539
  29   2.0000     -11.312765      -307.8360
  30   2.0000     -11.311509      -307.8018
  31   2.0000     -11.306635      -307.6692
  32   2.0000     -11.306159      -307.6562
  33   2.0000     -11.306123      -307.6552
  34   2.0000     -11.305432      -307.6364
  35   2.0000     -11.305053      -307.6261
  36   2.0000     -11.304455      -307.6099
  37   2.0000     -11.300998      -307.5158
  38   2.0000     -11.300751      -307.5091
  39   2.0000     -11.299387      -307.4720
  40   2.0000     -11.298650      -307.4519
  41   2.0000     -11.298625      -307.4512
  42   2.0000     -11.298175      -307.4390
  43   2.0000     -11.297155      -307.4112
  44   2.0000     -11.296403      -307.3907
  45   2.0000     -11.293613      -307.3148
  46   2.0000     -11.292652      -307.2887
  47   2.0000     -11.289710      -307.2086
  48   2.0000     -11.289664      -307.2074
  49   2.0000     -11.289359      -307.1991
  50   2.0000     -11.287992      -307.1619
  51   2.0000     -11.287574      -307.1505
  52   2.0000     -11.287402      -307.1458
  53   2.0000     -11.286877      -307.1315
  54   2.0000     -11.286650      -307.1254
  55   2.0000     -11.286483      -307.1208
  56   2.0000     -11.284570      -307.0687
  57   2.0000     -11.280025      -306.9451
  58   2.0000     -11.278382      -306.9004
  59   2.0000     -11.275477      -306.8213
  60   2.0000     -11.273096      -306.7565
  61   2.0000     -11.272884      -306.7508
  62   2.0000     -11.271263      -306.7067
  63   2.0000     -11.262970      -306.4810
  64   2.0000     -11.256021      -306.2919
  65   2.0000     -11.254449      -306.2491
  66   2.0000     -11.251989      -306.1822
  67   2.0000     -11.247819      -306.0687
  68   2.0000     -11.242555      -305.9255
  69   2.0000     -11.240180      -305.8608
  70   2.0000     -11.237564      -305.7897
  71   2.0000     -11.237045      -305.7755
  72   2.0000     -11.234909      -305.7174
  73   2.0000     -11.229043      -305.5578
  74   2.0000     -11.227878      -305.5261
  75   2.0000     -11.225928      -305.4730
  76   2.0000     -11.223049      -305.3947
  77   2.0000     -10.581776      -287.9448
  78   2.0000     -10.581402      -287.9346
  79   2.0000      -9.052570      -246.3330
  80   2.0000      -9.015329      -245.3196
  81   2.0000      -9.015201      -245.3161
  82   2.0000      -9.008593      -245.1363
  83   2.0000      -9.007007      -245.0931
  84   2.0000      -8.056878      -219.2388
  85   2.0000      -8.056501      -219.2285
  86   2.0000      -8.053179      -219.1381
  87   2.0000      -8.053154      -219.1375
  88   2.0000      -8.052796      -219.1277
  89   2.0000      -8.052773      -219.1271
  90   2.0000      -6.739875      -183.4013
  91   2.0000      -6.738054      -183.3518
  92   2.0000      -6.736401      -183.3068
  93   2.0000      -6.702994      -182.3978
  94   2.0000      -6.702891      -182.3949
  95   2.0000      -6.701905      -182.3681
  96   2.0000      -6.701794      -182.3651
  97   2.0000      -6.699811      -182.3111
  98   2.0000      -6.699729      -182.3089
  99   2.0000      -6.696143      -182.2113
 100   2.0000      -6.695338      -182.1894
 101   2.0000      -6.694542      -182.1678
 102   2.0000      -6.693724      -182.1455
 103   2.0000      -6.693007      -182.1260
 104   2.0000      -6.691398      -182.0822
 105   2.0000      -1.399002       -38.0688
 106   2.0000      -1.393834       -37.9281
 107   2.0000      -1.360461       -37.0200
 108   2.0000      -1.349079       -36.7103
 109   2.0000      -1.342768       -36.5386
 110   2.0000      -1.252099       -34.0713
 111   2.0000      -1.252031       -34.0695
 112   2.0000      -1.233339       -33.5608
 113   2.0000      -1.232861       -33.5478
 114   2.0000      -1.231389       -33.5078
 115   2.0000      -1.230215       -33.4759
 116   2.0000      -1.225355       -33.3436
 117   2.0000      -1.223490       -33.2929
 118   2.0000      -1.195792       -32.5392
 119   2.0000      -1.195275       -32.5251
 120   2.0000      -1.192666       -32.4541
 121   2.0000      -1.175627       -31.9904
 122   2.0000      -1.161022       -31.5930
 123   2.0000      -1.152591       -31.3636
 124   2.0000      -1.138147       -30.9705
 125   2.0000      -1.135225       -30.8910
 126   2.0000      -1.122206       -30.5368
 127   2.0000      -1.116507       -30.3817
 128   2.0000      -1.099698       -29.9243
 129   2.0000      -1.097667       -29.8690
 130   2.0000      -1.092056       -29.7163
 131   2.0000      -1.086658       -29.5695
 132   2.0000      -1.078855       -29.3571
 133   2.0000      -1.071962       -29.1696
 134   2.0000      -1.063375       -28.9359
 135   2.0000      -1.052767       -28.6472
 136   2.0000      -1.046466       -28.4758
 137   2.0000      -1.046126       -28.4665
 138   2.0000      -1.034635       -28.1538
 139   2.0000      -1.027996       -27.9732
 140   2.0000      -1.022337       -27.8192
 141   2.0000      -1.017121       -27.6773
 142   2.0000      -1.000693       -27.2302
 143   2.0000      -0.992262       -27.0008
 144   2.0000      -0.985946       -26.8289
 145   2.0000      -0.981578       -26.7101
 146   2.0000      -0.962602       -26.1937
 147   2.0000      -0.957888       -26.0655
 148   2.0000      -0.953396       -25.9432
 149   2.0000      -0.937277       -25.5046
 150   2.0000      -0.926648       -25.2154
 151   2.0000      -0.914948       -24.8970
 152   2.0000      -0.912090       -24.8192
 153   2.0000      -0.905012       -24.6266
 154   2.0000      -0.887169       -24.1411
 155   2.0000      -0.875745       -23.8302
 156   2.0000      -0.870186       -23.6790
 157   2.0000      -0.868278       -23.6271
 158   2.0000      -0.858890       -23.3716
 159   2.0000      -0.850607       -23.1462
 160   2.0000      -0.847402       -23.0590
 161   2.0000      -0.844760       -22.9871
 162   2.0000      -0.838188       -22.8083
 163   2.0000      -0.834014       -22.6947
 164   2.0000      -0.830016       -22.5859
 165   2.0000      -0.820391       -22.3240
 166   2.0000      -0.806908       -21.9571
 167   2.0000      -0.802752       -21.8440
 168   2.0000      -0.798959       -21.7408
 169   2.0000      -0.793603       -21.5950
 170   2.0000      -0.787924       -21.4405
 171   2.0000      -0.779057       -21.1992
 172   2.0000      -0.775381       -21.0992
 173   2.0000      -0.768984       -20.9251
 174   2.0000      -0.757518       -20.6131
 175   2.0000      -0.751966       -20.4620
 176   2.0000      -0.748358       -20.3639
 177   2.0000      -0.738303       -20.0903
 178   2.0000      -0.729133       -19.8407
 179   2.0000      -0.725767       -19.7491
 180   2.0000      -0.717047       -19.5118
 181   2.0000      -0.709389       -19.3034
 182   2.0000      -0.706351       -19.2208
 183   2.0000      -0.695945       -18.9376
 184   2.0000      -0.694735       -18.9047
 185   2.0000      -0.692894       -18.8546
 186   2.0000      -0.686563       -18.6823
 187   2.0000      -0.683119       -18.5886
 188   2.0000      -0.681585       -18.5469
 189   2.0000      -0.676426       -18.4065
 190   2.0000      -0.672221       -18.2921
 191   2.0000      -0.660516       -17.9736
 192   2.0000      -0.657048       -17.8792
 193   2.0000      -0.655098       -17.8261
 194   2.0000      -0.651098       -17.7173
 195   2.0000      -0.649653       -17.6780
 196   2.0000      -0.646639       -17.5959
 197   2.0000      -0.645360       -17.5611
 198   2.0000      -0.643204       -17.5025
 199   2.0000      -0.641940       -17.4681
 200   2.0000      -0.636310       -17.3149
 201   2.0000      -0.635367       -17.2892
 202   2.0000      -0.629253       -17.1229
 203   2.0000      -0.626737       -17.0544
 204   2.0000      -0.624487       -16.9932
 205   2.0000      -0.622029       -16.9263
 206   2.0000      -0.619638       -16.8612
 207   2.0000      -0.618998       -16.8438
 208   2.0000      -0.614393       -16.7185
 209   2.0000      -0.611388       -16.6367
 210   2.0000      -0.611157       -16.6304
 211   2.0000      -0.602741       -16.4014
 212   2.0000      -0.602382       -16.3917
 213   2.0000      -0.601616       -16.3708
 214   2.0000      -0.599443       -16.3117
 215   2.0000      -0.595678       -16.2092
 216   2.0000      -0.591456       -16.0943
 217   2.0000      -0.591403       -16.0929
 218   2.0000      -0.584021       -15.8920
 219   2.0000      -0.581966       -15.8361
 220   2.0000      -0.578754       -15.7487
 221   2.0000      -0.576664       -15.6918
 222   2.0000      -0.576435       -15.6856
 223   2.0000      -0.575256       -15.6535
 224   2.0000      -0.574156       -15.6236
 225   2.0000      -0.572918       -15.5899
 226   2.0000      -0.571757       -15.5583
 227   2.0000      -0.571210       -15.5434
 228   2.0000      -0.570190       -15.5157
 229   2.0000      -0.568632       -15.4733
 230   2.0000      -0.562272       -15.3002
 231   2.0000      -0.561905       -15.2902
 232   2.0000      -0.559878       -15.2351
 233   2.0000      -0.558530       -15.1984
 234   2.0000      -0.555636       -15.1196
 235   2.0000      -0.554001       -15.0751
 236   2.0000      -0.551688       -15.0122
 237   2.0000      -0.549390       -14.9497
 238   2.0000      -0.543252       -14.7826
 239   2.0000      -0.542388       -14.7591
 240   2.0000      -0.538236       -14.6461
 241   2.0000      -0.537021       -14.6131
 242   2.0000      -0.536174       -14.5900
 243   2.0000      -0.532949       -14.5023
 244   2.0000      -0.526312       -14.3217
 245   2.0000      -0.520135       -14.1536
 246   2.0000      -0.515948       -14.0396
 247   2.0000      -0.514933       -14.0120
 248   2.0000      -0.514510       -14.0005
 249   2.0000      -0.511992       -13.9320
 250   2.0000      -0.510634       -13.8951
 251   2.0000      -0.508514       -13.8374
 252   2.0000      -0.504098       -13.7172
 253   2.0000      -0.503107       -13.6902
 254   2.0000      -0.500767       -13.6266
 255   2.0000      -0.499867       -13.6021
 256   2.0000      -0.498550       -13.5662
 257   2.0000      -0.497762       -13.5448
 258   2.0000      -0.496631       -13.5140
 259   2.0000      -0.494550       -13.4574
 260   2.0000      -0.492356       -13.3977
 261   2.0000      -0.490753       -13.3541
 262   2.0000      -0.489644       -13.3239
 263   2.0000      -0.488186       -13.2842
 264   2.0000      -0.485436       -13.2094
 265   2.0000      -0.483150       -13.1472
 266   2.0000      -0.482029       -13.1167
 267   2.0000      -0.479071       -13.0362
 268   2.0000      -0.474869       -12.9219
 269   2.0000      -0.474586       -12.9141
 270   2.0000      -0.473761       -12.8917
 271   2.0000      -0.472701       -12.8629
 272   2.0000      -0.468462       -12.7475
 273   2.0000      -0.467347       -12.7172
 274   2.0000      -0.466274       -12.6880
 275   2.0000      -0.463332       -12.6079
 276   2.0000      -0.460368       -12.5273
 277   2.0000      -0.453104       -12.3296
 278   2.0000      -0.450465       -12.2578
 279   2.0000      -0.446386       -12.1468
 280   2.0000      -0.441601       -12.0166
 281   2.0000      -0.411179       -11.1888
 282   2.0000      -0.409835       -11.1522
 283   2.0000      -0.388762       -10.5788
 284   2.0000      -0.382049       -10.3961
 285   2.0000      -0.377018       -10.2592
 286   2.0000      -0.371446       -10.1076
 287   2.0000      -0.358129        -9.7452
 288   2.0000      -0.356496        -9.7008
 289   2.0000      -0.351426        -9.5628
 290   2.0000      -0.340975        -9.2784
 291   2.0000      -0.329184        -8.9576
 292   2.0000      -0.310806        -8.4575
 293   2.0000      -0.305670        -8.3177
 294   2.0000      -0.256459        -6.9786
 295   0.0000      -0.028895        -0.7863
 296   0.0000      -0.015561        -0.4234
 297   0.0000       0.012449         0.3388
 298   0.0000       0.020505         0.5580
 299   0.0000       0.033988         0.9249

MULLIKEN ATOMIC CHARGES
-----------------------
   0 C :    0.478945
   1 O :   -0.356530
   2 C :   -0.179503
   3 C :    0.032847
   4 C :    0.010689
   5 C :    0.040128
   6 Cl:   -0.107114
   7 C :    0.023127
   8 C :   -0.048370
   9 C :    0.233153
  10 C :   -0.345308
  11 C :    0.049173
  12 N :   -0.062988
  13 C :    0.036650
  14 N :   -0.067421
  15 C :   -0.339250
  16 C :    0.153528
  17 C :   -0.225922
  18 S :    0.161108
  19 C :    0.005538
  20 C :   -0.118412
  21 C :   -0.045829
  22 C :    0.006604
  23 C :   -0.009445
  24 S :    0.242780
  25 C :    0.025551
  26 C :    0.106062
  27 N :   -0.597878
  28 C :    0.286676
  29 C :    0.253023
  30 C :   -0.253658
  31 C :    0.169368
  32 N :   -0.480642
  33 S :    0.578212
  34 N :   -0.479699
  35 C :    0.165955
  36 C :   -0.242979
  37 C :    0.248277
  38 N :   -0.597725
  39 C :    0.285881
  40 C :   -0.289274
  41 C :    0.118118
  42 C :    0.016890
  43 S :    0.231794
  44 C :   -0.120376
  45 C :   -0.018955
  46 S :    0.164428
  47 C :   -0.242292
  48 C :   -0.030575
  49 C :    0.016006
  50 C :   -0.049645
  51 C :    0.158892
  52 C :   -0.314644
  53 C :    0.251292
  54 C :   -0.362690
  55 C :    0.021721
  56 N :   -0.059578
  57 C :    0.034001
  58 N :   -0.064251
  59 C :   -0.029658
  60 C :    0.025236
  61 C :    0.037377
  62 Cl:   -0.103837
  63 C :    0.016820
  64 C :    0.030869
  65 C :   -0.187004
  66 C :    0.489067
  67 O :   -0.367200
  68 C :   -0.289075
  69 C :   -0.037788
  70 C :   -0.064902
  71 C :    0.003430
  72 C :   -0.019356
  73 C :   -0.042105
  74 C :   -0.018024
  75 C :   -0.068658
  76 C :    0.004500
  77 H :    0.064502
  78 H :    0.058524
  79 H :    0.073798
  80 H :    0.082118
  81 H :    0.052210
  82 H :    0.053834
  83 H :    0.053674
  84 H :    0.043608
  85 H :    0.047481
  86 H :    0.049343
  87 H :    0.057562
  88 H :    0.045124
  89 H :    0.057542
  90 H :    0.050481
  91 H :    0.063546
  92 H :    0.047633
  93 H :    0.041862
  94 H :    0.034911
  95 H :    0.082159
  96 H :    0.099609
  97 H :    0.079176
  98 H :    0.059004
  99 H :    0.062439
 100 H :    0.048377
 101 H :    0.036214
 102 H :    0.034659
 103 H :    0.025809
 104 H :    0.036209
 105 H :    0.026993
 106 H :    0.039227
 107 H :    0.030874
 108 H :    0.029249
 109 H :    0.035190
 110 H :    0.058450
 111 H :    0.040073
 112 H :    0.035248
 113 H :    0.031334
 114 H :    0.036862
 115 H :    0.054935
 116 H :    0.021649
 117 H :    0.037441
 118 H :    0.030612
 119 H :    0.043157
 120 H :    0.032139
Sum of atomic charges:   -0.0000000

LOEWDIN ATOMIC CHARGES
----------------------
   0 C :    0.164937
   1 O :   -0.235630
   2 C :   -0.061758
   3 C :    0.034088
   4 C :   -0.018197
   5 C :   -0.087451
   6 Cl:    0.116544
   7 C :   -0.012649
   8 C :   -0.011956
   9 C :    0.101317
  10 C :   -0.172009
  11 C :    0.001713
  12 N :   -0.093560
  13 C :    0.011146
  14 N :   -0.093745
  15 C :   -0.159857
  16 C :    0.111452
  17 C :   -0.219174
  18 S :    0.417561
  19 C :   -0.162252
  20 C :   -0.205234
  21 C :    0.022476
  22 C :   -0.012112
  23 C :   -0.015580
  24 S :    0.417070
  25 C :   -0.161670
  26 C :   -0.025896
  27 N :   -0.013698
  28 C :    0.084686
  29 C :    0.041147
  30 C :   -0.089914
  31 C :   -0.025983
  32 N :   -0.324030
  33 S :    0.616940
  34 N :   -0.323558
  35 C :   -0.026122
  36 C :   -0.088429
  37 C :    0.037958
  38 N :   -0.012872
  39 C :    0.083604
  40 C :   -0.037884
  41 C :   -0.026171
  42 C :   -0.166561
  43 S :    0.422767
  44 C :   -0.199212
  45 C :   -0.172859
  46 S :    0.403274
  47 C :   -0.207246
  48 C :    0.024648
  49 C :   -0.010954
  50 C :   -0.030521
  51 C :    0.115501
  52 C :   -0.156920
  53 C :    0.115021
  54 C :   -0.170749
  55 C :    0.008667
  56 N :   -0.091313
  57 C :    0.011509
  58 N :   -0.090300
  59 C :   -0.016456
  60 C :   -0.006219
  61 C :   -0.088459
  62 Cl:    0.118133
  63 C :   -0.014202
  64 C :    0.031329
  65 C :   -0.059127
  66 C :    0.162692
  67 O :   -0.224187
  68 C :   -0.037133
  69 C :   -0.016276
  70 C :   -0.017653
  71 C :   -0.027564
  72 C :   -0.031501
  73 C :   -0.016315
  74 C :   -0.031902
  75 C :   -0.018512
  76 C :   -0.025992
  77 H :    0.045266
  78 H :    0.038257
  79 H :    0.043379
  80 H :    0.053220
  81 H :    0.024827
  82 H :    0.027871
  83 H :    0.026466
  84 H :    0.020178
  85 H :    0.020992
  86 H :    0.015041
  87 H :    0.017178
  88 H :    0.013555
  89 H :    0.017115
  90 H :    0.010160
  91 H :    0.031124
  92 H :    0.022029
  93 H :    0.006481
  94 H :    0.018164
  95 H :    0.026844
  96 H :    0.046386
  97 H :    0.044809
  98 H :    0.038711
  99 H :    0.044473
 100 H :    0.009835
 101 H :    0.015182
 102 H :    0.010995
 103 H :    0.008118
 104 H :    0.016186
 105 H :    0.015002
 106 H :    0.020120
 107 H :    0.015614
 108 H :    0.014513
 109 H :    0.019049
 110 H :    0.017638
 111 H :    0.017168
 112 H :    0.008532
 113 H :    0.015475
 114 H :    0.019815
 115 H :    0.016258
 116 H :    0.005960
 117 H :    0.016649
 118 H :    0.016404
 119 H :    0.022037
 120 H :    0.016267

  Mayer bond orders larger than 0.100000
B(  0-C ,  1-O ) :   2.0966 B(  0-C ,  2-C ) :   0.9501 B(  0-C , 15-C ) :   0.9928
B(  2-C ,  3-C ) :   1.4293 B(  2-C ,  8-C ) :   1.3486 B(  3-C ,  4-C ) :   1.4033
B(  3-C , 77-H ) :   1.0059 B(  4-C ,  5-C ) :   1.4074 B(  4-C , 78-H ) :   1.0017
B(  5-C ,  6-Cl) :   0.9811 B(  5-C ,  7-C ) :   1.3914 B(  7-C ,  8-C ) :   1.4285
B(  7-C , 79-H ) :   0.9924 B(  8-C ,  9-C ) :   1.0363 B(  9-C , 10-C ) :   1.6983
B(  9-C , 15-C ) :   1.0744 B( 10-C , 11-C ) :   1.0720 B( 10-C , 13-C ) :   1.0573
B( 11-C , 12-N ) :   2.9997 B( 13-C , 14-N ) :   2.9939 B( 15-C , 16-C ) :   1.6849
B( 16-C , 17-C ) :   1.2050 B( 16-C , 80-H ) :   0.9570 B( 17-C , 18-S ) :   1.0528
B( 17-C , 21-C ) :   1.5202 B( 18-S , 19-C ) :   1.0259 B( 19-C , 20-C ) :   1.5145
B( 19-C , 26-C ) :   1.3651 B( 20-C , 21-C ) :   1.4332 B( 20-C , 24-S ) :   0.9921
B( 21-C , 22-C ) :   0.9920 B( 22-C , 23-C ) :   1.0387 B( 22-C , 81-H ) :   0.9661
B( 22-C , 82-H ) :   0.9587 B( 23-C , 83-H ) :   0.9806 B( 23-C , 84-H ) :   0.9863
B( 23-C , 85-H ) :   0.9831 B( 24-S , 25-C ) :   0.9874 B( 25-C , 26-C ) :   1.4604
B( 25-C , 30-C ) :   1.4385 B( 26-C , 27-N ) :   1.0907 B( 27-N , 28-C ) :   0.8521
B( 27-N , 29-C ) :   1.0985 B( 28-C , 68-C ) :   1.0074 B( 28-C , 86-H ) :   0.9830
B( 28-C , 87-H ) :   0.9701 B( 29-C , 30-C ) :   1.4615 B( 29-C , 37-C ) :   1.1585
B( 30-C , 31-C ) :   1.1242 B( 31-C , 32-N ) :   1.5827 B( 31-C , 35-C ) :   1.1346
B( 32-N , 33-S ) :   1.1931 B( 32-N , 34-N ) :   0.1021 B( 33-S , 34-N ) :   1.1936
B( 34-N , 35-C ) :   1.5817 B( 35-C , 36-C ) :   1.1244 B( 36-C , 37-C ) :   1.4584
B( 36-C , 42-C ) :   1.4404 B( 37-C , 38-N ) :   1.1003 B( 38-N , 39-C ) :   0.8500
B( 38-N , 41-C ) :   1.0962 B( 39-C , 40-C ) :   1.0033 B( 39-C , 88-H ) :   0.9835
B( 39-C , 89-H ) :   0.9704 B( 40-C , 73-C ) :   0.9528 B( 40-C , 75-C ) :   1.0005
B( 40-C , 90-H ) :   0.9668 B( 41-C , 42-C ) :   1.4640 B( 41-C , 45-C ) :   1.3420
B( 42-C , 43-S ) :   0.9862 B( 43-S , 44-C ) :   0.9995 B( 44-C , 45-C ) :   1.5171
B( 44-C , 48-C ) :   1.3990 B( 45-C , 46-S ) :   1.0462 B( 46-S , 47-C ) :   1.0594
B( 47-C , 48-C ) :   1.5759 B( 47-C , 51-C ) :   1.1836 B( 48-C , 49-C ) :   0.9727
B( 49-C , 50-C ) :   1.0366 B( 49-C , 91-H ) :   0.9664 B( 49-C , 92-H ) :   0.9642
B( 50-C , 93-H ) :   0.9822 B( 50-C , 94-H ) :   0.9852 B( 50-C , 95-H ) :   0.9770
B( 51-C , 52-C ) :   1.6663 B( 51-C , 96-H ) :   0.9453 B( 52-C , 53-C ) :   1.0957
B( 52-C , 66-C ) :   0.9885 B( 53-C , 54-C ) :   1.6862 B( 53-C , 59-C ) :   1.0334
B( 54-C , 55-C ) :   1.0683 B( 54-C , 57-C ) :   1.0642 B( 55-C , 56-N ) :   2.9955
B( 57-C , 58-N ) :   2.9827 B( 59-C , 60-C ) :   1.4205 B( 59-C , 65-C ) :   1.3538
B( 60-C , 61-C ) :   1.3942 B( 60-C , 97-H ) :   0.9890 B( 61-C , 62-Cl) :   0.9880
B( 61-C , 63-C ) :   1.4053 B( 63-C , 64-C ) :   1.4013 B( 63-C , 98-H ) :   1.0011
B( 64-C , 65-C ) :   1.4290 B( 64-C , 99-H ) :   1.0066 B( 65-C , 66-C ) :   0.9636
B( 66-C , 67-O ) :   2.0414 B( 68-C , 69-C ) :   0.9487 B( 68-C , 70-C ) :   1.0032
B( 68-C ,100-H ) :   0.9665 B( 69-C , 72-C ) :   1.0455 B( 69-C ,101-H ) :   0.9825
B( 69-C ,102-H ) :   0.9709 B( 70-C , 71-C ) :   1.0426 B( 70-C ,103-H ) :   0.9808
B( 70-C ,104-H ) :   0.9686 B( 71-C ,105-H ) :   0.9842 B( 71-C ,106-H ) :   0.9864
B( 71-C ,107-H ) :   0.9849 B( 72-C ,108-H ) :   0.9841 B( 72-C ,109-H ) :   0.9856
B( 72-C ,110-H ) :   0.9864 B( 73-C , 74-C ) :   1.0453 B( 73-C ,111-H ) :   0.9817
B( 73-C ,112-H ) :   0.9704 B( 74-C ,113-H ) :   0.9840 B( 74-C ,114-H ) :   0.9855
B( 74-C ,115-H ) :   0.9864 B( 75-C , 76-C ) :   1.0412 B( 75-C ,116-H ) :   0.9810
B( 75-C ,117-H ) :   0.9684 B( 76-C ,118-H ) :   0.9846 B( 76-C ,119-H ) :   0.9863
B( 76-C ,120-H ) :   0.9849

-----------------------------------------------------------------------------
         ABSORPTION SPECTRUM VIA TRANSITION ELECTRIC DIPOLE MOMENTS
-----------------------------------------------------------------------------
State   Energy    Wavelength  fosc         T2        TX        TY        TZ
        (cm-1)      (nm)                 (au**2)    (au)      (au)      (au)
-----------------------------------------------------------------------------
   1   21493.6    465.3   1.940143592  29.71666  -3.78854  -3.81639   0.89377
   2   25714.5    388.9   0.866956923  11.09929  -0.04273  -1.22704   3.09707
   3   32518.9    307.5   0.121714289   1.23220  -0.97177  -0.51591   0.14730

FINAL SINGLE POINT ENERGY     -5786.309698510922

DIPOLE MOMENT
-------------
                                X             Y             Z
Electronic contribution:    -20.46194     -17.68965      13.79440
Nuclear contribution   :     21.96467      16.27616     -17.06025
                        -----------------------------------------
Total Dipole Moment    :      1.50273      -1.41348      -3.26584
                        -----------------------------------------
Magnitude (a.u.)       :      3.86289
Magnitude (Debye)      :      9.81867

Rotational constants in cm-1:     0.001363     0.000282     0.000251
Rotational constants in MHz :    40.865089     8.452460     7.521912

                             ****ORCA TERMINATED NORMALLY****
TOTAL RUN TIME: 0 days 22 hours 1 minutes 21 seconds 768 msec
