                         Program Version 4.2.0 -  RELEASE  -
|  1> # ORCA input file
|  2> # H2.out: Geometry 34
|  3> ! Engrad Keepdens
|  4> %maxcore 1000
|  5> %tddft
|  6>   nroots 3
|  7>   # nroots is the number of states to be computed
|  8>   Iroot 1
|  9>   end
| 10> * xyz 0 1
| 11>    C        2.16198        -2.52513        -2.22716
| 12>    O        2.60751        -2.38511        -3.34833
| 13>    C        2.92380        -2.65751        -0.95797
| 14>    C        4.30088        -2.70481        -0.77642
| 15>    C        4.80065        -2.82213         0.52226
| 16>    C        3.90838        -2.87729         1.60340
| 17>   Cl        4.54777        -3.01374         3.21603
| 18>    C        2.51803        -2.82506         1.43292
| 19>    C        2.02470        -2.72408         0.12948
| 20>    C        0.63834        -2.59306        -0.39224
| 21>    C       -0.47244        -2.23194         0.35330
| 22>    C       -1.65237        -1.71134        -0.26208
| 23>    N       -2.58651        -1.23232        -0.76064
| 24>    C       -0.47649        -2.23135         1.78097
| 25>    N       -0.49324        -2.25478         2.94312
| 26>    C        0.72019        -2.64815        -1.84108
| 27>    C       -0.20401        -2.84374        -2.83843
| 28>    C       -1.50917        -3.39285        -2.83669
| 29>    S       -2.08721        -4.52107        -1.59813
| 30>    C       -3.60737        -4.68042        -2.41508
| 31>    C       -3.64050        -3.90664        -3.59661
| 32>    C       -2.46362        -3.17843        -3.84688
| 33>    C       -2.27035        -2.19542        -4.96491
| 34>    C       -2.30659        -0.73946        -4.47264
| 35>    S       -5.13890        -4.09060        -4.51043
| 36>    C       -5.70556        -5.21456        -3.30599
| 37>    C       -4.80800        -5.40407        -2.24200
| 38>    N       -5.33619        -6.31670        -1.34684
| 39>    C       -4.50568        -6.92686        -0.31453
| 40>    C       -6.57585        -6.73381        -1.83865
| 41>    C       -6.79774        -6.07851        -3.09268
| 42>    C       -7.86832        -6.46777        -3.96004
| 43>    N       -8.11234        -6.01359        -5.18122
| 44>    S       -9.38306        -6.89490        -5.77612
| 45>    N       -9.63798        -7.88560        -4.47335
| 46>    C       -8.74452        -7.54735        -3.55322
| 47>    C       -8.59094        -8.10701        -2.24424
| 48>    C       -7.55321        -7.67418        -1.35816
| 49>    N       -7.72710        -8.32862        -0.13448
| 50>    C       -7.17982        -8.00360         1.18266
| 51>    C       -7.32709        -6.54153         1.63795
| 52>    C       -8.79417        -9.20205        -0.26883
| 53>    C       -9.34514        -9.07585        -1.55332
| 54>    S      -10.66484       -10.16819        -1.86139
| 55>    C      -10.45087       -10.85151        -0.24528
| 56>    C       -9.43442       -10.20734         0.49473
| 57>    S       -9.25583       -10.92172         2.05799
| 58>    C      -10.49687       -12.14170         1.68091
| 59>    C      -11.06741       -11.94229         0.41033
| 60>    C      -12.28024       -12.64971        -0.13486
| 61>    C      -12.08386       -13.28365        -1.51994
| 62>    C      -10.79907       -13.06761         2.72197
| 63>    C      -11.17446       -14.38905         2.60297
| 64>    C      -11.68115       -15.26657         3.65923
| 65>    C      -12.05014       -14.91300         4.94475
| 66>    C      -11.98204       -13.57592         5.44820
| 67>    N      -11.93544       -12.50513         5.89820
| 68>    C      -12.52901       -15.85794         5.90570
| 69>    N      -12.91203       -16.60641         6.70817
| 70>    C      -11.77852       -16.63733         3.09196
| 71>    C      -12.23818       -17.84151         3.63497
| 72>    C      -12.22170       -18.97876         2.81576
| 73>   Cl      -12.80966       -20.48369         3.45875
| 74>    C      -11.75391       -18.94736         1.49339
| 75>    C      -11.28740       -17.74556         0.96129
| 76>    C      -11.31485       -16.61042         1.76272
| 77>    C      -10.89794       -15.23629         1.39970
| 78>    O      -10.36145       -14.91034         0.35888
| 79>    C       -4.15110        -8.40331        -0.54490
| 80>    C       -3.30862        -8.63845        -1.81439
| 81>    C       -3.43205        -8.92951         0.71249
| 82>    C       -3.40863       -10.45111         0.82354
| 83>    C       -4.06650        -8.64909        -3.14424
| 84>    C       -8.79172        -6.08783         1.78427
| 85>    C       -9.55015        -5.80030         0.48622
| 86>    C       -6.54626        -6.37472         2.96054
| 87>    C       -6.22445        -4.92583         3.32870
| 88>    H        4.96541        -2.64572        -1.64079
| 89>    H        5.87361        -2.86761         0.71504
| 90>    H        1.87156        -2.86689         2.30669
| 91>    H        0.18655        -2.58963        -3.83275
| 92>    H       -3.04934        -2.36198        -5.72583
| 93>    H       -1.30747        -2.39298        -5.46655
| 94>    H       -3.25751        -0.51562        -3.96564
| 95>    H       -2.18075        -0.04433        -5.31630
| 96>    H       -1.50256        -0.54848        -3.74670
| 97>    H       -4.98260        -6.79155         0.66170
| 98>    H       -3.57846        -6.34028        -0.27339
| 99>    H       -6.12949        -8.31674         1.22777
|100>    H       -7.71379        -8.64074         1.90092
|101>    H       -6.84873        -5.89192         0.88402
|102>    H      -13.08618       -11.89468        -0.19015
|103>    H      -12.62295       -13.40527         0.58263
|104>    H      -11.83126       -12.53029        -2.28086
|105>    H      -13.01076       -13.78284        -1.84371
|106>    H      -11.27764       -14.02649        -1.49404
|107>    H      -10.67895       -12.66709         3.73228
|108>    H      -12.60900       -17.92759         4.65252
|109>    H      -11.76465       -19.86342         0.90133
|110>    H      -10.90952       -17.67793        -0.06037
|111>    H       -5.09572        -8.96564        -0.65194
|112>    H       -2.80447        -9.61141        -1.70422
|113>    H       -2.49768        -7.88845        -1.84709
|114>    H       -3.92058        -8.51688         1.61284
|115>    H       -2.40244        -8.52953         0.72828
|116>    H       -4.43160       -10.85979         0.86814
|117>    H       -2.87717       -10.77437         1.73133
|118>    H       -2.90271       -10.92269        -0.03231
|119>    H       -4.94290        -9.31542        -3.09788
|120>    H       -3.41478        -9.01363        -3.95297
|121>    H       -4.42522        -7.65483        -3.44157
|122>    H       -8.79373        -5.16833         2.39075
|123>    H       -9.33809        -6.83785         2.38445
|124>    H       -8.95792        -5.16139        -0.18913
|125>    H      -10.48968        -5.26997         0.70597
|126>    H       -9.81632        -6.71108        -0.06720
|127>    H       -5.59837        -6.93703         2.89375
|128>    H       -7.11700        -6.85660         3.77456
|129>    H       -5.66360        -4.42797         2.52016
|130>    H       -5.60884        -4.87594         4.23973
|131>    H       -7.13244        -4.33348         3.51639
|132> *
|133>
|134>                          ****END OF INPUT****

CARTESIAN COORDINATES (ANGSTROEM)
---------------------------------
  C      2.161980   -2.525130   -2.227160
  O      2.607510   -2.385110   -3.348330
  C      2.923800   -2.657510   -0.957970
  C      4.300880   -2.704810   -0.776420
  C      4.800650   -2.822130    0.522260
  C      3.908380   -2.877290    1.603400
  Cl     4.547770   -3.013740    3.216030
  C      2.518030   -2.825060    1.432920
  C      2.024700   -2.724080    0.129480
  C      0.638340   -2.593060   -0.392240
  C     -0.472440   -2.231940    0.353300
  C     -1.652370   -1.711340   -0.262080
  N     -2.586510   -1.232320   -0.760640
  C     -0.476490   -2.231350    1.780970
  N     -0.493240   -2.254780    2.943120
  C      0.720190   -2.648150   -1.841080
  C     -0.204010   -2.843740   -2.838430
  C     -1.509170   -3.392850   -2.836690
  S     -2.087210   -4.521070   -1.598130
  C     -3.607370   -4.680420   -2.415080
  C     -3.640500   -3.906640   -3.596610
  C     -2.463620   -3.178430   -3.846880
  C     -2.270350   -2.195420   -4.964910
  C     -2.306590   -0.739460   -4.472640
  S     -5.138900   -4.090600   -4.510430
  C     -5.705560   -5.214560   -3.305990
  C     -4.808000   -5.404070   -2.242000
  N     -5.336190   -6.316700   -1.346840
  C     -4.505680   -6.926860   -0.314530
  C     -6.575850   -6.733810   -1.838650
  C     -6.797740   -6.078510   -3.092680
  C     -7.868320   -6.467770   -3.960040
  N     -8.112340   -6.013590   -5.181220
  S     -9.383060   -6.894900   -5.776120
  N     -9.637980   -7.885600   -4.473350
  C     -8.744520   -7.547350   -3.553220
  C     -8.590940   -8.107010   -2.244240
  C     -7.553210   -7.674180   -1.358160
  N     -7.727100   -8.328620   -0.134480
  C     -7.179820   -8.003600    1.182660
  C     -7.327090   -6.541530    1.637950
  C     -8.794170   -9.202050   -0.268830
  C     -9.345140   -9.075850   -1.553320
  S    -10.664840  -10.168190   -1.861390
  C    -10.450870  -10.851510   -0.245280
  C     -9.434420  -10.207340    0.494730
  S     -9.255830  -10.921720    2.057990
  C    -10.496870  -12.141700    1.680910
  C    -11.067410  -11.942290    0.410330
  C    -12.280240  -12.649710   -0.134860
  C    -12.083860  -13.283650   -1.519940
  C    -10.799070  -13.067610    2.721970
  C    -11.174460  -14.389050    2.602970
  C    -11.681150  -15.266570    3.659230
  C    -12.050140  -14.913000    4.944750
  C    -11.982040  -13.575920    5.448200
  N    -11.935440  -12.505130    5.898200
  C    -12.529010  -15.857940    5.905700
  N    -12.912030  -16.606410    6.708170
  C    -11.778520  -16.637330    3.091960
  C    -12.238180  -17.841510    3.634970
  C    -12.221700  -18.978760    2.815760
  Cl   -12.809660  -20.483690    3.458750
  C    -11.753910  -18.947360    1.493390
  C    -11.287400  -17.745560    0.961290
  C    -11.314850  -16.610420    1.762720
  C    -10.897940  -15.236290    1.399700
  O    -10.361450  -14.910340    0.358880
  C     -4.151100   -8.403310   -0.544900
  C     -3.308620   -8.638450   -1.814390
  C     -3.432050   -8.929510    0.712490
  C     -3.408630  -10.451110    0.823540
  C     -4.066500   -8.649090   -3.144240
  C     -8.791720   -6.087830    1.784270
  C     -9.550150   -5.800300    0.486220
  C     -6.546260   -6.374720    2.960540
  C     -6.224450   -4.925830    3.328700
  H      4.965410   -2.645720   -1.640790
  H      5.873610   -2.867610    0.715040
  H      1.871560   -2.866890    2.306690
  H      0.186550   -2.589630   -3.832750
  H     -3.049340   -2.361980   -5.725830
  H     -1.307470   -2.392980   -5.466550
  H     -3.257510   -0.515620   -3.965640
  H     -2.180750   -0.044330   -5.316300
  H     -1.502560   -0.548480   -3.746700
  H     -4.982600   -6.791550    0.661700
  H     -3.578460   -6.340280   -0.273390
  H     -6.129490   -8.316740    1.227770
  H     -7.713790   -8.640740    1.900920
  H     -6.848730   -5.891920    0.884020
  H    -13.086180  -11.894680   -0.190150
  H    -12.622950  -13.405270    0.582630
  H    -11.831260  -12.530290   -2.280860
  H    -13.010760  -13.782840   -1.843710
  H    -11.277640  -14.026490   -1.494040
  H    -10.678950  -12.667090    3.732280
  H    -12.609000  -17.927590    4.652520
  H    -11.764650  -19.863420    0.901330
  H    -10.909520  -17.677930   -0.060370
  H     -5.095720   -8.965640   -0.651940
  H     -2.804470   -9.611410   -1.704220
  H     -2.497680   -7.888450   -1.847090
  H     -3.920580   -8.516880    1.612840
  H     -2.402440   -8.529530    0.728280
  H     -4.431600  -10.859790    0.868140
  H     -2.877170  -10.774370    1.731330
  H     -2.902710  -10.922690   -0.032310
  H     -4.942900   -9.315420   -3.097880
  H     -3.414780   -9.013630   -3.952970
  H     -4.425220   -7.654830   -3.441570
  H     -8.793730   -5.168330    2.390750
  H     -9.338090   -6.837850    2.384450
  H     -8.957920   -5.161390   -0.189130
  H    -10.489680   -5.269970    0.705970
  H     -9.816320   -6.711080   -0.067200
  H     -5.598370   -6.937030    2.893750
  H     -7.117000   -6.856600    3.774560
  H     -5.663600   -4.427970    2.520160
  H     -5.608840   -4.875940    4.239730
  H     -7.132440   -4.333480    3.516390

 Total Charge           Charge          ....    0
 Multiplicity           Mult            ....    1
 Number of Electrons    NEL             ....  590
 Basis Dimension        Dim             .... 1326

ORBITAL ENERGIES
----------------

  NO   OCC          E(Eh)            E(eV)
   0   2.0000    -104.817633     -2852.2328
   1   2.0000    -104.817120     -2852.2188
   2   2.0000     -92.017598     -2503.9261
   3   2.0000     -91.985867     -2503.0627
   4   2.0000     -91.983345     -2502.9941
   5   2.0000     -91.976807     -2502.8162
   6   2.0000     -91.974960     -2502.7659
   7   2.0000     -20.567575      -559.6722
   8   2.0000     -20.563491      -559.5610
   9   2.0000     -15.657210      -426.0543
  10   2.0000     -15.656650      -426.0391
  11   2.0000     -15.618828      -425.0099
  12   2.0000     -15.618327      -424.9963
  13   2.0000     -15.598119      -424.4464
  14   2.0000     -15.595149      -424.3656
  15   2.0000     -15.595014      -424.3619
  16   2.0000     -15.590489      -424.2388
  17   2.0000     -11.367862      -309.3352
  18   2.0000     -11.363200      -309.2084
  19   2.0000     -11.349410      -308.8331
  20   2.0000     -11.346617      -308.7571
  21   2.0000     -11.340307      -308.5855
  22   2.0000     -11.339424      -308.5614
  23   2.0000     -11.336272      -308.4756
  24   2.0000     -11.334679      -308.4323
  25   2.0000     -11.329955      -308.3038
  26   2.0000     -11.327586      -308.2393
  27   2.0000     -11.327400      -308.2342
  28   2.0000     -11.322383      -308.0977
  29   2.0000     -11.319986      -308.0325
  30   2.0000     -11.317721      -307.9708
  31   2.0000     -11.314579      -307.8853
  32   2.0000     -11.313687      -307.8611
  33   2.0000     -11.313262      -307.8495
  34   2.0000     -11.312795      -307.8368
  35   2.0000     -11.309709      -307.7528
  36   2.0000     -11.309589      -307.7496
  37   2.0000     -11.308870      -307.7300
  38   2.0000     -11.307093      -307.6816
  39   2.0000     -11.307001      -307.6791
  40   2.0000     -11.305243      -307.6313
  41   2.0000     -11.304546      -307.6123
  42   2.0000     -11.304341      -307.6068
  43   2.0000     -11.303620      -307.5871
  44   2.0000     -11.302308      -307.5514
  45   2.0000     -11.300690      -307.5074
  46   2.0000     -11.298359      -307.4440
  47   2.0000     -11.296672      -307.3981
  48   2.0000     -11.295839      -307.3754
  49   2.0000     -11.295837      -307.3754
  50   2.0000     -11.293298      -307.3063
  51   2.0000     -11.292236      -307.2774
  52   2.0000     -11.292162      -307.2754
  53   2.0000     -11.290985      -307.2433
  54   2.0000     -11.290775      -307.2376
  55   2.0000     -11.290595      -307.2327
  56   2.0000     -11.289433      -307.2011
  57   2.0000     -11.283806      -307.0480
  58   2.0000     -11.282809      -307.0208
  59   2.0000     -11.281807      -306.9936
  60   2.0000     -11.279271      -306.9246
  61   2.0000     -11.279141      -306.9210
  62   2.0000     -11.276053      -306.8370
  63   2.0000     -11.268743      -306.6381
  64   2.0000     -11.260377      -306.4104
  65   2.0000     -11.259880      -306.3969
  66   2.0000     -11.259790      -306.3945
  67   2.0000     -11.253131      -306.2133
  68   2.0000     -11.251343      -306.1646
  69   2.0000     -11.244936      -305.9903
  70   2.0000     -11.243916      -305.9625
  71   2.0000     -11.243253      -305.9445
  72   2.0000     -11.242817      -305.9326
  73   2.0000     -11.238808      -305.8235
  74   2.0000     -11.233423      -305.6770
  75   2.0000     -11.232807      -305.6602
  76   2.0000     -11.230951      -305.6097
  77   2.0000     -10.580974      -287.9230
  78   2.0000     -10.580444      -287.9085
  79   2.0000      -9.048747      -246.2289
  80   2.0000      -9.019897      -245.4439
  81   2.0000      -9.017866      -245.3886
  82   2.0000      -9.010616      -245.1913
  83   2.0000      -9.008697      -245.1391
  84   2.0000      -8.056047      -219.2162
  85   2.0000      -8.055516      -219.2017
  86   2.0000      -8.052380      -219.1164
  87   2.0000      -8.052348      -219.1155
  88   2.0000      -8.051857      -219.1022
  89   2.0000      -8.051826      -219.1013
  90   2.0000      -6.735926      -183.2939
  91   2.0000      -6.734219      -183.2474
  92   2.0000      -6.732401      -183.1980
  93   2.0000      -6.707539      -182.5214
  94   2.0000      -6.706493      -182.4930
  95   2.0000      -6.705491      -182.4657
  96   2.0000      -6.704421      -182.4366
  97   2.0000      -6.704401      -182.4360
  98   2.0000      -6.702343      -182.3800
  99   2.0000      -6.698127      -182.2653
 100   2.0000      -6.697297      -182.2427
 101   2.0000      -6.696195      -182.2127
 102   2.0000      -6.695350      -182.1897
 103   2.0000      -6.694983      -182.1797
 104   2.0000      -6.693041      -182.1269
 105   2.0000      -1.397630       -38.0314
 106   2.0000      -1.392241       -37.8848
 107   2.0000      -1.350075       -36.7374
 108   2.0000      -1.336681       -36.3729
 109   2.0000      -1.332108       -36.2485
 110   2.0000      -1.245326       -33.8870
 111   2.0000      -1.242955       -33.8225
 112   2.0000      -1.226988       -33.3881
 113   2.0000      -1.226590       -33.3772
 114   2.0000      -1.223363       -33.2894
 115   2.0000      -1.223072       -33.2815
 116   2.0000      -1.221076       -33.2272
 117   2.0000      -1.217259       -33.1233
 118   2.0000      -1.193363       -32.4731
 119   2.0000      -1.188610       -32.3437
 120   2.0000      -1.187056       -32.3014
 121   2.0000      -1.168602       -31.7993
 122   2.0000      -1.155780       -31.4504
 123   2.0000      -1.146092       -31.1868
 124   2.0000      -1.133010       -30.8308
 125   2.0000      -1.129591       -30.7377
 126   2.0000      -1.117953       -30.4210
 127   2.0000      -1.113755       -30.3068
 128   2.0000      -1.095765       -29.8173
 129   2.0000      -1.091944       -29.7133
 130   2.0000      -1.086918       -29.5765
 131   2.0000      -1.081289       -29.4234
 132   2.0000      -1.073325       -29.2066
 133   2.0000      -1.066558       -29.0225
 134   2.0000      -1.058610       -28.8062
 135   2.0000      -1.048090       -28.5200
 136   2.0000      -1.042001       -28.3543
 137   2.0000      -1.037567       -28.2336
 138   2.0000      -1.030935       -28.0532
 139   2.0000      -1.023699       -27.8563
 140   2.0000      -1.021032       -27.7837
 141   2.0000      -1.013540       -27.5798
 142   2.0000      -0.997854       -27.1530
 143   2.0000      -0.989405       -26.9231
 144   2.0000      -0.983353       -26.7584
 145   2.0000      -0.979104       -26.6428
 146   2.0000      -0.959958       -26.1218
 147   2.0000      -0.956083       -26.0163
 148   2.0000      -0.949910       -25.8484
 149   2.0000      -0.932552       -25.3760
 150   2.0000      -0.921156       -25.0659
 151   2.0000      -0.910986       -24.7892
 152   2.0000      -0.909209       -24.7408
 153   2.0000      -0.902921       -24.5697
 154   2.0000      -0.883462       -24.0402
 155   2.0000      -0.873851       -23.7787
 156   2.0000      -0.868483       -23.6326
 157   2.0000      -0.865626       -23.5549
 158   2.0000      -0.856546       -23.3078
 159   2.0000      -0.848533       -23.0898
 160   2.0000      -0.846192       -23.0261
 161   2.0000      -0.844105       -22.9693
 162   2.0000      -0.835562       -22.7368
 163   2.0000      -0.829593       -22.5744
 164   2.0000      -0.826115       -22.4797
 165   2.0000      -0.815988       -22.2042
 166   2.0000      -0.804437       -21.8898
 167   2.0000      -0.798828       -21.7372
 168   2.0000      -0.795065       -21.6348
 169   2.0000      -0.790307       -21.5053
 170   2.0000      -0.783199       -21.3119
 171   2.0000      -0.776504       -21.1297
 172   2.0000      -0.772385       -21.0177
 173   2.0000      -0.764970       -20.8159
 174   2.0000      -0.754473       -20.5303
 175   2.0000      -0.747962       -20.3531
 176   2.0000      -0.744055       -20.2468
 177   2.0000      -0.734611       -19.9898
 178   2.0000      -0.725048       -19.7296
 179   2.0000      -0.721176       -19.6242
 180   2.0000      -0.712742       -19.3947
 181   2.0000      -0.708210       -19.2714
 182   2.0000      -0.702796       -19.1240
 183   2.0000      -0.691998       -18.8302
 184   2.0000      -0.689672       -18.7669
 185   2.0000      -0.686895       -18.6914
 186   2.0000      -0.682658       -18.5761
 187   2.0000      -0.680486       -18.5170
 188   2.0000      -0.678173       -18.4540
 189   2.0000      -0.673693       -18.3321
 190   2.0000      -0.670471       -18.2444
 191   2.0000      -0.657695       -17.8968
 192   2.0000      -0.652621       -17.7587
 193   2.0000      -0.649978       -17.6868
 194   2.0000      -0.646808       -17.6005
 195   2.0000      -0.645078       -17.5535
 196   2.0000      -0.642624       -17.4867
 197   2.0000      -0.639222       -17.3941
 198   2.0000      -0.638605       -17.3773
 199   2.0000      -0.637897       -17.3581
 200   2.0000      -0.634376       -17.2622
 201   2.0000      -0.631887       -17.1945
 202   2.0000      -0.625751       -17.0275
 203   2.0000      -0.624031       -16.9807
 204   2.0000      -0.621330       -16.9072
 205   2.0000      -0.620106       -16.8739
 206   2.0000      -0.616548       -16.7771
 207   2.0000      -0.615694       -16.7539
 208   2.0000      -0.611986       -16.6530
 209   2.0000      -0.609504       -16.5854
 210   2.0000      -0.608093       -16.5471
 211   2.0000      -0.603889       -16.4327
 212   2.0000      -0.600770       -16.3478
 213   2.0000      -0.599205       -16.3052
 214   2.0000      -0.596565       -16.2334
 215   2.0000      -0.592436       -16.1210
 216   2.0000      -0.588485       -16.0135
 217   2.0000      -0.585616       -15.9354
 218   2.0000      -0.579943       -15.7811
 219   2.0000      -0.579053       -15.7568
 220   2.0000      -0.578444       -15.7403
 221   2.0000      -0.577255       -15.7079
 222   2.0000      -0.576386       -15.6843
 223   2.0000      -0.574017       -15.6198
 224   2.0000      -0.572459       -15.5774
 225   2.0000      -0.571061       -15.5394
 226   2.0000      -0.570686       -15.5291
 227   2.0000      -0.567944       -15.4545
 228   2.0000      -0.567478       -15.4419
 229   2.0000      -0.565918       -15.3994
 230   2.0000      -0.559267       -15.2184
 231   2.0000      -0.558964       -15.2102
 232   2.0000      -0.558584       -15.1998
 233   2.0000      -0.555190       -15.1075
 234   2.0000      -0.553650       -15.0656
 235   2.0000      -0.551408       -15.0046
 236   2.0000      -0.549683       -14.9576
 237   2.0000      -0.547842       -14.9075
 238   2.0000      -0.543537       -14.7904
 239   2.0000      -0.542822       -14.7709
 240   2.0000      -0.539518       -14.6810
 241   2.0000      -0.536933       -14.6107
 242   2.0000      -0.535322       -14.5668
 243   2.0000      -0.534150       -14.5349
 244   2.0000      -0.527509       -14.3542
 245   2.0000      -0.519151       -14.1268
 246   2.0000      -0.513774       -13.9805
 247   2.0000      -0.513085       -13.9618
 248   2.0000      -0.510575       -13.8934
 249   2.0000      -0.510174       -13.8825
 250   2.0000      -0.508403       -13.8343
 251   2.0000      -0.507705       -13.8154
 252   2.0000      -0.501317       -13.6415
 253   2.0000      -0.500286       -13.6135
 254   2.0000      -0.498308       -13.5597
 255   2.0000      -0.497477       -13.5370
 256   2.0000      -0.495778       -13.4908
 257   2.0000      -0.495029       -13.4704
 258   2.0000      -0.494375       -13.4526
 259   2.0000      -0.493510       -13.4291
 260   2.0000      -0.490569       -13.3490
 261   2.0000      -0.489429       -13.3180
 262   2.0000      -0.486976       -13.2513
 263   2.0000      -0.485930       -13.2228
 264   2.0000      -0.484751       -13.1907
 265   2.0000      -0.482876       -13.1397
 266   2.0000      -0.481441       -13.1007
 267   2.0000      -0.478813       -13.0292
 268   2.0000      -0.475138       -12.9292
 269   2.0000      -0.474349       -12.9077
 270   2.0000      -0.473657       -12.8889
 271   2.0000      -0.473384       -12.8814
 272   2.0000      -0.471751       -12.8370
 273   2.0000      -0.470536       -12.8039
 274   2.0000      -0.467149       -12.7118
 275   2.0000      -0.462746       -12.5920
 276   2.0000      -0.459300       -12.4982
 277   2.0000      -0.452690       -12.3183
 278   2.0000      -0.448837       -12.2135
 279   2.0000      -0.445958       -12.1351
 280   2.0000      -0.440970       -11.9994
 281   2.0000      -0.410696       -11.1756
 282   2.0000      -0.409250       -11.1363
 283   2.0000      -0.387401       -10.5417
 284   2.0000      -0.382986       -10.4216
 285   2.0000      -0.375522       -10.2185
 286   2.0000      -0.370185       -10.0733
 287   2.0000      -0.358419        -9.7531
 288   2.0000      -0.356048        -9.6886
 289   2.0000      -0.352533        -9.5929
 290   2.0000      -0.341893        -9.3034
 291   2.0000      -0.331268        -9.0143
 292   2.0000      -0.314445        -8.5565
 293   2.0000      -0.306360        -8.3365
 294   2.0000      -0.259507        -7.0615
 295   0.0000      -0.030888        -0.8405
 296   0.0000      -0.018248        -0.4965
 297   0.0000       0.010910         0.2969
 298   0.0000       0.018893         0.5141
 299   0.0000       0.030753         0.8368

MULLIKEN ATOMIC CHARGES
-----------------------
   0 C :    0.470295
   1 O :   -0.363621
   2 C :   -0.180562
   3 C :    0.028316
   4 C :    0.009256
   5 C :    0.025711
   6 Cl:   -0.107689
   7 C :    0.021036
   8 C :   -0.045570
   9 C :    0.240891
  10 C :   -0.335438
  11 C :    0.053031
  12 N :   -0.078322
  13 C :    0.046992
  14 N :   -0.090375
  15 C :   -0.341456
  16 C :    0.122540
  17 C :   -0.199738
  18 S :    0.191647
  19 C :   -0.005670
  20 C :   -0.125034
  21 C :   -0.042263
  22 C :   -0.005746
  23 C :   -0.034193
  24 S :    0.244711
  25 C :   -0.001667
  26 C :    0.117199
  27 N :   -0.619710
  28 C :    0.296708
  29 C :    0.242587
  30 C :   -0.215088
  31 C :    0.166320
  32 N :   -0.470997
  33 S :    0.541467
  34 N :   -0.468910
  35 C :    0.163896
  36 C :   -0.220347
  37 C :    0.261869
  38 N :   -0.624211
  39 C :    0.299186
  40 C :   -0.293062
  41 C :    0.124874
  42 C :    0.001728
  43 S :    0.228719
  44 C :   -0.128545
  45 C :   -0.013304
  46 S :    0.173136
  47 C :   -0.251994
  48 C :   -0.016042
  49 C :    0.012165
  50 C :   -0.065630
  51 C :    0.151192
  52 C :   -0.300708
  53 C :    0.230658
  54 C :   -0.337666
  55 C :    0.035966
  56 N :   -0.080917
  57 C :    0.044253
  58 N :   -0.081780
  59 C :   -0.026078
  60 C :    0.023939
  61 C :    0.023589
  62 Cl:   -0.104864
  63 C :    0.015935
  64 C :    0.026175
  65 C :   -0.192612
  66 C :    0.484293
  67 O :   -0.368782
  68 C :   -0.279019
  69 C :   -0.054949
  70 C :   -0.085561
  71 C :   -0.011391
  72 C :   -0.023962
  73 C :   -0.047839
  74 C :   -0.023268
  75 C :   -0.088930
  76 C :   -0.012311
  77 H :    0.074457
  78 H :    0.068554
  79 H :    0.086556
  80 H :    0.095971
  81 H :    0.055461
  82 H :    0.062678
  83 H :    0.063034
  84 H :    0.048976
  85 H :    0.050700
  86 H :    0.050142
  87 H :    0.054504
  88 H :    0.048736
  89 H :    0.055287
  90 H :    0.055572
  91 H :    0.067258
  92 H :    0.049075
  93 H :    0.047840
  94 H :    0.039960
  95 H :    0.083541
  96 H :    0.106183
  97 H :    0.089412
  98 H :    0.068926
  99 H :    0.072698
 100 H :    0.054862
 101 H :    0.040105
 102 H :    0.030436
 103 H :    0.030762
 104 H :    0.038695
 105 H :    0.032886
 106 H :    0.043986
 107 H :    0.038046
 108 H :    0.032954
 109 H :    0.040529
 110 H :    0.064129
 111 H :    0.042781
 112 H :    0.030954
 113 H :    0.033628
 114 H :    0.042065
 115 H :    0.059242
 116 H :    0.029804
 117 H :    0.040545
 118 H :    0.035090
 119 H :    0.047437
 120 H :    0.041083
Sum of atomic charges:   -0.0000000

LOEWDIN ATOMIC CHARGES
----------------------
   0 C :    0.169522
   1 O :   -0.240482
   2 C :   -0.062566
   3 C :    0.029550
   4 C :   -0.017474
   5 C :   -0.083096
   6 Cl:    0.105496
   7 C :   -0.012045
   8 C :   -0.013244
   9 C :    0.111482
  10 C :   -0.173582
  11 C :    0.007470
  12 N :   -0.099337
  13 C :    0.017043
  14 N :   -0.100918
  15 C :   -0.164968
  16 C :    0.112884
  17 C :   -0.218220
  18 S :    0.412927
  19 C :   -0.160565
  20 C :   -0.201796
  21 C :    0.022415
  22 C :   -0.016802
  23 C :   -0.022546
  24 S :    0.406744
  25 C :   -0.160156
  26 C :   -0.023384
  27 N :   -0.025607
  28 C :    0.086215
  29 C :    0.046781
  30 C :   -0.090785
  31 C :   -0.020667
  32 N :   -0.312740
  33 S :    0.582511
  34 N :   -0.311709
  35 C :   -0.021274
  36 C :   -0.088231
  37 C :    0.043330
  38 N :   -0.029802
  39 C :    0.086403
  40 C :   -0.042141
  41 C :   -0.022167
  42 C :   -0.165126
  43 S :    0.412673
  44 C :   -0.196145
  45 C :   -0.173578
  46 S :    0.395673
  47 C :   -0.207133
  48 C :    0.026451
  49 C :   -0.013405
  50 C :   -0.035646
  51 C :    0.113957
  52 C :   -0.157489
  53 C :    0.120367
  54 C :   -0.170972
  55 C :    0.014919
  56 N :   -0.096746
  57 C :    0.017747
  58 N :   -0.095634
  59 C :   -0.017147
  60 C :   -0.007318
  61 C :   -0.084208
  62 Cl:    0.107835
  63 C :   -0.014073
  64 C :    0.027596
  65 C :   -0.060698
  66 C :    0.165785
  67 O :   -0.227537
  68 C :   -0.040627
  69 C :   -0.020053
  70 C :   -0.020949
  71 C :   -0.032787
  72 C :   -0.038733
  73 C :   -0.018047
  74 C :   -0.039719
  75 C :   -0.020706
  76 C :   -0.032323
  77 H :    0.048731
  78 H :    0.041673
  79 H :    0.046760
  80 H :    0.056921
  81 H :    0.026548
  82 H :    0.032141
  83 H :    0.030309
  84 H :    0.023257
  85 H :    0.021618
  86 H :    0.016892
  87 H :    0.018830
  88 H :    0.014790
  89 H :    0.020177
  90 H :    0.011812
  91 H :    0.033950
  92 H :    0.023532
  93 H :    0.008517
  94 H :    0.021271
  95 H :    0.029182
  96 H :    0.048759
  97 H :    0.047307
  98 H :    0.041976
  99 H :    0.047932
 100 H :    0.012249
 101 H :    0.018072
 102 H :    0.011807
 103 H :    0.009505
 104 H :    0.017811
 105 H :    0.017431
 106 H :    0.022533
 107 H :    0.017609
 108 H :    0.017180
 109 H :    0.021647
 110 H :    0.019489
 111 H :    0.019485
 112 H :    0.014708
 113 H :    0.017155
 114 H :    0.022055
 115 H :    0.018958
 116 H :    0.009256
 117 H :    0.018361
 118 H :    0.018532
 119 H :    0.024314
 120 H :    0.018287

  Mayer bond orders larger than 0.100000
B(  0-C ,  1-O ) :   2.0760 B(  0-C ,  2-C ) :   0.9538 B(  0-C , 15-C ) :   0.9983
B(  2-C ,  3-C ) :   1.4287 B(  2-C ,  8-C ) :   1.3555 B(  3-C ,  4-C ) :   1.4040
B(  3-C , 77-H ) :   1.0001 B(  4-C ,  5-C ) :   1.4045 B(  4-C , 78-H ) :   0.9969
B(  5-C ,  6-Cl) :   0.9861 B(  5-C ,  7-C ) :   1.4006 B(  7-C ,  8-C ) :   1.4233
B(  7-C , 79-H ) :   0.9868 B(  8-C ,  9-C ) :   1.0335 B(  9-C , 10-C ) :   1.6883
B(  9-C , 15-C ) :   1.0812 B( 10-C , 11-C ) :   1.0700 B( 10-C , 13-C ) :   1.0461
B( 11-C , 12-N ) :   2.9971 B( 13-C , 14-N ) :   2.9832 B( 15-C , 16-C ) :   1.6800
B( 16-C , 17-C ) :   1.2309 B( 16-C , 80-H ) :   0.9440 B( 17-C , 18-S ) :   1.0481
B( 17-C , 21-C ) :   1.5072 B( 18-S , 19-C ) :   1.0394 B( 19-C , 20-C ) :   1.5098
B( 19-C , 26-C ) :   1.3524 B( 20-C , 21-C ) :   1.4430 B( 20-C , 24-S ) :   0.9942
B( 21-C , 22-C ) :   0.9827 B( 22-C , 23-C ) :   1.0363 B( 22-C , 81-H ) :   0.9687
B( 22-C , 82-H ) :   0.9582 B( 23-C , 83-H ) :   0.9800 B( 23-C , 84-H ) :   0.9852
B( 23-C , 85-H ) :   0.9832 B( 24-S , 25-C ) :   0.9905 B( 25-C , 26-C ) :   1.4665
B( 25-C , 30-C ) :   1.4339 B( 26-C , 27-N ) :   1.0810 B( 27-N , 28-C ) :   0.8413
B( 27-N , 29-C ) :   1.0973 B( 28-C , 68-C ) :   0.9992 B( 28-C , 86-H ) :   0.9845
B( 28-C , 87-H ) :   0.9693 B( 29-C , 30-C ) :   1.4729 B( 29-C , 37-C ) :   1.1459
B( 30-C , 31-C ) :   1.1080 B( 31-C , 32-N ) :   1.6148 B( 31-C , 35-C ) :   1.1023
B( 32-N , 33-S ) :   1.1588 B( 32-N , 34-N ) :   0.1035 B( 33-S , 34-N ) :   1.1586
B( 34-N , 35-C ) :   1.6178 B( 35-C , 36-C ) :   1.1061 B( 36-C , 37-C ) :   1.4783
B( 36-C , 42-C ) :   1.4294 B( 37-C , 38-N ) :   1.0907 B( 38-N , 39-C ) :   0.8329
B( 38-N , 41-C ) :   1.0831 B( 39-C , 40-C ) :   0.9999 B( 39-C , 88-H ) :   0.9832
B( 39-C , 89-H ) :   0.9690 B( 40-C , 73-C ) :   0.9783 B( 40-C , 75-C ) :   1.0030
B( 40-C , 90-H ) :   0.9608 B( 41-C , 42-C ) :   1.4762 B( 41-C , 45-C ) :   1.3243
B( 42-C , 43-S ) :   0.9862 B( 43-S , 44-C ) :   1.0040 B( 44-C , 45-C ) :   1.5126
B( 44-C , 48-C ) :   1.3902 B( 45-C , 46-S ) :   1.0504 B( 46-S , 47-C ) :   1.0623
B( 47-C , 48-C ) :   1.5683 B( 47-C , 51-C ) :   1.1830 B( 48-C , 49-C ) :   0.9690
B( 49-C , 50-C ) :   1.0358 B( 49-C , 91-H ) :   0.9659 B( 49-C , 92-H ) :   0.9658
B( 50-C , 93-H ) :   0.9806 B( 50-C , 94-H ) :   0.9849 B( 50-C , 95-H ) :   0.9783
B( 51-C , 52-C ) :   1.6731 B( 51-C , 96-H ) :   0.9413 B( 52-C , 53-C ) :   1.0935
B( 52-C , 66-C ) :   0.9860 B( 53-C , 54-C ) :   1.6882 B( 53-C , 59-C ) :   1.0323
B( 54-C , 55-C ) :   1.0592 B( 54-C , 57-C ) :   1.0555 B( 55-C , 56-N ) :   2.9816
B( 57-C , 58-N ) :   2.9780 B( 59-C , 60-C ) :   1.4120 B( 59-C , 65-C ) :   1.3643
B( 60-C , 61-C ) :   1.4075 B( 60-C , 97-H ) :   0.9852 B( 61-C , 62-Cl) :   0.9907
B( 61-C , 63-C ) :   1.3981 B( 63-C , 64-C ) :   1.4059 B( 63-C , 98-H ) :   0.9967
B( 64-C , 65-C ) :   1.4246 B( 64-C , 99-H ) :   1.0008 B( 65-C , 66-C ) :   0.9665
B( 66-C , 67-O ) :   2.0395 B( 68-C , 69-C ) :   0.9724 B( 68-C , 70-C ) :   1.0036
B( 68-C ,100-H ) :   0.9609 B( 69-C , 72-C ) :   1.0427 B( 69-C ,101-H ) :   0.9805
B( 69-C ,102-H ) :   0.9685 B( 70-C , 71-C ) :   1.0395 B( 70-C ,103-H ) :   0.9803
B( 70-C ,104-H ) :   0.9680 B( 71-C ,105-H ) :   0.9838 B( 71-C ,106-H ) :   0.9862
B( 71-C ,107-H ) :   0.9841 B( 72-C ,108-H ) :   0.9824 B( 72-C ,109-H ) :   0.9855
B( 72-C ,110-H ) :   0.9857 B( 73-C , 74-C ) :   1.0441 B( 73-C ,111-H ) :   0.9801
B( 73-C ,112-H ) :   0.9696 B( 74-C ,113-H ) :   0.9814 B( 74-C ,114-H ) :   0.9855
B( 74-C ,115-H ) :   0.9829 B( 75-C , 76-C ) :   1.0384 B( 75-C ,116-H ) :   0.9805
B( 75-C ,117-H ) :   0.9674 B( 76-C ,118-H ) :   0.9844 B( 76-C ,119-H ) :   0.9862
B( 76-C ,120-H ) :   0.9837

-----------------------------------------------------------------------------
         ABSORPTION SPECTRUM VIA TRANSITION ELECTRIC DIPOLE MOMENTS
-----------------------------------------------------------------------------
State   Energy    Wavelength  fosc         T2        TX        TY        TZ
        (cm-1)      (nm)                 (au**2)    (au)      (au)      (au)
-----------------------------------------------------------------------------
   1   21570.0    463.6   2.021987384  30.86063   3.90755   3.86018  -0.83109
   2   25713.4    388.9   0.860598542  11.01834  -0.45005   1.55288  -2.89903
   3   32252.5    310.1   0.086093611   0.87879  -0.87964  -0.16771   0.27729

FINAL SINGLE POINT ENERGY     -5786.304311160840

DIPOLE MOMENT
-------------
                                X             Y             Z
Electronic contribution:     -7.24461     -26.95204       6.12477
Nuclear contribution   :      8.02763      25.95343      -9.09478
                        -----------------------------------------
Total Dipole Moment    :      0.78302      -0.99860      -2.97001
                        -----------------------------------------
Magnitude (a.u.)       :      3.22975
Magnitude (Debye)      :      8.20936

Rotational constants in cm-1:     0.001274     0.000273     0.000245
Rotational constants in MHz :    38.203673     8.176733     7.346980

                             ****ORCA TERMINATED NORMALLY****
TOTAL RUN TIME: 0 days 19 hours 37 minutes 45 seconds 970 msec
