                         Program Version 4.2.0 -  RELEASE  -
|  1> # ORCA input file
|  2> # IDF-IC.out
|  3> ! Engrad Keepdens
|  4> %maxcore 1000
|  5> %tddft
|  6>   nroots 3
|  7>   # nroots is the number of states to be computed
|  8>   Iroot 1
|  9>   end
| 10> * xyz 0 1
| 11>    C        2.76735        -4.00645         0.60502
| 12>    C        1.90664        -4.41690        -0.36986
| 13>    C        1.94699        -4.29416        -1.81089
| 14>    C        0.56338        -4.34276        -2.28245
| 15>    C       -0.26256        -4.74535        -1.21603
| 16>    C        0.54808        -4.88606         0.01202
| 17>    C        0.01243        -4.10776        -3.53131
| 18>    C       -1.35516        -4.28572        -3.69461
| 19>    C       -2.16244        -4.69661        -2.64346
| 20>    C       -1.62081        -4.92952        -1.38689
| 21>    H       -3.22107        -4.83326        -2.80535
| 22>    H       -1.79667        -4.10086        -4.66253
| 23>    O        0.18373        -5.24476         1.10886
| 24>    C        3.05874        -4.36531        -2.60687
| 25>    C        3.04029        -4.20529        -4.00585
| 26>    C        4.34178        -4.69457        -2.11842
| 27>    N        3.09735        -4.03794        -5.14056
| 28>    N        5.38009        -5.04387        -1.77627
| 29>    C        3.88671        -3.15787         0.49560
| 30>    O        4.22790        -2.58787        -0.70088
| 31>    C        5.26494        -1.79595        -0.45053
| 32>    C        5.60747        -1.80337         0.89811
| 33>    C        4.72789        -2.68759         1.51186
| 34>    C       10.71528         4.57691        -3.69383
| 35>    C       11.32313         5.16443        -4.76368
| 36>    C       11.47964         4.76206        -6.14326
| 37>    C       11.80458         5.96626        -6.90882
| 38>    C       12.07680         7.01409        -6.00977
| 39>    C       11.87099         6.54093        -4.62512
| 40>    C       11.89567         6.18751        -8.27303
| 41>    C       12.26500         7.45158        -8.71473
| 42>    C       12.54632         8.47664        -7.82310
| 43>    C       12.45211         8.26662        -6.45412
| 44>    H       12.83816         9.44582        -8.19860
| 45>    H       12.33415         7.63666        -9.77621
| 46>    O       12.05621         7.14808        -3.59510
| 47>    C       11.57195         3.47902        -6.61802
| 48>    C       11.79447         3.15151        -7.97065
| 49>    C       11.53924         2.32813        -5.80346
| 50>    N       11.94450         2.82177        -9.06012
| 51>    N       11.56664         1.35908        -5.18891
| 52>    C        6.10544        -0.92488        -1.20046
| 53>    C        6.99605        -0.33901        -0.26440
| 54>    C        6.79352        -0.91001         1.13569
| 55>    C        6.15420        -0.62800        -2.56067
| 56>    C        7.07378         0.31004        -2.96430
| 57>    C        7.88784         0.98059        -2.01201
| 58>    C        7.87495         0.64249        -0.65972
| 59>    C        7.35124         0.79593        -4.37946
| 60>    C        8.26433         1.95021        -4.09088
| 61>    C        8.60891         1.97277        -2.74115
| 62>    C        6.55056         0.22498         2.10954
| 63>    C        7.94009        -1.80066         1.58980
| 64>    C        8.22682        -0.16855        -5.17570
| 65>    C        6.06418         1.10201        -5.10741
| 66>    C        7.94279        -2.26334         2.90039
| 67>    C        8.93969        -3.11010         3.34335
| 68>    C        9.95598        -3.52126         2.48973
| 69>    C        9.94083        -3.06481         1.17931
| 70>    C        8.94435        -2.21692         0.72942
| 71>    C        7.62673         0.86177         2.71526
| 72>    C        7.42007         1.92660         3.57091
| 73>    C        6.13760         2.38681         3.84117
| 74>    C        5.06648         1.75093         3.22853
| 75>    C        5.26816         0.68724         2.36806
| 76>    C        5.37299         0.07607        -5.74114
| 77>    C        4.17255         0.32834        -6.37582
| 78>    C        3.63369         1.60900        -6.39760
| 79>    C        4.32897         2.62993        -5.76401
| 80>    C        5.52720         2.38070        -5.11880
| 81>    C        8.84241        -1.26840        -4.60060
| 82>    C        9.71185        -2.04597        -5.34429
| 83>    C        9.99740        -1.73813        -6.66653
| 84>    C        9.36927        -0.63952        -7.23946
| 85>    C        8.49761         0.13768        -6.50382
| 86>    C       11.01180        -4.48098         2.95652
| 87>    C       10.57503        -5.92287         2.68890
| 88>    C        5.91487         3.50971         4.81240
| 89>    C        5.78802         2.96489         6.23659
| 90>    C       10.93009        -2.59593        -7.47081
| 91>    C       10.16702        -3.74710        -8.12946
| 92>    C        2.35642         1.88695        -7.13658
| 93>    C        2.64572         2.17883        -8.61044
| 94>    C        9.03512         2.92739        -4.70298
| 95>    C        9.80180         3.50414        -3.68358
| 96>    O        9.50786         2.91786        -2.48170
| 97>    H        2.49299        -4.27745         1.61789
| 98>    H        0.61998        -3.78306        -4.36091
| 99>    H       -2.23267        -5.24660        -0.55647
|100>    H        4.67022        -2.97070         2.54310
|101>    H       10.90286         5.04136        -2.73130
|102>    H       11.67571         5.40845        -8.98525
|103>    H       12.66362         9.05177        -5.74469
|104>    H        5.49402        -1.11872        -3.25843
|105>    H        8.52971         1.13795         0.03962
|106>    H        7.16163        -1.94873         3.57744
|107>    H        8.92932        -3.45722         4.36675
|108>    H       10.71917        -3.37576         0.49745
|109>    H        8.95528        -1.88023        -0.29632
|110>    H        8.63143         0.51276         2.52528
|111>    H        8.26817         2.40934         4.03519
|112>    H        4.06031         2.09413         3.42328
|113>    H        4.41937         0.21252         1.89710
|114>    H        5.78432        -0.92294        -5.74722
|115>    H        3.64657        -0.48201        -6.85945
|116>    H        3.92667         3.63327        -5.77060
|117>    H        6.04943         3.18715        -4.62338
|118>    H        8.65025        -1.52209        -3.56858
|119>    H       10.18737        -2.89835        -4.88084
|120>    H        9.57824        -0.38000        -8.26747
|121>    H        8.02144         0.99388        -6.96047
|122>    H       11.18602        -4.34993         4.02643
|123>    H       11.94848        -4.28559         2.43064
|124>    H        9.64933        -6.14184         3.21639
|125>    H       11.33935        -6.62059         3.02308
|126>    H       10.40520        -6.07495         1.62556
|127>    H        5.00334         4.05091         4.55128
|128>    H        6.75246         4.20869         4.76834
|129>    H        4.94979         2.27495         6.30411
|130>    H        5.62771         3.77675         6.94205
|131>    H        6.69302         2.43191         6.51947
|132>    H       11.70719        -3.00366        -6.82149
|133>    H       11.41148        -1.99259        -8.24267
|134>    H        9.68792        -4.36519        -7.37344
|135>    H       10.84403        -4.36955        -8.70998
|136>    H        9.39646        -3.35971        -8.79225
|137>    H        1.84834         2.74509        -6.69184
|138>    H        1.69397         1.02189        -7.06579
|139>    H        3.29498         3.04663        -8.70381
|140>    H        1.72149         2.37675        -9.14835
|141>    H        3.14251         1.32913        -9.07308
|142>    H        9.02246         3.23016        -5.73006
|143> *
|144>
|145>                          ****END OF INPUT****

CARTESIAN COORDINATES (ANGSTROEM)
---------------------------------
  C      2.767350   -4.006450    0.605020
  C      1.906640   -4.416900   -0.369860
  C      1.946990   -4.294160   -1.810890
  C      0.563380   -4.342760   -2.282450
  C     -0.262560   -4.745350   -1.216030
  C      0.548080   -4.886060    0.012020
  C      0.012430   -4.107760   -3.531310
  C     -1.355160   -4.285720   -3.694610
  C     -2.162440   -4.696610   -2.643460
  C     -1.620810   -4.929520   -1.386890
  H     -3.221070   -4.833260   -2.805350
  H     -1.796670   -4.100860   -4.662530
  O      0.183730   -5.244760    1.108860
  C      3.058740   -4.365310   -2.606870
  C      3.040290   -4.205290   -4.005850
  C      4.341780   -4.694570   -2.118420
  N      3.097350   -4.037940   -5.140560
  N      5.380090   -5.043870   -1.776270
  C      3.886710   -3.157870    0.495600
  O      4.227900   -2.587870   -0.700880
  C      5.264940   -1.795950   -0.450530
  C      5.607470   -1.803370    0.898110
  C      4.727890   -2.687590    1.511860
  C     10.715280    4.576910   -3.693830
  C     11.323130    5.164430   -4.763680
  C     11.479640    4.762060   -6.143260
  C     11.804580    5.966260   -6.908820
  C     12.076800    7.014090   -6.009770
  C     11.870990    6.540930   -4.625120
  C     11.895670    6.187510   -8.273030
  C     12.265000    7.451580   -8.714730
  C     12.546320    8.476640   -7.823100
  C     12.452110    8.266620   -6.454120
  H     12.838160    9.445820   -8.198600
  H     12.334150    7.636660   -9.776210
  O     12.056210    7.148080   -3.595100
  C     11.571950    3.479020   -6.618020
  C     11.794470    3.151510   -7.970650
  C     11.539240    2.328130   -5.803460
  N     11.944500    2.821770   -9.060120
  N     11.566640    1.359080   -5.188910
  C      6.105440   -0.924880   -1.200460
  C      6.996050   -0.339010   -0.264400
  C      6.793520   -0.910010    1.135690
  C      6.154200   -0.628000   -2.560670
  C      7.073780    0.310040   -2.964300
  C      7.887840    0.980590   -2.012010
  C      7.874950    0.642490   -0.659720
  C      7.351240    0.795930   -4.379460
  C      8.264330    1.950210   -4.090880
  C      8.608910    1.972770   -2.741150
  C      6.550560    0.224980    2.109540
  C      7.940090   -1.800660    1.589800
  C      8.226820   -0.168550   -5.175700
  C      6.064180    1.102010   -5.107410
  C      7.942790   -2.263340    2.900390
  C      8.939690   -3.110100    3.343350
  C      9.955980   -3.521260    2.489730
  C      9.940830   -3.064810    1.179310
  C      8.944350   -2.216920    0.729420
  C      7.626730    0.861770    2.715260
  C      7.420070    1.926600    3.570910
  C      6.137600    2.386810    3.841170
  C      5.066480    1.750930    3.228530
  C      5.268160    0.687240    2.368060
  C      5.372990    0.076070   -5.741140
  C      4.172550    0.328340   -6.375820
  C      3.633690    1.609000   -6.397600
  C      4.328970    2.629930   -5.764010
  C      5.527200    2.380700   -5.118800
  C      8.842410   -1.268400   -4.600600
  C      9.711850   -2.045970   -5.344290
  C      9.997400   -1.738130   -6.666530
  C      9.369270   -0.639520   -7.239460
  C      8.497610    0.137680   -6.503820
  C     11.011800   -4.480980    2.956520
  C     10.575030   -5.922870    2.688900
  C      5.914870    3.509710    4.812400
  C      5.788020    2.964890    6.236590
  C     10.930090   -2.595930   -7.470810
  C     10.167020   -3.747100   -8.129460
  C      2.356420    1.886950   -7.136580
  C      2.645720    2.178830   -8.610440
  C      9.035120    2.927390   -4.702980
  C      9.801800    3.504140   -3.683580
  O      9.507860    2.917860   -2.481700
  H      2.492990   -4.277450    1.617890
  H      0.619980   -3.783060   -4.360910
  H     -2.232670   -5.246600   -0.556470
  H      4.670220   -2.970700    2.543100
  H     10.902860    5.041360   -2.731300
  H     11.675710    5.408450   -8.985250
  H     12.663620    9.051770   -5.744690
  H      5.494020   -1.118720   -3.258430
  H      8.529710    1.137950    0.039620
  H      7.161630   -1.948730    3.577440
  H      8.929320   -3.457220    4.366750
  H     10.719170   -3.375760    0.497450
  H      8.955280   -1.880230   -0.296320
  H      8.631430    0.512760    2.525280
  H      8.268170    2.409340    4.035190
  H      4.060310    2.094130    3.423280
  H      4.419370    0.212520    1.897100
  H      5.784320   -0.922940   -5.747220
  H      3.646570   -0.482010   -6.859450
  H      3.926670    3.633270   -5.770600
  H      6.049430    3.187150   -4.623380
  H      8.650250   -1.522090   -3.568580
  H     10.187370   -2.898350   -4.880840
  H      9.578240   -0.380000   -8.267470
  H      8.021440    0.993880   -6.960470
  H     11.186020   -4.349930    4.026430
  H     11.948480   -4.285590    2.430640
  H      9.649330   -6.141840    3.216390
  H     11.339350   -6.620590    3.023080
  H     10.405200   -6.074950    1.625560
  H      5.003340    4.050910    4.551280
  H      6.752460    4.208690    4.768340
  H      4.949790    2.274950    6.304110
  H      5.627710    3.776750    6.942050
  H      6.693020    2.431910    6.519470
  H     11.707190   -3.003660   -6.821490
  H     11.411480   -1.992590   -8.242670
  H      9.687920   -4.365190   -7.373440
  H     10.844030   -4.369550   -8.709980
  H      9.396460   -3.359710   -8.792250
  H      1.848340    2.745090   -6.691840
  H      1.693970    1.021890   -7.065790
  H      3.294980    3.046630   -8.703810
  H      1.721490    2.376750   -9.148350
  H      3.142510    1.329130   -9.073080
  H      9.022460    3.230160   -5.730060

 Total Charge           Charge          ....    0
 Multiplicity           Mult            ....    1
 Number of Electrons    NEL             ....  554
 Basis Dimension        Dim             .... 1398

ORBITAL ENERGIES
----------------

  NO   OCC          E(Eh)            E(eV)
   0   2.0000     -20.657700      -562.1246
   1   2.0000     -20.655634      -562.0684
   2   2.0000     -20.553543      -559.2903
   3   2.0000     -20.552636      -559.2657
   4   2.0000     -15.582490      -424.0211
   5   2.0000     -15.581514      -423.9945
   6   2.0000     -15.579002      -423.9262
   7   2.0000     -15.570932      -423.7066
   8   2.0000     -11.351257      -308.8834
   9   2.0000     -11.350427      -308.8608
  10   2.0000     -11.332686      -308.3781
  11   2.0000     -11.331268      -308.3395
  12   2.0000     -11.327979      -308.2500
  13   2.0000     -11.326083      -308.1984
  14   2.0000     -11.324244      -308.1483
  15   2.0000     -11.319341      -308.0149
  16   2.0000     -11.312061      -307.8168
  17   2.0000     -11.307723      -307.6988
  18   2.0000     -11.307452      -307.6914
  19   2.0000     -11.306580      -307.6677
  20   2.0000     -11.293909      -307.3229
  21   2.0000     -11.292716      -307.2904
  22   2.0000     -11.286791      -307.1292
  23   2.0000     -11.286407      -307.1187
  24   2.0000     -11.283746      -307.0463
  25   2.0000     -11.283415      -307.0373
  26   2.0000     -11.282503      -307.0125
  27   2.0000     -11.281445      -306.9837
  28   2.0000     -11.279618      -306.9340
  29   2.0000     -11.277702      -306.8819
  30   2.0000     -11.276405      -306.8466
  31   2.0000     -11.276094      -306.8381
  32   2.0000     -11.272269      -306.7340
  33   2.0000     -11.272106      -306.7296
  34   2.0000     -11.271793      -306.7211
  35   2.0000     -11.270721      -306.6919
  36   2.0000     -11.270368      -306.6823
  37   2.0000     -11.270129      -306.6758
  38   2.0000     -11.269694      -306.6640
  39   2.0000     -11.269618      -306.6619
  40   2.0000     -11.269064      -306.6468
  41   2.0000     -11.267894      -306.6150
  42   2.0000     -11.267669      -306.6089
  43   2.0000     -11.266033      -306.5643
  44   2.0000     -11.265974      -306.5627
  45   2.0000     -11.265035      -306.5372
  46   2.0000     -11.264970      -306.5354
  47   2.0000     -11.263885      -306.5059
  48   2.0000     -11.255922      -306.2892
  49   2.0000     -11.252365      -306.1924
  50   2.0000     -11.251804      -306.1772
  51   2.0000     -11.250131      -306.1316
  52   2.0000     -11.245266      -305.9992
  53   2.0000     -11.244098      -305.9675
  54   2.0000     -11.243119      -305.9408
  55   2.0000     -11.242234      -305.9167
  56   2.0000     -11.240379      -305.8663
  57   2.0000     -11.240000      -305.8559
  58   2.0000     -11.239640      -305.8462
  59   2.0000     -11.239614      -305.8454
  60   2.0000     -11.239467      -305.8414
  61   2.0000     -11.238456      -305.8139
  62   2.0000     -11.238334      -305.8106
  63   2.0000     -11.238093      -305.8041
  64   2.0000     -11.236737      -305.7672
  65   2.0000     -11.236334      -305.7562
  66   2.0000     -11.235095      -305.7225
  67   2.0000     -11.234441      -305.7047
  68   2.0000     -11.234376      -305.7029
  69   2.0000     -11.232374      -305.6484
  70   2.0000     -11.231758      -305.6317
  71   2.0000     -11.231531      -305.6255
  72   2.0000     -11.228043      -305.5306
  73   2.0000     -11.227620      -305.5191
  74   2.0000     -11.227138      -305.5060
  75   2.0000     -11.226797      -305.4967
  76   2.0000     -11.223922      -305.4184
  77   2.0000     -11.222900      -305.3906
  78   2.0000     -11.222511      -305.3801
  79   2.0000     -11.220826      -305.3342
  80   2.0000     -11.219373      -305.2946
  81   2.0000     -11.211572      -305.0824
  82   2.0000      -1.496147       -40.7122
  83   2.0000      -1.490202       -40.5505
  84   2.0000      -1.385691       -37.7066
  85   2.0000      -1.384745       -37.6808
  86   2.0000      -1.241641       -33.7868
  87   2.0000      -1.238201       -33.6932
  88   2.0000      -1.228556       -33.4307
  89   2.0000      -1.217159       -33.1206
  90   2.0000      -1.214687       -33.0533
  91   2.0000      -1.214505       -33.0484
  92   2.0000      -1.210525       -32.9401
  93   2.0000      -1.204479       -32.7755
  94   2.0000      -1.166831       -31.7511
  95   2.0000      -1.158478       -31.5238
  96   2.0000      -1.156495       -31.4698
  97   2.0000      -1.154993       -31.4290
  98   2.0000      -1.153047       -31.3760
  99   2.0000      -1.146672       -31.2025
 100   2.0000      -1.128747       -30.7148
 101   2.0000      -1.115748       -30.3610
 102   2.0000      -1.103928       -30.0394
 103   2.0000      -1.091785       -29.7090
 104   2.0000      -1.087583       -29.5946
 105   2.0000      -1.084454       -29.5095
 106   2.0000      -1.079961       -29.3872
 107   2.0000      -1.063867       -28.9493
 108   2.0000      -1.062982       -28.9252
 109   2.0000      -1.055835       -28.7307
 110   2.0000      -1.049683       -28.5633
 111   2.0000      -1.046806       -28.4850
 112   2.0000      -1.044717       -28.4282
 113   2.0000      -1.030331       -28.0367
 114   2.0000      -1.019374       -27.7386
 115   2.0000      -1.016831       -27.6694
 116   2.0000      -1.013846       -27.5881
 117   2.0000      -1.010929       -27.5088
 118   2.0000      -1.004621       -27.3371
 119   2.0000      -0.999099       -27.1869
 120   2.0000      -0.991227       -26.9727
 121   2.0000      -0.980035       -26.6681
 122   2.0000      -0.972333       -26.4585
 123   2.0000      -0.962543       -26.1921
 124   2.0000      -0.943977       -25.6869
 125   2.0000      -0.931834       -25.3565
 126   2.0000      -0.924710       -25.1627
 127   2.0000      -0.923244       -25.1228
 128   2.0000      -0.914520       -24.8854
 129   2.0000      -0.890046       -24.2194
 130   2.0000      -0.867232       -23.5986
 131   2.0000      -0.862252       -23.4631
 132   2.0000      -0.861742       -23.4492
 133   2.0000      -0.853794       -23.2329
 134   2.0000      -0.848963       -23.1015
 135   2.0000      -0.843895       -22.9636
 136   2.0000      -0.838790       -22.8246
 137   2.0000      -0.837291       -22.7838
 138   2.0000      -0.834745       -22.7146
 139   2.0000      -0.830232       -22.5918
 140   2.0000      -0.826671       -22.4949
 141   2.0000      -0.826200       -22.4821
 142   2.0000      -0.820387       -22.3239
 143   2.0000      -0.815481       -22.1904
 144   2.0000      -0.807022       -21.9602
 145   2.0000      -0.805446       -21.9173
 146   2.0000      -0.798946       -21.7404
 147   2.0000      -0.792893       -21.5757
 148   2.0000      -0.788329       -21.4515
 149   2.0000      -0.785073       -21.3629
 150   2.0000      -0.780266       -21.2321
 151   2.0000      -0.776265       -21.1232
 152   2.0000      -0.769776       -20.9467
 153   2.0000      -0.760261       -20.6877
 154   2.0000      -0.751014       -20.4361
 155   2.0000      -0.740679       -20.1549
 156   2.0000      -0.734150       -19.9772
 157   2.0000      -0.727566       -19.7981
 158   2.0000      -0.723432       -19.6856
 159   2.0000      -0.709889       -19.3171
 160   2.0000      -0.706292       -19.2192
 161   2.0000      -0.700281       -19.0556
 162   2.0000      -0.697027       -18.9671
 163   2.0000      -0.691362       -18.8129
 164   2.0000      -0.686988       -18.6939
 165   2.0000      -0.685785       -18.6612
 166   2.0000      -0.683163       -18.5898
 167   2.0000      -0.676207       -18.4005
 168   2.0000      -0.670862       -18.2551
 169   2.0000      -0.664085       -18.0707
 170   2.0000      -0.662578       -18.0297
 171   2.0000      -0.662077       -18.0160
 172   2.0000      -0.661686       -18.0054
 173   2.0000      -0.654951       -17.8221
 174   2.0000      -0.653597       -17.7853
 175   2.0000      -0.650036       -17.6884
 176   2.0000      -0.640944       -17.4410
 177   2.0000      -0.639342       -17.3974
 178   2.0000      -0.637360       -17.3435
 179   2.0000      -0.636289       -17.3143
 180   2.0000      -0.635847       -17.3023
 181   2.0000      -0.633120       -17.2281
 182   2.0000      -0.631871       -17.1941
 183   2.0000      -0.628140       -17.0926
 184   2.0000      -0.625451       -17.0194
 185   2.0000      -0.623477       -16.9657
 186   2.0000      -0.620827       -16.8936
 187   2.0000      -0.617474       -16.8023
 188   2.0000      -0.612740       -16.6735
 189   2.0000      -0.609987       -16.5986
 190   2.0000      -0.607836       -16.5401
 191   2.0000      -0.606042       -16.4913
 192   2.0000      -0.602901       -16.4058
 193   2.0000      -0.601693       -16.3729
 194   2.0000      -0.600296       -16.3349
 195   2.0000      -0.599388       -16.3102
 196   2.0000      -0.597295       -16.2532
 197   2.0000      -0.596693       -16.2368
 198   2.0000      -0.594317       -16.1722
 199   2.0000      -0.591855       -16.1052
 200   2.0000      -0.589481       -16.0406
 201   2.0000      -0.588037       -16.0013
 202   2.0000      -0.586629       -15.9630
 203   2.0000      -0.585283       -15.9264
 204   2.0000      -0.579037       -15.7564
 205   2.0000      -0.573425       -15.6037
 206   2.0000      -0.572096       -15.5675
 207   2.0000      -0.569069       -15.4852
 208   2.0000      -0.567810       -15.4509
 209   2.0000      -0.566286       -15.4094
 210   2.0000      -0.564447       -15.3594
 211   2.0000      -0.562947       -15.3186
 212   2.0000      -0.560408       -15.2495
 213   2.0000      -0.558055       -15.1855
 214   2.0000      -0.557125       -15.1601
 215   2.0000      -0.555761       -15.1230
 216   2.0000      -0.550288       -14.9741
 217   2.0000      -0.547989       -14.9115
 218   2.0000      -0.545527       -14.8445
 219   2.0000      -0.540058       -14.6957
 220   2.0000      -0.538822       -14.6621
 221   2.0000      -0.537721       -14.6321
 222   2.0000      -0.536396       -14.5961
 223   2.0000      -0.535287       -14.5659
 224   2.0000      -0.529944       -14.4205
 225   2.0000      -0.526102       -14.3160
 226   2.0000      -0.524647       -14.2764
 227   2.0000      -0.522825       -14.2268
 228   2.0000      -0.520724       -14.1696
 229   2.0000      -0.519467       -14.1354
 230   2.0000      -0.512438       -13.9441
 231   2.0000      -0.509991       -13.8776
 232   2.0000      -0.506473       -13.7818
 233   2.0000      -0.502271       -13.6675
 234   2.0000      -0.500591       -13.6218
 235   2.0000      -0.497680       -13.5426
 236   2.0000      -0.496368       -13.5069
 237   2.0000      -0.493261       -13.4223
 238   2.0000      -0.491121       -13.3641
 239   2.0000      -0.490145       -13.3375
 240   2.0000      -0.488675       -13.2975
 241   2.0000      -0.487300       -13.2601
 242   2.0000      -0.485725       -13.2173
 243   2.0000      -0.485081       -13.1997
 244   2.0000      -0.483653       -13.1609
 245   2.0000      -0.482892       -13.1402
 246   2.0000      -0.480877       -13.0853
 247   2.0000      -0.479853       -13.0575
 248   2.0000      -0.478703       -13.0262
 249   2.0000      -0.474130       -12.9017
 250   2.0000      -0.473344       -12.8803
 251   2.0000      -0.471244       -12.8232
 252   2.0000      -0.469424       -12.7737
 253   2.0000      -0.463162       -12.6033
 254   2.0000      -0.462169       -12.5763
 255   2.0000      -0.441591       -12.0163
 256   2.0000      -0.439327       -11.9547
 257   2.0000      -0.434244       -11.8164
 258   2.0000      -0.427130       -11.6228
 259   2.0000      -0.413357       -11.2480
 260   2.0000      -0.399856       -10.8806
 261   2.0000      -0.375381       -10.2146
 262   2.0000      -0.371510       -10.1093
 263   2.0000      -0.369363       -10.0509
 264   2.0000      -0.368134       -10.0174
 265   2.0000      -0.353132        -9.6092
 266   2.0000      -0.346528        -9.4295
 267   2.0000      -0.344962        -9.3869
 268   2.0000      -0.343902        -9.3580
 269   2.0000      -0.342177        -9.3111
 270   2.0000      -0.334827        -9.1111
 271   2.0000      -0.332595        -9.0504
 272   2.0000      -0.327246        -8.9048
 273   2.0000      -0.320603        -8.7241
 274   2.0000      -0.311320        -8.4714
 275   2.0000      -0.302943        -8.2435
 276   2.0000      -0.259134        -7.0514
 277   0.0000      -0.021498        -0.5850
 278   0.0000       0.000355         0.0097
 279   0.0000       0.027439         0.7467
 280   0.0000       0.035969         0.9788
 281   0.0000       0.069106         1.8805

MULLIKEN ATOMIC CHARGES
-----------------------
   0 C :    0.119581
   1 C :   -0.296557
   2 C :    0.246526
   3 C :   -0.052511
   4 C :   -0.178333
   5 C :    0.469815
   6 C :   -0.019931
   7 C :   -0.002232
   8 C :   -0.013928
   9 C :    0.018896
  10 H :    0.052822
  11 H :    0.052899
  12 O :   -0.360848
  13 C :   -0.344093
  14 C :    0.039323
  15 C :    0.046027
  16 N :   -0.083928
  17 N :   -0.067074
  18 C :    0.177625
  19 O :   -0.459151
  20 C :    0.405618
  21 C :   -0.094574
  22 C :    0.031530
  23 C :    0.140787
  24 C :   -0.316781
  25 C :    0.238306
  26 C :   -0.058890
  27 C :   -0.170723
  28 C :    0.468900
  29 C :   -0.017883
  30 C :   -0.003811
  31 C :   -0.011990
  32 C :    0.017949
  33 H :    0.053845
  34 H :    0.054273
  35 O :   -0.357301
  36 C :   -0.377877
  37 C :    0.048679
  38 C :    0.026797
  39 N :   -0.074451
  40 N :   -0.042751
  41 C :   -0.074373
  42 C :   -0.016910
  43 C :   -0.023434
  44 C :    0.040628
  45 C :   -0.022042
  46 C :   -0.079871
  47 C :    0.036817
  48 C :   -0.033949
  49 C :   -0.081707
  50 C :    0.388951
  51 C :   -0.082745
  52 C :   -0.080264
  53 C :   -0.066526
  54 C :   -0.078179
  55 C :   -0.008190
  56 C :   -0.009959
  57 C :   -0.164758
  58 C :    0.006337
  59 C :   -0.007114
  60 C :   -0.011099
  61 C :   -0.009923
  62 C :   -0.162537
  63 C :   -0.002744
  64 C :   -0.012255
  65 C :   -0.012666
  66 C :   -0.011099
  67 C :   -0.163404
  68 C :   -0.003828
  69 C :   -0.017277
  70 C :   -0.008587
  71 C :    0.016018
  72 C :   -0.156096
  73 C :   -0.002742
  74 C :   -0.011051
  75 C :    0.021459
  76 C :   -0.007566
  77 C :    0.022891
  78 C :   -0.008162
  79 C :    0.021525
  80 C :   -0.008098
  81 C :    0.023778
  82 C :   -0.008315
  83 C :    0.021151
  84 C :    0.161847
  85 O :   -0.426798
  86 H :    0.079280
  87 H :    0.070601
  88 H :    0.056788
  89 H :    0.051548
  90 H :    0.090913
  91 H :    0.071605
  92 H :    0.057536
  93 H :    0.044258
  94 H :    0.037633
  95 H :    0.035735
  96 H :    0.022519
  97 H :    0.025162
  98 H :    0.051721
  99 H :    0.052235
 100 H :    0.024725
 101 H :    0.022968
 102 H :    0.041073
 103 H :    0.058309
 104 H :    0.035088
 105 H :    0.020448
 106 H :    0.037194
 107 H :    0.043466
 108 H :    0.019819
 109 H :    0.027068
 110 H :    0.032510
 111 H :    0.031894
 112 H :    0.035546
 113 H :    0.027001
 114 H :    0.033402
 115 H :    0.033005
 116 H :    0.034433
 117 H :    0.035911
 118 H :    0.026515
 119 H :    0.034872
 120 H :    0.027424
 121 H :    0.034878
 122 H :    0.037452
 123 H :    0.027957
 124 H :    0.030864
 125 H :    0.026107
 126 H :    0.031239
 127 H :    0.035622
 128 H :    0.025573
 129 H :    0.032634
 130 H :    0.030392
 131 H :    0.065361
Sum of atomic charges:    0.0000000

LOEWDIN ATOMIC CHARGES
----------------------
   0 C :    0.100772
   1 C :   -0.143960
   2 C :    0.112520
   3 C :   -0.018790
   4 C :   -0.057872
   5 C :    0.164911
   6 C :    0.003404
   7 C :    0.004859
   8 C :   -0.003009
   9 C :    0.022935
  10 H :    0.032952
  11 H :    0.034353
  12 O :   -0.238557
  13 C :   -0.165228
  14 C :    0.016114
  15 C :    0.009795
  16 N :   -0.106032
  17 N :   -0.103668
  18 C :    0.021358
  19 O :   -0.043605
  20 C :    0.121565
  21 C :   -0.063233
  22 C :    0.033187
  23 C :    0.110976
  24 C :   -0.149716
  25 C :    0.107309
  26 C :   -0.022357
  27 C :   -0.056249
  28 C :    0.164558
  29 C :    0.005058
  30 C :    0.004520
  31 C :   -0.000763
  32 C :    0.022899
  33 H :    0.033443
  34 H :    0.034935
  35 O :   -0.235269
  36 C :   -0.176417
  37 C :    0.013786
  38 C :    0.007382
  39 N :   -0.101278
  40 N :   -0.074297
  41 C :   -0.035286
  42 C :    0.021645
  43 C :   -0.005539
  44 C :    0.009127
  45 C :    0.021767
  46 C :   -0.029934
  47 C :    0.002759
  48 C :   -0.007023
  49 C :   -0.052758
  50 C :    0.111324
  51 C :   -0.027906
  52 C :   -0.023978
  53 C :   -0.020531
  54 C :   -0.029920
  55 C :   -0.015478
  56 C :   -0.023038
  57 C :   -0.023577
  58 C :   -0.019430
  59 C :   -0.016890
  60 C :   -0.014148
  61 C :   -0.023390
  62 C :   -0.023577
  63 C :   -0.024504
  64 C :   -0.017690
  65 C :   -0.010064
  66 C :   -0.019473
  67 C :   -0.024770
  68 C :   -0.027111
  69 C :   -0.020838
  70 C :   -0.019486
  71 C :   -0.014953
  72 C :   -0.018379
  73 C :   -0.016526
  74 C :   -0.016447
  75 C :   -0.009735
  76 C :   -0.024809
  77 C :   -0.009213
  78 C :   -0.025461
  79 C :   -0.008378
  80 C :   -0.026257
  81 C :   -0.009493
  82 C :   -0.025566
  83 C :    0.034042
  84 C :    0.019623
  85 O :   -0.051754
  86 H :    0.058869
  87 H :    0.039451
  88 H :    0.040969
  89 H :    0.038927
  90 H :    0.059942
  91 H :    0.039824
  92 H :    0.041363
  93 H :    0.038977
  94 H :    0.036424
  95 H :    0.024104
  96 H :    0.023120
  97 H :    0.024811
  98 H :    0.027545
  99 H :    0.028376
 100 H :    0.024011
 101 H :    0.023298
 102 H :    0.025936
 103 H :    0.031502
 104 H :    0.027927
 105 H :    0.022113
 106 H :    0.024624
 107 H :    0.024463
 108 H :    0.023067
 109 H :    0.024967
 110 H :    0.022003
 111 H :    0.017885
 112 H :    0.019498
 113 H :    0.015676
 114 H :    0.014514
 115 H :    0.017855
 116 H :    0.019097
 117 H :    0.019636
 118 H :    0.015321
 119 H :    0.015130
 120 H :    0.015505
 121 H :    0.019428
 122 H :    0.020419
 123 H :    0.015592
 124 H :    0.013444
 125 H :    0.015195
 126 H :    0.017641
 127 H :    0.019596
 128 H :    0.015021
 129 H :    0.014185
 130 H :    0.016632
 131 H :    0.035848

  Mayer bond orders larger than 0.100000
B(  0-C ,  1-C ) :   1.6673 B(  0-C , 18-C ) :   1.1944 B(  0-C , 86-H ) :   0.9594
B(  1-C ,  2-C ) :   1.0703 B(  1-C ,  5-C ) :   0.9986 B(  2-C ,  3-C ) :   1.0372
B(  2-C , 13-C ) :   1.7106 B(  3-C ,  4-C ) :   1.3482 B(  3-C ,  6-C ) :   1.4293
B(  4-C ,  5-C ) :   0.9481 B(  4-C ,  9-C ) :   1.4402 B(  5-C , 12-O ) :   2.0931
B(  6-C ,  7-C ) :   1.4143 B(  6-C , 87-H ) :   0.9909 B(  7-C ,  8-C ) :   1.4093
B(  7-C , 11-H ) :   0.9971 B(  8-C ,  9-C ) :   1.3950 B(  8-C , 10-H ) :   1.0007
B(  9-C , 88-H ) :   1.0070 B( 13-C , 14-C ) :   1.0646 B( 13-C , 15-C ) :   1.0678
B( 14-C , 16-N ) :   2.9847 B( 15-C , 17-N ) :   3.0119 B( 18-C , 19-O ) :   0.9623
B( 18-C , 22-C ) :   1.4755 B( 19-O , 20-C ) :   1.0830 B( 20-C , 21-C ) :   1.5139
B( 20-C , 41-C ) :   1.0826 B( 21-C , 22-C ) :   1.3492 B( 21-C , 43-C ) :   0.9603
B( 22-C , 89-H ) :   1.0122 B( 23-C , 24-C ) :   1.6648 B( 23-C , 84-C ) :   1.1890
B( 23-C , 90-H ) :   0.9591 B( 24-C , 25-C ) :   1.0833 B( 24-C , 28-C ) :   0.9964
B( 25-C , 26-C ) :   1.0380 B( 25-C , 36-C ) :   1.6828 B( 26-C , 27-C ) :   1.3481
B( 26-C , 29-C ) :   1.4296 B( 27-C , 28-C ) :   0.9463 B( 27-C , 32-C ) :   1.4425
B( 28-C , 35-O ) :   2.0984 B( 29-C , 30-C ) :   1.4139 B( 29-C , 91-H ) :   0.9916
B( 30-C , 31-C ) :   1.4105 B( 30-C , 34-H ) :   0.9971 B( 31-C , 32-C ) :   1.3921
B( 31-C , 33-H ) :   1.0006 B( 32-C , 92-H ) :   1.0070 B( 36-C , 37-C ) :   1.0559
B( 36-C , 38-C ) :   1.0792 B( 37-C , 39-N ) :   2.9927 B( 38-C , 40-N ) :   2.9906
B( 41-C , 42-C ) :   1.3656 B( 41-C , 44-C ) :   1.3236 B( 42-C , 43-C ) :   0.9657
B( 42-C , 47-C ) :   1.4952 B( 43-C , 51-C ) :   0.9865 B( 43-C , 52-C ) :   0.9733
B( 44-C , 45-C ) :   1.5083 B( 44-C , 93-H ) :   1.0083 B( 45-C , 46-C ) :   1.3624
B( 45-C , 48-C ) :   0.9605 B( 46-C , 47-C ) :   1.3325 B( 46-C , 50-C ) :   1.0884
B( 47-C , 94-H ) :   1.0100 B( 48-C , 49-C ) :   0.9601 B( 48-C , 53-C ) :   0.9730
B( 48-C , 54-C ) :   0.9955 B( 49-C , 50-C ) :   1.4958 B( 49-C , 83-C ) :   1.3780
B( 50-C , 85-O ) :   1.1036 B( 51-C , 60-C ) :   1.4187 B( 51-C , 64-C ) :   1.4434
B( 52-C , 55-C ) :   1.4007 B( 52-C , 59-C ) :   1.4585 B( 53-C , 70-C ) :   1.4609
B( 53-C , 74-C ) :   1.3951 B( 54-C , 65-C ) :   1.4070 B( 54-C , 69-C ) :   1.4517
B( 55-C , 56-C ) :   1.4519 B( 55-C , 95-H ) :   1.0068 B( 56-C , 57-C ) :   1.3964
B( 56-C , 96-H ) :   1.0051 B( 57-C , 58-C ) :   1.4254 B( 57-C , 75-C ) :   0.9988
B( 58-C , 59-C ) :   1.4157 B( 58-C , 97-H ) :   1.0028 B( 59-C , 98-H ) :   0.9928
B( 60-C , 61-C ) :   1.4395 B( 60-C , 99-H ) :   0.9992 B( 61-C , 62-C ) :   1.4019
B( 61-C ,100-H ) :   1.0050 B( 62-C , 63-C ) :   1.4189 B( 62-C , 77-C ) :   0.9987
B( 63-C , 64-C ) :   1.4234 B( 63-C ,101-H ) :   1.0034 B( 64-C ,102-H ) :   0.9973
B( 65-C , 66-C ) :   1.4449 B( 65-C ,103-H ) :   1.0023 B( 66-C , 67-C ) :   1.3945
B( 66-C ,104-H ) :   1.0061 B( 67-C , 68-C ) :   1.4226 B( 67-C , 81-C ) :   0.9999
B( 68-C , 69-C ) :   1.4179 B( 68-C ,105-H ) :   1.0031 B( 69-C ,106-H ) :   0.9970
B( 70-C , 71-C ) :   1.4156 B( 70-C ,107-H ) :   0.9919 B( 71-C , 72-C ) :   1.4291
B( 71-C ,108-H ) :   1.0009 B( 72-C , 73-C ) :   1.3962 B( 72-C , 79-C ) :   0.9990
B( 73-C , 74-C ) :   1.4557 B( 73-C ,109-H ) :   1.0040 B( 74-C ,110-H ) :   1.0064
B( 75-C , 76-C ) :   1.0333 B( 75-C ,111-H ) :   0.9761 B( 75-C ,112-H ) :   0.9757
B( 76-C ,113-H ) :   0.9839 B( 76-C ,114-H ) :   0.9873 B( 76-C ,115-H ) :   0.9846
B( 77-C , 78-C ) :   1.0335 B( 77-C ,116-H ) :   0.9761 B( 77-C ,117-H ) :   0.9756
B( 78-C ,118-H ) :   0.9840 B( 78-C ,119-H ) :   0.9872 B( 78-C ,120-H ) :   0.9846
B( 79-C , 80-C ) :   1.0338 B( 79-C ,121-H ) :   0.9755 B( 79-C ,122-H ) :   0.9761
B( 80-C ,123-H ) :   0.9845 B( 80-C ,124-H ) :   0.9871 B( 80-C ,125-H ) :   0.9837
B( 81-C , 82-C ) :   1.0338 B( 81-C ,126-H ) :   0.9764 B( 81-C ,127-H ) :   0.9751
B( 82-C ,128-H ) :   0.9836 B( 82-C ,129-H ) :   0.9872 B( 82-C ,130-H ) :   0.9849
B( 83-C , 84-C ) :   1.4620 B( 83-C ,131-H ) :   1.0032 B( 84-C , 85-O ) :   0.9779

-----------------------------------------------------------------------------
         ABSORPTION SPECTRUM VIA TRANSITION ELECTRIC DIPOLE MOMENTS
-----------------------------------------------------------------------------
State   Energy    Wavelength  fosc         T2        TX        TY        TZ
        (cm-1)      (nm)                 (au**2)    (au)      (au)      (au)
-----------------------------------------------------------------------------
   1   21313.8    469.2   1.545554946  23.87255   3.40827   3.16320  -1.50015
   2   26538.8    376.8   0.282231931   3.50107   0.16534   0.39020   1.82249
   3   35348.1    282.9   0.407216653   3.79258   0.88659   1.16018  -1.28861

FINAL SINGLE POINT ENERGY     -3345.884818982879

DIPOLE MOMENT
-------------
                                X             Y             Z
Electronic contribution:     -3.13835       8.59733     -12.14123
Nuclear contribution   :      1.28448      -6.62711      13.68961
                        -----------------------------------------
Total Dipole Moment    :     -1.85387       1.97022       1.54838
                        -----------------------------------------
Magnitude (a.u.)       :      3.11706
Magnitude (Debye)      :      7.92294

Rotational constants in cm-1:     0.000967     0.000495     0.000419
Rotational constants in MHz :    28.989192    14.828703    12.553313

                             ****ORCA TERMINATED NORMALLY****
TOTAL RUN TIME: 1 days 3 hours 36 minutes 37 seconds 668 msec
