                         Program Version 4.2.0 -  RELEASE  -
|  1> # ORCA input file
|  2> # IDF-4F.out
|  3> ! Engrad Keepdens
|  4> %maxcore 1000
|  5> %tddft
|  6>   nroots 3
|  7>   # nroots is the number of states to be computed
|  8>   Iroot 1
|  9>   end
| 10> * xyz 0 1
| 11>    C        0.27522        -2.56479        -2.16661
| 12>    C       -0.90535        -2.79370        -1.50781
| 13>    C       -2.08193        -3.37517        -2.13136
| 14>    C       -3.17141        -3.32825        -1.15540
| 15>    C       -2.67841        -2.79032         0.04317
| 16>    C       -1.24480        -2.45509        -0.11019
| 17>    C       -4.50299        -3.70526        -1.24370
| 18>    C       -5.30463        -3.53335        -0.12512
| 19>    C       -4.80313        -3.00095         1.06310
| 20>    C       -3.47444        -2.62168         1.15882
| 21>    F       -5.61385        -2.85396         2.11796
| 22>    F       -6.59288        -3.88771        -0.19218
| 23>    O       -0.53596        -1.99921         0.76147
| 24>    C       -2.18858        -3.90526        -3.39048
| 25>    C       -3.37783        -4.45338        -3.91887
| 26>    C       -1.15657        -4.01307        -4.34787
| 27>    N       -4.30648        -4.91115        -4.41399
| 28>    N       -0.38815        -4.15611        -5.18955
| 29>    C        1.48142        -1.98833        -1.73816
| 30>    O        2.43429        -1.84365        -2.72525
| 31>    C        3.47496        -1.25768        -2.15219
| 32>    C        3.24508        -1.01063        -0.79739
| 33>    C        1.97341        -1.48752        -0.52301
| 34>    C       10.85829         3.63262        -3.56402
| 35>    C       10.89425         4.55336        -2.55621
| 36>    C        9.87709         4.96095        -1.61142
| 37>    C       10.55896         5.63739        -0.50919
| 38>    C       11.90214         5.84650        -0.87068
| 39>    C       12.15853         5.24183        -2.20108
| 40>    C       10.08466         6.09668         0.70866
| 41>    C       10.97277         6.75888         1.54277
| 42>    C       12.30179         6.97211         1.17437
| 43>    C       12.78216         6.51557        -0.04303
| 44>    F       13.12152         7.62350         2.00772
| 45>    F       10.54100         7.20037         2.72946
| 46>    O       13.18589         5.26364        -2.83704
| 47>    C        8.52390         4.97035        -1.82590
| 48>    C        7.57516         5.41284        -0.88328
| 49>    C        7.93185         4.62758        -3.05963
| 50>    N        6.75891         5.73053        -0.14156
| 51>    N        7.42033         4.42902        -4.06784
| 52>    C        4.74322        -0.74910        -2.56051
| 53>    C        5.31361        -0.15098        -1.40465
| 54>    C        4.46516        -0.40213        -0.16632
| 55>    C        5.38614        -0.73252        -3.79739
| 56>    C        6.57980        -0.05403        -3.87604
| 57>    C        7.08234         0.64965        -2.74976
| 58>    C        6.47222         0.58245        -1.49827
| 59>    C        7.47227         0.12825        -5.09756
| 60>    C        8.46132         1.12605        -4.56480
| 61>    C        8.21408         1.37572        -3.21799
| 62>    C        4.24124         0.87593         0.61324
| 63>    C        5.04947        -1.49202         0.72651
| 64>    C        8.24604        -1.12658        -5.47067
| 65>    C        6.63704         0.63484        -6.25903
| 66>    C        6.18210        -2.21535         0.38689
| 67>    C        6.63776        -3.22728         1.21443
| 68>    C        5.97482        -3.54345         2.39150
| 69>    C        4.83703        -2.81709         2.72316
| 70>    C        4.37783        -1.80648         1.90259
| 71>    C        3.16663         1.70695         0.33487
| 72>    C        2.98031         2.87434         1.05388
| 73>    C        3.85837         3.24060         2.06436
| 74>    C        4.94608         2.41459         2.32214
| 75>    C        5.13988         1.25060         1.60511
| 76>    C        6.03409        -0.26814        -7.12548
| 77>    C        5.24301         0.18205        -8.16523
| 78>    C        5.02868         1.54028        -8.36121
| 79>    C        5.62294         2.43581        -7.48210
| 80>    C        6.41327         1.99299        -6.43703
| 81>    C        9.01843        -1.10981        -6.62641
| 82>    C        9.76856        -2.21200        -6.98517
| 83>    C        9.77584        -3.35635        -6.19652
| 84>    C        9.00895        -3.36395        -5.04011
| 85>    C        8.25543        -2.26192        -4.67509
| 86>    C        6.44001        -4.67884         3.25643
| 87>    C        5.76378        -5.98354         2.82958
| 88>    C        3.66242         4.50386         2.85107
| 89>    C        4.67267         5.57365         2.43463
| 90>    C       10.55349        -4.57107        -6.61238
| 91>    C        9.69018        -5.48236        -7.48745
| 92>    C        4.21483         2.02662        -9.52525
| 93>    C        5.10695         2.22418       -10.75265
| 94>    C        9.56043         1.90537        -4.90632
| 95>    C        9.88270         2.63256        -3.75579
| 96>    O        9.05340         2.28120        -2.72245
| 97>    H        0.31465        -2.83969        -3.21385
| 98>    H       -4.94244        -4.11986        -2.13568
| 99>    H       -3.08002        -2.20796         2.07320
|100>    H        1.43412        -1.47921         0.40080
|101>    H       11.69559         3.62923        -4.25092
|102>    H        9.06654         5.95373         1.03275
|103>    H       13.80866         6.68205        -0.32823
|104>    H        4.95155        -1.22229        -4.65450
|105>    H        6.88964         1.09643        -0.64645
|106>    H        6.71841        -1.99233        -0.52391
|107>    H        7.52487        -3.77904         0.93720
|108>    H        4.30411        -3.04749         3.63425
|109>    H        3.49382        -1.24936         2.17476
|110>    H        2.46512         1.43766        -0.44166
|111>    H        2.13239         3.50530         0.82938
|112>    H        5.64436         2.68128         3.10244
|113>    H        5.98487         0.61523         1.83055
|114>    H        6.19260        -1.32900        -6.99354
|115>    H        4.78343        -0.53303        -8.83257
|116>    H        5.46314         3.49645        -7.61070
|117>    H        6.85184         2.71065        -5.76022
|118>    H        9.01963        -0.22853        -7.25099
|119>    H       10.36046        -2.18379        -7.88871
|120>    H        9.00161        -4.24293        -4.41139
|121>    H        7.67102        -2.29358        -3.76728
|122>    H        6.19670        -4.47301         4.30055
|123>    H        7.52283        -4.79060         3.17251
|124>    H        4.68319        -5.89548         2.91681
|125>    H        6.09726        -6.80763         3.45573
|126>    H        6.00496        -6.21370         1.79412
|127>    H        3.78465         4.29069         3.91633
|128>    H        2.64993         4.88096         2.69514
|129>    H        5.68826         5.23298         2.61933
|130>    H        4.50717         6.48910         2.99762
|131>    H        4.58124         5.79315         1.37456
|132>    H       10.87874        -5.12364        -5.72868
|133>    H       11.44035        -4.26911        -7.17289
|134>    H        8.80660        -5.80503        -6.94137
|135>    H       10.25229        -6.36247        -7.79029
|136>    H        9.36576        -4.95275        -8.38036
|137>    H        3.73559         2.97431        -9.27249
|138>    H        3.43468         1.30013        -9.76129
|139>    H        5.88336         2.95616       -10.54151
|140>    H        4.51948         2.57454       -11.59800
|141>    H        5.58592         1.28679       -11.02706
|142>    H       10.05281         1.99594        -5.85277
|143> *
|144>
|145>                          ****END OF INPUT****

CARTESIAN COORDINATES (ANGSTROEM)
---------------------------------
  C      0.275220   -2.564790   -2.166610
  C     -0.905350   -2.793700   -1.507810
  C     -2.081930   -3.375170   -2.131360
  C     -3.171410   -3.328250   -1.155400
  C     -2.678410   -2.790320    0.043170
  C     -1.244800   -2.455090   -0.110190
  C     -4.502990   -3.705260   -1.243700
  C     -5.304630   -3.533350   -0.125120
  C     -4.803130   -3.000950    1.063100
  C     -3.474440   -2.621680    1.158820
  F     -5.613850   -2.853960    2.117960
  F     -6.592880   -3.887710   -0.192180
  O     -0.535960   -1.999210    0.761470
  C     -2.188580   -3.905260   -3.390480
  C     -3.377830   -4.453380   -3.918870
  C     -1.156570   -4.013070   -4.347870
  N     -4.306480   -4.911150   -4.413990
  N     -0.388150   -4.156110   -5.189550
  C      1.481420   -1.988330   -1.738160
  O      2.434290   -1.843650   -2.725250
  C      3.474960   -1.257680   -2.152190
  C      3.245080   -1.010630   -0.797390
  C      1.973410   -1.487520   -0.523010
  C     10.858290    3.632620   -3.564020
  C     10.894250    4.553360   -2.556210
  C      9.877090    4.960950   -1.611420
  C     10.558960    5.637390   -0.509190
  C     11.902140    5.846500   -0.870680
  C     12.158530    5.241830   -2.201080
  C     10.084660    6.096680    0.708660
  C     10.972770    6.758880    1.542770
  C     12.301790    6.972110    1.174370
  C     12.782160    6.515570   -0.043030
  F     13.121520    7.623500    2.007720
  F     10.541000    7.200370    2.729460
  O     13.185890    5.263640   -2.837040
  C      8.523900    4.970350   -1.825900
  C      7.575160    5.412840   -0.883280
  C      7.931850    4.627580   -3.059630
  N      6.758910    5.730530   -0.141560
  N      7.420330    4.429020   -4.067840
  C      4.743220   -0.749100   -2.560510
  C      5.313610   -0.150980   -1.404650
  C      4.465160   -0.402130   -0.166320
  C      5.386140   -0.732520   -3.797390
  C      6.579800   -0.054030   -3.876040
  C      7.082340    0.649650   -2.749760
  C      6.472220    0.582450   -1.498270
  C      7.472270    0.128250   -5.097560
  C      8.461320    1.126050   -4.564800
  C      8.214080    1.375720   -3.217990
  C      4.241240    0.875930    0.613240
  C      5.049470   -1.492020    0.726510
  C      8.246040   -1.126580   -5.470670
  C      6.637040    0.634840   -6.259030
  C      6.182100   -2.215350    0.386890
  C      6.637760   -3.227280    1.214430
  C      5.974820   -3.543450    2.391500
  C      4.837030   -2.817090    2.723160
  C      4.377830   -1.806480    1.902590
  C      3.166630    1.706950    0.334870
  C      2.980310    2.874340    1.053880
  C      3.858370    3.240600    2.064360
  C      4.946080    2.414590    2.322140
  C      5.139880    1.250600    1.605110
  C      6.034090   -0.268140   -7.125480
  C      5.243010    0.182050   -8.165230
  C      5.028680    1.540280   -8.361210
  C      5.622940    2.435810   -7.482100
  C      6.413270    1.992990   -6.437030
  C      9.018430   -1.109810   -6.626410
  C      9.768560   -2.212000   -6.985170
  C      9.775840   -3.356350   -6.196520
  C      9.008950   -3.363950   -5.040110
  C      8.255430   -2.261920   -4.675090
  C      6.440010   -4.678840    3.256430
  C      5.763780   -5.983540    2.829580
  C      3.662420    4.503860    2.851070
  C      4.672670    5.573650    2.434630
  C     10.553490   -4.571070   -6.612380
  C      9.690180   -5.482360   -7.487450
  C      4.214830    2.026620   -9.525250
  C      5.106950    2.224180  -10.752650
  C      9.560430    1.905370   -4.906320
  C      9.882700    2.632560   -3.755790
  O      9.053400    2.281200   -2.722450
  H      0.314650   -2.839690   -3.213850
  H     -4.942440   -4.119860   -2.135680
  H     -3.080020   -2.207960    2.073200
  H      1.434120   -1.479210    0.400800
  H     11.695590    3.629230   -4.250920
  H      9.066540    5.953730    1.032750
  H     13.808660    6.682050   -0.328230
  H      4.951550   -1.222290   -4.654500
  H      6.889640    1.096430   -0.646450
  H      6.718410   -1.992330   -0.523910
  H      7.524870   -3.779040    0.937200
  H      4.304110   -3.047490    3.634250
  H      3.493820   -1.249360    2.174760
  H      2.465120    1.437660   -0.441660
  H      2.132390    3.505300    0.829380
  H      5.644360    2.681280    3.102440
  H      5.984870    0.615230    1.830550
  H      6.192600   -1.329000   -6.993540
  H      4.783430   -0.533030   -8.832570
  H      5.463140    3.496450   -7.610700
  H      6.851840    2.710650   -5.760220
  H      9.019630   -0.228530   -7.250990
  H     10.360460   -2.183790   -7.888710
  H      9.001610   -4.242930   -4.411390
  H      7.671020   -2.293580   -3.767280
  H      6.196700   -4.473010    4.300550
  H      7.522830   -4.790600    3.172510
  H      4.683190   -5.895480    2.916810
  H      6.097260   -6.807630    3.455730
  H      6.004960   -6.213700    1.794120
  H      3.784650    4.290690    3.916330
  H      2.649930    4.880960    2.695140
  H      5.688260    5.232980    2.619330
  H      4.507170    6.489100    2.997620
  H      4.581240    5.793150    1.374560
  H     10.878740   -5.123640   -5.728680
  H     11.440350   -4.269110   -7.172890
  H      8.806600   -5.805030   -6.941370
  H     10.252290   -6.362470   -7.790290
  H      9.365760   -4.952750   -8.380360
  H      3.735590    2.974310   -9.272490
  H      3.434680    1.300130   -9.761290
  H      5.883360    2.956160  -10.541510
  H      4.519480    2.574540  -11.598000
  H      5.585920    1.286790  -11.027060
  H     10.052810    1.995940   -5.852770

 Total Charge           Charge          ....    0
 Multiplicity           Mult            ....    1
 Number of Electrons    NEL             ....  586
 Basis Dimension        Dim             .... 1434

ORBITAL ENERGIES
----------------

  NO   OCC          E(Eh)            E(eV)
   0   2.0000     -26.336992      -716.6660
   1   2.0000     -26.336845      -716.6620
   2   2.0000     -26.333287      -716.5652
   3   2.0000     -26.330842      -716.4986
   4   2.0000     -20.668103      -562.4077
   5   2.0000     -20.662794      -562.2632
   6   2.0000     -20.569842      -559.7339
   7   2.0000     -20.569471      -559.7238
   8   2.0000     -15.594175      -424.3391
   9   2.0000     -15.591582      -424.2685
  10   2.0000     -15.588808      -424.1930
  11   2.0000     -15.585075      -424.0914
  12   2.0000     -11.380702      -309.6846
  13   2.0000     -11.379239      -309.6448
  14   2.0000     -11.375586      -309.5454
  15   2.0000     -11.374045      -309.5035
  16   2.0000     -11.368142      -309.3429
  17   2.0000     -11.367856      -309.3351
  18   2.0000     -11.344320      -308.6946
  19   2.0000     -11.342654      -308.6493
  20   2.0000     -11.341601      -308.6207
  21   2.0000     -11.340245      -308.5838
  22   2.0000     -11.334000      -308.4138
  23   2.0000     -11.325419      -308.1803
  24   2.0000     -11.323987      -308.1413
  25   2.0000     -11.322546      -308.1021
  26   2.0000     -11.317127      -307.9547
  27   2.0000     -11.316637      -307.9413
  28   2.0000     -11.306751      -307.6723
  29   2.0000     -11.305129      -307.6282
  30   2.0000     -11.304679      -307.6160
  31   2.0000     -11.300624      -307.5056
  32   2.0000     -11.299215      -307.4673
  33   2.0000     -11.298124      -307.4376
  34   2.0000     -11.297960      -307.4331
  35   2.0000     -11.296486      -307.3930
  36   2.0000     -11.296070      -307.3817
  37   2.0000     -11.292914      -307.2958
  38   2.0000     -11.292262      -307.2781
  39   2.0000     -11.291638      -307.2611
  40   2.0000     -11.287829      -307.1574
  41   2.0000     -11.287541      -307.1496
  42   2.0000     -11.286300      -307.1158
  43   2.0000     -11.286220      -307.1137
  44   2.0000     -11.285864      -307.1040
  45   2.0000     -11.283203      -307.0316
  46   2.0000     -11.280740      -306.9645
  47   2.0000     -11.280256      -306.9514
  48   2.0000     -11.278781      -306.9112
  49   2.0000     -11.275662      -306.8264
  50   2.0000     -11.274922      -306.8062
  51   2.0000     -11.274505      -306.7949
  52   2.0000     -11.264909      -306.5337
  53   2.0000     -11.260065      -306.4019
  54   2.0000     -11.258268      -306.3530
  55   2.0000     -11.256494      -306.3048
  56   2.0000     -11.249831      -306.1235
  57   2.0000     -11.249208      -306.1065
  58   2.0000     -11.248343      -306.0830
  59   2.0000     -11.247783      -306.0677
  60   2.0000     -11.247649      -306.0641
  61   2.0000     -11.245977      -306.0186
  62   2.0000     -11.245698      -306.0110
  63   2.0000     -11.244984      -305.9916
  64   2.0000     -11.244468      -305.9775
  65   2.0000     -11.243937      -305.9631
  66   2.0000     -11.242042      -305.9115
  67   2.0000     -11.241840      -305.9060
  68   2.0000     -11.240937      -305.8814
  69   2.0000     -11.240818      -305.8782
  70   2.0000     -11.240415      -305.8673
  71   2.0000     -11.240214      -305.8618
  72   2.0000     -11.239873      -305.8525
  73   2.0000     -11.239791      -305.8503
  74   2.0000     -11.238087      -305.8039
  75   2.0000     -11.236113      -305.7502
  76   2.0000     -11.235938      -305.7454
  77   2.0000     -11.235218      -305.7258
  78   2.0000     -11.235020      -305.7204
  79   2.0000     -11.233277      -305.6730
  80   2.0000     -11.232452      -305.6506
  81   2.0000     -11.229517      -305.5707
  82   2.0000     -11.228137      -305.5331
  83   2.0000     -11.226834      -305.4977
  84   2.0000     -11.224065      -305.4223
  85   2.0000     -11.209572      -305.0280
  86   2.0000      -1.647179       -44.8220
  87   2.0000      -1.642289       -44.6889
  88   2.0000      -1.632288       -44.4168
  89   2.0000      -1.627325       -44.2818
  90   2.0000      -1.505323       -40.9619
  91   2.0000      -1.498153       -40.7668
  92   2.0000      -1.402809       -38.1724
  93   2.0000      -1.402130       -38.1539
  94   2.0000      -1.256154       -34.1817
  95   2.0000      -1.250349       -34.0237
  96   2.0000      -1.237429       -33.6721
  97   2.0000      -1.234592       -33.5950
  98   2.0000      -1.230547       -33.4849
  99   2.0000      -1.229596       -33.4590
 100   2.0000      -1.223193       -33.2848
 101   2.0000      -1.212579       -32.9960
 102   2.0000      -1.177139       -32.0316
 103   2.0000      -1.173301       -31.9271
 104   2.0000      -1.171064       -31.8663
 105   2.0000      -1.162748       -31.6400
 106   2.0000      -1.159253       -31.5449
 107   2.0000      -1.157219       -31.4895
 108   2.0000      -1.137696       -30.9583
 109   2.0000      -1.125589       -30.6288
 110   2.0000      -1.114032       -30.3143
 111   2.0000      -1.101733       -29.9797
 112   2.0000      -1.097799       -29.8726
 113   2.0000      -1.096208       -29.8293
 114   2.0000      -1.090344       -29.6698
 115   2.0000      -1.076731       -29.2993
 116   2.0000      -1.074878       -29.2489
 117   2.0000      -1.069840       -29.1118
 118   2.0000      -1.066710       -29.0267
 119   2.0000      -1.064104       -28.9558
 120   2.0000      -1.056627       -28.7523
 121   2.0000      -1.041014       -28.3274
 122   2.0000      -1.025340       -27.9009
 123   2.0000      -1.022674       -27.8284
 124   2.0000      -1.020311       -27.7641
 125   2.0000      -1.014215       -27.5982
 126   2.0000      -1.012739       -27.5580
 127   2.0000      -1.008247       -27.4358
 128   2.0000      -1.005618       -27.3643
 129   2.0000      -0.982430       -26.7333
 130   2.0000      -0.979383       -26.6504
 131   2.0000      -0.979175       -26.6447
 132   2.0000      -0.951442       -25.8901
 133   2.0000      -0.948195       -25.8017
 134   2.0000      -0.942043       -25.6343
 135   2.0000      -0.939034       -25.5524
 136   2.0000      -0.931359       -25.3436
 137   2.0000      -0.914295       -24.8792
 138   2.0000      -0.888285       -24.1715
 139   2.0000      -0.878609       -23.9082
 140   2.0000      -0.868824       -23.6419
 141   2.0000      -0.866778       -23.5862
 142   2.0000      -0.863810       -23.5055
 143   2.0000      -0.861654       -23.4468
 144   2.0000      -0.857020       -23.3207
 145   2.0000      -0.852852       -23.2073
 146   2.0000      -0.846031       -23.0217
 147   2.0000      -0.841770       -22.9057
 148   2.0000      -0.837534       -22.7905
 149   2.0000      -0.835615       -22.7382
 150   2.0000      -0.832747       -22.6602
 151   2.0000      -0.831011       -22.6130
 152   2.0000      -0.822813       -22.3899
 153   2.0000      -0.821534       -22.3551
 154   2.0000      -0.812425       -22.1072
 155   2.0000      -0.804465       -21.8906
 156   2.0000      -0.795552       -21.6481
 157   2.0000      -0.793483       -21.5918
 158   2.0000      -0.792699       -21.5704
 159   2.0000      -0.791639       -21.5416
 160   2.0000      -0.790329       -21.5059
 161   2.0000      -0.788244       -21.4492
 162   2.0000      -0.785822       -21.3833
 163   2.0000      -0.781219       -21.2581
 164   2.0000      -0.773125       -21.0378
 165   2.0000      -0.765679       -20.8352
 166   2.0000      -0.755520       -20.5587
 167   2.0000      -0.750557       -20.4237
 168   2.0000      -0.744284       -20.2530
 169   2.0000      -0.740530       -20.1509
 170   2.0000      -0.739439       -20.1211
 171   2.0000      -0.737741       -20.0750
 172   2.0000      -0.732649       -19.9364
 173   2.0000      -0.722089       -19.6490
 174   2.0000      -0.720759       -19.6128
 175   2.0000      -0.716223       -19.4894
 176   2.0000      -0.715072       -19.4581
 177   2.0000      -0.711354       -19.3569
 178   2.0000      -0.710968       -19.3464
 179   2.0000      -0.706789       -19.2327
 180   2.0000      -0.699200       -19.0262
 181   2.0000      -0.695548       -18.9268
 182   2.0000      -0.694229       -18.8909
 183   2.0000      -0.685909       -18.6645
 184   2.0000      -0.680802       -18.5256
 185   2.0000      -0.676420       -18.4063
 186   2.0000      -0.674279       -18.3481
 187   2.0000      -0.670322       -18.2404
 188   2.0000      -0.669778       -18.2256
 189   2.0000      -0.665569       -18.1110
 190   2.0000      -0.664306       -18.0767
 191   2.0000      -0.663110       -18.0441
 192   2.0000      -0.662124       -18.0173
 193   2.0000      -0.659406       -17.9434
 194   2.0000      -0.654749       -17.8166
 195   2.0000      -0.647014       -17.6062
 196   2.0000      -0.645509       -17.5652
 197   2.0000      -0.641507       -17.4563
 198   2.0000      -0.639223       -17.3941
 199   2.0000      -0.638991       -17.3878
 200   2.0000      -0.636322       -17.3152
 201   2.0000      -0.632099       -17.2003
 202   2.0000      -0.629431       -17.1277
 203   2.0000      -0.628119       -17.0920
 204   2.0000      -0.623323       -16.9615
 205   2.0000      -0.622608       -16.9420
 206   2.0000      -0.621467       -16.9110
 207   2.0000      -0.619543       -16.8586
 208   2.0000      -0.615152       -16.7391
 209   2.0000      -0.614355       -16.7174
 210   2.0000      -0.611143       -16.6301
 211   2.0000      -0.607972       -16.5438
 212   2.0000      -0.606921       -16.5152
 213   2.0000      -0.605522       -16.4771
 214   2.0000      -0.604662       -16.4537
 215   2.0000      -0.602455       -16.3936
 216   2.0000      -0.601979       -16.3807
 217   2.0000      -0.598435       -16.2842
 218   2.0000      -0.598173       -16.2771
 219   2.0000      -0.595968       -16.2171
 220   2.0000      -0.591993       -16.1089
 221   2.0000      -0.590994       -16.0818
 222   2.0000      -0.586293       -15.9538
 223   2.0000      -0.583514       -15.8782
 224   2.0000      -0.582535       -15.8516
 225   2.0000      -0.579960       -15.7815
 226   2.0000      -0.576136       -15.6775
 227   2.0000      -0.575231       -15.6528
 228   2.0000      -0.574694       -15.6382
 229   2.0000      -0.574323       -15.6281
 230   2.0000      -0.570416       -15.5218
 231   2.0000      -0.568779       -15.4773
 232   2.0000      -0.567221       -15.4349
 233   2.0000      -0.565640       -15.3918
 234   2.0000      -0.562173       -15.2975
 235   2.0000      -0.560468       -15.2511
 236   2.0000      -0.555861       -15.1257
 237   2.0000      -0.548158       -14.9161
 238   2.0000      -0.543255       -14.7827
 239   2.0000      -0.540827       -14.7167
 240   2.0000      -0.538644       -14.6573
 241   2.0000      -0.536441       -14.5973
 242   2.0000      -0.534865       -14.5544
 243   2.0000      -0.531653       -14.4670
 244   2.0000      -0.526946       -14.3389
 245   2.0000      -0.521986       -14.2040
 246   2.0000      -0.520688       -14.1686
 247   2.0000      -0.513806       -13.9814
 248   2.0000      -0.512349       -13.9417
 249   2.0000      -0.510485       -13.8910
 250   2.0000      -0.507676       -13.8146
 251   2.0000      -0.504524       -13.7288
 252   2.0000      -0.501796       -13.6546
 253   2.0000      -0.501466       -13.6456
 254   2.0000      -0.499452       -13.5908
 255   2.0000      -0.495992       -13.4966
 256   2.0000      -0.495698       -13.4886
 257   2.0000      -0.494621       -13.4593
 258   2.0000      -0.492962       -13.4142
 259   2.0000      -0.491621       -13.3777
 260   2.0000      -0.491129       -13.3643
 261   2.0000      -0.487928       -13.2772
 262   2.0000      -0.486398       -13.2356
 263   2.0000      -0.485786       -13.2189
 264   2.0000      -0.485313       -13.2060
 265   2.0000      -0.483642       -13.1606
 266   2.0000      -0.480697       -13.0804
 267   2.0000      -0.477678       -12.9983
 268   2.0000      -0.476261       -12.9597
 269   2.0000      -0.474971       -12.9246
 270   2.0000      -0.473697       -12.8899
 271   2.0000      -0.456193       -12.4136
 272   2.0000      -0.448327       -12.1996
 273   2.0000      -0.445754       -12.1296
 274   2.0000      -0.436942       -11.8898
 275   2.0000      -0.436024       -11.8648
 276   2.0000      -0.411202       -11.1894
 277   2.0000      -0.396395       -10.7864
 278   2.0000      -0.391498       -10.6532
 279   2.0000      -0.380728       -10.3601
 280   2.0000      -0.375949       -10.2301
 281   2.0000      -0.358966        -9.7680
 282   2.0000      -0.357212        -9.7202
 283   2.0000      -0.355528        -9.6744
 284   2.0000      -0.353279        -9.6132
 285   2.0000      -0.345995        -9.4150
 286   2.0000      -0.345040        -9.3890
 287   2.0000      -0.339080        -9.2268
 288   2.0000      -0.335756        -9.1364
 289   2.0000      -0.324130        -8.8200
 290   2.0000      -0.320480        -8.7207
 291   2.0000      -0.313246        -8.5239
 292   2.0000      -0.270128        -7.3505
 293   0.0000      -0.034518        -0.9393
 294   0.0000      -0.011093        -0.3019
 295   0.0000       0.014416         0.3923
 296   0.0000       0.022119         0.6019
 297   0.0000       0.056149         1.5279

MULLIKEN ATOMIC CHARGES
-----------------------
   0 C :    0.070932
   1 C :   -0.292859
   2 C :    0.258988
   3 C :   -0.028079
   4 C :   -0.175486
   5 C :    0.519079
   6 C :   -0.052616
   7 C :    0.353433
   8 C :    0.346291
   9 C :   -0.034858
  10 F :   -0.312741
  11 F :   -0.309725
  12 O :   -0.382177
  13 C :   -0.381607
  14 C :    0.029031
  15 C :    0.030061
  16 N :   -0.068272
  17 N :   -0.062682
  18 C :    0.134014
  19 O :   -0.424990
  20 C :    0.411451
  21 C :   -0.100745
  22 C :    0.032811
  23 C :    0.146553
  24 C :   -0.312183
  25 C :    0.254304
  26 C :   -0.045408
  27 C :   -0.168391
  28 C :    0.476128
  29 C :   -0.055788
  30 C :    0.354262
  31 C :    0.341445
  32 C :   -0.027397
  33 F :   -0.311977
  34 F :   -0.309867
  35 O :   -0.347295
  36 C :   -0.340914
  37 C :    0.031837
  38 C :    0.055821
  39 N :   -0.060755
  40 N :   -0.073698
  41 C :   -0.089985
  42 C :   -0.017786
  43 C :   -0.014552
  44 C :    0.049366
  45 C :   -0.020860
  46 C :   -0.069306
  47 C :    0.033720
  48 C :   -0.017638
  49 C :   -0.084822
  50 C :    0.393588
  51 C :   -0.086413
  52 C :   -0.081430
  53 C :   -0.078793
  54 C :   -0.083875
  55 C :   -0.018593
  56 C :    0.002843
  57 C :   -0.165125
  58 C :   -0.009368
  59 C :    0.003806
  60 C :   -0.007883
  61 C :   -0.006946
  62 C :   -0.147839
  63 C :   -0.007368
  64 C :   -0.013595
  65 C :   -0.018336
  66 C :   -0.011110
  67 C :   -0.161497
  68 C :   -0.005558
  69 C :   -0.032586
  70 C :   -0.006245
  71 C :   -0.009647
  72 C :   -0.164751
  73 C :    0.003385
  74 C :   -0.015172
  75 C :    0.022373
  76 C :   -0.007616
  77 C :    0.025380
  78 C :   -0.012775
  79 C :    0.022470
  80 C :   -0.008223
  81 C :    0.023573
  82 C :   -0.008423
  83 C :    0.059378
  84 C :    0.138522
  85 O :   -0.457424
  86 H :    0.101579
  87 H :    0.096902
  88 H :    0.076727
  89 H :    0.100096
  90 H :    0.086392
  91 H :    0.091507
  92 H :    0.080179
  93 H :    0.045890
  94 H :    0.040970
  95 H :    0.044675
  96 H :    0.020433
  97 H :    0.026289
  98 H :    0.044980
  99 H :    0.039590
 100 H :    0.024634
 101 H :    0.023854
 102 H :    0.046806
 103 H :    0.048492
 104 H :    0.024698
 105 H :    0.026933
 106 H :    0.077343
 107 H :    0.038964
 108 H :    0.024922
 109 H :    0.022490
 110 H :    0.045506
 111 H :    0.035094
 112 H :    0.033789
 113 H :    0.028931
 114 H :    0.034836
 115 H :    0.027092
 116 H :    0.034823
 117 H :    0.026713
 118 H :    0.021205
 119 H :    0.025737
 120 H :    0.053282
 121 H :    0.035032
 122 H :    0.034523
 123 H :    0.028614
 124 H :    0.035721
 125 H :    0.027978
 126 H :    0.035911
 127 H :    0.036071
 128 H :    0.026686
 129 H :    0.034546
 130 H :    0.025645
 131 H :    0.054124
Sum of atomic charges:    0.0000000

LOEWDIN ATOMIC CHARGES
----------------------
   0 C :    0.115022
   1 C :   -0.163785
   2 C :    0.119455
   3 C :   -0.023273
   4 C :   -0.051815
   5 C :    0.169792
   6 C :   -0.001908
   7 C :    0.123851
   8 C :    0.122779
   9 C :    0.008277
  10 F :   -0.110860
  11 F :   -0.109169
  12 O :   -0.236103
  13 C :   -0.177511
  14 C :    0.012821
  15 C :    0.009112
  16 N :   -0.095229
  17 N :   -0.090854
  18 C :    0.010942
  19 O :   -0.054635
  20 C :    0.125829
  21 C :   -0.065904
  22 C :    0.057272
  23 C :    0.112518
  24 C :   -0.148038
  25 C :    0.115289
  26 C :   -0.018812
  27 C :   -0.054966
  28 C :    0.164333
  29 C :   -0.007167
  30 C :    0.126251
  31 C :    0.120983
  32 C :    0.011899
  33 F :   -0.110342
  34 F :   -0.108938
  35 O :   -0.228336
  36 C :   -0.164587
  37 C :    0.014422
  38 C :    0.025292
  39 N :   -0.085376
  40 N :   -0.099207
  41 C :   -0.037734
  42 C :    0.025706
  43 C :   -0.006531
  44 C :    0.012713
  45 C :    0.022351
  46 C :   -0.029708
  47 C :    0.003371
  48 C :   -0.005439
  49 C :   -0.053572
  50 C :    0.115794
  51 C :   -0.035335
  52 C :   -0.020767
  53 C :   -0.022439
  54 C :   -0.036205
  55 C :   -0.026924
  56 C :   -0.024917
  57 C :   -0.024681
  58 C :   -0.019555
  59 C :   -0.007481
  60 C :   -0.014493
  61 C :   -0.022505
  62 C :   -0.016003
  63 C :   -0.020939
  64 C :   -0.017841
  65 C :   -0.018710
  66 C :   -0.026623
  67 C :   -0.022015
  68 C :   -0.021601
  69 C :   -0.010640
  70 C :   -0.012511
  71 C :   -0.021411
  72 C :   -0.023998
  73 C :   -0.023049
  74 C :   -0.023458
  75 C :   -0.009464
  76 C :   -0.025089
  77 C :   -0.011492
  78 C :   -0.022777
  79 C :   -0.009404
  80 C :   -0.025045
  81 C :   -0.009014
  82 C :   -0.025640
  83 C :    0.045072
  84 C :    0.013940
  85 O :   -0.052905
  86 H :    0.058090
  87 H :    0.054788
  88 H :    0.054911
  89 H :    0.044476
  90 H :    0.059902
  91 H :    0.053462
  92 H :    0.056283
  93 H :    0.039978
  94 H :    0.037716
  95 H :    0.024355
  96 H :    0.022596
  97 H :    0.024839
  98 H :    0.028222
  99 H :    0.025943
 100 H :    0.024490
 101 H :    0.023227
 102 H :    0.026625
 103 H :    0.026725
 104 H :    0.023827
 105 H :    0.025634
 106 H :    0.029521
 107 H :    0.025584
 108 H :    0.024121
 109 H :    0.023468
 110 H :    0.025052
 111 H :    0.019268
 112 H :    0.018753
 113 H :    0.016248
 114 H :    0.015099
 115 H :    0.015570
 116 H :    0.018818
 117 H :    0.016627
 118 H :    0.011113
 119 H :    0.012389
 120 H :    0.020926
 121 H :    0.019327
 122 H :    0.019086
 123 H :    0.016072
 124 H :    0.015538
 125 H :    0.015851
 126 H :    0.019781
 127 H :    0.019654
 128 H :    0.015321
 129 H :    0.014991
 130 H :    0.014795
 131 H :    0.040583

  Mayer bond orders larger than 0.100000
B(  0-C ,  1-C ) :   1.5751 B(  0-C , 18-C ) :   1.2918 B(  0-C , 86-H ) :   0.9423
B(  1-C ,  2-C ) :   1.1253 B(  1-C ,  5-C ) :   0.9822 B(  2-C ,  3-C ) :   1.0384
B(  2-C , 13-C ) :   1.6663 B(  3-C ,  4-C ) :   1.3734 B(  3-C ,  6-C ) :   1.3728
B(  4-C ,  5-C ) :   0.9789 B(  4-C ,  9-C ) :   1.3895 B(  5-C , 12-O ) :   2.0260
B(  6-C ,  7-C ) :   1.4054 B(  6-C , 87-H ) :   0.9900 B(  7-C ,  8-C ) :   1.3381
B(  7-C , 11-F ) :   0.9437 B(  8-C ,  9-C ) :   1.3793 B(  8-C , 10-F ) :   0.9345
B(  9-C , 88-H ) :   1.0139 B( 13-C , 14-C ) :   1.0666 B( 13-C , 15-C ) :   1.0683
B( 14-C , 16-N ) :   2.9841 B( 15-C , 17-N ) :   2.9780 B( 18-C , 19-O ) :   0.9671
B( 18-C , 22-C ) :   1.4315 B( 19-O , 20-C ) :   1.1254 B( 20-C , 21-C ) :   1.4697
B( 20-C , 41-C ) :   1.0878 B( 21-C , 22-C ) :   1.3561 B( 21-C , 43-C ) :   0.9584
B( 22-C , 89-H ) :   1.0075 B( 23-C , 24-C ) :   1.6523 B( 23-C , 84-C ) :   1.1891
B( 23-C , 90-H ) :   0.9616 B( 24-C , 25-C ) :   1.0825 B( 24-C , 28-C ) :   0.9972
B( 25-C , 26-C ) :   1.0462 B( 25-C , 36-C ) :   1.6993 B( 26-C , 27-C ) :   1.3654
B( 26-C , 29-C ) :   1.3809 B( 27-C , 28-C ) :   0.9456 B( 27-C , 32-C ) :   1.3880
B( 28-C , 35-O ) :   2.1144 B( 29-C , 30-C ) :   1.4034 B( 29-C , 91-H ) :   0.9929
B( 30-C , 31-C ) :   1.3377 B( 30-C , 34-F ) :   0.9416 B( 31-C , 32-C ) :   1.3849
B( 31-C , 33-F ) :   0.9353 B( 32-C , 92-H ) :   1.0128 B( 36-C , 37-C ) :   1.0579
B( 36-C , 38-C ) :   1.0698 B( 37-C , 39-N ) :   2.9925 B( 38-C , 40-N ) :   2.9908
B( 41-C , 42-C ) :   1.3579 B( 41-C , 44-C ) :   1.3300 B( 42-C , 43-C ) :   0.9655
B( 42-C , 47-C ) :   1.5052 B( 43-C , 51-C ) :   0.9898 B( 43-C , 52-C ) :   0.9660
B( 44-C , 45-C ) :   1.4970 B( 44-C , 93-H ) :   1.0097 B( 45-C , 46-C ) :   1.3606
B( 45-C , 48-C ) :   0.9631 B( 46-C , 47-C ) :   1.3232 B( 46-C , 50-C ) :   1.0845
B( 47-C , 94-H ) :   1.0105 B( 48-C , 49-C ) :   0.9619 B( 48-C , 53-C ) :   0.9707
B( 48-C , 54-C ) :   0.9864 B( 49-C , 50-C ) :   1.5218 B( 49-C , 83-C ) :   1.3508
B( 50-C , 85-O ) :   1.0755 B( 51-C , 60-C ) :   1.4493 B( 51-C , 64-C ) :   1.4096
B( 52-C , 55-C ) :   1.4661 B( 52-C , 59-C ) :   1.3964 B( 53-C , 70-C ) :   1.3995
B( 53-C , 74-C ) :   1.4626 B( 54-C , 65-C ) :   1.4202 B( 54-C , 69-C ) :   1.4274
B( 55-C , 56-C ) :   1.4059 B( 55-C , 95-H ) :   0.9933 B( 56-C , 57-C ) :   1.4328
B( 56-C , 96-H ) :   1.0031 B( 57-C , 58-C ) :   1.3881 B( 57-C , 75-C ) :   0.9986
B( 58-C , 59-C ) :   1.4605 B( 58-C , 97-H ) :   1.0059 B( 59-C , 98-H ) :   1.0056
B( 60-C , 61-C ) :   1.4185 B( 60-C , 99-H ) :   0.9979 B( 61-C , 62-C ) :   1.4350
B( 61-C ,100-H ) :   1.0026 B( 62-C , 63-C ) :   1.3924 B( 62-C , 77-C ) :   0.9900
B( 63-C , 64-C ) :   1.4456 B( 63-C ,101-H ) :   1.0042 B( 64-C ,102-H ) :   1.0013
B( 65-C , 66-C ) :   1.4379 B( 65-C ,103-H ) :   1.0008 B( 66-C , 67-C ) :   1.4033
B( 66-C ,104-H ) :   1.0053 B( 67-C , 68-C ) :   1.4095 B( 67-C , 81-C ) :   0.9992
B( 68-C , 69-C ) :   1.4339 B( 68-C ,105-H ) :   1.0069 B( 69-C ,106-H ) :   0.9962
B( 70-C , 71-C ) :   1.4546 B( 70-C ,107-H ) :   1.0067 B( 71-C , 72-C ) :   1.3926
B( 71-C ,108-H ) :   1.0053 B( 72-C , 73-C ) :   1.4295 B( 72-C , 79-C ) :   0.9982
B( 73-C , 74-C ) :   1.4096 B( 73-C ,109-H ) :   1.0029 B( 74-C ,110-H ) :   0.9935
B( 75-C , 76-C ) :   1.0335 B( 75-C ,111-H ) :   0.9756 B( 75-C ,112-H ) :   0.9762
B( 76-C ,113-H ) :   0.9844 B( 76-C ,114-H ) :   0.9873 B( 76-C ,115-H ) :   0.9841
B( 77-C , 78-C ) :   1.0359 B( 77-C ,116-H ) :   0.9724 B( 77-C ,117-H ) :   0.9770
B( 78-C ,118-H ) :   0.9871 B( 78-C ,119-H ) :   0.9863 B( 78-C ,120-H ) :   0.9805
B( 79-C , 80-C ) :   1.0333 B( 79-C ,121-H ) :   0.9759 B( 79-C ,122-H ) :   0.9757
B( 80-C ,123-H ) :   0.9844 B( 80-C ,124-H ) :   0.9873 B( 80-C ,125-H ) :   0.9843
B( 81-C , 82-C ) :   1.0338 B( 81-C ,126-H ) :   0.9759 B( 81-C ,127-H ) :   0.9758
B( 82-C ,128-H ) :   0.9841 B( 82-C ,129-H ) :   0.9873 B( 82-C ,130-H ) :   0.9843
B( 83-C , 84-C ) :   1.4756 B( 83-C ,131-H ) :   1.0101 B( 84-C , 85-O ) :   0.9607

-----------------------------------------------------------------------------
         ABSORPTION SPECTRUM VIA TRANSITION ELECTRIC DIPOLE MOMENTS
-----------------------------------------------------------------------------
State   Energy    Wavelength  fosc         T2        TX        TY        TZ
        (cm-1)      (nm)                 (au**2)    (au)      (au)      (au)
-----------------------------------------------------------------------------
   1   21076.3    474.5   1.575587406  24.61066   3.87434   3.08491   0.28889
   2   26943.2    371.2   0.709415875   8.66816  -2.91451  -0.08577   0.40799
   3   35619.7    280.7   0.272859399   2.52188  -0.95401   0.02124   1.26937

FINAL SINGLE POINT ENERGY     -3740.953674420419

DIPOLE MOMENT
-------------
                                X             Y             Z
Electronic contribution:    -43.41955      34.20928      39.50539
Nuclear contribution   :     46.33120     -35.26433     -39.26421
                        -----------------------------------------
Total Dipole Moment    :      2.91165      -1.05505       0.24118
                        -----------------------------------------
Magnitude (a.u.)       :      3.10628
Magnitude (Debye)      :      7.89554

Rotational constants in cm-1:     0.000850     0.000392     0.000330
Rotational constants in MHz :    25.479997    11.747965     9.891771

                             ****ORCA TERMINATED NORMALLY****
TOTAL RUN TIME: 1 days 3 hours 53 minutes 28 seconds 388 msec
