                         Program Version 4.2.0 -  RELEASE  -
|  1> # ORCA input file
|  2> # IDF-4F.out: Geometry 146
|  3> ! Engrad Keepdens
|  4> %maxcore 1000
|  5> %tddft
|  6>   nroots 3
|  7>   # nroots is the number of states to be computed
|  8>   Iroot 1
|  9>   end
| 10> * xyz 0 1
| 11>    C        0.16738        -2.76988        -2.20975
| 12>    C       -0.93897        -3.22446        -1.51506
| 13>    C       -2.10905        -3.89971        -2.08981
| 14>    C       -2.96583        -4.34760        -0.96043
| 15>    C       -2.38807        -3.90122         0.24107
| 16>    C       -1.12139        -3.18516        -0.03820
| 17>    C       -4.16313        -5.07683        -0.91175
| 18>    C       -4.72696        -5.32627         0.33827
| 19>    C       -4.14015        -4.85436         1.52682
| 20>    C       -2.95303        -4.13451         1.48868
| 21>    F       -4.74144        -5.11578         2.68356
| 22>    F       -5.85623        -6.02457         0.43423
| 23>    O       -0.40099        -2.69676         0.81536
| 24>    C       -2.42623        -4.06811        -3.42618
| 25>    C       -3.61199        -4.73700        -3.86625
| 26>    C       -1.63881        -3.56121        -4.50740
| 27>    N       -4.56620        -5.27079        -4.26086
| 28>    N       -1.03699        -3.16106        -5.41801
| 29>    C        1.32305        -2.09065        -1.77057
| 30>    O        2.27349        -1.86822        -2.78198
| 31>    C        3.27092        -1.19432        -2.21366
| 32>    C        3.03143        -0.94163        -0.87248
| 33>    C        1.79544        -1.52082        -0.57178
| 34>    C       11.09509         3.12701        -3.40628
| 35>    C       11.27545         3.96313        -2.32875
| 36>    C       10.41104         4.38336        -1.23248
| 37>    C       11.29502         4.90107        -0.15803
| 38>    C       12.60474         5.01758        -0.67037
| 39>    C       12.64927         4.49550        -2.06144
| 40>    C       11.02843         5.31460         1.15341
| 41>    C       12.08691         5.82237         1.90416
| 42>    C       13.38338         5.94737         1.37141
| 43>    C       13.65576         5.54418         0.07054
| 44>    F       14.34140         6.45705         2.13827
| 45>    F       11.89092         6.20979         3.16112
| 46>    O       13.61314         4.46099        -2.79813
| 47>    C        9.03155         4.50497        -1.26393
| 48>    C        8.24816         4.87742        -0.12833
| 49>    C        8.28527         4.36458        -2.47637
| 50>    N        7.56986         5.14337         0.77805
| 51>    N        7.67652         4.30309        -3.46370
| 52>    C        4.54567        -0.68468        -2.64813
| 53>    C        5.12914        -0.09355        -1.48468
| 54>    C        4.18774        -0.17740        -0.25762
| 55>    C        5.20447        -0.69112        -3.88910
| 56>    C        6.47025        -0.12908        -3.94517
| 57>    C        7.03986         0.47699        -2.78537
| 58>    C        6.37448         0.50731        -1.55160
| 59>    C        7.40259        -0.00223        -5.17686
| 60>    C        8.52737         0.82873        -4.56953
| 61>    C        8.27962         1.04490        -3.22723
| 62>    C        3.81277         1.26029         0.13416
| 63>    C        4.76347        -1.00336         0.89984
| 64>    C        7.96297        -1.35898        -5.62939
| 65>    C        6.65573         0.77533        -6.27237
| 66>    C        5.75701        -1.96728         0.68964
| 67>    C        6.20183        -2.78215         1.73264
| 68>    C        5.66521        -2.66940         3.02332
| 69>    C        4.65949        -1.71019         3.22301
| 70>    C        4.21306        -0.89289         2.18392
| 71>    C        2.67741         1.88244        -0.39596
| 72>    C        2.38654         3.21424        -0.09560
| 73>    C        3.21436         3.97294         0.74157
| 74>    C        4.36661         3.35137         1.25213
| 75>    C        4.65952         2.02077         0.95513
| 76>    C        6.16369         0.15933        -7.42682
| 77>    C        5.41816         0.89245        -8.35790
| 78>    C        5.13912         2.24913        -8.15770
| 79>    C        5.62650         2.85434        -6.98761
| 80>    C        6.37590         2.13608        -6.06158
| 81>    C        8.98285        -1.39155        -6.59569
| 82>    C        9.58124        -2.59179        -6.97297
| 83>    C        9.18305        -3.81424        -6.40285
| 84>    C        8.14881        -3.77948        -5.46306
| 85>    C        7.55300        -2.57522        -5.07539
| 86>    C        6.15781        -3.52506         4.17324
| 87>    C        6.45437        -4.98542         3.81801
| 88>    C        2.84280         5.39278         1.10993
| 89>    C        3.95655         6.42957         0.94685
| 90>    C        9.86461        -5.11413        -6.76771
| 91>    C        9.75076        -5.49732        -8.24661
| 92>    C        4.38694         3.06701        -9.17966
| 93>    C        5.32343         3.86501       -10.09875
| 94>    C        9.69422         1.55523        -4.86490
| 95>    C       10.07012         2.19699        -3.67384
| 96>    O        9.19257         1.83854        -2.66316
| 97>    H        0.19658        -2.95375        -3.28520
| 98>    H       -4.67366        -5.46342        -1.79116
| 99>    H       -2.48299        -3.76447         2.40092
|100>    H        1.25752        -1.56977         0.36794
|101>    H       11.91316         3.14879        -4.13630
|102>    H       10.04416         5.25220         1.61603
|103>    H       14.65783         5.64474        -0.34934
|104>    H        4.73280        -1.12086        -4.77400
|105>    H        6.82030         0.99412        -0.68400
|106>    H        6.19315        -2.09189        -0.30273
|107>    H        6.98461        -3.51502         1.52695
|108>    H        4.21150        -1.59949         4.21441
|109>    H        3.42695        -0.15939         2.37537
|110>    H        2.00691         1.32505        -1.05142
|111>    H        1.49045         3.67305        -0.52130
|112>    H        5.05461         3.91421         1.88605
|113>    H        5.55315         1.56315         1.38428
|114>    H        6.36258        -0.89817        -7.60752
|115>    H        5.03940         0.39327        -9.25441
|116>    H        5.40581         3.90790        -6.79397
|117>    H        6.73816         2.64681        -5.16659
|118>    H        9.31913        -0.45975        -7.05583
|119>    H       10.38664        -2.57768        -7.71286
|120>    H        7.80787        -4.71045        -5.00201
|121>    H        6.77200        -2.59881        -4.31675
|122>    H        5.41185        -3.48332         4.98388
|123>    H        7.07026        -3.06259         4.59339
|124>    H        5.57266        -5.47416         3.37285
|125>    H        6.74694        -5.55433         4.71419
|126>    H        7.28140        -5.07697         3.09692
|127>    H        2.49594         5.39902         2.15997
|128>    H        1.96958         5.69357         0.50889
|129>    H        4.84780         6.17898         1.54062
|130>    H        3.60337         7.42133         1.27178
|131>    H        4.28095         6.50743        -0.10260
|132>    H        9.44725        -5.92040        -6.14384
|133>    H       10.93251        -5.04292        -6.49272
|134>    H        8.69917        -5.63647        -8.54251
|135>    H       10.29155        -6.43457        -8.45092
|136>    H       10.17947        -4.72089        -8.89916
|137>    H        3.71101         3.76387        -8.65548
|138>    H        3.74807         2.40601        -9.78864
|139>    H        5.97234         4.53575        -9.51286
|140>    H        4.75184         4.48071       -10.81189
|141>    H        5.97943         3.19300       -10.67574
|142>    H       10.20890         1.67708        -5.81527
|143> *
|144>
|145>                          ****END OF INPUT****

CARTESIAN COORDINATES (ANGSTROEM)
---------------------------------
  C      0.167380   -2.769880   -2.209750
  C     -0.938970   -3.224460   -1.515060
  C     -2.109050   -3.899710   -2.089810
  C     -2.965830   -4.347600   -0.960430
  C     -2.388070   -3.901220    0.241070
  C     -1.121390   -3.185160   -0.038200
  C     -4.163130   -5.076830   -0.911750
  C     -4.726960   -5.326270    0.338270
  C     -4.140150   -4.854360    1.526820
  C     -2.953030   -4.134510    1.488680
  F     -4.741440   -5.115780    2.683560
  F     -5.856230   -6.024570    0.434230
  O     -0.400990   -2.696760    0.815360
  C     -2.426230   -4.068110   -3.426180
  C     -3.611990   -4.737000   -3.866250
  C     -1.638810   -3.561210   -4.507400
  N     -4.566200   -5.270790   -4.260860
  N     -1.036990   -3.161060   -5.418010
  C      1.323050   -2.090650   -1.770570
  O      2.273490   -1.868220   -2.781980
  C      3.270920   -1.194320   -2.213660
  C      3.031430   -0.941630   -0.872480
  C      1.795440   -1.520820   -0.571780
  C     11.095090    3.127010   -3.406280
  C     11.275450    3.963130   -2.328750
  C     10.411040    4.383360   -1.232480
  C     11.295020    4.901070   -0.158030
  C     12.604740    5.017580   -0.670370
  C     12.649270    4.495500   -2.061440
  C     11.028430    5.314600    1.153410
  C     12.086910    5.822370    1.904160
  C     13.383380    5.947370    1.371410
  C     13.655760    5.544180    0.070540
  F     14.341400    6.457050    2.138270
  F     11.890920    6.209790    3.161120
  O     13.613140    4.460990   -2.798130
  C      9.031550    4.504970   -1.263930
  C      8.248160    4.877420   -0.128330
  C      8.285270    4.364580   -2.476370
  N      7.569860    5.143370    0.778050
  N      7.676520    4.303090   -3.463700
  C      4.545670   -0.684680   -2.648130
  C      5.129140   -0.093550   -1.484680
  C      4.187740   -0.177400   -0.257620
  C      5.204470   -0.691120   -3.889100
  C      6.470250   -0.129080   -3.945170
  C      7.039860    0.476990   -2.785370
  C      6.374480    0.507310   -1.551600
  C      7.402590   -0.002230   -5.176860
  C      8.527370    0.828730   -4.569530
  C      8.279620    1.044900   -3.227230
  C      3.812770    1.260290    0.134160
  C      4.763470   -1.003360    0.899840
  C      7.962970   -1.358980   -5.629390
  C      6.655730    0.775330   -6.272370
  C      5.757010   -1.967280    0.689640
  C      6.201830   -2.782150    1.732640
  C      5.665210   -2.669400    3.023320
  C      4.659490   -1.710190    3.223010
  C      4.213060   -0.892890    2.183920
  C      2.677410    1.882440   -0.395960
  C      2.386540    3.214240   -0.095600
  C      3.214360    3.972940    0.741570
  C      4.366610    3.351370    1.252130
  C      4.659520    2.020770    0.955130
  C      6.163690    0.159330   -7.426820
  C      5.418160    0.892450   -8.357900
  C      5.139120    2.249130   -8.157700
  C      5.626500    2.854340   -6.987610
  C      6.375900    2.136080   -6.061580
  C      8.982850   -1.391550   -6.595690
  C      9.581240   -2.591790   -6.972970
  C      9.183050   -3.814240   -6.402850
  C      8.148810   -3.779480   -5.463060
  C      7.553000   -2.575220   -5.075390
  C      6.157810   -3.525060    4.173240
  C      6.454370   -4.985420    3.818010
  C      2.842800    5.392780    1.109930
  C      3.956550    6.429570    0.946850
  C      9.864610   -5.114130   -6.767710
  C      9.750760   -5.497320   -8.246610
  C      4.386940    3.067010   -9.179660
  C      5.323430    3.865010  -10.098750
  C      9.694220    1.555230   -4.864900
  C     10.070120    2.196990   -3.673840
  O      9.192570    1.838540   -2.663160
  H      0.196580   -2.953750   -3.285200
  H     -4.673660   -5.463420   -1.791160
  H     -2.482990   -3.764470    2.400920
  H      1.257520   -1.569770    0.367940
  H     11.913160    3.148790   -4.136300
  H     10.044160    5.252200    1.616030
  H     14.657830    5.644740   -0.349340
  H      4.732800   -1.120860   -4.774000
  H      6.820300    0.994120   -0.684000
  H      6.193150   -2.091890   -0.302730
  H      6.984610   -3.515020    1.526950
  H      4.211500   -1.599490    4.214410
  H      3.426950   -0.159390    2.375370
  H      2.006910    1.325050   -1.051420
  H      1.490450    3.673050   -0.521300
  H      5.054610    3.914210    1.886050
  H      5.553150    1.563150    1.384280
  H      6.362580   -0.898170   -7.607520
  H      5.039400    0.393270   -9.254410
  H      5.405810    3.907900   -6.793970
  H      6.738160    2.646810   -5.166590
  H      9.319130   -0.459750   -7.055830
  H     10.386640   -2.577680   -7.712860
  H      7.807870   -4.710450   -5.002010
  H      6.772000   -2.598810   -4.316750
  H      5.411850   -3.483320    4.983880
  H      7.070260   -3.062590    4.593390
  H      5.572660   -5.474160    3.372850
  H      6.746940   -5.554330    4.714190
  H      7.281400   -5.076970    3.096920
  H      2.495940    5.399020    2.159970
  H      1.969580    5.693570    0.508890
  H      4.847800    6.178980    1.540620
  H      3.603370    7.421330    1.271780
  H      4.280950    6.507430   -0.102600
  H      9.447250   -5.920400   -6.143840
  H     10.932510   -5.042920   -6.492720
  H      8.699170   -5.636470   -8.542510
  H     10.291550   -6.434570   -8.450920
  H     10.179470   -4.720890   -8.899160
  H      3.711010    3.763870   -8.655480
  H      3.748070    2.406010   -9.788640
  H      5.972340    4.535750   -9.512860
  H      4.751840    4.480710  -10.811890
  H      5.979430    3.193000  -10.675740
  H     10.208900    1.677080   -5.815270

 Total Charge           Charge          ....    0
 Multiplicity           Mult            ....    1
 Number of Electrons    NEL             ....  586
 Basis Dimension        Dim             .... 1434

ORBITAL ENERGIES
----------------

  NO   OCC          E(Eh)            E(eV)
   0   2.0000     -26.339218      -716.7266
   1   2.0000     -26.338380      -716.7038
   2   2.0000     -26.335321      -716.6205
   3   2.0000     -26.332552      -716.5452
   4   2.0000     -20.663521      -562.2830
   5   2.0000     -20.658075      -562.1348
   6   2.0000     -20.569733      -559.7309
   7   2.0000     -20.569679      -559.7294
   8   2.0000     -15.601975      -424.5513
   9   2.0000     -15.594772      -424.3553
  10   2.0000     -15.594504      -424.3480
  11   2.0000     -15.592004      -424.2800
  12   2.0000     -11.381837      -309.7155
  13   2.0000     -11.380388      -309.6761
  14   2.0000     -11.376875      -309.5805
  15   2.0000     -11.375465      -309.5422
  16   2.0000     -11.369832      -309.3889
  17   2.0000     -11.369264      -309.3734
  18   2.0000     -11.352654      -308.9214
  19   2.0000     -11.348533      -308.8093
  20   2.0000     -11.344028      -308.6867
  21   2.0000     -11.343595      -308.6749
  22   2.0000     -11.336432      -308.4800
  23   2.0000     -11.331504      -308.3459
  24   2.0000     -11.328398      -308.2614
  25   2.0000     -11.326920      -308.2212
  26   2.0000     -11.325702      -308.1880
  27   2.0000     -11.322139      -308.0911
  28   2.0000     -11.314367      -307.8796
  29   2.0000     -11.312227      -307.8213
  30   2.0000     -11.309515      -307.7475
  31   2.0000     -11.306170      -307.6565
  32   2.0000     -11.306025      -307.6526
  33   2.0000     -11.304524      -307.6117
  34   2.0000     -11.304515      -307.6115
  35   2.0000     -11.301938      -307.5414
  36   2.0000     -11.299859      -307.4848
  37   2.0000     -11.298460      -307.4467
  38   2.0000     -11.296172      -307.3845
  39   2.0000     -11.294759      -307.3460
  40   2.0000     -11.293895      -307.3225
  41   2.0000     -11.293863      -307.3216
  42   2.0000     -11.290179      -307.2214
  43   2.0000     -11.289717      -307.2088
  44   2.0000     -11.288776      -307.1832
  45   2.0000     -11.287686      -307.1535
  46   2.0000     -11.285123      -307.0838
  47   2.0000     -11.284826      -307.0757
  48   2.0000     -11.283214      -307.0319
  49   2.0000     -11.280401      -306.9553
  50   2.0000     -11.280149      -306.9485
  51   2.0000     -11.278749      -306.9104
  52   2.0000     -11.268503      -306.6316
  53   2.0000     -11.265279      -306.5438
  54   2.0000     -11.260944      -306.4259
  55   2.0000     -11.259594      -306.3891
  56   2.0000     -11.255855      -306.2874
  57   2.0000     -11.255675      -306.2825
  58   2.0000     -11.255357      -306.2738
  59   2.0000     -11.255332      -306.2732
  60   2.0000     -11.252487      -306.1957
  61   2.0000     -11.251875      -306.1791
  62   2.0000     -11.251616      -306.1720
  63   2.0000     -11.249389      -306.1114
  64   2.0000     -11.249177      -306.1057
  65   2.0000     -11.247781      -306.0677
  66   2.0000     -11.245817      -306.0142
  67   2.0000     -11.245246      -305.9987
  68   2.0000     -11.245104      -305.9948
  69   2.0000     -11.245086      -305.9944
  70   2.0000     -11.244938      -305.9903
  71   2.0000     -11.243888      -305.9617
  72   2.0000     -11.243587      -305.9535
  73   2.0000     -11.243337      -305.9468
  74   2.0000     -11.243241      -305.9441
  75   2.0000     -11.240267      -305.8632
  76   2.0000     -11.239694      -305.8476
  77   2.0000     -11.238823      -305.8239
  78   2.0000     -11.237835      -305.7970
  79   2.0000     -11.237581      -305.7901
  80   2.0000     -11.236757      -305.7677
  81   2.0000     -11.236516      -305.7612
  82   2.0000     -11.234597      -305.7089
  83   2.0000     -11.232934      -305.6637
  84   2.0000     -11.229090      -305.5591
  85   2.0000     -11.219540      -305.2992
  86   2.0000      -1.653051       -44.9818
  87   2.0000      -1.647777       -44.8383
  88   2.0000      -1.636983       -44.5446
  89   2.0000      -1.631557       -44.3969
  90   2.0000      -1.495365       -40.6910
  91   2.0000      -1.484619       -40.3985
  92   2.0000      -1.398779       -38.0627
  93   2.0000      -1.398324       -38.0503
  94   2.0000      -1.247470       -33.9454
  95   2.0000      -1.242481       -33.8096
  96   2.0000      -1.228495       -33.4291
  97   2.0000      -1.227274       -33.3958
  98   2.0000      -1.223609       -33.2961
  99   2.0000      -1.222522       -33.2665
 100   2.0000      -1.218244       -33.1501
 101   2.0000      -1.202867       -32.7317
 102   2.0000      -1.170104       -31.8402
 103   2.0000      -1.164963       -31.7003
 104   2.0000      -1.163245       -31.6535
 105   2.0000      -1.154628       -31.4190
 106   2.0000      -1.149647       -31.2835
 107   2.0000      -1.147203       -31.2170
 108   2.0000      -1.132224       -30.8094
 109   2.0000      -1.120738       -30.4968
 110   2.0000      -1.109087       -30.1798
 111   2.0000      -1.095556       -29.8116
 112   2.0000      -1.090544       -29.6752
 113   2.0000      -1.090217       -29.6663
 114   2.0000      -1.082509       -29.4566
 115   2.0000      -1.071685       -29.1620
 116   2.0000      -1.070447       -29.1283
 117   2.0000      -1.065365       -28.9901
 118   2.0000      -1.060803       -28.8659
 119   2.0000      -1.057035       -28.7634
 120   2.0000      -1.050038       -28.5730
 121   2.0000      -1.036722       -28.2107
 122   2.0000      -1.019470       -27.7412
 123   2.0000      -1.017212       -27.6797
 124   2.0000      -1.011778       -27.5319
 125   2.0000      -1.006457       -27.3871
 126   2.0000      -1.005597       -27.3637
 127   2.0000      -1.003305       -27.3013
 128   2.0000      -1.001415       -27.2499
 129   2.0000      -0.979843       -26.6629
 130   2.0000      -0.976519       -26.5724
 131   2.0000      -0.974606       -26.5204
 132   2.0000      -0.946536       -25.7565
 133   2.0000      -0.943805       -25.6822
 134   2.0000      -0.936757       -25.4905
 135   2.0000      -0.934390       -25.4260
 136   2.0000      -0.927564       -25.2403
 137   2.0000      -0.911495       -24.8030
 138   2.0000      -0.886988       -24.1362
 139   2.0000      -0.875003       -23.8100
 140   2.0000      -0.867113       -23.5953
 141   2.0000      -0.865440       -23.5498
 142   2.0000      -0.861843       -23.4520
 143   2.0000      -0.859150       -23.3787
 144   2.0000      -0.853205       -23.2169
 145   2.0000      -0.850138       -23.1334
 146   2.0000      -0.841013       -22.8851
 147   2.0000      -0.834051       -22.6957
 148   2.0000      -0.832518       -22.6540
 149   2.0000      -0.828280       -22.5386
 150   2.0000      -0.826994       -22.5037
 151   2.0000      -0.826223       -22.4827
 152   2.0000      -0.820984       -22.3401
 153   2.0000      -0.816123       -22.2078
 154   2.0000      -0.808916       -22.0117
 155   2.0000      -0.801478       -21.8093
 156   2.0000      -0.793342       -21.5879
 157   2.0000      -0.791666       -21.5423
 158   2.0000      -0.788513       -21.4565
 159   2.0000      -0.787226       -21.4215
 160   2.0000      -0.786152       -21.3923
 161   2.0000      -0.785562       -21.3762
 162   2.0000      -0.784148       -21.3378
 163   2.0000      -0.777106       -21.1461
 164   2.0000      -0.770093       -20.9553
 165   2.0000      -0.760091       -20.6831
 166   2.0000      -0.753978       -20.5168
 167   2.0000      -0.749421       -20.3928
 168   2.0000      -0.747379       -20.3372
 169   2.0000      -0.742342       -20.2002
 170   2.0000      -0.738664       -20.1001
 171   2.0000      -0.733344       -19.9553
 172   2.0000      -0.728507       -19.8237
 173   2.0000      -0.719855       -19.5882
 174   2.0000      -0.719040       -19.5661
 175   2.0000      -0.716887       -19.5075
 176   2.0000      -0.713977       -19.4283
 177   2.0000      -0.708945       -19.2914
 178   2.0000      -0.704545       -19.1716
 179   2.0000      -0.703328       -19.1385
 180   2.0000      -0.694750       -18.9051
 181   2.0000      -0.693550       -18.8725
 182   2.0000      -0.686904       -18.6916
 183   2.0000      -0.678226       -18.4555
 184   2.0000      -0.676574       -18.4105
 185   2.0000      -0.673182       -18.3182
 186   2.0000      -0.670284       -18.2393
 187   2.0000      -0.665827       -18.1181
 188   2.0000      -0.663071       -18.0431
 189   2.0000      -0.660936       -17.9850
 190   2.0000      -0.658757       -17.9257
 191   2.0000      -0.656369       -17.8607
 192   2.0000      -0.654070       -17.7982
 193   2.0000      -0.650972       -17.7139
 194   2.0000      -0.649479       -17.6732
 195   2.0000      -0.642439       -17.4817
 196   2.0000      -0.640218       -17.4212
 197   2.0000      -0.637627       -17.3507
 198   2.0000      -0.636381       -17.3168
 199   2.0000      -0.633094       -17.2274
 200   2.0000      -0.631895       -17.1947
 201   2.0000      -0.627362       -17.0714
 202   2.0000      -0.626378       -17.0446
 203   2.0000      -0.623909       -16.9774
 204   2.0000      -0.621053       -16.8997
 205   2.0000      -0.619253       -16.8507
 206   2.0000      -0.617462       -16.8020
 207   2.0000      -0.615831       -16.7576
 208   2.0000      -0.613635       -16.6979
 209   2.0000      -0.611674       -16.6445
 210   2.0000      -0.609542       -16.5865
 211   2.0000      -0.607693       -16.5362
 212   2.0000      -0.604011       -16.4360
 213   2.0000      -0.602946       -16.4070
 214   2.0000      -0.599221       -16.3056
 215   2.0000      -0.598253       -16.2793
 216   2.0000      -0.597840       -16.2681
 217   2.0000      -0.593739       -16.1565
 218   2.0000      -0.592656       -16.1270
 219   2.0000      -0.592113       -16.1122
 220   2.0000      -0.589819       -16.0498
 221   2.0000      -0.584148       -15.8955
 222   2.0000      -0.583475       -15.8772
 223   2.0000      -0.581284       -15.8175
 224   2.0000      -0.580293       -15.7906
 225   2.0000      -0.576967       -15.7001
 226   2.0000      -0.576575       -15.6894
 227   2.0000      -0.573733       -15.6121
 228   2.0000      -0.570767       -15.5314
 229   2.0000      -0.569868       -15.5069
 230   2.0000      -0.569264       -15.4905
 231   2.0000      -0.565544       -15.3892
 232   2.0000      -0.562752       -15.3132
 233   2.0000      -0.559435       -15.2230
 234   2.0000      -0.558730       -15.2038
 235   2.0000      -0.556813       -15.1517
 236   2.0000      -0.552478       -15.0337
 237   2.0000      -0.545234       -14.8366
 238   2.0000      -0.540658       -14.7121
 239   2.0000      -0.537126       -14.6159
 240   2.0000      -0.534983       -14.5576
 241   2.0000      -0.532950       -14.5023
 242   2.0000      -0.531935       -14.4747
 243   2.0000      -0.529187       -14.3999
 244   2.0000      -0.525779       -14.3072
 245   2.0000      -0.522379       -14.2147
 246   2.0000      -0.518207       -14.1011
 247   2.0000      -0.512641       -13.9497
 248   2.0000      -0.509905       -13.8752
 249   2.0000      -0.505907       -13.7664
 250   2.0000      -0.504139       -13.7183
 251   2.0000      -0.503459       -13.6998
 252   2.0000      -0.498115       -13.5544
 253   2.0000      -0.496876       -13.5207
 254   2.0000      -0.496466       -13.5095
 255   2.0000      -0.493839       -13.4380
 256   2.0000      -0.492808       -13.4100
 257   2.0000      -0.491819       -13.3831
 258   2.0000      -0.489865       -13.3299
 259   2.0000      -0.487220       -13.2579
 260   2.0000      -0.486554       -13.2398
 261   2.0000      -0.484768       -13.1912
 262   2.0000      -0.483522       -13.1573
 263   2.0000      -0.482314       -13.1244
 264   2.0000      -0.481498       -13.1022
 265   2.0000      -0.479939       -13.0598
 266   2.0000      -0.478410       -13.0182
 267   2.0000      -0.475289       -12.9333
 268   2.0000      -0.474491       -12.9116
 269   2.0000      -0.473317       -12.8796
 270   2.0000      -0.471657       -12.8344
 271   2.0000      -0.455429       -12.3929
 272   2.0000      -0.447923       -12.1886
 273   2.0000      -0.442861       -12.0509
 274   2.0000      -0.437514       -11.9054
 275   2.0000      -0.434368       -11.8198
 276   2.0000      -0.409387       -11.1400
 277   2.0000      -0.394139       -10.7251
 278   2.0000      -0.389188       -10.5903
 279   2.0000      -0.378361       -10.2957
 280   2.0000      -0.374963       -10.2033
 281   2.0000      -0.357751        -9.7349
 282   2.0000      -0.354136        -9.6365
 283   2.0000      -0.352645        -9.5960
 284   2.0000      -0.348970        -9.4960
 285   2.0000      -0.340975        -9.2784
 286   2.0000      -0.340310        -9.2603
 287   2.0000      -0.337395        -9.1810
 288   2.0000      -0.332891        -9.0584
 289   2.0000      -0.325435        -8.8555
 290   2.0000      -0.319583        -8.6963
 291   2.0000      -0.314240        -8.5509
 292   2.0000      -0.273911        -7.4535
 293   0.0000      -0.035116        -0.9556
 294   0.0000      -0.012984        -0.3533
 295   0.0000       0.013416         0.3651
 296   0.0000       0.021243         0.5781
 297   0.0000       0.056387         1.5344

MULLIKEN ATOMIC CHARGES
-----------------------
   0 C :    0.081562
   1 C :   -0.294032
   2 C :    0.239877
   3 C :   -0.025061
   4 C :   -0.184588
   5 C :    0.512517
   6 C :   -0.055542
   7 C :    0.343191
   8 C :    0.345268
   9 C :   -0.037102
  10 F :   -0.304472
  11 F :   -0.303443
  12 O :   -0.391795
  13 C :   -0.350614
  14 C :    0.042437
  15 C :    0.037903
  16 N :   -0.084595
  17 N :   -0.080383
  18 C :    0.123405
  19 O :   -0.449576
  20 C :    0.406751
  21 C :   -0.097898
  22 C :    0.048301
  23 C :    0.131425
  24 C :   -0.312104
  25 C :    0.251634
  26 C :   -0.043646
  27 C :   -0.170902
  28 C :    0.464237
  29 C :   -0.059707
  30 C :    0.343756
  31 C :    0.340290
  32 C :   -0.031345
  33 F :   -0.303083
  34 F :   -0.302423
  35 O :   -0.357307
  36 C :   -0.335539
  37 C :    0.051952
  38 C :    0.069284
  39 N :   -0.092783
  40 N :   -0.089098
  41 C :   -0.083560
  42 C :   -0.015656
  43 C :   -0.033874
  44 C :    0.035206
  45 C :   -0.020375
  46 C :   -0.075228
  47 C :    0.047443
  48 C :   -0.044526
  49 C :   -0.085516
  50 C :    0.391257
  51 C :   -0.076366
  52 C :   -0.076649
  53 C :   -0.064172
  54 C :   -0.050407
  55 C :   -0.016309
  56 C :   -0.022059
  57 C :   -0.148732
  58 C :   -0.029448
  59 C :   -0.016688
  60 C :   -0.015131
  61 C :   -0.019162
  62 C :   -0.149329
  63 C :   -0.009307
  64 C :   -0.035685
  65 C :   -0.034787
  66 C :   -0.017717
  67 C :   -0.159059
  68 C :   -0.018225
  69 C :   -0.039306
  70 C :   -0.011320
  71 C :   -0.018931
  72 C :   -0.152197
  73 C :   -0.018534
  74 C :   -0.025239
  75 C :    0.030689
  76 C :   -0.061067
  77 C :    0.025479
  78 C :   -0.057784
  79 C :    0.025086
  80 C :   -0.047940
  81 C :    0.013871
  82 C :   -0.030924
  83 C :    0.051525
  84 C :    0.155684
  85 O :   -0.467626
  86 H :    0.110369
  87 H :    0.105180
  88 H :    0.086593
  89 H :    0.114635
  90 H :    0.096242
  91 H :    0.100029
  92 H :    0.089745
  93 H :    0.058289
  94 H :    0.046277
  95 H :    0.049368
  96 H :    0.032583
  97 H :    0.034809
  98 H :    0.056967
  99 H :    0.049189
 100 H :    0.031553
 101 H :    0.050710
 102 H :    0.050516
 103 H :    0.057449
 104 H :    0.032609
 105 H :    0.039713
 106 H :    0.085112
 107 H :    0.036246
 108 H :    0.036420
 109 H :    0.032787
 110 H :    0.052590
 111 H :    0.036653
 112 H :    0.054059
 113 H :    0.042439
 114 H :    0.039533
 115 H :    0.034272
 116 H :    0.049432
 117 H :    0.029905
 118 H :    0.053872
 119 H :    0.032277
 120 H :    0.038788
 121 H :    0.033746
 122 H :    0.049453
 123 H :    0.039624
 124 H :    0.040135
 125 H :    0.032704
 126 H :    0.042341
 127 H :    0.036873
 128 H :    0.033408
 129 H :    0.039169
 130 H :    0.031532
 131 H :    0.069647
Sum of atomic charges:   -0.0000000

LOEWDIN ATOMIC CHARGES
----------------------
   0 C :    0.116517
   1 C :   -0.165602
   2 C :    0.124103
   3 C :   -0.022812
   4 C :   -0.053358
   5 C :    0.174554
   6 C :   -0.007330
   7 C :    0.120168
   8 C :    0.119637
   9 C :    0.002964
  10 F :   -0.102748
  11 F :   -0.103434
  12 O :   -0.242446
  13 C :   -0.176597
  14 C :    0.017913
  15 C :    0.015122
  16 N :   -0.099971
  17 N :   -0.096345
  18 C :    0.017335
  19 O :   -0.078355
  20 C :    0.127380
  21 C :   -0.073535
  22 C :    0.064545
  23 C :    0.111930
  24 C :   -0.153856
  25 C :    0.122306
  26 C :   -0.019025
  27 C :   -0.055679
  28 C :    0.169230
  29 C :   -0.012520
  30 C :    0.121797
  31 C :    0.117879
  32 C :    0.005881
  33 F :   -0.101517
  34 F :   -0.101989
  35 O :   -0.235502
  36 C :   -0.167775
  37 C :    0.021604
  38 C :    0.027985
  39 N :   -0.103850
  40 N :   -0.107048
  41 C :   -0.038037
  42 C :    0.027283
  43 C :    0.000899
  44 C :    0.008083
  45 C :    0.022434
  46 C :   -0.030041
  47 C :    0.007282
  48 C :    0.004262
  49 C :   -0.062879
  50 C :    0.123136
  51 C :   -0.030846
  52 C :   -0.030076
  53 C :   -0.023694
  54 C :   -0.038848
  55 C :   -0.020653
  56 C :   -0.028502
  57 C :   -0.024908
  58 C :   -0.025477
  59 C :   -0.014178
  60 C :   -0.022384
  61 C :   -0.026439
  62 C :   -0.022297
  63 C :   -0.015885
  64 C :   -0.020563
  65 C :   -0.025159
  66 C :   -0.031666
  67 C :   -0.022779
  68 C :   -0.021408
  69 C :   -0.009346
  70 C :   -0.014627
  71 C :   -0.022800
  72 C :   -0.024248
  73 C :   -0.027676
  74 C :   -0.024538
  75 C :   -0.013907
  76 C :   -0.035479
  77 C :   -0.014394
  78 C :   -0.033940
  79 C :   -0.013406
  80 C :   -0.032865
  81 C :   -0.013228
  82 C :   -0.031826
  83 C :    0.046824
  84 C :    0.017953
  85 O :   -0.067365
  86 H :    0.061175
  87 H :    0.056994
  88 H :    0.058465
  89 H :    0.051369
  90 H :    0.063970
  91 H :    0.056042
  92 H :    0.059818
  93 H :    0.043368
  94 H :    0.039760
  95 H :    0.026922
  96 H :    0.025130
  97 H :    0.026860
  98 H :    0.032124
  99 H :    0.027236
 100 H :    0.025867
 101 H :    0.030824
 102 H :    0.026449
 103 H :    0.030146
 104 H :    0.025743
 105 H :    0.029165
 106 H :    0.032952
 107 H :    0.024701
 108 H :    0.026299
 109 H :    0.026526
 110 H :    0.027608
 111 H :    0.020980
 112 H :    0.027299
 113 H :    0.020489
 114 H :    0.020355
 115 H :    0.014705
 116 H :    0.025461
 117 H :    0.018169
 118 H :    0.020738
 119 H :    0.017240
 120 H :    0.019871
 121 H :    0.020084
 122 H :    0.025417
 123 H :    0.019966
 124 H :    0.019523
 125 H :    0.015325
 126 H :    0.022621
 127 H :    0.020298
 128 H :    0.017204
 129 H :    0.017594
 130 H :    0.017103
 131 H :    0.044695

  Mayer bond orders larger than 0.100000
B(  0-C ,  1-C ) :   1.5741 B(  0-C , 18-C ) :   1.2930 B(  0-C , 86-H ) :   0.9427
B(  1-C ,  2-C ) :   1.1211 B(  1-C ,  5-C ) :   0.9935 B(  2-C ,  3-C ) :   1.0382
B(  2-C , 13-C ) :   1.6739 B(  3-C ,  4-C ) :   1.3908 B(  3-C ,  6-C ) :   1.3606
B(  4-C ,  5-C ) :   0.9827 B(  4-C ,  9-C ) :   1.3791 B(  5-C , 12-O ) :   2.0111
B(  6-C ,  7-C ) :   1.4241 B(  6-C , 87-H ) :   0.9852 B(  7-C ,  8-C ) :   1.3237
B(  7-C , 11-F ) :   0.9471 B(  8-C ,  9-C ) :   1.3917 B(  8-C , 10-F ) :   0.9414
B(  9-C , 88-H ) :   1.0068 B( 13-C , 14-C ) :   1.0573 B( 13-C , 15-C ) :   1.0597
B( 14-C , 16-N ) :   2.9811 B( 15-C , 17-N ) :   2.9782 B( 18-C , 19-O ) :   0.9429
B( 18-C , 22-C ) :   1.4412 B( 19-O , 20-C ) :   1.1141 B( 20-C , 21-C ) :   1.4937
B( 20-C , 41-C ) :   1.0784 B( 21-C , 22-C ) :   1.3368 B( 21-C , 43-C ) :   0.9445
B( 22-C , 89-H ) :   1.0001 B( 23-C , 24-C ) :   1.6453 B( 23-C , 84-C ) :   1.2046
B( 23-C , 90-H ) :   0.9498 B( 24-C , 25-C ) :   1.0846 B( 24-C , 28-C ) :   1.0067
B( 25-C , 26-C ) :   1.0429 B( 25-C , 36-C ) :   1.6924 B( 26-C , 27-C ) :   1.3812
B( 26-C , 29-C ) :   1.3681 B( 27-C , 28-C ) :   0.9509 B( 27-C , 32-C ) :   1.3775
B( 28-C , 35-O ) :   2.0903 B( 29-C , 30-C ) :   1.4227 B( 29-C , 91-H ) :   0.9871
B( 30-C , 31-C ) :   1.3237 B( 30-C , 34-F ) :   0.9462 B( 31-C , 32-C ) :   1.3977
B( 31-C , 33-F ) :   0.9429 B( 32-C , 92-H ) :   1.0059 B( 36-C , 37-C ) :   1.0549
B( 36-C , 38-C ) :   1.0659 B( 37-C , 39-N ) :   2.9706 B( 38-C , 40-N ) :   2.9904
B( 41-C , 42-C ) :   1.3608 B( 41-C , 44-C ) :   1.3319 B( 42-C , 43-C ) :   0.9701
B( 42-C , 47-C ) :   1.4990 B( 43-C , 51-C ) :   0.9799 B( 43-C , 52-C ) :   0.9858
B( 44-C , 45-C ) :   1.4862 B( 44-C , 93-H ) :   1.0092 B( 45-C , 46-C ) :   1.3641
B( 45-C , 48-C ) :   0.9743 B( 46-C , 47-C ) :   1.3380 B( 46-C , 50-C ) :   1.0815
B( 47-C , 94-H ) :   1.0017 B( 48-C , 49-C ) :   0.9744 B( 48-C , 53-C ) :   0.9587
B( 48-C , 54-C ) :   0.9629 B( 49-C , 50-C ) :   1.5309 B( 49-C , 83-C ) :   1.3356
B( 50-C , 85-O ) :   1.0792 B( 51-C , 60-C ) :   1.4525 B( 51-C , 64-C ) :   1.4004
B( 52-C , 55-C ) :   1.4342 B( 52-C , 59-C ) :   1.4150 B( 53-C , 70-C ) :   1.3839
B( 53-C , 74-C ) :   1.4813 B( 54-C , 65-C ) :   1.4649 B( 54-C , 69-C ) :   1.3747
B( 55-C , 56-C ) :   1.4380 B( 55-C , 95-H ) :   0.9925 B( 56-C , 57-C ) :   1.4094
B( 56-C , 96-H ) :   0.9996 B( 57-C , 58-C ) :   1.4292 B( 57-C , 75-C ) :   0.9761
B( 58-C , 59-C ) :   1.4418 B( 58-C , 97-H ) :   0.9992 B( 59-C , 98-H ) :   0.9999
B( 60-C , 61-C ) :   1.4180 B( 60-C , 99-H ) :   0.9910 B( 61-C , 62-C ) :   1.4493
B( 61-C ,100-H ) :   0.9976 B( 62-C , 63-C ) :   1.3843 B( 62-C , 77-C ) :   0.9777
B( 63-C , 64-C ) :   1.4650 B( 63-C ,101-H ) :   0.9984 B( 64-C ,102-H ) :   0.9973
B( 65-C , 66-C ) :   1.4034 B( 65-C ,103-H ) :   0.9949 B( 66-C , 67-C ) :   1.4417
B( 66-C ,104-H ) :   1.0000 B( 67-C , 68-C ) :   1.3741 B( 67-C , 81-C ) :   0.9957
B( 68-C , 69-C ) :   1.4802 B( 68-C ,105-H ) :   1.0029 B( 69-C ,106-H ) :   0.9968
B( 70-C , 71-C ) :   1.4802 B( 70-C ,107-H ) :   1.0011 B( 71-C , 72-C ) :   1.3726
B( 71-C ,108-H ) :   1.0001 B( 72-C , 73-C ) :   1.4624 B( 72-C , 79-C ) :   0.9804
B( 73-C , 74-C ) :   1.4004 B( 73-C ,109-H ) :   0.9972 B( 74-C ,110-H ) :   0.9894
B( 75-C , 76-C ) :   1.0476 B( 75-C ,111-H ) :   0.9794 B( 75-C ,112-H ) :   0.9614
B( 76-C ,113-H ) :   0.9860 B( 76-C ,114-H ) :   0.9870 B( 76-C ,115-H ) :   0.9812
B( 77-C , 78-C ) :   1.0427 B( 77-C ,116-H ) :   0.9653 B( 77-C ,117-H ) :   0.9797
B( 78-C ,118-H ) :   0.9839 B( 78-C ,119-H ) :   0.9857 B( 78-C ,120-H ) :   0.9842
B( 79-C , 80-C ) :   1.0375 B( 79-C ,121-H ) :   0.9795 B( 79-C ,122-H ) :   0.9698
B( 80-C ,123-H ) :   0.9827 B( 80-C ,124-H ) :   0.9868 B( 80-C ,125-H ) :   0.9861
B( 81-C , 82-C ) :   1.0315 B( 81-C ,126-H ) :   0.9748 B( 81-C ,127-H ) :   0.9773
B( 82-C ,128-H ) :   0.9854 B( 82-C ,129-H ) :   0.9867 B( 82-C ,130-H ) :   0.9828
B( 83-C , 84-C ) :   1.4847 B( 83-C ,131-H ) :   0.9994 B( 84-C , 85-O ) :   0.9472

-----------------------------------------------------------------------------
         ABSORPTION SPECTRUM VIA TRANSITION ELECTRIC DIPOLE MOMENTS
-----------------------------------------------------------------------------
State   Energy    Wavelength  fosc         T2        TX        TY        TZ
        (cm-1)      (nm)                 (au**2)    (au)      (au)      (au)
-----------------------------------------------------------------------------
   1   21579.9    463.4   1.624847570  24.78780   3.94819   2.98771   0.52269
   2   27042.6    369.8   0.658239278   8.01328   2.73176   0.42762  -0.60655
   3   35743.6    279.8   0.265679486   2.44701  -0.92041  -0.03752   1.26430

FINAL SINGLE POINT ENERGY     -3740.953126209063

DIPOLE MOMENT
-------------
                                X             Y             Z
Electronic contribution:    -32.06769       5.64344      46.90072
Nuclear contribution   :     34.74692      -6.58742     -46.92958
                        -----------------------------------------
Total Dipole Moment    :      2.67923      -0.94398      -0.02885
                        -----------------------------------------
Magnitude (a.u.)       :      2.84081
Magnitude (Debye)      :      7.22077

Rotational constants in cm-1:     0.000873     0.000373     0.000319
Rotational constants in MHz :    26.171551    11.169247     9.564367

                             ****ORCA TERMINATED NORMALLY****
TOTAL RUN TIME: 0 days 22 hours 3 minutes 18 seconds 274 msec
