                         Program Version 4.2.0 -  RELEASE  -
|  1> # ORCA input file
|  2> # IDF-IC.out: Geometry 39
|  3> ! Engrad Keepdens
|  4> %maxcore 1000
|  5> %tddft
|  6>   nroots 3
|  7>   # nroots is the number of states to be computed
|  8>   Iroot 1
|  9>   end
| 10> * xyz 0 1
| 11>    C        2.96319        -4.17653         0.64055
| 12>    C        2.07617        -4.66026        -0.29009
| 13>    C        2.06991        -4.74457        -1.74321
| 14>    C        0.64852        -4.85013        -2.16471
| 15>    C       -0.15575        -5.02493        -1.01687
| 16>    C        0.69927        -5.00362         0.19885
| 17>    C        0.04494        -4.83601        -3.42777
| 18>    C       -1.34632        -4.97312        -3.50470
| 19>    C       -2.13393        -5.13246        -2.35623
| 20>    C       -1.53607        -5.16673        -1.09261
| 21>    H       -3.21706        -5.23647        -2.45502
| 22>    H       -1.82776        -4.95180        -4.48513
| 23>    O        0.35280        -5.16224         1.35191
| 24>    C        3.16558        -4.89990        -2.57251
| 25>    C        3.05330        -4.94776        -3.99667
| 26>    C        4.48518        -5.14405        -2.07882
| 27>    N        2.98300        -4.96281        -5.15702
| 28>    N        5.55972        -5.39605        -1.71631
| 29>    C        4.10168        -3.35396         0.53088
| 30>    O        4.47944        -2.82091        -0.69044
| 31>    C        5.51741        -2.01867        -0.44356
| 32>    C        5.83493        -1.97314         0.90187
| 33>    C        4.92951        -2.83593         1.54052
| 34>    C       11.05881         4.23361        -3.84934
| 35>    C       11.55752         5.03640        -4.85237
| 36>    C       11.61842         4.94749        -6.30068
| 37>    C       11.81929         6.32685        -6.81745
| 38>    C       12.07094         7.18971        -5.72902
| 39>    C       12.00328         6.41563        -4.45951
| 40>    C       11.82671         6.84258        -8.11848
| 41>    C       12.06884         8.21025        -8.29372
| 42>    C       12.31114         9.05777        -7.20493
| 43>    C       12.32006         8.54554        -5.90259
| 44>    H       12.50193        10.11896        -7.38033
| 45>    H       12.06628         8.62355        -9.30518
| 46>    O       12.20843         6.81924        -3.33323
| 47>    C       11.68435         3.79435        -7.06905
| 48>    C       11.72857         3.82026        -8.49757
| 49>    C       11.82011         2.49594        -6.49531
| 50>    N       11.74114         3.82712        -9.66003
| 51>    N       11.94049         1.43379        -6.03819
| 52>    C        6.37205        -1.19215        -1.24791
| 53>    C        7.29874        -0.60625        -0.33214
| 54>    C        7.02208        -1.05040         1.12909
| 55>    C        6.38041        -0.88777        -2.61910
| 56>    C        7.32401         0.02197        -3.06514
| 57>    C        8.22132         0.64710        -2.14213
| 58>    C        8.22038         0.33057        -0.77341
| 59>    C        7.52682         0.53943        -4.50988
| 60>    C        8.56185         1.61805        -4.24885
| 61>    C        8.95701         1.60673        -2.92197
| 62>    C        6.65600         0.21921         1.91491
| 63>    C        8.13894        -1.87309         1.77910
| 64>    C        8.19246        -0.49410        -5.43638
| 65>    C        6.20257         1.07838        -5.06463
| 66>    C        8.00415        -2.22899         3.13190
| 67>    C        8.92401        -3.07340         3.74518
| 68>    C       10.01650        -3.59926         3.03360
| 69>    C       10.14907        -3.23555         1.68869
| 70>    C        9.22729        -2.38415         1.06764
| 71>    C        7.60270         0.89741         2.69273
| 72>    C        7.28462         2.11330         3.30184
| 73>    C        6.01848         2.69541         3.14934
| 74>    C        5.07820         2.01328         2.36353
| 75>    C        5.38906         0.79672         1.75878
| 76>    C        5.38949         0.29880        -5.89626
| 77>    C        4.16861         0.79279        -6.36451
| 78>    C        3.71578         2.07083        -6.01095
| 79>    C        4.52626         2.83785        -5.15916
| 80>    C        5.74570         2.35054        -4.69192
| 81>    C        8.59913        -1.76057        -5.00792
| 82>    C        9.30348        -2.61064        -5.86718
| 83>    C        9.62938        -2.22151        -7.17058
| 84>    C        9.21884        -0.94751        -7.59520
| 85>    C        8.50946        -0.10319        -6.74757
| 86>    C       10.98758        -4.55008         3.69636
| 87>    C       10.37552        -5.92530         4.00315
| 88>    C        5.66286         3.97964         3.85939
| 89>    C        5.21334         3.74067         5.30941
| 90>    C       10.35218        -3.15408        -8.11195
| 91>    C        9.39016        -3.97608        -8.98190
| 92>    C        2.43870         2.63981        -6.58465
| 93>    C        2.69372         3.48487        -7.84112
| 94>    C        9.33674         2.59616        -4.87938
| 95>    C       10.16826         3.14452        -3.88893
| 96>    O        9.90611         2.51336        -2.67149
| 97>    H        2.64903        -4.36189         1.67481
| 98>    H        0.62571        -4.71005        -4.33904
| 99>    H       -2.11782        -5.30030        -0.17834
|100>    H        4.84294        -3.08666         2.59551
|101>    H       11.30883         4.58691        -2.84136
|102>    H       11.63987         6.21429        -8.98637
|103>    H       12.51700         9.17679        -5.03390
|104>    H        5.65913        -1.33854        -3.30227
|105>    H        8.89823         0.82963        -0.07950
|106>    H        7.16753        -1.83127         3.71092
|107>    H        8.78941        -3.33365         4.79878
|108>    H       10.98776        -3.62780         1.10728
|109>    H        9.36014        -2.13028         0.01499
|110>    H        8.59782         0.47217         2.82984
|111>    H        8.04161         2.62038         3.90720
|112>    H        4.08473         2.44522         2.21520
|113>    H        4.63952         0.29740         1.14166
|114>    H        5.72058        -0.69569        -6.19817
|115>    H        3.55655         0.16877        -7.02229
|116>    H        4.19496         3.83473        -4.85570
|117>    H        6.35558         2.97010        -4.03061
|118>    H        8.37950        -2.09581        -3.99416
|119>    H        9.62156        -3.59209        -5.50483
|120>    H        9.48085        -0.60602        -8.60054
|121>    H        8.20366         0.88195        -7.10568
|122>    H       11.35723        -4.09839         4.63343
|123>    H       11.86939        -4.67574         3.04806
|124>    H        9.51674        -5.83793         4.68736
|125>    H       11.11546        -6.59097         4.47536
|126>    H       10.01261        -6.41023         3.08302
|127>    H        4.86143         4.49463         3.30522
|128>    H        6.53452         4.65577         3.84871
|129>    H        4.33896         3.07170         5.34522
|130>    H        4.93989         4.68486         5.80680
|131>    H        6.01510         3.26400         5.89563
|132>    H       10.99514        -3.83578        -7.53073
|133>    H       11.02233        -2.56711        -8.76247
|134>    H        8.72454        -4.59514        -8.35875
|135>    H        9.94314        -4.64473        -9.66141
|136>    H        8.75137        -3.31936        -9.59490
|137>    H        1.93484         3.25836        -5.82242
|138>    H        1.74683         1.81736        -6.82843
|139>    H        3.35589         4.33498        -7.61384
|140>    H        1.75496         3.88642        -8.25534
|141>    H        3.18527         2.88586        -8.62367
|142>    H        9.29682         2.92547        -5.91239
|143> *
|144>
|145>                          ****END OF INPUT****

CARTESIAN COORDINATES (ANGSTROEM)
---------------------------------
  C      2.963190   -4.176530    0.640550
  C      2.076170   -4.660260   -0.290090
  C      2.069910   -4.744570   -1.743210
  C      0.648520   -4.850130   -2.164710
  C     -0.155750   -5.024930   -1.016870
  C      0.699270   -5.003620    0.198850
  C      0.044940   -4.836010   -3.427770
  C     -1.346320   -4.973120   -3.504700
  C     -2.133930   -5.132460   -2.356230
  C     -1.536070   -5.166730   -1.092610
  H     -3.217060   -5.236470   -2.455020
  H     -1.827760   -4.951800   -4.485130
  O      0.352800   -5.162240    1.351910
  C      3.165580   -4.899900   -2.572510
  C      3.053300   -4.947760   -3.996670
  C      4.485180   -5.144050   -2.078820
  N      2.983000   -4.962810   -5.157020
  N      5.559720   -5.396050   -1.716310
  C      4.101680   -3.353960    0.530880
  O      4.479440   -2.820910   -0.690440
  C      5.517410   -2.018670   -0.443560
  C      5.834930   -1.973140    0.901870
  C      4.929510   -2.835930    1.540520
  C     11.058810    4.233610   -3.849340
  C     11.557520    5.036400   -4.852370
  C     11.618420    4.947490   -6.300680
  C     11.819290    6.326850   -6.817450
  C     12.070940    7.189710   -5.729020
  C     12.003280    6.415630   -4.459510
  C     11.826710    6.842580   -8.118480
  C     12.068840    8.210250   -8.293720
  C     12.311140    9.057770   -7.204930
  C     12.320060    8.545540   -5.902590
  H     12.501930   10.118960   -7.380330
  H     12.066280    8.623550   -9.305180
  O     12.208430    6.819240   -3.333230
  C     11.684350    3.794350   -7.069050
  C     11.728570    3.820260   -8.497570
  C     11.820110    2.495940   -6.495310
  N     11.741140    3.827120   -9.660030
  N     11.940490    1.433790   -6.038190
  C      6.372050   -1.192150   -1.247910
  C      7.298740   -0.606250   -0.332140
  C      7.022080   -1.050400    1.129090
  C      6.380410   -0.887770   -2.619100
  C      7.324010    0.021970   -3.065140
  C      8.221320    0.647100   -2.142130
  C      8.220380    0.330570   -0.773410
  C      7.526820    0.539430   -4.509880
  C      8.561850    1.618050   -4.248850
  C      8.957010    1.606730   -2.921970
  C      6.656000    0.219210    1.914910
  C      8.138940   -1.873090    1.779100
  C      8.192460   -0.494100   -5.436380
  C      6.202570    1.078380   -5.064630
  C      8.004150   -2.228990    3.131900
  C      8.924010   -3.073400    3.745180
  C     10.016500   -3.599260    3.033600
  C     10.149070   -3.235550    1.688690
  C      9.227290   -2.384150    1.067640
  C      7.602700    0.897410    2.692730
  C      7.284620    2.113300    3.301840
  C      6.018480    2.695410    3.149340
  C      5.078200    2.013280    2.363530
  C      5.389060    0.796720    1.758780
  C      5.389490    0.298800   -5.896260
  C      4.168610    0.792790   -6.364510
  C      3.715780    2.070830   -6.010950
  C      4.526260    2.837850   -5.159160
  C      5.745700    2.350540   -4.691920
  C      8.599130   -1.760570   -5.007920
  C      9.303480   -2.610640   -5.867180
  C      9.629380   -2.221510   -7.170580
  C      9.218840   -0.947510   -7.595200
  C      8.509460   -0.103190   -6.747570
  C     10.987580   -4.550080    3.696360
  C     10.375520   -5.925300    4.003150
  C      5.662860    3.979640    3.859390
  C      5.213340    3.740670    5.309410
  C     10.352180   -3.154080   -8.111950
  C      9.390160   -3.976080   -8.981900
  C      2.438700    2.639810   -6.584650
  C      2.693720    3.484870   -7.841120
  C      9.336740    2.596160   -4.879380
  C     10.168260    3.144520   -3.888930
  O      9.906110    2.513360   -2.671490
  H      2.649030   -4.361890    1.674810
  H      0.625710   -4.710050   -4.339040
  H     -2.117820   -5.300300   -0.178340
  H      4.842940   -3.086660    2.595510
  H     11.308830    4.586910   -2.841360
  H     11.639870    6.214290   -8.986370
  H     12.517000    9.176790   -5.033900
  H      5.659130   -1.338540   -3.302270
  H      8.898230    0.829630   -0.079500
  H      7.167530   -1.831270    3.710920
  H      8.789410   -3.333650    4.798780
  H     10.987760   -3.627800    1.107280
  H      9.360140   -2.130280    0.014990
  H      8.597820    0.472170    2.829840
  H      8.041610    2.620380    3.907200
  H      4.084730    2.445220    2.215200
  H      4.639520    0.297400    1.141660
  H      5.720580   -0.695690   -6.198170
  H      3.556550    0.168770   -7.022290
  H      4.194960    3.834730   -4.855700
  H      6.355580    2.970100   -4.030610
  H      8.379500   -2.095810   -3.994160
  H      9.621560   -3.592090   -5.504830
  H      9.480850   -0.606020   -8.600540
  H      8.203660    0.881950   -7.105680
  H     11.357230   -4.098390    4.633430
  H     11.869390   -4.675740    3.048060
  H      9.516740   -5.837930    4.687360
  H     11.115460   -6.590970    4.475360
  H     10.012610   -6.410230    3.083020
  H      4.861430    4.494630    3.305220
  H      6.534520    4.655770    3.848710
  H      4.338960    3.071700    5.345220
  H      4.939890    4.684860    5.806800
  H      6.015100    3.264000    5.895630
  H     10.995140   -3.835780   -7.530730
  H     11.022330   -2.567110   -8.762470
  H      8.724540   -4.595140   -8.358750
  H      9.943140   -4.644730   -9.661410
  H      8.751370   -3.319360   -9.594900
  H      1.934840    3.258360   -5.822420
  H      1.746830    1.817360   -6.828430
  H      3.355890    4.334980   -7.613840
  H      1.754960    3.886420   -8.255340
  H      3.185270    2.885860   -8.623670
  H      9.296820    2.925470   -5.912390

 Total Charge           Charge          ....    0
 Multiplicity           Mult            ....    1
 Number of Electrons    NEL             ....  554
 Basis Dimension        Dim             .... 1398

ORBITAL ENERGIES
----------------

  NO   OCC          E(Eh)            E(eV)
   0   2.0000     -20.655632      -562.0683
   1   2.0000     -20.653511      -562.0106
   2   2.0000     -20.554731      -559.3227
   3   2.0000     -20.554040      -559.3039
   4   2.0000     -15.587179      -424.1487
   5   2.0000     -15.585834      -424.1121
   6   2.0000     -15.584971      -424.0886
   7   2.0000     -15.577723      -423.8914
   8   2.0000     -11.354275      -308.9655
   9   2.0000     -11.353598      -308.9471
  10   2.0000     -11.337824      -308.5179
  11   2.0000     -11.336301      -308.4764
  12   2.0000     -11.335130      -308.4446
  13   2.0000     -11.334458      -308.4263
  14   2.0000     -11.328469      -308.2633
  15   2.0000     -11.323604      -308.1309
  16   2.0000     -11.318033      -307.9793
  17   2.0000     -11.316255      -307.9309
  18   2.0000     -11.312999      -307.8423
  19   2.0000     -11.312050      -307.8165
  20   2.0000     -11.300331      -307.4976
  21   2.0000     -11.298488      -307.4475
  22   2.0000     -11.294836      -307.3481
  23   2.0000     -11.294189      -307.3305
  24   2.0000     -11.293730      -307.3180
  25   2.0000     -11.291012      -307.2441
  26   2.0000     -11.290433      -307.2283
  27   2.0000     -11.289433      -307.2011
  28   2.0000     -11.287389      -307.1455
  29   2.0000     -11.287354      -307.1445
  30   2.0000     -11.284965      -307.0795
  31   2.0000     -11.284238      -307.0597
  32   2.0000     -11.280753      -306.9649
  33   2.0000     -11.278863      -306.9135
  34   2.0000     -11.275080      -306.8105
  35   2.0000     -11.274936      -306.8066
  36   2.0000     -11.274718      -306.8007
  37   2.0000     -11.274644      -306.7987
  38   2.0000     -11.274559      -306.7964
  39   2.0000     -11.273985      -306.7807
  40   2.0000     -11.273801      -306.7757
  41   2.0000     -11.273278      -306.7615
  42   2.0000     -11.273124      -306.7573
  43   2.0000     -11.273101      -306.7567
  44   2.0000     -11.270201      -306.6778
  45   2.0000     -11.270107      -306.6752
  46   2.0000     -11.269811      -306.6672
  47   2.0000     -11.268693      -306.6367
  48   2.0000     -11.261365      -306.4373
  49   2.0000     -11.259873      -306.3967
  50   2.0000     -11.258964      -306.3720
  51   2.0000     -11.257910      -306.3433
  52   2.0000     -11.254949      -306.2627
  53   2.0000     -11.250845      -306.1511
  54   2.0000     -11.250400      -306.1390
  55   2.0000     -11.248971      -306.1001
  56   2.0000     -11.248806      -306.0956
  57   2.0000     -11.248637      -306.0910
  58   2.0000     -11.248396      -306.0844
  59   2.0000     -11.247451      -306.0587
  60   2.0000     -11.246943      -306.0449
  61   2.0000     -11.246098      -306.0219
  62   2.0000     -11.246087      -306.0216
  63   2.0000     -11.245987      -306.0189
  64   2.0000     -11.245331      -306.0010
  65   2.0000     -11.243834      -305.9603
  66   2.0000     -11.243160      -305.9419
  67   2.0000     -11.242732      -305.9303
  68   2.0000     -11.242426      -305.9220
  69   2.0000     -11.241421      -305.8946
  70   2.0000     -11.239664      -305.8468
  71   2.0000     -11.239597      -305.8450
  72   2.0000     -11.238333      -305.8106
  73   2.0000     -11.237434      -305.7861
  74   2.0000     -11.237257      -305.7813
  75   2.0000     -11.233855      -305.6887
  76   2.0000     -11.233667      -305.6836
  77   2.0000     -11.232446      -305.6504
  78   2.0000     -11.230786      -305.6052
  79   2.0000     -11.230126      -305.5873
  80   2.0000     -11.228462      -305.5420
  81   2.0000     -11.220801      -305.3335
  82   2.0000      -1.486438       -40.4480
  83   2.0000      -1.479637       -40.2630
  84   2.0000      -1.383758       -37.6540
  85   2.0000      -1.383207       -37.6390
  86   2.0000      -1.232909       -33.5492
  87   2.0000      -1.230156       -33.4743
  88   2.0000      -1.222553       -33.2673
  89   2.0000      -1.211114       -32.9561
  90   2.0000      -1.207751       -32.8646
  91   2.0000      -1.205776       -32.8108
  92   2.0000      -1.204033       -32.7634
  93   2.0000      -1.198171       -32.6039
  94   2.0000      -1.160573       -31.5808
  95   2.0000      -1.152303       -31.3558
  96   2.0000      -1.149951       -31.2918
  97   2.0000      -1.148139       -31.2425
  98   2.0000      -1.147263       -31.2186
  99   2.0000      -1.142953       -31.1013
 100   2.0000      -1.125944       -30.6385
 101   2.0000      -1.112645       -30.2766
 102   2.0000      -1.100074       -29.9345
 103   2.0000      -1.086754       -29.5721
 104   2.0000      -1.081165       -29.4200
 105   2.0000      -1.079842       -29.3840
 106   2.0000      -1.074279       -29.2326
 107   2.0000      -1.059875       -28.8407
 108   2.0000      -1.059099       -28.8195
 109   2.0000      -1.053531       -28.6680
 110   2.0000      -1.046759       -28.4837
 111   2.0000      -1.040001       -28.2999
 112   2.0000      -1.039579       -28.2884
 113   2.0000      -1.027702       -27.9652
 114   2.0000      -1.015602       -27.6359
 115   2.0000      -1.012589       -27.5539
 116   2.0000      -1.010139       -27.4873
 117   2.0000      -1.007966       -27.4281
 118   2.0000      -1.002273       -27.2732
 119   2.0000      -0.997031       -27.1306
 120   2.0000      -0.989601       -26.9284
 121   2.0000      -0.978738       -26.6328
 122   2.0000      -0.971852       -26.4454
 123   2.0000      -0.959812       -26.1178
 124   2.0000      -0.941602       -25.6223
 125   2.0000      -0.927714       -25.2444
 126   2.0000      -0.923278       -25.1237
 127   2.0000      -0.916798       -24.9473
 128   2.0000      -0.908915       -24.7328
 129   2.0000      -0.886039       -24.1103
 130   2.0000      -0.864786       -23.5320
 131   2.0000      -0.862174       -23.4610
 132   2.0000      -0.859859       -23.3979
 133   2.0000      -0.854535       -23.2531
 134   2.0000      -0.845923       -23.0187
 135   2.0000      -0.840270       -22.8649
 136   2.0000      -0.833985       -22.6939
 137   2.0000      -0.833052       -22.6685
 138   2.0000      -0.831698       -22.6316
 139   2.0000      -0.827968       -22.5301
 140   2.0000      -0.825510       -22.4633
 141   2.0000      -0.823223       -22.4010
 142   2.0000      -0.815992       -22.2043
 143   2.0000      -0.814941       -22.1757
 144   2.0000      -0.803720       -21.8703
 145   2.0000      -0.801457       -21.8087
 146   2.0000      -0.795651       -21.6508
 147   2.0000      -0.789987       -21.4966
 148   2.0000      -0.785619       -21.3778
 149   2.0000      -0.782507       -21.2931
 150   2.0000      -0.779608       -21.2142
 151   2.0000      -0.774238       -21.0681
 152   2.0000      -0.766848       -20.8670
 153   2.0000      -0.756963       -20.5980
 154   2.0000      -0.747378       -20.3372
 155   2.0000      -0.736790       -20.0491
 156   2.0000      -0.728912       -19.8347
 157   2.0000      -0.723507       -19.6876
 158   2.0000      -0.719049       -19.5663
 159   2.0000      -0.704797       -19.1785
 160   2.0000      -0.701041       -19.0763
 161   2.0000      -0.697154       -18.9705
 162   2.0000      -0.694290       -18.8926
 163   2.0000      -0.687649       -18.7119
 164   2.0000      -0.683561       -18.6006
 165   2.0000      -0.681395       -18.5417
 166   2.0000      -0.678457       -18.4618
 167   2.0000      -0.671381       -18.2692
 168   2.0000      -0.667705       -18.1692
 169   2.0000      -0.660271       -17.9669
 170   2.0000      -0.659985       -17.9591
 171   2.0000      -0.657752       -17.8984
 172   2.0000      -0.656160       -17.8550
 173   2.0000      -0.652517       -17.7559
 174   2.0000      -0.652017       -17.7423
 175   2.0000      -0.648155       -17.6372
 176   2.0000      -0.638193       -17.3661
 177   2.0000      -0.635844       -17.3022
 178   2.0000      -0.634550       -17.2670
 179   2.0000      -0.633770       -17.2458
 180   2.0000      -0.632076       -17.1997
 181   2.0000      -0.629840       -17.1388
 182   2.0000      -0.629587       -17.1319
 183   2.0000      -0.626234       -17.0407
 184   2.0000      -0.622539       -16.9402
 185   2.0000      -0.619716       -16.8633
 186   2.0000      -0.616098       -16.7649
 187   2.0000      -0.615027       -16.7357
 188   2.0000      -0.609673       -16.5900
 189   2.0000      -0.606542       -16.5048
 190   2.0000      -0.605891       -16.4871
 191   2.0000      -0.602015       -16.3817
 192   2.0000      -0.600653       -16.3446
 193   2.0000      -0.600117       -16.3300
 194   2.0000      -0.598007       -16.2726
 195   2.0000      -0.597162       -16.2496
 196   2.0000      -0.595703       -16.2099
 197   2.0000      -0.593407       -16.1474
 198   2.0000      -0.592167       -16.1137
 199   2.0000      -0.588996       -16.0274
 200   2.0000      -0.588529       -16.0147
 201   2.0000      -0.586740       -15.9660
 202   2.0000      -0.585429       -15.9303
 203   2.0000      -0.581563       -15.8251
 204   2.0000      -0.577916       -15.7259
 205   2.0000      -0.573860       -15.6155
 206   2.0000      -0.570123       -15.5138
 207   2.0000      -0.569773       -15.5043
 208   2.0000      -0.568055       -15.4575
 209   2.0000      -0.564367       -15.3572
 210   2.0000      -0.563139       -15.3238
 211   2.0000      -0.561421       -15.2770
 212   2.0000      -0.559375       -15.2214
 213   2.0000      -0.558969       -15.2103
 214   2.0000      -0.556697       -15.1485
 215   2.0000      -0.554275       -15.0826
 216   2.0000      -0.550927       -14.9915
 217   2.0000      -0.545349       -14.8397
 218   2.0000      -0.544580       -14.8188
 219   2.0000      -0.540938       -14.7197
 220   2.0000      -0.539899       -14.6914
 221   2.0000      -0.537329       -14.6215
 222   2.0000      -0.533951       -14.5295
 223   2.0000      -0.533460       -14.5162
 224   2.0000      -0.531554       -14.4643
 225   2.0000      -0.526205       -14.3188
 226   2.0000      -0.521970       -14.2035
 227   2.0000      -0.520736       -14.1699
 228   2.0000      -0.520062       -14.1516
 229   2.0000      -0.519603       -14.1391
 230   2.0000      -0.513344       -13.9688
 231   2.0000      -0.508771       -13.8444
 232   2.0000      -0.506812       -13.7911
 233   2.0000      -0.501294       -13.6409
 234   2.0000      -0.497961       -13.5502
 235   2.0000      -0.494670       -13.4607
 236   2.0000      -0.493075       -13.4172
 237   2.0000      -0.490534       -13.3481
 238   2.0000      -0.489097       -13.3090
 239   2.0000      -0.488574       -13.2948
 240   2.0000      -0.486591       -13.2408
 241   2.0000      -0.485829       -13.2201
 242   2.0000      -0.485023       -13.1982
 243   2.0000      -0.484338       -13.1795
 244   2.0000      -0.482042       -13.1170
 245   2.0000      -0.481512       -13.1026
 246   2.0000      -0.480066       -13.0633
 247   2.0000      -0.478494       -13.0205
 248   2.0000      -0.477402       -12.9908
 249   2.0000      -0.474918       -12.9232
 250   2.0000      -0.474059       -12.8998
 251   2.0000      -0.472230       -12.8500
 252   2.0000      -0.470448       -12.8015
 253   2.0000      -0.462970       -12.5980
 254   2.0000      -0.461826       -12.5669
 255   2.0000      -0.440627       -11.9901
 256   2.0000      -0.438116       -11.9217
 257   2.0000      -0.434472       -11.8226
 258   2.0000      -0.427771       -11.6402
 259   2.0000      -0.416835       -11.3426
 260   2.0000      -0.399588       -10.8733
 261   2.0000      -0.374175       -10.1818
 262   2.0000      -0.371226       -10.1016
 263   2.0000      -0.368602       -10.0302
 264   2.0000      -0.367428        -9.9982
 265   2.0000      -0.351014        -9.5516
 266   2.0000      -0.345796        -9.4096
 267   2.0000      -0.344585        -9.3766
 268   2.0000      -0.343635        -9.3508
 269   2.0000      -0.342356        -9.3160
 270   2.0000      -0.334936        -9.1141
 271   2.0000      -0.332635        -9.0515
 272   2.0000      -0.328697        -8.9443
 273   2.0000      -0.323709        -8.8086
 274   2.0000      -0.316323        -8.6076
 275   2.0000      -0.306270        -8.3340
 276   2.0000      -0.265185        -7.2161
 277   0.0000      -0.024315        -0.6617
 278   0.0000      -0.002316        -0.0630
 279   0.0000       0.025724         0.7000
 280   0.0000       0.034363         0.9351
 281   0.0000       0.067071         1.8251

MULLIKEN ATOMIC CHARGES
-----------------------
   0 C :    0.106958
   1 C :   -0.300272
   2 C :    0.247760
   3 C :   -0.053228
   4 C :   -0.180447
   5 C :    0.462556
   6 C :   -0.022696
   7 C :   -0.015705
   8 C :   -0.020312
   9 C :    0.015840
  10 H :    0.061826
  11 H :    0.061864
  12 O :   -0.368253
  13 C :   -0.330977
  14 C :    0.045457
  15 C :    0.055113
  16 N :   -0.098652
  17 N :   -0.081495
  18 C :    0.182327
  19 O :   -0.462922
  20 C :    0.388078
  21 C :   -0.080723
  22 C :    0.035397
  23 C :    0.125058
  24 C :   -0.320927
  25 C :    0.243241
  26 C :   -0.056047
  27 C :   -0.175529
  28 C :    0.462378
  29 C :   -0.024007
  30 C :   -0.016507
  31 C :   -0.019455
  32 C :    0.014569
  33 H :    0.062092
  34 H :    0.062322
  35 O :   -0.364939
  36 C :   -0.370581
  37 C :    0.055228
  38 C :    0.026976
  39 N :   -0.096321
  40 N :   -0.057702
  41 C :   -0.072059
  42 C :   -0.020914
  43 C :   -0.051134
  44 C :    0.041421
  45 C :   -0.024042
  46 C :   -0.083413
  47 C :    0.049010
  48 C :   -0.034956
  49 C :   -0.110502
  50 C :    0.397098
  51 C :   -0.062436
  52 C :   -0.077606
  53 C :   -0.074350
  54 C :   -0.070213
  55 C :   -0.027499
  56 C :   -0.015424
  57 C :   -0.156963
  58 C :   -0.012805
  59 C :   -0.010281
  60 C :   -0.030761
  61 C :   -0.014698
  62 C :   -0.161500
  63 C :   -0.013382
  64 C :   -0.018364
  65 C :   -0.022511
  66 C :   -0.018766
  67 C :   -0.162184
  68 C :   -0.013616
  69 C :   -0.018202
  70 C :   -0.018217
  71 C :   -0.004520
  72 C :   -0.157384
  73 C :   -0.004289
  74 C :   -0.006909
  75 C :    0.020918
  76 C :   -0.041566
  77 C :    0.013550
  78 C :   -0.028920
  79 C :    0.010693
  80 C :   -0.029231
  81 C :    0.013902
  82 C :   -0.028453
  83 C :    0.060589
  84 C :    0.163448
  85 O :   -0.449083
  86 H :    0.091854
  87 H :    0.082768
  88 H :    0.066417
  89 H :    0.066444
  90 H :    0.105418
  91 H :    0.083462
  92 H :    0.066464
  93 H :    0.054680
  94 H :    0.050338
  95 H :    0.045049
  96 H :    0.034114
  97 H :    0.036134
  98 H :    0.055753
  99 H :    0.059925
 100 H :    0.034609
 101 H :    0.032807
 102 H :    0.049437
 103 H :    0.065582
 104 H :    0.037678
 105 H :    0.031532
 106 H :    0.047422
 107 H :    0.054091
 108 H :    0.033915
 109 H :    0.035996
 110 H :    0.037182
 111 H :    0.043936
 112 H :    0.035241
 113 H :    0.031085
 114 H :    0.039489
 115 H :    0.041919
 116 H :    0.036597
 117 H :    0.041817
 118 H :    0.032809
 119 H :    0.040310
 120 H :    0.032491
 121 H :    0.037839
 122 H :    0.042894
 123 H :    0.035439
 124 H :    0.037595
 125 H :    0.031110
 126 H :    0.038434
 127 H :    0.037583
 128 H :    0.030950
 129 H :    0.039008
 130 H :    0.035078
 131 H :    0.078484
Sum of atomic charges:   -0.0000000

LOEWDIN ATOMIC CHARGES
----------------------
   0 C :    0.101281
   1 C :   -0.147941
   2 C :    0.116660
   3 C :   -0.020589
   4 C :   -0.059027
   5 C :    0.170348
   6 C :    0.003323
   7 C :    0.000680
   8 C :   -0.003687
   9 C :    0.018569
  10 H :    0.035903
  11 H :    0.037222
  12 O :   -0.243749
  13 C :   -0.166116
  14 C :    0.020634
  15 C :    0.014608
  16 N :   -0.108517
  17 N :   -0.106870
  18 C :    0.025897
  19 O :   -0.062003
  20 C :    0.121493
  21 C :   -0.067332
  22 C :    0.036685
  23 C :    0.112806
  24 C :   -0.157466
  25 C :    0.115105
  26 C :   -0.023617
  27 C :   -0.057502
  28 C :    0.170120
  29 C :    0.003591
  30 C :   -0.000195
  31 C :   -0.002545
  32 C :    0.018203
  33 H :    0.036049
  34 H :    0.037463
  35 O :   -0.240708
  36 C :   -0.184986
  37 C :    0.019105
  38 C :    0.006833
  39 N :   -0.108037
  40 N :   -0.084796
  41 C :   -0.032935
  42 C :    0.020737
  43 C :    0.002415
  44 C :    0.006884
  45 C :    0.022553
  46 C :   -0.032150
  47 C :    0.004706
  48 C :    0.001974
  49 C :   -0.062715
  50 C :    0.120341
  51 C :   -0.029544
  52 C :   -0.027371
  53 C :   -0.026026
  54 C :   -0.032441
  55 C :   -0.020163
  56 C :   -0.023417
  57 C :   -0.024306
  58 C :   -0.023503
  59 C :   -0.018309
  60 C :   -0.021352
  61 C :   -0.025851
  62 C :   -0.024463
  63 C :   -0.025948
  64 C :   -0.016350
  65 C :   -0.016406
  66 C :   -0.026237
  67 C :   -0.024656
  68 C :   -0.027375
  69 C :   -0.018232
  70 C :   -0.023267
  71 C :   -0.022461
  72 C :   -0.019689
  73 C :   -0.016491
  74 C :   -0.013396
  75 C :   -0.013290
  76 C :   -0.032083
  77 C :   -0.013264
  78 C :   -0.031462
  79 C :   -0.012800
  80 C :   -0.031999
  81 C :   -0.013348
  82 C :   -0.031457
  83 C :    0.050345
  84 C :    0.024666
  85 O :   -0.075021
  86 H :    0.062759
  87 H :    0.042521
  88 H :    0.044330
  89 H :    0.044210
  90 H :    0.065935
  91 H :    0.042461
  92 H :    0.044337
  93 H :    0.042732
  94 H :    0.040830
  95 H :    0.026340
  96 H :    0.025723
  97 H :    0.027896
  98 H :    0.030086
  99 H :    0.031003
 100 H :    0.026483
 101 H :    0.026215
 102 H :    0.028539
 103 H :    0.034008
 104 H :    0.027922
 105 H :    0.025163
 106 H :    0.027768
 107 H :    0.028277
 108 H :    0.027151
 109 H :    0.027802
 110 H :    0.023659
 111 H :    0.022808
 112 H :    0.020336
 113 H :    0.015194
 114 H :    0.018383
 115 H :    0.021203
 116 H :    0.020271
 117 H :    0.022167
 118 H :    0.017777
 119 H :    0.017960
 120 H :    0.017034
 121 H :    0.020992
 122 H :    0.022773
 123 H :    0.018524
 124 H :    0.016949
 125 H :    0.016584
 126 H :    0.020672
 127 H :    0.020587
 128 H :    0.016487
 129 H :    0.017376
 130 H :    0.018695
 131 H :    0.041339

  Mayer bond orders larger than 0.100000
B(  0-C ,  1-C ) :   1.6659 B(  0-C , 18-C ) :   1.2015 B(  0-C , 86-H ) :   0.9475
B(  1-C ,  2-C ) :   1.0742 B(  1-C ,  5-C ) :   1.0036 B(  2-C ,  3-C ) :   1.0349
B(  2-C , 13-C ) :   1.7034 B(  3-C ,  4-C ) :   1.3553 B(  3-C ,  6-C ) :   1.4214
B(  4-C ,  5-C ) :   0.9522 B(  4-C ,  9-C ) :   1.4374 B(  5-C , 12-O ) :   2.0717
B(  6-C ,  7-C ) :   1.4232 B(  6-C , 87-H ) :   0.9861 B(  7-C ,  8-C ) :   1.4066
B(  7-C , 11-H ) :   0.9936 B(  8-C ,  9-C ) :   1.3979 B(  8-C , 10-H ) :   0.9967
B(  9-C , 88-H ) :   1.0013 B( 13-C , 14-C ) :   1.0499 B( 13-C , 15-C ) :   1.0674
B( 14-C , 16-N ) :   2.9823 B( 15-C , 17-N ) :   3.0076 B( 18-C , 19-O ) :   0.9520
B( 18-C , 22-C ) :   1.4874 B( 19-O , 20-C ) :   1.0866 B( 20-C , 21-C ) :   1.5254
B( 20-C , 41-C ) :   1.0788 B( 21-C , 22-C ) :   1.3336 B( 21-C , 43-C ) :   0.9635
B( 22-C , 89-H ) :   1.0018 B( 23-C , 24-C ) :   1.6372 B( 23-C , 84-C ) :   1.2208
B( 23-C , 90-H ) :   0.9507 B( 24-C , 25-C ) :   1.1025 B( 24-C , 28-C ) :   1.0043
B( 25-C , 26-C ) :   1.0369 B( 25-C , 36-C ) :   1.6584 B( 26-C , 27-C ) :   1.3554
B( 26-C , 29-C ) :   1.4233 B( 27-C , 28-C ) :   0.9474 B( 27-C , 32-C ) :   1.4426
B( 28-C , 35-O ) :   2.0768 B( 29-C , 30-C ) :   1.4212 B( 29-C , 91-H ) :   0.9862
B( 30-C , 31-C ) :   1.4100 B( 30-C , 34-H ) :   0.9936 B( 31-C , 32-C ) :   1.3939
B( 31-C , 33-H ) :   0.9967 B( 32-C , 92-H ) :   1.0012 B( 36-C , 37-C ) :   1.0432
B( 36-C , 38-C ) :   1.0804 B( 37-C , 39-N ) :   2.9846 B( 38-C , 40-N ) :   2.9906
B( 41-C , 42-C ) :   1.3644 B( 41-C , 44-C ) :   1.3301 B( 42-C , 43-C ) :   0.9683
B( 42-C , 47-C ) :   1.4876 B( 43-C , 51-C ) :   0.9737 B( 43-C , 52-C ) :   0.9794
B( 44-C , 45-C ) :   1.4983 B( 44-C , 93-H ) :   1.0061 B( 45-C , 46-C ) :   1.3613
B( 45-C , 48-C ) :   0.9670 B( 46-C , 47-C ) :   1.3408 B( 46-C , 50-C ) :   1.0833
B( 47-C , 94-H ) :   1.0042 B( 48-C , 49-C ) :   0.9583 B( 48-C , 53-C ) :   0.9700
B( 48-C , 54-C ) :   0.9797 B( 49-C , 50-C ) :   1.5070 B( 49-C , 83-C ) :   1.3699
B( 50-C , 85-O ) :   1.1028 B( 51-C , 60-C ) :   1.4362 B( 51-C , 64-C ) :   1.4172
B( 52-C , 55-C ) :   1.3773 B( 52-C , 59-C ) :   1.4756 B( 53-C , 70-C ) :   1.4713
B( 53-C , 74-C ) :   1.3823 B( 54-C , 65-C ) :   1.4415 B( 54-C , 69-C ) :   1.4155
B( 55-C , 56-C ) :   1.4735 B( 55-C , 95-H ) :   1.0030 B( 56-C , 57-C ) :   1.3735
B( 56-C , 96-H ) :   1.0005 B( 57-C , 58-C ) :   1.4562 B( 57-C , 75-C ) :   0.9875
B( 58-C , 59-C ) :   1.4001 B( 58-C , 97-H ) :   0.9972 B( 59-C , 98-H ) :   0.9898
B( 60-C , 61-C ) :   1.4292 B( 60-C , 99-H ) :   0.9959 B( 61-C , 62-C ) :   1.4127
B( 61-C ,100-H ) :   1.0002 B( 62-C , 63-C ) :   1.4084 B( 62-C , 77-C ) :   0.9956
B( 63-C , 64-C ) :   1.4447 B( 63-C ,101-H ) :   0.9998 B( 64-C ,102-H ) :   0.9974
B( 65-C , 66-C ) :   1.4213 B( 65-C ,103-H ) :   0.9957 B( 66-C , 67-C ) :   1.4237
B( 66-C ,104-H ) :   1.0004 B( 67-C , 68-C ) :   1.3964 B( 67-C , 81-C ) :   0.9977
B( 68-C , 69-C ) :   1.4492 B( 68-C ,105-H ) :   1.0001 B( 69-C ,106-H ) :   0.9958
B( 70-C , 71-C ) :   1.4060 B( 70-C ,107-H ) :   0.9899 B( 71-C , 72-C ) :   1.4420
B( 71-C ,108-H ) :   0.9978 B( 72-C , 73-C ) :   1.3844 B( 72-C , 79-C ) :   0.9959
B( 73-C , 74-C ) :   1.4736 B( 73-C ,109-H ) :   0.9986 B( 74-C ,110-H ) :   1.0003
B( 75-C , 76-C ) :   1.0341 B( 75-C ,111-H ) :   0.9723 B( 75-C ,112-H ) :   0.9787
B( 76-C ,113-H ) :   0.9860 B( 76-C ,114-H ) :   0.9869 B( 76-C ,115-H ) :   0.9823
B( 77-C , 78-C ) :   1.0308 B( 77-C ,116-H ) :   0.9769 B( 77-C ,117-H ) :   0.9752
B( 78-C ,118-H ) :   0.9833 B( 78-C ,119-H ) :   0.9867 B( 78-C ,120-H ) :   0.9850
B( 79-C , 80-C ) :   1.0311 B( 79-C ,121-H ) :   0.9766 B( 79-C ,122-H ) :   0.9755
B( 80-C ,123-H ) :   0.9834 B( 80-C ,124-H ) :   0.9866 B( 80-C ,125-H ) :   0.9845
B( 81-C , 82-C ) :   1.0306 B( 81-C ,126-H ) :   0.9752 B( 81-C ,127-H ) :   0.9766
B( 82-C ,128-H ) :   0.9849 B( 82-C ,129-H ) :   0.9867 B( 82-C ,130-H ) :   0.9834
B( 83-C , 84-C ) :   1.4619 B( 83-C ,131-H ) :   0.9928 B( 84-C , 85-O ) :   0.9513

-----------------------------------------------------------------------------
         ABSORPTION SPECTRUM VIA TRANSITION ELECTRIC DIPOLE MOMENTS
-----------------------------------------------------------------------------
State   Energy    Wavelength  fosc         T2        TX        TY        TZ
        (cm-1)      (nm)                 (au**2)    (au)      (au)      (au)
-----------------------------------------------------------------------------
   1   21869.7    457.3   1.712709788  25.78202  -3.41413  -3.43297   1.52985
   2   27030.2    370.0   0.347778204   4.23574  -0.05844  -0.14235  -2.05233
   3   35687.6    280.2   0.288240096   2.65896   0.85259   0.87090  -1.08332

FINAL SINGLE POINT ENERGY     -3345.886657968264

DIPOLE MOMENT
-------------
                                X             Y             Z
Electronic contribution:      4.47011       0.57473     -14.52532
Nuclear contribution   :     -6.43047       1.44881      16.51860
                        -----------------------------------------
Total Dipole Moment    :     -1.96036       2.02354       1.99328
                        -----------------------------------------
Magnitude (a.u.)       :      3.45122
Magnitude (Debye)      :      8.77230

Rotational constants in cm-1:     0.000938     0.000469     0.000405
Rotational constants in MHz :    28.113977    14.059308    12.140024

                             ****ORCA TERMINATED NORMALLY****
TOTAL RUN TIME: 0 days 21 hours 1 minutes 20 seconds 562 msec
