                         Program Version 4.2.0 -  RELEASE  -
|  1> # ORCA input file
|  2> # IDIC.out: Geometry 18
|  3> ! Engrad Keepdens
|  4> %maxcore 1000
|  5> %tddft
|  6>   nroots 3
|  7>   # nroots is the number of states to be computed
|  8>   Iroot 1
|  9>   end
| 10> * xyz 0 1
| 11>    C        2.88191         1.08454        -0.59991
| 12>    C        2.82037        -0.33452        -0.73666
| 13>    C        1.58461        -0.96482        -0.75979
| 14>    C        0.43270        -0.16393        -0.69310
| 15>    C        0.49260         1.25982        -0.62596
| 16>    C        1.72839         1.88762        -0.55896
| 17>    C       -0.95897        -0.52598        -0.59248
| 18>    C       -1.76645         0.61186        -0.50140
| 19>    C       -0.91650         1.87205        -0.56645
| 20>    C        4.27625         1.42571        -0.46215
| 21>    C        5.07977         0.28107        -0.53139
| 22>    C        4.22450        -0.95861        -0.74531
| 23>    S       -1.83943        -1.98113        -0.42668
| 24>    C       -3.35239        -1.06830        -0.21208
| 25>    C       -3.11838         0.31614        -0.30161
| 26>    S        5.17547         2.85547        -0.18956
| 27>    C        6.69201         1.92493        -0.17157
| 28>    C        6.44226         0.55933        -0.38921
| 29>    C       -1.12412         2.75594         0.68761
| 30>    C       -1.26252         2.64808        -1.87311
| 31>    C       -0.54483         3.97696        -2.10097
| 32>    C       -0.98824         2.02354         2.02149
| 33>    C        4.57353        -1.58398        -2.12967
| 34>    C        4.35770        -1.96544         0.42906
| 35>    C        3.86962        -2.89059        -2.48912
| 36>    C        5.74614        -2.57111         0.63588
| 37>    C        7.86784         2.67212         0.09247
| 38>    C       -4.49036        -1.86273         0.08392
| 39>    C       -5.81356        -1.56233         0.33093
| 40>    C        9.19973         2.32301         0.19877
| 41>    C        9.80986         0.97762        -0.01182
| 42>    C       11.27586         1.16572         0.11652
| 43>    C       11.56406         2.51317         0.40747
| 44>    C       10.28659         3.25958         0.51772
| 45>    C       -6.47688        -0.22970         0.23396
| 46>    C       -7.92580        -0.47762         0.44094
| 47>    C       -8.15023        -1.84824         0.67663
| 48>    C       -6.84425        -2.55025         0.67937
| 49>    C       12.26784         0.20281        -0.01995
| 50>    C       13.59885         0.60562         0.12575
| 51>    C       13.90312         1.94644         0.39869
| 52>    C       12.90010         2.91163         0.54432
| 53>    C       -8.95831         0.45137         0.40953
| 54>    C      -10.26474        -0.00943         0.60122
| 55>    C      -10.50589        -1.37321         0.81736
| 56>    C       -9.46188        -2.30429         0.86220
| 57>    O        9.26441        -0.08904        -0.24697
| 58>    O       -5.97747         0.86257         0.01765
| 59>    C       -6.66776        -3.88054         1.01897
| 60>    C       10.18437         4.58481         0.90544
| 61>    C        8.94856         5.28437         1.08274
| 62>    C       11.31625         5.40396         1.21293
| 63>    C       -5.39588        -4.52981         1.11275
| 64>    C       -7.74803        -4.75323         1.36323
| 65>    N        7.96937         5.89277         1.23590
| 66>    N       12.19627         6.11499         1.47883
| 67>    N       -8.58788        -5.50338         1.65077
| 68>    N       -4.38661        -5.09971         1.20653
| 69>    H        1.49589        -2.05208        -0.79544
| 70>    H        1.81565         2.96911        -0.43756
| 71>    H       -3.93759         1.02367        -0.18835
| 72>    H        7.26807        -0.14615        -0.42518
| 73>    H       -2.12524         3.21484         0.61425
| 74>    H       -0.40681         3.59177         0.65049
| 75>    H       -2.35154         2.82479        -1.86345
| 76>    H       -1.06746         1.97244        -2.72209
| 77>    H       -0.74087         4.69857        -1.29320
| 78>    H       -0.90077         4.43681        -3.03624
| 79>    H        0.54490         3.85141        -2.19162
| 80>    H       -1.75217         1.23980         2.13577
| 81>    H       -1.10509         2.72647         2.86044
| 82>    H       -0.00289         1.54051         2.11895
| 83>    H        5.66406        -1.74222        -2.15933
| 84>    H        4.35756        -0.82316        -2.89747
| 85>    H        3.62617        -2.77384         0.26819
| 86>    H        4.03905        -1.44838         1.34936
| 87>    H        4.09244        -3.69209        -1.76831
| 88>    H        4.21022        -3.24041        -3.47612
| 89>    H        2.77653        -2.77439        -2.54306
| 90>    H        5.71969        -3.32475         1.43830
| 91>    H        6.48468        -1.81125         0.92699
| 92>    H        6.12098        -3.07291        -0.26949
| 93>    H        7.65360         3.72813         0.25624
| 94>    H       -4.24181        -2.92295         0.14218
| 95>    H       11.99112        -0.83000        -0.24189
| 96>    H       14.40655        -0.12211         0.02120
| 97>    H       14.94681         2.25196         0.50462
| 98>    H       13.17608         3.93997         0.76460
| 99>    H       -8.73147         1.50463         0.23064
|100>    H      -11.10260         0.69076         0.57930
|101>    H      -11.53039        -1.72452         0.96065
|102>    H       -9.68810        -3.35294         1.04108
|103> *
|104>
|105>                          ****END OF INPUT****

CARTESIAN COORDINATES (ANGSTROEM)
---------------------------------
  C      2.881910    1.084540   -0.599910
  C      2.820370   -0.334520   -0.736660
  C      1.584610   -0.964820   -0.759790
  C      0.432700   -0.163930   -0.693100
  C      0.492600    1.259820   -0.625960
  C      1.728390    1.887620   -0.558960
  C     -0.958970   -0.525980   -0.592480
  C     -1.766450    0.611860   -0.501400
  C     -0.916500    1.872050   -0.566450
  C      4.276250    1.425710   -0.462150
  C      5.079770    0.281070   -0.531390
  C      4.224500   -0.958610   -0.745310
  S     -1.839430   -1.981130   -0.426680
  C     -3.352390   -1.068300   -0.212080
  C     -3.118380    0.316140   -0.301610
  S      5.175470    2.855470   -0.189560
  C      6.692010    1.924930   -0.171570
  C      6.442260    0.559330   -0.389210
  C     -1.124120    2.755940    0.687610
  C     -1.262520    2.648080   -1.873110
  C     -0.544830    3.976960   -2.100970
  C     -0.988240    2.023540    2.021490
  C      4.573530   -1.583980   -2.129670
  C      4.357700   -1.965440    0.429060
  C      3.869620   -2.890590   -2.489120
  C      5.746140   -2.571110    0.635880
  C      7.867840    2.672120    0.092470
  C     -4.490360   -1.862730    0.083920
  C     -5.813560   -1.562330    0.330930
  C      9.199730    2.323010    0.198770
  C      9.809860    0.977620   -0.011820
  C     11.275860    1.165720    0.116520
  C     11.564060    2.513170    0.407470
  C     10.286590    3.259580    0.517720
  C     -6.476880   -0.229700    0.233960
  C     -7.925800   -0.477620    0.440940
  C     -8.150230   -1.848240    0.676630
  C     -6.844250   -2.550250    0.679370
  C     12.267840    0.202810   -0.019950
  C     13.598850    0.605620    0.125750
  C     13.903120    1.946440    0.398690
  C     12.900100    2.911630    0.544320
  C     -8.958310    0.451370    0.409530
  C    -10.264740   -0.009430    0.601220
  C    -10.505890   -1.373210    0.817360
  C     -9.461880   -2.304290    0.862200
  O      9.264410   -0.089040   -0.246970
  O     -5.977470    0.862570    0.017650
  C     -6.667760   -3.880540    1.018970
  C     10.184370    4.584810    0.905440
  C      8.948560    5.284370    1.082740
  C     11.316250    5.403960    1.212930
  C     -5.395880   -4.529810    1.112750
  C     -7.748030   -4.753230    1.363230
  N      7.969370    5.892770    1.235900
  N     12.196270    6.114990    1.478830
  N     -8.587880   -5.503380    1.650770
  N     -4.386610   -5.099710    1.206530
  H      1.495890   -2.052080   -0.795440
  H      1.815650    2.969110   -0.437560
  H     -3.937590    1.023670   -0.188350
  H      7.268070   -0.146150   -0.425180
  H     -2.125240    3.214840    0.614250
  H     -0.406810    3.591770    0.650490
  H     -2.351540    2.824790   -1.863450
  H     -1.067460    1.972440   -2.722090
  H     -0.740870    4.698570   -1.293200
  H     -0.900770    4.436810   -3.036240
  H      0.544900    3.851410   -2.191620
  H     -1.752170    1.239800    2.135770
  H     -1.105090    2.726470    2.860440
  H     -0.002890    1.540510    2.118950
  H      5.664060   -1.742220   -2.159330
  H      4.357560   -0.823160   -2.897470
  H      3.626170   -2.773840    0.268190
  H      4.039050   -1.448380    1.349360
  H      4.092440   -3.692090   -1.768310
  H      4.210220   -3.240410   -3.476120
  H      2.776530   -2.774390   -2.543060
  H      5.719690   -3.324750    1.438300
  H      6.484680   -1.811250    0.926990
  H      6.120980   -3.072910   -0.269490
  H      7.653600    3.728130    0.256240
  H     -4.241810   -2.922950    0.142180
  H     11.991120   -0.830000   -0.241890
  H     14.406550   -0.122110    0.021200
  H     14.946810    2.251960    0.504620
  H     13.176080    3.939970    0.764600
  H     -8.731470    1.504630    0.230640
  H    -11.102600    0.690760    0.579300
  H    -11.530390   -1.724520    0.960650
  H     -9.688100   -3.352940    1.041080

 Total Charge           Charge          ....    0
 Multiplicity           Mult            ....    1
 Number of Electrons    NEL             ....  410
 Basis Dimension        Dim             ....  990

ORBITAL ENERGIES
----------------

  NO   OCC          E(Eh)            E(eV)
   0   2.0000     -91.980772     -2502.9241
   1   2.0000     -91.980640     -2502.9205
   2   2.0000     -20.565504      -559.6158
   3   2.0000     -20.565332      -559.6111
   4   2.0000     -15.592442      -424.2919
   5   2.0000     -15.592401      -424.2908
   6   2.0000     -15.587625      -424.1609
   7   2.0000     -15.587242      -424.1504
   8   2.0000     -11.364702      -309.2493
   9   2.0000     -11.364362      -309.2400
  10   2.0000     -11.342265      -308.6387
  11   2.0000     -11.342251      -308.6383
  12   2.0000     -11.320945      -308.0586
  13   2.0000     -11.320581      -308.0487
  14   2.0000     -11.320475      -308.0458
  15   2.0000     -11.320368      -308.0429
  16   2.0000     -11.306709      -307.6712
  17   2.0000     -11.305158      -307.6290
  18   2.0000     -11.305045      -307.6259
  19   2.0000     -11.304839      -307.6203
  20   2.0000     -11.300734      -307.5086
  21   2.0000     -11.300425      -307.5002
  22   2.0000     -11.298794      -307.4558
  23   2.0000     -11.297352      -307.4166
  24   2.0000     -11.290598      -307.2328
  25   2.0000     -11.290437      -307.2284
  26   2.0000     -11.283009      -307.0263
  27   2.0000     -11.282719      -307.0184
  28   2.0000     -11.282498      -307.0124
  29   2.0000     -11.280994      -306.9714
  30   2.0000     -11.279274      -306.9247
  31   2.0000     -11.279087      -306.9196
  32   2.0000     -11.278825      -306.9124
  33   2.0000     -11.278633      -306.9072
  34   2.0000     -11.277971      -306.8892
  35   2.0000     -11.277774      -306.8838
  36   2.0000     -11.277052      -306.8642
  37   2.0000     -11.276996      -306.8627
  38   2.0000     -11.276944      -306.8612
  39   2.0000     -11.276941      -306.8612
  40   2.0000     -11.276788      -306.8570
  41   2.0000     -11.276476      -306.8485
  42   2.0000     -11.275975      -306.8349
  43   2.0000     -11.275769      -306.8293
  44   2.0000     -11.274705      -306.8003
  45   2.0000     -11.274505      -306.7949
  46   2.0000     -11.273797      -306.7756
  47   2.0000     -11.273422      -306.7654
  48   2.0000     -11.263471      -306.4946
  49   2.0000     -11.263110      -306.4848
  50   2.0000     -11.251179      -306.1601
  51   2.0000     -11.251055      -306.1568
  52   2.0000     -11.250060      -306.1297
  53   2.0000     -11.249965      -306.1271
  54   2.0000     -11.239726      -305.8485
  55   2.0000     -11.239012      -305.8291
  56   2.0000     -11.236117      -305.7503
  57   2.0000     -11.233005      -305.6656
  58   2.0000      -9.015802      -245.3324
  59   2.0000      -9.015757      -245.3312
  60   2.0000      -6.703230      -182.4042
  61   2.0000      -6.703185      -182.4029
  62   2.0000      -6.702187      -182.3758
  63   2.0000      -6.702125      -182.3741
  64   2.0000      -6.700432      -182.3280
  65   2.0000      -6.700379      -182.3266
  66   2.0000      -1.392476       -37.8912
  67   2.0000      -1.392088       -37.8806
  68   2.0000      -1.238208       -33.6933
  69   2.0000      -1.237931       -33.6858
  70   2.0000      -1.235172       -33.6107
  71   2.0000      -1.222336       -33.2615
  72   2.0000      -1.216312       -33.0975
  73   2.0000      -1.216280       -33.0967
  74   2.0000      -1.210416       -32.9371
  75   2.0000      -1.210011       -32.9261
  76   2.0000      -1.176131       -32.0041
  77   2.0000      -1.156204       -31.4619
  78   2.0000      -1.148602       -31.2551
  79   2.0000      -1.140304       -31.0293
  80   2.0000      -1.108927       -30.1754
  81   2.0000      -1.096577       -29.8394
  82   2.0000      -1.090833       -29.6831
  83   2.0000      -1.083200       -29.4754
  84   2.0000      -1.074864       -29.2485
  85   2.0000      -1.058115       -28.7928
  86   2.0000      -1.044069       -28.4106
  87   2.0000      -1.043828       -28.4040
  88   2.0000      -1.033185       -28.1144
  89   2.0000      -1.023914       -27.8621
  90   2.0000      -1.021398       -27.7937
  91   2.0000      -1.019315       -27.7370
  92   2.0000      -1.013975       -27.5917
  93   2.0000      -1.012694       -27.5568
  94   2.0000      -0.981035       -26.6953
  95   2.0000      -0.963491       -26.2179
  96   2.0000      -0.936519       -25.4840
  97   2.0000      -0.929563       -25.2947
  98   2.0000      -0.923188       -25.1212
  99   2.0000      -0.922249       -25.0957
 100   2.0000      -0.911048       -24.7909
 101   2.0000      -0.878121       -23.8949
 102   2.0000      -0.860828       -23.4243
 103   2.0000      -0.853222       -23.2174
 104   2.0000      -0.848522       -23.0894
 105   2.0000      -0.846359       -23.0306
 106   2.0000      -0.833469       -22.6798
 107   2.0000      -0.832742       -22.6601
 108   2.0000      -0.829637       -22.5756
 109   2.0000      -0.814249       -22.1568
 110   2.0000      -0.807568       -21.9750
 111   2.0000      -0.796966       -21.6866
 112   2.0000      -0.777857       -21.1666
 113   2.0000      -0.777422       -21.1547
 114   2.0000      -0.774442       -21.0736
 115   2.0000      -0.760515       -20.6947
 116   2.0000      -0.754016       -20.5178
 117   2.0000      -0.736296       -20.0356
 118   2.0000      -0.735067       -20.0022
 119   2.0000      -0.730490       -19.8776
 120   2.0000      -0.730388       -19.8749
 121   2.0000      -0.711929       -19.3726
 122   2.0000      -0.692014       -18.8307
 123   2.0000      -0.687315       -18.7028
 124   2.0000      -0.686458       -18.6795
 125   2.0000      -0.681393       -18.5416
 126   2.0000      -0.667980       -18.1767
 127   2.0000      -0.663686       -18.0598
 128   2.0000      -0.659814       -17.9545
 129   2.0000      -0.653670       -17.7873
 130   2.0000      -0.649122       -17.6635
 131   2.0000      -0.645455       -17.5637
 132   2.0000      -0.645092       -17.5538
 133   2.0000      -0.641778       -17.4637
 134   2.0000      -0.636380       -17.3168
 135   2.0000      -0.635415       -17.2905
 136   2.0000      -0.633776       -17.2459
 137   2.0000      -0.630789       -17.1646
 138   2.0000      -0.624846       -17.0029
 139   2.0000      -0.620793       -16.8926
 140   2.0000      -0.616260       -16.7693
 141   2.0000      -0.612052       -16.6548
 142   2.0000      -0.611943       -16.6518
 143   2.0000      -0.611329       -16.6351
 144   2.0000      -0.605328       -16.4718
 145   2.0000      -0.597872       -16.2689
 146   2.0000      -0.594494       -16.1770
 147   2.0000      -0.589288       -16.0353
 148   2.0000      -0.580932       -15.8080
 149   2.0000      -0.577318       -15.7096
 150   2.0000      -0.574756       -15.6399
 151   2.0000      -0.574325       -15.6282
 152   2.0000      -0.574126       -15.6228
 153   2.0000      -0.567334       -15.4379
 154   2.0000      -0.567078       -15.4310
 155   2.0000      -0.566110       -15.4046
 156   2.0000      -0.565919       -15.3994
 157   2.0000      -0.562145       -15.2967
 158   2.0000      -0.558965       -15.2102
 159   2.0000      -0.555894       -15.1266
 160   2.0000      -0.554405       -15.0861
 161   2.0000      -0.552022       -15.0213
 162   2.0000      -0.550382       -14.9767
 163   2.0000      -0.539043       -14.6681
 164   2.0000      -0.537560       -14.6278
 165   2.0000      -0.537355       -14.6222
 166   2.0000      -0.535067       -14.5599
 167   2.0000      -0.533575       -14.5193
 168   2.0000      -0.529062       -14.3965
 169   2.0000      -0.526369       -14.3232
 170   2.0000      -0.525546       -14.3008
 171   2.0000      -0.524213       -14.2645
 172   2.0000      -0.519683       -14.1413
 173   2.0000      -0.515039       -14.0149
 174   2.0000      -0.511104       -13.9079
 175   2.0000      -0.503295       -13.6954
 176   2.0000      -0.501515       -13.6469
 177   2.0000      -0.491337       -13.3699
 178   2.0000      -0.490897       -13.3580
 179   2.0000      -0.489919       -13.3314
 180   2.0000      -0.489089       -13.3088
 181   2.0000      -0.487598       -13.2682
 182   2.0000      -0.485927       -13.2227
 183   2.0000      -0.477271       -12.9872
 184   2.0000      -0.473406       -12.8820
 185   2.0000      -0.472091       -12.8463
 186   2.0000      -0.470997       -12.8165
 187   2.0000      -0.470432       -12.8011
 188   2.0000      -0.469193       -12.7674
 189   2.0000      -0.467375       -12.7179
 190   2.0000      -0.465413       -12.6645
 191   2.0000      -0.441111       -12.0032
 192   2.0000      -0.440831       -11.9956
 193   2.0000      -0.435354       -11.8466
 194   2.0000      -0.410537       -11.1713
 195   2.0000      -0.380219       -10.3463
 196   2.0000      -0.374359       -10.1868
 197   2.0000      -0.373910       -10.1746
 198   2.0000      -0.370390       -10.0788
 199   2.0000      -0.368357       -10.0235
 200   2.0000      -0.360472        -9.8089
 201   2.0000      -0.350670        -9.5422
 202   2.0000      -0.345808        -9.4099
 203   2.0000      -0.315454        -8.5839
 204   2.0000      -0.273149        -7.4328
 205   0.0000      -0.030113        -0.8194
 206   0.0000      -0.006643        -0.1808
 207   0.0000       0.018647         0.5074
 208   0.0000       0.025909         0.7050
 209   0.0000       0.062012         1.6874

MULLIKEN ATOMIC CHARGES
-----------------------
   0 C :   -0.083846
   1 C :    0.014483
   2 C :   -0.002197
   3 C :   -0.072856
   4 C :   -0.000834
   5 C :    0.000888
   6 C :    0.009710
   7 C :   -0.072619
   8 C :   -0.311118
   9 C :    0.006168
  10 C :   -0.055815
  11 C :   -0.310006
  12 S :    0.179000
  13 C :   -0.263757
  14 C :    0.089215
  15 S :    0.183158
  16 C :   -0.264491
  17 C :    0.079912
  18 C :    0.002469
  19 C :    0.035302
  20 C :   -0.028421
  21 C :   -0.023462
  22 C :    0.022070
  23 C :    0.013147
  24 C :   -0.027176
  25 C :   -0.034253
  26 C :    0.153668
  27 C :    0.152170
  28 C :   -0.296843
  29 C :   -0.300647
  30 C :    0.521178
  31 C :   -0.187126
  32 C :   -0.042870
  33 C :    0.246887
  34 C :    0.519697
  35 C :   -0.189188
  36 C :   -0.043545
  37 C :    0.245376
  38 C :    0.012602
  39 C :   -0.013879
  40 C :   -0.015568
  41 C :   -0.017468
  42 C :    0.012378
  43 C :   -0.013882
  44 C :   -0.015692
  45 C :   -0.017144
  46 O :   -0.399274
  47 O :   -0.394193
  48 C :   -0.355293
  49 C :   -0.357658
  50 C :    0.044996
  51 C :    0.046266
  52 C :    0.041084
  53 C :    0.046546
  54 N :   -0.094404
  55 N :   -0.089832
  56 N :   -0.089588
  57 N :   -0.091302
  58 H :    0.043386
  59 H :    0.042572
  60 H :    0.110830
  61 H :    0.121152
  62 H :    0.042630
  63 H :    0.044040
  64 H :    0.042374
  65 H :    0.040265
  66 H :    0.037488
  67 H :    0.045765
  68 H :    0.037049
  69 H :    0.047329
  70 H :    0.042240
  71 H :    0.043839
  72 H :    0.045689
  73 H :    0.041473
  74 H :    0.038973
  75 H :    0.044245
  76 H :    0.036712
  77 H :    0.045981
  78 H :    0.035718
  79 H :    0.044948
  80 H :    0.049628
  81 H :    0.034975
  82 H :    0.089580
  83 H :    0.091128
  84 H :    0.065764
  85 H :    0.063145
  86 H :    0.063692
  87 H :    0.086163
  88 H :    0.065921
  89 H :    0.063263
  90 H :    0.063726
  91 H :    0.086197
Sum of atomic charges:    0.0000000

LOEWDIN ATOMIC CHARGES
----------------------
   0 C :   -0.036308
   1 C :    0.015003
   2 C :   -0.012863
   3 C :   -0.034823
   4 C :    0.011891
   5 C :   -0.012772
   6 C :   -0.131719
   7 C :   -0.063631
   8 C :   -0.029927
   9 C :   -0.128294
  10 C :   -0.064230
  11 C :   -0.029539
  12 S :    0.430851
  13 C :   -0.206439
  14 C :    0.039284
  15 S :    0.429402
  16 C :   -0.209805
  17 C :    0.038325
  18 C :   -0.005430
  19 C :    0.001452
  20 C :   -0.039644
  21 C :   -0.036873
  22 C :   -0.001775
  23 C :   -0.003389
  24 C :   -0.039053
  25 C :   -0.037472
  26 C :    0.106867
  27 C :    0.104643
  28 C :   -0.159015
  29 C :   -0.161037
  30 C :    0.178814
  31 C :   -0.055478
  32 C :   -0.026632
  33 C :    0.127581
  34 C :    0.177464
  35 C :   -0.055497
  36 C :   -0.026729
  37 C :    0.127040
  38 C :    0.017605
  39 C :    0.000804
  40 C :    0.000284
  41 C :    0.008847
  42 C :    0.017488
  43 C :    0.000932
  44 C :    0.000324
  45 C :    0.008818
  46 O :   -0.247193
  47 O :   -0.246174
  48 C :   -0.180722
  49 C :   -0.181667
  50 C :    0.017919
  51 C :    0.019541
  52 C :    0.016555
  53 C :    0.019664
  54 N :   -0.104574
  55 N :   -0.104737
  56 N :   -0.104373
  57 N :   -0.103756
  58 H :    0.031261
  59 H :    0.031580
  60 H :    0.046679
  61 H :    0.044238
  62 H :    0.019464
  63 H :    0.015542
  64 H :    0.018926
  65 H :    0.021039
  66 H :    0.017500
  67 H :    0.024807
  68 H :    0.016454
  69 H :    0.019890
  70 H :    0.022057
  71 H :    0.019849
  72 H :    0.018356
  73 H :    0.022027
  74 H :    0.013723
  75 H :    0.022295
  76 H :    0.016928
  77 H :    0.025090
  78 H :    0.016333
  79 H :    0.024532
  80 H :    0.021988
  81 H :    0.017083
  82 H :    0.045721
  83 H :    0.045499
  84 H :    0.044030
  85 H :    0.036612
  86 H :    0.038273
  87 H :    0.043667
  88 H :    0.044069
  89 H :    0.036661
  90 H :    0.038279
  91 H :    0.043720

  Mayer bond orders larger than 0.100000
B(  0-C ,  1-C ) :   1.3970 B(  0-C ,  5-C ) :   1.3562 B(  0-C ,  9-C ) :   1.1253
B(  1-C ,  2-C ) :   1.4903 B(  1-C , 11-C ) :   0.9467 B(  2-C ,  3-C ) :   1.3624
B(  2-C , 58-H ) :   0.9973 B(  3-C ,  4-C ) :   1.3919 B(  3-C ,  6-C ) :   1.1193
B(  4-C ,  5-C ) :   1.4935 B(  4-C ,  8-C ) :   0.9203 B(  5-C , 59-H ) :   0.9990
B(  6-C ,  7-C ) :   1.5309 B(  6-C , 12-S ) :   1.1428 B(  7-C ,  8-C ) :   0.9459
B(  7-C , 14-C ) :   1.3553 B(  8-C , 18-C ) :   1.0072 B(  8-C , 19-C ) :   0.9933
B(  9-C , 10-C ) :   1.5317 B(  9-C , 15-S ) :   1.1410 B( 10-C , 11-C ) :   0.9475
B( 10-C , 17-C ) :   1.3616 B( 11-C , 22-C ) :   0.9761 B( 11-C , 23-C ) :   0.9927
B( 12-S , 13-C ) :   1.0929 B( 13-C , 14-C ) :   1.4411 B( 13-C , 27-C ) :   1.2434
B( 14-C , 60-H ) :   0.9860 B( 15-S , 16-C ) :   1.0872 B( 16-C , 17-C ) :   1.4406
B( 16-C , 26-C ) :   1.2535 B( 17-C , 61-H ) :   0.9770 B( 18-C , 21-C ) :   1.0381
B( 18-C , 62-H ) :   0.9717 B( 18-C , 63-H ) :   0.9717 B( 19-C , 20-C ) :   1.0450
B( 19-C , 64-H ) :   0.9706 B( 19-C , 65-H ) :   0.9709 B( 20-C , 66-H ) :   0.9818
B( 20-C , 67-H ) :   0.9851 B( 20-C , 68-H ) :   0.9809 B( 21-C , 69-H ) :   0.9797
B( 21-C , 70-H ) :   0.9867 B( 21-C , 71-H ) :   0.9832 B( 22-C , 24-C ) :   1.0442
B( 22-C , 72-H ) :   0.9737 B( 22-C , 73-H ) :   0.9697 B( 23-C , 25-C ) :   1.0418
B( 23-C , 74-H ) :   0.9714 B( 23-C , 75-H ) :   0.9704 B( 24-C , 76-H ) :   0.9809
B( 24-C , 77-H ) :   0.9851 B( 24-C , 78-H ) :   0.9814 B( 25-C , 79-H ) :   0.9852
B( 25-C , 80-H ) :   0.9811 B( 25-C , 81-H ) :   0.9826 B( 26-C , 29-C ) :   1.6480
B( 26-C , 82-H ) :   0.9365 B( 27-C , 28-C ) :   1.6573 B( 27-C , 83-H ) :   0.9375
B( 28-C , 34-C ) :   0.9714 B( 28-C , 37-C ) :   1.1057 B( 29-C , 30-C ) :   0.9731
B( 29-C , 33-C ) :   1.1087 B( 30-C , 31-C ) :   0.9853 B( 30-C , 46-O ) :   1.9949
B( 31-C , 32-C ) :   1.3643 B( 31-C , 38-C ) :   1.4363 B( 32-C , 33-C ) :   1.0324
B( 32-C , 41-C ) :   1.4126 B( 33-C , 49-C ) :   1.6630 B( 34-C , 35-C ) :   0.9825
B( 34-C , 47-O ) :   2.0065 B( 35-C , 36-C ) :   1.3635 B( 35-C , 42-C ) :   1.4367
B( 36-C , 37-C ) :   1.0330 B( 36-C , 45-C ) :   1.4126 B( 37-C , 48-C ) :   1.6662
B( 38-C , 39-C ) :   1.3957 B( 38-C , 84-H ) :   1.0013 B( 39-C , 40-C ) :   1.4035
B( 39-C , 85-H ) :   0.9963 B( 40-C , 41-C ) :   1.4290 B( 40-C , 86-H ) :   0.9929
B( 41-C , 87-H ) :   0.9844 B( 42-C , 43-C ) :   1.3960 B( 42-C , 88-H ) :   1.0011
B( 43-C , 44-C ) :   1.4034 B( 43-C , 89-H ) :   0.9964 B( 44-C , 45-C ) :   1.4290
B( 44-C , 90-H ) :   0.9929 B( 45-C , 91-H ) :   0.9845 B( 48-C , 52-C ) :   1.0568
B( 48-C , 53-C ) :   1.0611 B( 49-C , 50-C ) :   1.0567 B( 49-C , 51-C ) :   1.0625
B( 50-C , 54-N ) :   2.9679 B( 51-C , 55-N ) :   2.9774 B( 52-C , 57-N ) :   2.9743
B( 53-C , 56-N ) :   2.9787

-----------------------------------------------------------------------------
         ABSORPTION SPECTRUM VIA TRANSITION ELECTRIC DIPOLE MOMENTS
-----------------------------------------------------------------------------
State   Energy    Wavelength  fosc         T2        TX        TY        TZ
        (cm-1)      (nm)                 (au**2)    (au)      (au)      (au)
-----------------------------------------------------------------------------
   1   22873.9    437.2   2.853218255  41.06479  -6.08459  -2.00936   0.07079
   2   29038.7    344.4   0.092782826   1.05188  -0.06468   0.06099  -1.02175
   3   36888.4    271.1   0.372127844   3.32107  -0.70435   1.68075   0.00695

FINAL SINGLE POINT ENERGY     -3073.631406728035

DIPOLE MOMENT
-------------
                                X             Y             Z
Electronic contribution:     -2.35874       2.16320       9.36411
Nuclear contribution   :      2.25677      -2.16733     -11.09936
                        -----------------------------------------
Total Dipole Moment    :     -0.10197      -0.00412      -1.73525
                        -----------------------------------------
Magnitude (a.u.)       :      1.73825
Magnitude (Debye)      :      4.41827

Rotational constants in cm-1:     0.003992     0.000404     0.000378
Rotational constants in MHz :   119.676587    12.121101    11.343179

                             ****ORCA TERMINATED NORMALLY****
TOTAL RUN TIME: 0 days 10 hours 0 minutes 36 seconds 756 msec
