                         Program Version 4.2.0 -  RELEASE  -
|  1> # ORCA input file
|  2> # IDIC.out
|  3> ! Engrad Keepdens
|  4> %maxcore 1000
|  5> %tddft
|  6>   nroots 3
|  7>   # nroots is the number of states to be computed
|  8>   Iroot 1
|  9>   end
| 10> * xyz 0 1
| 11>    C        2.88652         1.02659        -0.08700
| 12>    C        2.83118        -0.38114        -0.23083
| 13>    C        1.61277        -1.02068        -0.21882
| 14>    C        0.46945        -0.22943        -0.12969
| 15>    C        0.52501         1.18369        -0.03973
| 16>    C        1.74388         1.81817         0.01433
| 17>    C       -0.90866        -0.59764        -0.07326
| 18>    C       -1.71299         0.53344         0.04841
| 19>    C       -0.86804         1.78008         0.02930
| 20>    C        4.26573         1.38863        -0.05776
| 21>    C        5.07584         0.26095        -0.18322
| 22>    C        4.22668        -0.97767        -0.32318
| 23>    S       -1.81135        -2.04477        -0.10141
| 24>    C       -3.31494        -1.12372         0.04327
| 25>    C       -3.06386         0.24412         0.11096
| 26>    S        5.15732         2.83704         0.06519
| 27>    C        6.66755         1.92889        -0.06935
| 28>    C        6.42600         0.56437        -0.20584
| 29>    C       -1.07359         2.63495         1.28901
| 30>    C       -1.23448         2.55801        -1.25702
| 31>    C       -0.38346         3.78448        -1.55617
| 32>    C       -0.85488         1.84330         2.57332
| 33>    C        4.51144        -1.58692        -1.71319
| 34>    C        4.43366        -1.96230         0.84451
| 35>    C        3.70239        -2.82597        -2.07238
| 36>    C        5.80714        -2.61813         0.89981
| 37>    C        7.84450         2.69675        -0.04753
| 38>    C       -4.49522        -1.88667         0.06658
| 39>    C       -5.81797        -1.53133         0.12786
| 40>    C        9.16969         2.34844        -0.09703
| 41>    C        9.77421         0.99716        -0.09216
| 42>    C       11.23315         1.21074        -0.04539
| 43>    C       11.51369         2.58655        -0.04546
| 44>    C       10.25128         3.32172        -0.10333
| 45>    C       -6.41477        -0.17656         0.15125
| 46>    C       -7.87553        -0.38114         0.13369
| 47>    C       -8.16442        -1.75501         0.12284
| 48>    C       -6.90542        -2.49851         0.13882
| 49>    C       12.23602         0.26187        -0.00458
| 50>    C       13.55147         0.70058         0.03816
| 51>    C       13.83844         2.05806         0.04168
| 52>    C       12.83195         3.01402         0.00018
| 53>    C       -8.87259         0.57466         0.12623
| 54>    C      -10.19148         0.14498         0.10614
| 55>    C      -10.48713        -1.21065         0.09319
| 56>    C       -9.48631        -2.17340         0.10152
| 57>    O        9.22436        -0.08656        -0.11004
| 58>    O       -5.85965         0.90410         0.17539
| 59>    C       -6.81175        -3.86555         0.17815
| 60>    C       10.14898         4.68602        -0.18855
| 61>    C        8.96121         5.44015        -0.30184
| 62>    C       11.25408         5.56468        -0.19620
| 63>    C       -5.62882        -4.63393         0.22841
| 64>    C       -7.92326        -4.73621         0.18701
| 65>    N        8.05874         6.14357        -0.40815
| 66>    N       12.09718         6.34392        -0.20563
| 67>    N       -8.77025        -5.51116         0.19419
| 68>    N       -4.73134        -5.34981         0.27798
| 69>    H        1.51920        -2.09430        -0.26153
| 70>    H        1.83750         2.88468         0.14608
| 71>    H       -3.85495         0.96452         0.20418
| 72>    H        7.22959        -0.13852        -0.32027
| 73>    H       -2.09011         3.03236         1.27554
| 74>    H       -0.37878         3.47488         1.26659
| 75>    H       -2.28042         2.85886        -1.16749
| 76>    H       -1.16075         1.86619        -2.10041
| 77>    H       -0.41704         4.50100        -0.74021
| 78>    H       -0.76600         4.27462        -2.44868
| 79>    H        0.65020         3.50661        -1.74275
| 80>    H       -1.56771         1.02546         2.65019
| 81>    H       -0.98463         2.49102         3.43687
| 82>    H        0.15022         1.42736         2.60328
| 83>    H        5.57537        -1.82366        -1.75892
| 84>    H        4.31806        -0.81123        -2.45937
| 85>    H        3.66633        -2.73539         0.78279
| 86>    H        4.26415        -1.41059         1.77335
| 87>    H        3.83323        -3.61422        -1.33632
| 88>    H        4.03817        -3.20541        -3.03508
| 89>    H        2.64481        -2.59221        -2.15603
| 90>    H        5.85552        -3.27662         1.76444
| 91>    H        6.59380        -1.87597         0.99731
| 92>    H        5.99790        -3.21458         0.01217
| 93>    H        7.64416         3.75932         0.02440
| 94>    H       -4.30031        -2.95133         0.01483
| 95>    H       11.98680        -0.78820        -0.00659
| 96>    H       14.35774        -0.01668         0.06972
| 97>    H       14.86728         2.38362         0.07722
| 98>    H       13.08856         4.06028         0.00623
| 99>    H       -8.61608         1.62287         0.13628
|100>    H      -10.99353         0.86762         0.10027
|101>    H      -11.51859        -1.52928         0.07606
|102>    H       -9.75026        -3.21772         0.08928
|103> *
|104>
|105>                          ****END OF INPUT****

CARTESIAN COORDINATES (ANGSTROEM)
---------------------------------
  C      2.886520    1.026590   -0.087000
  C      2.831180   -0.381140   -0.230830
  C      1.612770   -1.020680   -0.218820
  C      0.469450   -0.229430   -0.129690
  C      0.525010    1.183690   -0.039730
  C      1.743880    1.818170    0.014330
  C     -0.908660   -0.597640   -0.073260
  C     -1.712990    0.533440    0.048410
  C     -0.868040    1.780080    0.029300
  C      4.265730    1.388630   -0.057760
  C      5.075840    0.260950   -0.183220
  C      4.226680   -0.977670   -0.323180
  S     -1.811350   -2.044770   -0.101410
  C     -3.314940   -1.123720    0.043270
  C     -3.063860    0.244120    0.110960
  S      5.157320    2.837040    0.065190
  C      6.667550    1.928890   -0.069350
  C      6.426000    0.564370   -0.205840
  C     -1.073590    2.634950    1.289010
  C     -1.234480    2.558010   -1.257020
  C     -0.383460    3.784480   -1.556170
  C     -0.854880    1.843300    2.573320
  C      4.511440   -1.586920   -1.713190
  C      4.433660   -1.962300    0.844510
  C      3.702390   -2.825970   -2.072380
  C      5.807140   -2.618130    0.899810
  C      7.844500    2.696750   -0.047530
  C     -4.495220   -1.886670    0.066580
  C     -5.817970   -1.531330    0.127860
  C      9.169690    2.348440   -0.097030
  C      9.774210    0.997160   -0.092160
  C     11.233150    1.210740   -0.045390
  C     11.513690    2.586550   -0.045460
  C     10.251280    3.321720   -0.103330
  C     -6.414770   -0.176560    0.151250
  C     -7.875530   -0.381140    0.133690
  C     -8.164420   -1.755010    0.122840
  C     -6.905420   -2.498510    0.138820
  C     12.236020    0.261870   -0.004580
  C     13.551470    0.700580    0.038160
  C     13.838440    2.058060    0.041680
  C     12.831950    3.014020    0.000180
  C     -8.872590    0.574660    0.126230
  C    -10.191480    0.144980    0.106140
  C    -10.487130   -1.210650    0.093190
  C     -9.486310   -2.173400    0.101520
  O      9.224360   -0.086560   -0.110040
  O     -5.859650    0.904100    0.175390
  C     -6.811750   -3.865550    0.178150
  C     10.148980    4.686020   -0.188550
  C      8.961210    5.440150   -0.301840
  C     11.254080    5.564680   -0.196200
  C     -5.628820   -4.633930    0.228410
  C     -7.923260   -4.736210    0.187010
  N      8.058740    6.143570   -0.408150
  N     12.097180    6.343920   -0.205630
  N     -8.770250   -5.511160    0.194190
  N     -4.731340   -5.349810    0.277980
  H      1.519200   -2.094300   -0.261530
  H      1.837500    2.884680    0.146080
  H     -3.854950    0.964520    0.204180
  H      7.229590   -0.138520   -0.320270
  H     -2.090110    3.032360    1.275540
  H     -0.378780    3.474880    1.266590
  H     -2.280420    2.858860   -1.167490
  H     -1.160750    1.866190   -2.100410
  H     -0.417040    4.501000   -0.740210
  H     -0.766000    4.274620   -2.448680
  H      0.650200    3.506610   -1.742750
  H     -1.567710    1.025460    2.650190
  H     -0.984630    2.491020    3.436870
  H      0.150220    1.427360    2.603280
  H      5.575370   -1.823660   -1.758920
  H      4.318060   -0.811230   -2.459370
  H      3.666330   -2.735390    0.782790
  H      4.264150   -1.410590    1.773350
  H      3.833230   -3.614220   -1.336320
  H      4.038170   -3.205410   -3.035080
  H      2.644810   -2.592210   -2.156030
  H      5.855520   -3.276620    1.764440
  H      6.593800   -1.875970    0.997310
  H      5.997900   -3.214580    0.012170
  H      7.644160    3.759320    0.024400
  H     -4.300310   -2.951330    0.014830
  H     11.986800   -0.788200   -0.006590
  H     14.357740   -0.016680    0.069720
  H     14.867280    2.383620    0.077220
  H     13.088560    4.060280    0.006230
  H     -8.616080    1.622870    0.136280
  H    -10.993530    0.867620    0.100270
  H    -11.518590   -1.529280    0.076060
  H     -9.750260   -3.217720    0.089280

 Total Charge           Charge          ....    0
 Multiplicity           Mult            ....    1
 Number of Electrons    NEL             ....  410
 Basis Dimension        Dim             ....  990

ORBITAL ENERGIES
----------------

  NO   OCC          E(Eh)            E(eV)
   0   2.0000     -91.980843     -2502.9260
   1   2.0000     -91.980729     -2502.9229
   2   2.0000     -20.564525      -559.5892
   3   2.0000     -20.564298      -559.5830
   4   2.0000     -15.586964      -424.1429
   5   2.0000     -15.586763      -424.1374
   6   2.0000     -15.580884      -423.9774
   7   2.0000     -15.580882      -423.9774
   8   2.0000     -11.362015      -309.1761
   9   2.0000     -11.361731      -309.1684
  10   2.0000     -11.334757      -308.4344
  11   2.0000     -11.334572      -308.4294
  12   2.0000     -11.316694      -307.9429
  13   2.0000     -11.316556      -307.9391
  14   2.0000     -11.312410      -307.8263
  15   2.0000     -11.312312      -307.8237
  16   2.0000     -11.302803      -307.5649
  17   2.0000     -11.301719      -307.5354
  18   2.0000     -11.298105      -307.4371
  19   2.0000     -11.297926      -307.4322
  20   2.0000     -11.294337      -307.3345
  21   2.0000     -11.293689      -307.3169
  22   2.0000     -11.292999      -307.2981
  23   2.0000     -11.292988      -307.2978
  24   2.0000     -11.285050      -307.0818
  25   2.0000     -11.285011      -307.0808
  26   2.0000     -11.278071      -306.8919
  27   2.0000     -11.277924      -306.8879
  28   2.0000     -11.275964      -306.8346
  29   2.0000     -11.275220      -306.8143
  30   2.0000     -11.274705      -306.8003
  31   2.0000     -11.274590      -306.7972
  32   2.0000     -11.274102      -306.7839
  33   2.0000     -11.274035      -306.7821
  34   2.0000     -11.273431      -306.7657
  35   2.0000     -11.273358      -306.7637
  36   2.0000     -11.272099      -306.7294
  37   2.0000     -11.272015      -306.7271
  38   2.0000     -11.271904      -306.7241
  39   2.0000     -11.271528      -306.7139
  40   2.0000     -11.271522      -306.7137
  41   2.0000     -11.271192      -306.7047
  42   2.0000     -11.270612      -306.6890
  43   2.0000     -11.270481      -306.6854
  44   2.0000     -11.270326      -306.6812
  45   2.0000     -11.270062      -306.6740
  46   2.0000     -11.269921      -306.6701
  47   2.0000     -11.268792      -306.6394
  48   2.0000     -11.259162      -306.3774
  49   2.0000     -11.257882      -306.3425
  50   2.0000     -11.246972      -306.0457
  51   2.0000     -11.246348      -306.0287
  52   2.0000     -11.246331      -306.0282
  53   2.0000     -11.245885      -306.0161
  54   2.0000     -11.234084      -305.6950
  55   2.0000     -11.232208      -305.6439
  56   2.0000     -11.230987      -305.6107
  57   2.0000     -11.227935      -305.5276
  58   2.0000      -9.016292      -245.3458
  59   2.0000      -9.016083      -245.3401
  60   2.0000      -6.703733      -182.4178
  61   2.0000      -6.703523      -182.4121
  62   2.0000      -6.702704      -182.3899
  63   2.0000      -6.702499      -182.3843
  64   2.0000      -6.700927      -182.3415
  65   2.0000      -6.700722      -182.3359
  66   2.0000      -1.395954       -37.9858
  67   2.0000      -1.395854       -37.9831
  68   2.0000      -1.246063       -33.9071
  69   2.0000      -1.245632       -33.8954
  70   2.0000      -1.243684       -33.8424
  71   2.0000      -1.230264       -33.4772
  72   2.0000      -1.221671       -33.2434
  73   2.0000      -1.221525       -33.2394
  74   2.0000      -1.217354       -33.1259
  75   2.0000      -1.217061       -33.1179
  76   2.0000      -1.183860       -32.2145
  77   2.0000      -1.163818       -31.6691
  78   2.0000      -1.155609       -31.4457
  79   2.0000      -1.147868       -31.2351
  80   2.0000      -1.116208       -30.3736
  81   2.0000      -1.103101       -30.0169
  82   2.0000      -1.096759       -29.8443
  83   2.0000      -1.089944       -29.6589
  84   2.0000      -1.081155       -29.4197
  85   2.0000      -1.063932       -28.9511
  86   2.0000      -1.049415       -28.5560
  87   2.0000      -1.049065       -28.5465
  88   2.0000      -1.038456       -28.2578
  89   2.0000      -1.029447       -28.0127
  90   2.0000      -1.026783       -27.9402
  91   2.0000      -1.024757       -27.8851
  92   2.0000      -1.019325       -27.7373
  93   2.0000      -1.017504       -27.6877
  94   2.0000      -0.985500       -26.8168
  95   2.0000      -0.969005       -26.3680
  96   2.0000      -0.940971       -25.6051
  97   2.0000      -0.933803       -25.4101
  98   2.0000      -0.929933       -25.3048
  99   2.0000      -0.929229       -25.2856
 100   2.0000      -0.914834       -24.8939
 101   2.0000      -0.883014       -24.0280
 102   2.0000      -0.866282       -23.5727
 103   2.0000      -0.856892       -23.3172
 104   2.0000      -0.853681       -23.2298
 105   2.0000      -0.848437       -23.0871
 106   2.0000      -0.837930       -22.8012
 107   2.0000      -0.837358       -22.7857
 108   2.0000      -0.833916       -22.6920
 109   2.0000      -0.818784       -22.2803
 110   2.0000      -0.811287       -22.0762
 111   2.0000      -0.800473       -21.7820
 112   2.0000      -0.782848       -21.3024
 113   2.0000      -0.778319       -21.1791
 114   2.0000      -0.776845       -21.1390
 115   2.0000      -0.764074       -20.7915
 116   2.0000      -0.758632       -20.6434
 117   2.0000      -0.742097       -20.1935
 118   2.0000      -0.740054       -20.1379
 119   2.0000      -0.734691       -19.9920
 120   2.0000      -0.734158       -19.9775
 121   2.0000      -0.718077       -19.5399
 122   2.0000      -0.696822       -18.9615
 123   2.0000      -0.692033       -18.8312
 124   2.0000      -0.690737       -18.7959
 125   2.0000      -0.684682       -18.6311
 126   2.0000      -0.671137       -18.2626
 127   2.0000      -0.668843       -18.2001
 128   2.0000      -0.662945       -18.0396
 129   2.0000      -0.658081       -17.9073
 130   2.0000      -0.655326       -17.8323
 131   2.0000      -0.650558       -17.7026
 132   2.0000      -0.648990       -17.6599
 133   2.0000      -0.645742       -17.5715
 134   2.0000      -0.642229       -17.4760
 135   2.0000      -0.639496       -17.4016
 136   2.0000      -0.638129       -17.3644
 137   2.0000      -0.637925       -17.3588
 138   2.0000      -0.629200       -17.1214
 139   2.0000      -0.624887       -17.0040
 140   2.0000      -0.621486       -16.9115
 141   2.0000      -0.618168       -16.8212
 142   2.0000      -0.617325       -16.7983
 143   2.0000      -0.615570       -16.7505
 144   2.0000      -0.607456       -16.5297
 145   2.0000      -0.600200       -16.3323
 146   2.0000      -0.598135       -16.2761
 147   2.0000      -0.591704       -16.1011
 148   2.0000      -0.586630       -15.9630
 149   2.0000      -0.581366       -15.8198
 150   2.0000      -0.578475       -15.7411
 151   2.0000      -0.572456       -15.5773
 152   2.0000      -0.572307       -15.5733
 153   2.0000      -0.571620       -15.5546
 154   2.0000      -0.571094       -15.5403
 155   2.0000      -0.566875       -15.4254
 156   2.0000      -0.565756       -15.3950
 157   2.0000      -0.565423       -15.3859
 158   2.0000      -0.562240       -15.2993
 159   2.0000      -0.557513       -15.1707
 160   2.0000      -0.556695       -15.1485
 161   2.0000      -0.553666       -15.0660
 162   2.0000      -0.553018       -15.0484
 163   2.0000      -0.540822       -14.7165
 164   2.0000      -0.540049       -14.6955
 165   2.0000      -0.539447       -14.6791
 166   2.0000      -0.538900       -14.6642
 167   2.0000      -0.535220       -14.5641
 168   2.0000      -0.531675       -14.4676
 169   2.0000      -0.529457       -14.4072
 170   2.0000      -0.528093       -14.3701
 171   2.0000      -0.526698       -14.3322
 172   2.0000      -0.524559       -14.2740
 173   2.0000      -0.519100       -14.1254
 174   2.0000      -0.514060       -13.9883
 175   2.0000      -0.507038       -13.7972
 176   2.0000      -0.506264       -13.7761
 177   2.0000      -0.495050       -13.4710
 178   2.0000      -0.494529       -13.4568
 179   2.0000      -0.493009       -13.4155
 180   2.0000      -0.492762       -13.4087
 181   2.0000      -0.492093       -13.3905
 182   2.0000      -0.488524       -13.2934
 183   2.0000      -0.478261       -13.0142
 184   2.0000      -0.475166       -12.9299
 185   2.0000      -0.474908       -12.9229
 186   2.0000      -0.472638       -12.8611
 187   2.0000      -0.471787       -12.8380
 188   2.0000      -0.469085       -12.7645
 189   2.0000      -0.468778       -12.7561
 190   2.0000      -0.467009       -12.7080
 191   2.0000      -0.441342       -12.0095
 192   2.0000      -0.440968       -11.9993
 193   2.0000      -0.439519       -11.9599
 194   2.0000      -0.413079       -11.2405
 195   2.0000      -0.382568       -10.4102
 196   2.0000      -0.376771       -10.2525
 197   2.0000      -0.376128       -10.2350
 198   2.0000      -0.372209       -10.1283
 199   2.0000      -0.370284       -10.0759
 200   2.0000      -0.362073        -9.8525
 201   2.0000      -0.351177        -9.5560
 202   2.0000      -0.345632        -9.4051
 203   2.0000      -0.315152        -8.5757
 204   2.0000      -0.272220        -7.4075
 205   0.0000      -0.030174        -0.8211
 206   0.0000      -0.005275        -0.1435
 207   0.0000       0.019611         0.5336
 208   0.0000       0.026626         0.7245
 209   0.0000       0.064061         1.7432

MULLIKEN ATOMIC CHARGES
-----------------------
   0 C :   -0.082355
   1 C :    0.020879
   2 C :   -0.006985
   3 C :   -0.075427
   4 C :    0.005125
   5 C :   -0.007866
   6 C :    0.016862
   7 C :   -0.069497
   8 C :   -0.329118
   9 C :    0.010729
  10 C :   -0.049741
  11 C :   -0.315512
  12 S :    0.183591
  13 C :   -0.245621
  14 C :    0.083699
  15 S :    0.185486
  16 C :   -0.247955
  17 C :    0.074629
  18 C :    0.026900
  19 C :    0.039541
  20 C :   -0.007476
  21 C :   -0.012885
  22 C :    0.020751
  23 C :    0.022828
  24 C :   -0.005284
  25 C :   -0.010168
  26 C :    0.145283
  27 C :    0.143586
  28 C :   -0.296496
  29 C :   -0.297254
  30 C :    0.520297
  31 C :   -0.180648
  32 C :   -0.043315
  33 C :    0.264860
  34 C :    0.520796
  35 C :   -0.180286
  36 C :   -0.043224
  37 C :    0.265996
  38 C :    0.015568
  39 C :   -0.005995
  40 C :   -0.001687
  41 C :   -0.016295
  42 C :    0.015545
  43 C :   -0.005717
  44 C :   -0.001758
  45 C :   -0.016417
  46 O :   -0.392950
  47 O :   -0.391022
  48 C :   -0.387093
  49 C :   -0.386020
  50 C :    0.032021
  51 C :    0.035578
  52 C :    0.033894
  53 C :    0.035421
  54 N :   -0.072395
  55 N :   -0.074926
  56 N :   -0.074719
  57 N :   -0.073386
  58 H :    0.033821
  59 H :    0.032867
  60 H :    0.100425
  61 H :    0.108949
  62 H :    0.039495
  63 H :    0.039220
  64 H :    0.039082
  65 H :    0.037766
  66 H :    0.027852
  67 H :    0.041419
  68 H :    0.038256
  69 H :    0.044142
  70 H :    0.036889
  71 H :    0.040473
  72 H :    0.042605
  73 H :    0.039280
  74 H :    0.034227
  75 H :    0.039053
  76 H :    0.027888
  77 H :    0.041900
  78 H :    0.035939
  79 H :    0.039987
  80 H :    0.044344
  81 H :    0.030495
  82 H :    0.083795
  83 H :    0.083338
  84 H :    0.055364
  85 H :    0.054396
  86 H :    0.054710
  87 H :    0.077640
  88 H :    0.055276
  89 H :    0.054399
  90 H :    0.054656
  91 H :    0.077682
Sum of atomic charges:    0.0000000

LOEWDIN ATOMIC CHARGES
----------------------
   0 C :   -0.036668
   1 C :    0.015088
   2 C :   -0.008920
   3 C :   -0.034988
   4 C :    0.012394
   5 C :   -0.008986
   6 C :   -0.132362
   7 C :   -0.060521
   8 C :   -0.035889
   9 C :   -0.129656
  10 C :   -0.061080
  11 C :   -0.033773
  12 S :    0.434801
  13 C :   -0.206851
  14 C :    0.039385
  15 S :    0.435574
  16 C :   -0.209105
  17 C :    0.038438
  18 C :    0.001047
  19 C :    0.006369
  20 C :   -0.034208
  21 C :   -0.031783
  22 C :    0.002339
  23 C :    0.001029
  24 C :   -0.033513
  25 C :   -0.031425
  26 C :    0.105983
  27 C :    0.105223
  28 C :   -0.157277
  29 C :   -0.158327
  30 C :    0.172819
  31 C :   -0.053756
  32 C :   -0.026297
  33 C :    0.122844
  34 C :    0.172435
  35 C :   -0.053579
  36 C :   -0.026482
  37 C :    0.122939
  38 C :    0.021057
  39 C :    0.002678
  40 C :    0.003994
  41 C :    0.011403
  42 C :    0.020971
  43 C :    0.002863
  44 C :    0.003869
  45 C :    0.011440
  46 O :   -0.241827
  47 O :   -0.240353
  48 C :   -0.181371
  49 C :   -0.181517
  50 C :    0.010037
  51 C :    0.015580
  52 C :    0.010297
  53 C :    0.015600
  54 N :   -0.097787
  55 N :   -0.100528
  56 N :   -0.100430
  57 N :   -0.097606
  58 H :    0.028925
  59 H :    0.029333
  60 H :    0.041737
  61 H :    0.039772
  62 H :    0.018378
  63 H :    0.013378
  64 H :    0.017359
  65 H :    0.019703
  66 H :    0.014133
  67 H :    0.022712
  68 H :    0.015829
  69 H :    0.018209
  70 H :    0.019007
  71 H :    0.017545
  72 H :    0.016458
  73 H :    0.021167
  74 H :    0.011695
  75 H :    0.020977
  76 H :    0.014073
  77 H :    0.023226
  78 H :    0.015719
  79 H :    0.022459
  80 H :    0.020892
  81 H :    0.014902
  82 H :    0.044258
  83 H :    0.044125
  84 H :    0.040513
  85 H :    0.033876
  86 H :    0.035469
  87 H :    0.041370
  88 H :    0.040488
  89 H :    0.033882
  90 H :    0.035449
  91 H :    0.041349

  Mayer bond orders larger than 0.100000
B(  0-C ,  1-C ) :   1.3969 B(  0-C ,  5-C ) :   1.3482 B(  0-C ,  9-C ) :   1.1337
B(  1-C ,  2-C ) :   1.4877 B(  1-C , 11-C ) :   0.9463 B(  2-C ,  3-C ) :   1.3577
B(  2-C , 58-H ) :   1.0028 B(  3-C ,  4-C ) :   1.3912 B(  3-C ,  6-C ) :   1.1299
B(  4-C ,  5-C ) :   1.4921 B(  4-C ,  8-C ) :   0.9177 B(  5-C , 59-H ) :   1.0066
B(  6-C ,  7-C ) :   1.5269 B(  6-C , 12-S ) :   1.1346 B(  7-C ,  8-C ) :   0.9433
B(  7-C , 14-C ) :   1.3662 B(  8-C , 18-C ) :   1.0168 B(  8-C , 19-C ) :   0.9988
B(  9-C , 10-C ) :   1.5287 B(  9-C , 15-S ) :   1.1370 B( 10-C , 11-C ) :   0.9485
B( 10-C , 17-C ) :   1.3718 B( 11-C , 22-C ) :   0.9819 B( 11-C , 23-C ) :   0.9917
B( 12-S , 13-C ) :   1.0881 B( 13-C , 14-C ) :   1.4363 B( 13-C , 27-C ) :   1.2557
B( 14-C , 60-H ) :   0.9912 B( 15-S , 16-C ) :   1.0858 B( 16-C , 17-C ) :   1.4383
B( 16-C , 26-C ) :   1.2562 B( 17-C , 61-H ) :   0.9847 B( 18-C , 21-C ) :   1.0391
B( 18-C , 62-H ) :   0.9724 B( 18-C , 63-H ) :   0.9723 B( 19-C , 20-C ) :   1.0510
B( 19-C , 64-H ) :   0.9696 B( 19-C , 65-H ) :   0.9707 B( 20-C , 66-H ) :   0.9826
B( 20-C , 67-H ) :   0.9847 B( 20-C , 68-H ) :   0.9796 B( 21-C , 69-H ) :   0.9809
B( 21-C , 70-H ) :   0.9871 B( 21-C , 71-H ) :   0.9825 B( 22-C , 24-C ) :   1.0491
B( 22-C , 72-H ) :   0.9733 B( 22-C , 73-H ) :   0.9691 B( 23-C , 25-C ) :   1.0459
B( 23-C , 74-H ) :   0.9718 B( 23-C , 75-H ) :   0.9699 B( 24-C , 76-H ) :   0.9819
B( 24-C , 77-H ) :   0.9850 B( 24-C , 78-H ) :   0.9800 B( 25-C , 79-H ) :   0.9851
B( 25-C , 80-H ) :   0.9830 B( 25-C , 81-H ) :   0.9805 B( 26-C , 29-C ) :   1.6492
B( 26-C , 82-H ) :   0.9373 B( 27-C , 28-C ) :   1.6517 B( 27-C , 83-H ) :   0.9365
B( 28-C , 34-C ) :   0.9673 B( 28-C , 37-C ) :   1.1097 B( 29-C , 30-C ) :   0.9694
B( 29-C , 33-C ) :   1.1101 B( 30-C , 31-C ) :   0.9854 B( 30-C , 46-O ) :   2.0069
B( 31-C , 32-C ) :   1.3562 B( 31-C , 38-C ) :   1.4394 B( 32-C , 33-C ) :   1.0322
B( 32-C , 41-C ) :   1.4188 B( 33-C , 49-C ) :   1.6596 B( 34-C , 35-C ) :   0.9857
B( 34-C , 47-O ) :   2.0081 B( 35-C , 36-C ) :   1.3567 B( 35-C , 42-C ) :   1.4393
B( 36-C , 37-C ) :   1.0324 B( 36-C , 45-C ) :   1.4180 B( 37-C , 48-C ) :   1.6592
B( 38-C , 39-C ) :   1.3907 B( 38-C , 84-H ) :   1.0074 B( 39-C , 40-C ) :   1.4068
B( 39-C , 85-H ) :   1.0001 B( 40-C , 41-C ) :   1.4204 B( 40-C , 86-H ) :   0.9963
B( 41-C , 87-H ) :   0.9879 B( 42-C , 43-C ) :   1.3910 B( 42-C , 88-H ) :   1.0074
B( 43-C , 44-C ) :   1.4064 B( 43-C , 89-H ) :   1.0001 B( 44-C , 45-C ) :   1.4211
B( 44-C , 90-H ) :   0.9963 B( 45-C , 91-H ) :   0.9879 B( 48-C , 52-C ) :   1.0668
B( 48-C , 53-C ) :   1.0704 B( 49-C , 50-C ) :   1.0667 B( 49-C , 51-C ) :   1.0700
B( 50-C , 54-N ) :   2.9745 B( 51-C , 55-N ) :   2.9810 B( 52-C , 57-N ) :   2.9710
B( 53-C , 56-N ) :   2.9806

-----------------------------------------------------------------------------
         ABSORPTION SPECTRUM VIA TRANSITION ELECTRIC DIPOLE MOMENTS
-----------------------------------------------------------------------------
State   Energy    Wavelength  fosc         T2        TX        TY        TZ
        (cm-1)      (nm)                 (au**2)    (au)      (au)      (au)
-----------------------------------------------------------------------------
   1   22772.8    439.1   2.945080088  42.57519  -6.18916  -2.06296   0.11699
   2   29146.0    343.1   0.000389107   0.00440  -0.01292  -0.02689  -0.05920
   3   37027.9    270.1   0.403025871   3.58327  -0.70467   1.75495  -0.08274

FINAL SINGLE POINT ENERGY     -3073.635365342524

DIPOLE MOMENT
-------------
                                X             Y             Z
Electronic contribution:     -3.22153       3.00135       0.89988
Nuclear contribution   :      3.29363      -3.01574      -0.93156
                        -----------------------------------------
Total Dipole Moment    :      0.07210      -0.01439      -0.03167
                        -----------------------------------------
Magnitude (a.u.)       :      0.08005
Magnitude (Debye)      :      0.20347

Rotational constants in cm-1:     0.004325     0.000407     0.000378
Rotational constants in MHz :   129.662213    12.212809    11.329853

                             ****ORCA TERMINATED NORMALLY****
TOTAL RUN TIME: 0 days 10 hours 48 minutes 58 seconds 324 msec
