                         Program Version 4.2.0 -  RELEASE  -
|  1> # ORCA input file
|  2> # IDST-4F.out
|  3> ! Engrad Keepdens
|  4> %maxcore 1000
|  5> %tddft
|  6>   nroots 3
|  7>   # nroots is the number of states to be computed
|  8>   Iroot 1
|  9>   end
| 10> * xyz 0 1
| 11>    C       -1.53426        -1.06870         0.24803
| 12>    C       -2.17270        -0.04059        -0.43094
| 13>    C       -1.78757         1.20961         0.03395
| 14>    C       -2.13897         2.64044        -0.27657
| 15>    C       -1.22453         3.37610         0.68495
| 16>    C       -0.50983         2.46455         1.50247
| 17>    C       -0.87260         1.15236         1.07521
| 18>    S       -0.44544        -0.45764         1.48334
| 19>    C        0.37443         2.88383         2.49455
| 20>    C        0.56779         4.23767         2.64425
| 21>    C        1.44180         4.97604         3.64140
| 22>    C        1.10379         6.40704         3.31586
| 23>    C        0.21156         6.45881         2.25055
| 24>    C       -0.13571         5.14712         1.81606
| 25>    C       -1.02365         4.72831         0.82623
| 26>    S       -0.22589         8.05657         1.82904
| 27>    C        0.80539         8.68615         3.10857
| 28>    C        1.46653         7.66015         3.77801
| 29>    C       -1.85320         3.00109        -1.74203
| 30>    C       -0.42173         2.67667        -2.15385
| 31>    C       -3.63295         2.82792         0.08043
| 32>    C       -4.16566         4.25144        -0.00729
| 33>    C        1.06627         4.62824         5.09161
| 34>    C       -0.38911         4.95025         5.41343
| 35>    C        2.95251         4.78120         3.37399
| 36>    C        3.46721         3.35131         3.46601
| 37>    C        0.97279        10.06493         3.33845
| 38>    C        0.16428        11.10189         2.96802
| 39>    C       -1.21913        11.14258         2.55435
| 40>    C       -1.42853        12.42062         1.87442
| 41>    C       -0.29591        13.22881         2.07873
| 42>    C        0.72108        12.47038         2.84715
| 43>    C       -2.50800        12.90205         1.15280
| 44>    C       -2.42698        14.19156         0.64823
| 45>    C       -1.30505        14.99250         0.86388
| 46>    C       -0.22195        14.51649         1.58599
| 47>    O        1.79219        12.86431         3.24600
| 48>    C       -2.21452        10.29849         2.97481
| 49>    C       -3.56793        10.43475         2.60876
| 50>    C       -1.99762         9.25281         3.89632
| 51>    F       -3.45030        14.67421        -0.06576
| 52>    F       -1.27353        16.23404         0.36413
| 53>    N       -4.67749        10.49118         2.32068
| 54>    N       -1.86471         8.42820         4.68399
| 55>    C       -0.82129        -6.25553         0.33974
| 56>    C        0.38343        -6.69805         0.80403
| 57>    C        1.67713        -6.05997         0.89252
| 58>    C        2.46114        -6.81084         1.87240
| 59>    C        1.77615        -8.00036         2.17933
| 60>    C        0.48064        -8.02587         1.45886
| 61>    C        3.69018        -6.54362         2.45176
| 62>    C        4.20929        -7.48167         3.33189
| 63>    C        3.53080        -8.66577         3.62294
| 64>    C        2.30043        -8.93880         3.04614
| 65>    O       -0.34266        -8.91089         1.44571
| 66>    C        2.18191        -5.13298         0.01854
| 67>    C        3.48390        -4.60125         0.10081
| 68>    C        1.47655        -4.69260        -1.12137
| 69>    F        5.38785        -7.24028         3.91651
| 70>    F        4.07358        -9.54654         4.47231
| 71>    N        4.52731        -4.12483         0.14057
| 72>    N        0.95394        -4.36329        -2.08869
| 73>    C       -1.64503        -2.46448         0.05170
| 74>    S       -0.47979        -3.52626         0.77842
| 75>    C       -1.24724        -4.93439         0.09371
| 76>    C       -2.36854        -4.56687        -0.62935
| 77>    C       -2.59285        -3.19093        -0.67688
| 78>    S       -3.93277        -2.42393        -1.50507
| 79>    C       -5.04163        -3.83431        -1.86795
| 80>    C       -6.37944        -3.29461        -2.35006
| 81>    C       -7.34201        -4.43255        -2.66669
| 82>    H       -2.85351        -0.21181        -1.24243
| 83>    H        0.86805         2.15504         3.11761
| 84>    H       -1.52150         5.45690         0.20594
| 85>    H        2.14130         7.85495         4.59200
| 86>    H       -2.03189         4.06696        -1.88631
| 87>    H       -2.54878         2.45012        -2.37797
| 88>    H        0.28901         3.21308        -1.52865
| 89>    H       -0.25666         2.96651        -3.18862
| 90>    H       -0.22396         1.61125        -2.06202
| 91>    H       -3.78294         2.46018         1.09879
| 92>    H       -4.20897         2.18637        -0.59021
| 93>    H       -3.68546         4.89407         0.72518
| 94>    H       -5.23305         4.24610         0.20140
| 95>    H       -4.02019         4.67092        -0.99891
| 96>    H        1.72042         5.18792         5.76316
| 97>    H        1.24140         3.56450         5.25663
| 98>    H       -0.59565         6.01066         5.29066
| 99>    H       -0.60936         4.67765         6.44259
|100>    H       -1.05881         4.39382         4.76099
|101>    H        3.49191         5.40212         4.09272
|102>    H        3.17037         5.16755         2.37479
|103>    H        3.24088         2.90844         4.43177
|104>    H        4.54777         3.35238         3.34216
|105>    H        3.04120         2.73219         2.68191
|106>    H        1.90955        10.35376         3.80599
|107>    H       -3.39271        12.31697         0.96062
|108>    H        0.64489        15.13565         1.75320
|109>    H       -1.58135        -7.02239         0.22386
|110>    H        4.24629        -5.64117         2.25606
|111>    H        1.77689        -9.85431         3.27082
|112>    H       -2.97119        -5.29917        -1.13404
|113>    H       -5.16341        -4.40682        -0.94817
|114>    H       -4.57258        -4.44852        -2.63725
|115>    H       -6.22129        -2.68450        -3.24155
|116>    H       -6.80658        -2.65213        -1.57739
|117>    H       -6.93816        -5.06969        -3.45006
|118>    H       -8.29470        -4.03462        -3.00498
|119>    H       -7.51871        -5.04241        -1.78360
|120> *
|121>
|122>                          ****END OF INPUT****

CARTESIAN COORDINATES (ANGSTROEM)
---------------------------------
  C     -1.534260   -1.068700    0.248030
  C     -2.172700   -0.040590   -0.430940
  C     -1.787570    1.209610    0.033950
  C     -2.138970    2.640440   -0.276570
  C     -1.224530    3.376100    0.684950
  C     -0.509830    2.464550    1.502470
  C     -0.872600    1.152360    1.075210
  S     -0.445440   -0.457640    1.483340
  C      0.374430    2.883830    2.494550
  C      0.567790    4.237670    2.644250
  C      1.441800    4.976040    3.641400
  C      1.103790    6.407040    3.315860
  C      0.211560    6.458810    2.250550
  C     -0.135710    5.147120    1.816060
  C     -1.023650    4.728310    0.826230
  S     -0.225890    8.056570    1.829040
  C      0.805390    8.686150    3.108570
  C      1.466530    7.660150    3.778010
  C     -1.853200    3.001090   -1.742030
  C     -0.421730    2.676670   -2.153850
  C     -3.632950    2.827920    0.080430
  C     -4.165660    4.251440   -0.007290
  C      1.066270    4.628240    5.091610
  C     -0.389110    4.950250    5.413430
  C      2.952510    4.781200    3.373990
  C      3.467210    3.351310    3.466010
  C      0.972790   10.064930    3.338450
  C      0.164280   11.101890    2.968020
  C     -1.219130   11.142580    2.554350
  C     -1.428530   12.420620    1.874420
  C     -0.295910   13.228810    2.078730
  C      0.721080   12.470380    2.847150
  C     -2.508000   12.902050    1.152800
  C     -2.426980   14.191560    0.648230
  C     -1.305050   14.992500    0.863880
  C     -0.221950   14.516490    1.585990
  O      1.792190   12.864310    3.246000
  C     -2.214520   10.298490    2.974810
  C     -3.567930   10.434750    2.608760
  C     -1.997620    9.252810    3.896320
  F     -3.450300   14.674210   -0.065760
  F     -1.273530   16.234040    0.364130
  N     -4.677490   10.491180    2.320680
  N     -1.864710    8.428200    4.683990
  C     -0.821290   -6.255530    0.339740
  C      0.383430   -6.698050    0.804030
  C      1.677130   -6.059970    0.892520
  C      2.461140   -6.810840    1.872400
  C      1.776150   -8.000360    2.179330
  C      0.480640   -8.025870    1.458860
  C      3.690180   -6.543620    2.451760
  C      4.209290   -7.481670    3.331890
  C      3.530800   -8.665770    3.622940
  C      2.300430   -8.938800    3.046140
  O     -0.342660   -8.910890    1.445710
  C      2.181910   -5.132980    0.018540
  C      3.483900   -4.601250    0.100810
  C      1.476550   -4.692600   -1.121370
  F      5.387850   -7.240280    3.916510
  F      4.073580   -9.546540    4.472310
  N      4.527310   -4.124830    0.140570
  N      0.953940   -4.363290   -2.088690
  C     -1.645030   -2.464480    0.051700
  S     -0.479790   -3.526260    0.778420
  C     -1.247240   -4.934390    0.093710
  C     -2.368540   -4.566870   -0.629350
  C     -2.592850   -3.190930   -0.676880
  S     -3.932770   -2.423930   -1.505070
  C     -5.041630   -3.834310   -1.867950
  C     -6.379440   -3.294610   -2.350060
  C     -7.342010   -4.432550   -2.666690
  H     -2.853510   -0.211810   -1.242430
  H      0.868050    2.155040    3.117610
  H     -1.521500    5.456900    0.205940
  H      2.141300    7.854950    4.592000
  H     -2.031890    4.066960   -1.886310
  H     -2.548780    2.450120   -2.377970
  H      0.289010    3.213080   -1.528650
  H     -0.256660    2.966510   -3.188620
  H     -0.223960    1.611250   -2.062020
  H     -3.782940    2.460180    1.098790
  H     -4.208970    2.186370   -0.590210
  H     -3.685460    4.894070    0.725180
  H     -5.233050    4.246100    0.201400
  H     -4.020190    4.670920   -0.998910
  H      1.720420    5.187920    5.763160
  H      1.241400    3.564500    5.256630
  H     -0.595650    6.010660    5.290660
  H     -0.609360    4.677650    6.442590
  H     -1.058810    4.393820    4.760990
  H      3.491910    5.402120    4.092720
  H      3.170370    5.167550    2.374790
  H      3.240880    2.908440    4.431770
  H      4.547770    3.352380    3.342160
  H      3.041200    2.732190    2.681910
  H      1.909550   10.353760    3.805990
  H     -3.392710   12.316970    0.960620
  H      0.644890   15.135650    1.753200
  H     -1.581350   -7.022390    0.223860
  H      4.246290   -5.641170    2.256060
  H      1.776890   -9.854310    3.270820
  H     -2.971190   -5.299170   -1.134040
  H     -5.163410   -4.406820   -0.948170
  H     -4.572580   -4.448520   -2.637250
  H     -6.221290   -2.684500   -3.241550
  H     -6.806580   -2.652130   -1.577390
  H     -6.938160   -5.069690   -3.450060
  H     -8.294700   -4.034620   -3.004980
  H     -7.518710   -5.042410   -1.783600

 Total Charge           Charge          ....    0
 Multiplicity           Mult            ....    1
 Number of Electrons    NEL             ....  524
 Basis Dimension        Dim             .... 1200

ORBITAL ENERGIES
----------------

  NO   OCC          E(Eh)            E(eV)
   0   2.0000     -91.980162     -2502.9075
   1   2.0000     -91.980041     -2502.9042
   2   2.0000     -91.976121     -2502.7975
   3   2.0000     -91.942250     -2501.8758
   4   2.0000     -26.335751      -716.6322
   5   2.0000     -26.335513      -716.6258
   6   2.0000     -26.333334      -716.5665
   7   2.0000     -26.332875      -716.5540
   8   2.0000     -20.569056      -559.7125
   9   2.0000     -20.564228      -559.5811
  10   2.0000     -15.593516      -424.3211
  11   2.0000     -15.590226      -424.2316
  12   2.0000     -15.587660      -424.1618
  13   2.0000     -15.586588      -424.1326
  14   2.0000     -11.379770      -309.6593
  15   2.0000     -11.378103      -309.6139
  16   2.0000     -11.376750      -309.5771
  17   2.0000     -11.375344      -309.5388
  18   2.0000     -11.368051      -309.3404
  19   2.0000     -11.363458      -309.2154
  20   2.0000     -11.343781      -308.6800
  21   2.0000     -11.341111      -308.6073
  22   2.0000     -11.326152      -308.2003
  23   2.0000     -11.322711      -308.1066
  24   2.0000     -11.320992      -308.0598
  25   2.0000     -11.319642      -308.0231
  26   2.0000     -11.318475      -307.9914
  27   2.0000     -11.306285      -307.6597
  28   2.0000     -11.302912      -307.5679
  29   2.0000     -11.302868      -307.5667
  30   2.0000     -11.300519      -307.5028
  31   2.0000     -11.300499      -307.5022
  32   2.0000     -11.300399      -307.4995
  33   2.0000     -11.300304      -307.4969
  34   2.0000     -11.297851      -307.4301
  35   2.0000     -11.297420      -307.4184
  36   2.0000     -11.297316      -307.4156
  37   2.0000     -11.297195      -307.4123
  38   2.0000     -11.296897      -307.4042
  39   2.0000     -11.294394      -307.3361
  40   2.0000     -11.294309      -307.3338
  41   2.0000     -11.294231      -307.3317
  42   2.0000     -11.293139      -307.3019
  43   2.0000     -11.290796      -307.2382
  44   2.0000     -11.288332      -307.1711
  45   2.0000     -11.287492      -307.1483
  46   2.0000     -11.285891      -307.1047
  47   2.0000     -11.284972      -307.0797
  48   2.0000     -11.278480      -306.9030
  49   2.0000     -11.274115      -306.7843
  50   2.0000     -11.271401      -306.7104
  51   2.0000     -11.270057      -306.6739
  52   2.0000     -11.270054      -306.6738
  53   2.0000     -11.267060      -306.5923
  54   2.0000     -11.266594      -306.5796
  55   2.0000     -11.266402      -306.5744
  56   2.0000     -11.265106      -306.5391
  57   2.0000     -11.262260      -306.4617
  58   2.0000     -11.262193      -306.4599
  59   2.0000     -11.256589      -306.3074
  60   2.0000     -11.255671      -306.2824
  61   2.0000     -11.253880      -306.2336
  62   2.0000     -11.246220      -306.0252
  63   2.0000     -11.243726      -305.9573
  64   2.0000     -11.243603      -305.9540
  65   2.0000     -11.241633      -305.9004
  66   2.0000     -11.241230      -305.8894
  67   2.0000     -11.231144      -305.6150
  68   2.0000     -11.229165      -305.5611
  69   2.0000     -11.224541      -305.4353
  70   2.0000     -11.216140      -305.2067
  71   2.0000      -9.016232      -245.3441
  72   2.0000      -9.015398      -245.3214
  73   2.0000      -9.011662      -245.2198
  74   2.0000      -8.978051      -244.3052
  75   2.0000      -6.703739      -182.4180
  76   2.0000      -6.702920      -182.3957
  77   2.0000      -6.702582      -182.3865
  78   2.0000      -6.701910      -182.3682
  79   2.0000      -6.700667      -182.3344
  80   2.0000      -6.700064      -182.3180
  81   2.0000      -6.699229      -182.2953
  82   2.0000      -6.698234      -182.2682
  83   2.0000      -6.696288      -182.2153
  84   2.0000      -6.666108      -181.3940
  85   2.0000      -6.664406      -181.3477
  86   2.0000      -6.662263      -181.2894
  87   2.0000      -1.645860       -44.7861
  88   2.0000      -1.643260       -44.7154
  89   2.0000      -1.630940       -44.3801
  90   2.0000      -1.628358       -44.3099
  91   2.0000      -1.401713       -38.1425
  92   2.0000      -1.397062       -38.0160
  93   2.0000      -1.255475       -34.1632
  94   2.0000      -1.252731       -34.0885
  95   2.0000      -1.241026       -33.7700
  96   2.0000      -1.233499       -33.5652
  97   2.0000      -1.232269       -33.5317
  98   2.0000      -1.229996       -33.4699
  99   2.0000      -1.226605       -33.3776
 100   2.0000      -1.224414       -33.3180
 101   2.0000      -1.217441       -33.1282
 102   2.0000      -1.182004       -32.1640
 103   2.0000      -1.175076       -31.9755
 104   2.0000      -1.167900       -31.7802
 105   2.0000      -1.148989       -31.2656
 106   2.0000      -1.120456       -30.4892
 107   2.0000      -1.112500       -30.2727
 108   2.0000      -1.106635       -30.1131
 109   2.0000      -1.104492       -30.0548
 110   2.0000      -1.096466       -29.8363
 111   2.0000      -1.091315       -29.6962
 112   2.0000      -1.075607       -29.2687
 113   2.0000      -1.074484       -29.2382
 114   2.0000      -1.071637       -29.1607
 115   2.0000      -1.054097       -28.6834
 116   2.0000      -1.045453       -28.4482
 117   2.0000      -1.031695       -28.0738
 118   2.0000      -1.026272       -27.9263
 119   2.0000      -1.025910       -27.9164
 120   2.0000      -1.018671       -27.7194
 121   2.0000      -1.017345       -27.6834
 122   2.0000      -1.011875       -27.5345
 123   2.0000      -0.987980       -26.8843
 124   2.0000      -0.985433       -26.8150
 125   2.0000      -0.964680       -26.2503
 126   2.0000      -0.945147       -25.7188
 127   2.0000      -0.942102       -25.6359
 128   2.0000      -0.939104       -25.5543
 129   2.0000      -0.934269       -25.4228
 130   2.0000      -0.922996       -25.1160
 131   2.0000      -0.905405       -24.6373
 132   2.0000      -0.900281       -24.4979
 133   2.0000      -0.883328       -24.0366
 134   2.0000      -0.871043       -23.7023
 135   2.0000      -0.861244       -23.4357
 136   2.0000      -0.857927       -23.3454
 137   2.0000      -0.848870       -23.0989
 138   2.0000      -0.845782       -23.0149
 139   2.0000      -0.844405       -22.9774
 140   2.0000      -0.831635       -22.6299
 141   2.0000      -0.829264       -22.5654
 142   2.0000      -0.821882       -22.3645
 143   2.0000      -0.815488       -22.1906
 144   2.0000      -0.808543       -22.0016
 145   2.0000      -0.799972       -21.7684
 146   2.0000      -0.794281       -21.6135
 147   2.0000      -0.787492       -21.4288
 148   2.0000      -0.784476       -21.3467
 149   2.0000      -0.782221       -21.2853
 150   2.0000      -0.779325       -21.2065
 151   2.0000      -0.769540       -20.9402
 152   2.0000      -0.760163       -20.6851
 153   2.0000      -0.752881       -20.4869
 154   2.0000      -0.750434       -20.4204
 155   2.0000      -0.746811       -20.3217
 156   2.0000      -0.742964       -20.2171
 157   2.0000      -0.740448       -20.1486
 158   2.0000      -0.740096       -20.1390
 159   2.0000      -0.732790       -19.9402
 160   2.0000      -0.726801       -19.7773
 161   2.0000      -0.722292       -19.6546
 162   2.0000      -0.714871       -19.4526
 163   2.0000      -0.712471       -19.3873
 164   2.0000      -0.712373       -19.3847
 165   2.0000      -0.707854       -19.2617
 166   2.0000      -0.699354       -19.0304
 167   2.0000      -0.695611       -18.9285
 168   2.0000      -0.683981       -18.6121
 169   2.0000      -0.676561       -18.4102
 170   2.0000      -0.675751       -18.3881
 171   2.0000      -0.670234       -18.2380
 172   2.0000      -0.666196       -18.1281
 173   2.0000      -0.665572       -18.1111
 174   2.0000      -0.660970       -17.9859
 175   2.0000      -0.657663       -17.8959
 176   2.0000      -0.653195       -17.7743
 177   2.0000      -0.652257       -17.7488
 178   2.0000      -0.644388       -17.5347
 179   2.0000      -0.639034       -17.3890
 180   2.0000      -0.636261       -17.3135
 181   2.0000      -0.634441       -17.2640
 182   2.0000      -0.631569       -17.1859
 183   2.0000      -0.629425       -17.1275
 184   2.0000      -0.628212       -17.0945
 185   2.0000      -0.626511       -17.0482
 186   2.0000      -0.624010       -16.9802
 187   2.0000      -0.621976       -16.9248
 188   2.0000      -0.619730       -16.8637
 189   2.0000      -0.618717       -16.8361
 190   2.0000      -0.616845       -16.7852
 191   2.0000      -0.613228       -16.6868
 192   2.0000      -0.607575       -16.5329
 193   2.0000      -0.602857       -16.4046
 194   2.0000      -0.600578       -16.3426
 195   2.0000      -0.598972       -16.2989
 196   2.0000      -0.593974       -16.1629
 197   2.0000      -0.590159       -16.0591
 198   2.0000      -0.586679       -15.9643
 199   2.0000      -0.584881       -15.9154
 200   2.0000      -0.578803       -15.7500
 201   2.0000      -0.577646       -15.7186
 202   2.0000      -0.576312       -15.6822
 203   2.0000      -0.574113       -15.6224
 204   2.0000      -0.572869       -15.5886
 205   2.0000      -0.572353       -15.5745
 206   2.0000      -0.569924       -15.5084
 207   2.0000      -0.565493       -15.3879
 208   2.0000      -0.562349       -15.3023
 209   2.0000      -0.559856       -15.2344
 210   2.0000      -0.558346       -15.1934
 211   2.0000      -0.555878       -15.1262
 212   2.0000      -0.553529       -15.0623
 213   2.0000      -0.547710       -14.9040
 214   2.0000      -0.539233       -14.6733
 215   2.0000      -0.537802       -14.6343
 216   2.0000      -0.537265       -14.6197
 217   2.0000      -0.534535       -14.5454
 218   2.0000      -0.528221       -14.3736
 219   2.0000      -0.527800       -14.3622
 220   2.0000      -0.524796       -14.2804
 221   2.0000      -0.523607       -14.2481
 222   2.0000      -0.521170       -14.1818
 223   2.0000      -0.520778       -14.1711
 224   2.0000      -0.513896       -13.9838
 225   2.0000      -0.512479       -13.9452
 226   2.0000      -0.509203       -13.8561
 227   2.0000      -0.504998       -13.7417
 228   2.0000      -0.503494       -13.7008
 229   2.0000      -0.502346       -13.6695
 230   2.0000      -0.500880       -13.6296
 231   2.0000      -0.499786       -13.5999
 232   2.0000      -0.495832       -13.4923
 233   2.0000      -0.490618       -13.3504
 234   2.0000      -0.488621       -13.2961
 235   2.0000      -0.487156       -13.2562
 236   2.0000      -0.482890       -13.1401
 237   2.0000      -0.476508       -12.9664
 238   2.0000      -0.474288       -12.9060
 239   2.0000      -0.473038       -12.8720
 240   2.0000      -0.471528       -12.8309
 241   2.0000      -0.468491       -12.7483
 242   2.0000      -0.465794       -12.6749
 243   2.0000      -0.465404       -12.6643
 244   2.0000      -0.459579       -12.5058
 245   2.0000      -0.455481       -12.3943
 246   2.0000      -0.449932       -12.2433
 247   2.0000      -0.435234       -11.8433
 248   2.0000      -0.427299       -11.6274
 249   2.0000      -0.413213       -11.2441
 250   2.0000      -0.397145       -10.8069
 251   2.0000      -0.392795       -10.6885
 252   2.0000      -0.386830       -10.5262
 253   2.0000      -0.374540       -10.1918
 254   2.0000      -0.371976       -10.1220
 255   2.0000      -0.362230        -9.8568
 256   2.0000      -0.358247        -9.7484
 257   2.0000      -0.354724        -9.6525
 258   2.0000      -0.348953        -9.4955
 259   2.0000      -0.338833        -9.2201
 260   2.0000      -0.299369        -8.1462
 261   2.0000      -0.257415        -7.0046
 262   0.0000      -0.033067        -0.8998
 263   0.0000      -0.018572        -0.5054
 264   0.0000       0.014354         0.3906
 265   0.0000       0.021165         0.5759
 266   0.0000       0.044133         1.2009

MULLIKEN ATOMIC CHARGES
-----------------------
   0 C :   -0.153608
   1 C :    0.030101
   2 C :   -0.044185
   3 C :   -0.331264
   4 C :   -0.010443
   5 C :   -0.048549
   6 C :   -0.016004
   7 S :    0.171600
   8 C :   -0.023425
   9 C :    0.013761
  10 C :   -0.327475
  11 C :   -0.063895
  12 C :    0.033723
  13 C :   -0.084509
  14 C :   -0.000470
  15 S :    0.171779
  16 C :   -0.223085
  17 C :    0.104317
  18 C :    0.028170
  19 C :   -0.012326
  20 C :    0.041071
  21 C :   -0.006971
  22 C :    0.029768
  23 C :   -0.027541
  24 C :    0.040904
  25 C :   -0.007580
  26 C :    0.181747
  27 C :   -0.339580
  28 C :    0.231832
  29 C :   -0.048245
  30 C :   -0.163736
  31 C :    0.476247
  32 C :   -0.052399
  33 C :    0.352384
  34 C :    0.341434
  35 C :   -0.028472
  36 O :   -0.351194
  37 C :   -0.343498
  38 C :    0.034456
  39 C :    0.044316
  40 F :   -0.310216
  41 F :   -0.312964
  42 N :   -0.065575
  43 N :   -0.056051
  44 C :    0.177825
  45 C :   -0.325208
  46 C :    0.224656
  47 C :   -0.045766
  48 C :   -0.166047
  49 C :    0.475975
  50 C :   -0.052317
  51 C :    0.353805
  52 C :    0.341010
  53 C :   -0.026657
  54 O :   -0.349015
  55 C :   -0.331021
  56 C :    0.035259
  57 C :    0.035270
  58 F :   -0.309166
  59 F :   -0.312336
  60 N :   -0.061395
  61 N :   -0.050789
  62 C :   -0.087900
  63 S :    0.162109
  64 C :   -0.184100
  65 C :    0.050140
  66 C :   -0.015087
  67 S :   -0.047364
  68 C :   -0.135475
  69 C :   -0.068583
  70 C :   -0.029973
  71 H :    0.070266
  72 H :    0.027357
  73 H :    0.028500
  74 H :    0.047890
  75 H :    0.037769
  76 H :    0.032668
  77 H :    0.040889
  78 H :    0.035274
  79 H :    0.047974
  80 H :    0.040150
  81 H :    0.030973
  82 H :    0.042125
  83 H :    0.041305
  84 H :    0.025147
  85 H :    0.028499
  86 H :    0.036572
  87 H :    0.075047
  88 H :    0.032383
  89 H :    0.039068
  90 H :    0.027533
  91 H :    0.038576
  92 H :    0.026220
  93 H :    0.040626
  94 H :    0.042074
  95 H :    0.084515
  96 H :    0.091727
  97 H :    0.079545
  98 H :    0.083276
  99 H :    0.092499
 100 H :    0.080117
 101 H :    0.052693
 102 H :    0.076480
 103 H :    0.081628
 104 H :    0.049215
 105 H :    0.050650
 106 H :    0.032824
 107 H :    0.045448
 108 H :    0.032297
Sum of atomic charges:   -0.0000000

LOEWDIN ATOMIC CHARGES
----------------------
   0 C :   -0.192020
   1 C :   -0.021083
   2 C :   -0.041572
   3 C :   -0.035202
   4 C :    0.002701
   5 C :   -0.018918
   6 C :   -0.165618
   7 S :    0.409751
   8 C :   -0.021967
   9 C :    0.018962
  10 C :   -0.035213
  11 C :   -0.062062
  12 C :   -0.117077
  13 C :   -0.047877
  14 C :   -0.004410
  15 S :    0.442908
  16 C :   -0.212158
  17 C :    0.038266
  18 C :    0.000599
  19 C :   -0.031294
  20 C :    0.006550
  21 C :   -0.033959
  22 C :    0.000777
  23 C :   -0.033285
  24 C :    0.005238
  25 C :   -0.033908
  26 C :    0.117177
  27 C :   -0.165169
  28 C :    0.103661
  29 C :   -0.019435
  30 C :   -0.054569
  31 C :    0.165343
  32 C :   -0.006105
  33 C :    0.125828
  34 C :    0.120713
  35 C :    0.011467
  36 O :   -0.231661
  37 C :   -0.172725
  38 C :    0.010545
  39 C :    0.004440
  40 F :   -0.109191
  41 F :   -0.111272
  42 N :   -0.092248
  43 N :   -0.090944
  44 C :    0.112891
  45 C :   -0.152630
  46 C :    0.098720
  47 C :   -0.018125
  48 C :   -0.056091
  49 C :    0.165973
  50 C :   -0.006141
  51 C :    0.127371
  52 C :    0.120747
  53 C :    0.012576
  54 O :   -0.229167
  55 C :   -0.163315
  56 C :    0.010960
  57 C :   -0.003619
  58 F :   -0.108191
  59 F :   -0.110741
  60 N :   -0.086893
  61 N :   -0.084515
  62 C :   -0.152406
  63 S :    0.440573
  64 C :   -0.208415
  65 C :    0.006103
  66 C :   -0.202066
  67 S :    0.280714
  68 C :   -0.104702
  69 C :   -0.034578
  70 C :   -0.029052
  71 H :    0.021810
  72 H :    0.027316
  73 H :    0.027838
  74 H :    0.036694
  75 H :    0.013069
  76 H :    0.015341
  77 H :    0.018120
  78 H :    0.018240
  79 H :    0.019775
  80 H :    0.020915
  81 H :    0.014080
  82 H :    0.017277
  83 H :    0.022699
  84 H :    0.013021
  85 H :    0.013430
  86 H :    0.012154
  87 H :    0.023754
  88 H :    0.017848
  89 H :    0.017501
  90 H :    0.012731
  91 H :    0.019663
  92 H :    0.013555
  93 H :    0.022232
  94 H :    0.017164
  95 H :    0.056342
  96 H :    0.053956
  97 H :    0.056010
  98 H :    0.056249
  99 H :    0.054315
 100 H :    0.056272
 101 H :    0.035403
 102 H :    0.016442
 103 H :    0.015335
 104 H :    0.018584
 105 H :    0.019035
 106 H :    0.016947
 107 H :    0.022198
 108 H :    0.016717

  Mayer bond orders larger than 0.100000
B(  0-C ,  1-C ) :   1.5446 B(  0-C ,  7-S ) :   1.0932 B(  0-C , 62-C ) :   1.1821
B(  1-C ,  2-C ) :   1.3456 B(  1-C , 71-H ) :   0.9879 B(  2-C ,  3-C ) :   0.9466
B(  2-C ,  6-C ) :   1.5953 B(  3-C ,  4-C ) :   0.9162 B(  3-C , 18-C ) :   1.0169
B(  3-C , 20-C ) :   0.9967 B(  4-C ,  5-C ) :   1.3880 B(  4-C , 14-C ) :   1.5029
B(  5-C ,  6-C ) :   1.1341 B(  5-C ,  8-C ) :   1.3576 B(  6-C ,  7-S ) :   1.0870
B(  8-C ,  9-C ) :   1.4815 B(  8-C , 72-H ) :   1.0067 B(  9-C , 10-C ) :   0.9216
B(  9-C , 13-C ) :   1.3958 B( 10-C , 11-C ) :   0.9367 B( 10-C , 22-C ) :   1.0143
B( 10-C , 24-C ) :   0.9996 B( 11-C , 12-C ) :   1.5419 B( 11-C , 17-C ) :   1.3768
B( 12-C , 13-C ) :   1.1433 B( 12-C , 15-S ) :   1.1134 B( 13-C , 14-C ) :   1.3412
B( 14-C , 73-H ) :   1.0049 B( 15-S , 16-C ) :   1.0696 B( 16-C , 17-C ) :   1.4508
B( 16-C , 26-C ) :   1.2060 B( 17-C , 74-H ) :   1.0037 B( 18-C , 19-C ) :   1.0392
B( 18-C , 75-H ) :   0.9721 B( 18-C , 76-H ) :   0.9724 B( 19-C , 77-H ) :   0.9825
B( 19-C , 78-H ) :   0.9871 B( 19-C , 79-H ) :   0.9807 B( 20-C , 21-C ) :   1.0507
B( 20-C , 80-H ) :   0.9705 B( 20-C , 81-H ) :   0.9693 B( 21-C , 82-H ) :   0.9795
B( 21-C , 83-H ) :   0.9846 B( 21-C , 84-H ) :   0.9826 B( 22-C , 23-C ) :   1.0360
B( 22-C , 85-H ) :   0.9721 B( 22-C , 86-H ) :   0.9720 B( 23-C , 87-H ) :   0.9779
B( 23-C , 88-H ) :   0.9858 B( 23-C , 89-H ) :   0.9820 B( 24-C , 25-C ) :   1.0527
B( 24-C , 90-H ) :   0.9694 B( 24-C , 91-H ) :   0.9711 B( 25-C , 92-H ) :   0.9826
B( 25-C , 93-H ) :   0.9844 B( 25-C , 94-H ) :   0.9794 B( 26-C , 27-C ) :   1.6593
B( 26-C , 95-H ) :   0.9626 B( 27-C , 28-C ) :   1.0815 B( 27-C , 31-C ) :   0.9996
B( 28-C , 29-C ) :   1.0438 B( 28-C , 37-C ) :   1.6980 B( 29-C , 30-C ) :   1.3652
B( 29-C , 32-C ) :   1.3837 B( 30-C , 31-C ) :   0.9454 B( 30-C , 35-C ) :   1.3891
B( 31-C , 36-O ) :   2.1080 B( 32-C , 33-C ) :   1.4021 B( 32-C , 96-H ) :   0.9935
B( 33-C , 34-C ) :   1.3394 B( 33-C , 40-F ) :   0.9407 B( 34-C , 35-C ) :   1.3829
B( 34-C , 41-F ) :   0.9343 B( 35-C , 97-H ) :   1.0130 B( 37-C , 38-C ) :   1.0557
B( 37-C , 39-C ) :   1.0669 B( 38-C , 42-N ) :   2.9980 B( 39-C , 43-N ) :   3.0153
B( 44-C , 45-C ) :   1.6968 B( 44-C , 64-C ) :   1.1779 B( 44-C , 98-H ) :   0.9617
B( 45-C , 46-C ) :   1.0672 B( 45-C , 49-C ) :   0.9945 B( 46-C , 47-C ) :   1.0442
B( 46-C , 55-C ) :   1.7141 B( 47-C , 48-C ) :   1.3638 B( 47-C , 50-C ) :   1.3834
B( 48-C , 49-C ) :   0.9477 B( 48-C , 53-C ) :   1.3869 B( 49-C , 54-O ) :   2.1087
B( 50-C , 51-C ) :   1.4029 B( 50-C , 99-H ) :   0.9934 B( 51-C , 52-C ) :   1.3375
B( 51-C , 58-F ) :   0.9418 B( 52-C , 53-C ) :   1.3854 B( 52-C , 59-F ) :   0.9350
B( 53-C ,100-H ) :   1.0128 B( 55-C , 56-C ) :   1.0547 B( 55-C , 57-C ) :   1.0652
B( 56-C , 60-N ) :   2.9983 B( 57-C , 61-N ) :   3.0244 B( 62-C , 63-S ) :   1.1540
B( 62-C , 66-C ) :   1.5414 B( 63-S , 64-C ) :   1.0771 B( 64-C , 65-C ) :   1.4991
B( 65-C , 66-C ) :   1.3295 B( 65-C ,101-H ) :   1.0017 B( 66-C , 67-S ) :   0.9670
B( 67-S , 68-C ) :   0.9944 B( 68-C , 69-C ) :   1.0046 B( 68-C ,102-H ) :   0.9592
B( 68-C ,103-H ) :   0.9569 B( 69-C , 70-C ) :   1.0501 B( 69-C ,104-H ) :   0.9717
B( 69-C ,105-H ) :   0.9734 B( 70-C ,106-H ) :   0.9851 B( 70-C ,107-H ) :   0.9889
B( 70-C ,108-H ) :   0.9855

-----------------------------------------------------------------------------
         ABSORPTION SPECTRUM VIA TRANSITION ELECTRIC DIPOLE MOMENTS
-----------------------------------------------------------------------------
State   Energy    Wavelength  fosc         T2        TX        TY        TZ
        (cm-1)      (nm)                 (au**2)    (au)      (au)      (au)
-----------------------------------------------------------------------------
   1   20234.4    494.2   1.823082198  29.66132   0.95569  -5.31693  -0.69156
   2   24239.9    412.5   0.059312918   0.80555  -0.40276  -0.71808  -0.35735
   3   32581.5    306.9   0.851099839   8.59974  -2.07991  -2.03263  -0.37698

FINAL SINGLE POINT ENERGY     -4532.995431380996

DIPOLE MOMENT
-------------
                                X             Y             Z
Electronic contribution:     40.47581      13.08429      18.50651
Nuclear contribution   :    -42.06127     -13.89680     -19.06208
                        -----------------------------------------
Total Dipole Moment    :     -1.58547      -0.81251      -0.55557
                        -----------------------------------------
Magnitude (a.u.)       :      1.86616
Magnitude (Debye)      :      4.74340

Rotational constants in cm-1:     0.001717     0.000292     0.000261
Rotational constants in MHz :    51.485562     8.759856     7.829477

                             ****ORCA TERMINATED NORMALLY****
TOTAL RUN TIME: 0 days 16 hours 34 minutes 17 seconds 142 msec
