                         Program Version 4.2.0 -  RELEASE  -
|  1> # ORCA input file
|  2> # IDST-4F.out: Geometry 76
|  3> ! Engrad Keepdens
|  4> %maxcore 1000
|  5> %tddft
|  6>   nroots 3
|  7>   # nroots is the number of states to be computed
|  8>   Iroot 1
|  9>   end
| 10> * xyz 0 1
| 11>    C       -1.89673        -1.18007         0.39681
| 12>    C       -2.61718        -0.16143        -0.24005
| 13>    C       -2.17535         1.12414         0.13787
| 14>    C       -2.54363         2.56986        -0.18389
| 15>    C       -1.52296         3.32933         0.68106
| 16>    C       -0.70184         2.41928         1.40881
| 17>    C       -1.14041         1.09164         1.06226
| 18>    S       -0.68122        -0.50770         1.49626
| 19>    C        0.34476         2.85179         2.23568
| 20>    C        0.58930         4.21472         2.31787
| 21>    C        1.63317         4.94456         3.16820
| 22>    C        1.28594         6.39001         2.85784
| 23>    C        0.20911         6.45728         1.97291
| 24>    C       -0.23854         5.13248         1.60673
| 25>    C       -1.28655         4.69492         0.77491
| 26>    S       -0.25171         8.07639         1.61047
| 27>    C        1.03296         8.69901         2.65543
| 28>    C        1.77921         7.65085         3.21245
| 29>    C       -2.34295         2.89696        -1.68524
| 30>    C       -0.91861         2.67908        -2.19069
| 31>    C       -4.01224         2.81349         0.26714
| 32>    C       -4.54501         4.23950         0.15417
| 33>    C        1.43385         4.62315         4.67307
| 34>    C        0.01573         4.86839         5.18700
| 35>    C        3.09190         4.67039         2.70239
| 36>    C        3.59793         3.23328         2.79706
| 37>    C        1.26870        10.08774         2.85234
| 38>    C        0.42382        11.16836         2.77211
| 39>    C       -1.02764        11.30240         2.80182
| 40>    C       -1.35130        12.66723         2.31482
| 41>    C       -0.15103        13.39881         2.19124
| 42>    C        1.00610        12.52896         2.53356
| 43>    C       -2.57451        13.30152         2.05962
| 44>    C       -2.54830        14.63860         1.67097
| 45>    C       -1.34207        15.35265         1.54557
| 46>    C       -0.12532        14.73632         1.81262
| 47>    O        2.17694        12.84872         2.56504
| 48>    C       -1.92667        10.43585         3.40134
| 49>    C       -3.34003        10.63630         3.35278
| 50>    C       -1.50983         9.33177         4.20805
| 51>    F       -3.68566        15.27765         1.41095
| 52>    F       -1.39159        16.62651         1.16705
| 53>    N       -4.49281        10.77516         3.29693
| 54>    N       -1.19744         8.46520         4.91597
| 55>    C       -0.88434        -6.35950         0.66151
| 56>    C        0.36116        -6.73639         1.09990
| 57>    C        1.65010        -6.05658         1.13376
| 58>    C        2.43959        -6.67758         2.22391
| 59>    C        1.76866        -7.84085         2.65939
| 60>    C        0.49471        -7.99880         1.90023
| 61>    C        3.65741        -6.31363         2.81252
| 62>    C        4.14105        -7.11289         3.84558
| 63>    C        3.45329        -8.25932         4.28337
| 64>    C        2.26116        -8.64631         3.68139
| 65>    O       -0.29406        -8.91716         1.96805
| 66>    C        2.13278        -5.17273         0.18637
| 67>    C        3.41728        -4.55684         0.29245
| 68>    C        1.41518        -4.89045        -1.01780
| 69>    F        5.28020        -6.80080         4.45740
| 70>    F        3.96817        -8.95550         5.29246
| 71>    N        4.45123        -4.03352         0.38155
| 72>    N        0.85652        -4.69432        -2.01748
| 73>    C       -1.97188        -2.61036         0.26058
| 74>    S       -0.66294        -3.58179         0.88888
| 75>    C       -1.41540        -5.06963         0.37410
| 76>    C       -2.64367        -4.80223        -0.23023
| 77>    C       -2.95770        -3.42749        -0.32836
| 78>    S       -4.43082        -2.77087        -1.04304
| 79>    C       -5.01095        -4.15141        -2.09669
| 80>    C       -5.99510        -3.60185        -3.12806
| 81>    C       -6.60301        -4.70433        -3.99260
| 82>    H       -3.39852        -0.36842        -0.96925
| 83>    H        0.94055         2.12964         2.79585
| 84>    H       -1.88496         5.41750         0.21708
| 85>    H        2.61878         7.83807         3.88311
| 86>    H       -2.63758         3.94423        -1.85955
| 87>    H       -3.05116         2.28250        -2.26627
| 88>    H       -0.20261         3.30389        -1.63694
| 89>    H       -0.83542         2.94416        -3.25622
| 90>    H       -0.60472         1.62990        -2.07551
| 91>    H       -4.10235         2.47395         1.31229
| 92>    H       -4.64991         2.13736        -0.32725
| 93>    H       -3.98530         4.93451         0.79527
| 94>    H       -5.59532         4.27393         0.48297
| 95>    H       -4.51097         4.62336        -0.87738
| 96>    H        2.15708         5.22537         5.24814
| 97>    H        1.71278         3.57069         4.84362
| 98>    H       -0.28153         5.92443         5.09518
| 99>    H       -0.06496         4.58581         6.24830
|100>    H       -0.71442         4.26256         4.63017
|101>    H        3.74916         5.32716         3.29719
|102>    H        3.18101         5.01676         1.65912
|103>    H        3.55759         2.83670         3.82342
|104>    H        4.64722         3.18421         2.46675
|105>    H        3.02541         2.55655         2.14798
|106>    H        2.31538        10.36186         3.04110
|107>    H       -3.54074        12.80842         2.15200
|108>    H        0.81307        15.28644         1.72665
|109>    H       -1.61675        -7.17718         0.64648
|110>    H        4.23098        -5.43647         2.51651
|111>    H        1.73080        -9.53946         4.01500
|112>    H       -3.28788        -5.60360        -0.58827
|113>    H       -5.48984        -4.91763        -1.46652
|114>    H       -4.13892        -4.60351        -2.59407
|115>    H       -5.46799        -2.86755        -3.75988
|116>    H       -6.79837        -3.04875        -2.61068
|117>    H       -5.82353        -5.26957        -4.52989
|118>    H       -7.28673        -4.28017        -4.74423
|119>    H       -7.17658        -5.42279        -3.38401
|120> *
|121>
|122>                          ****END OF INPUT****

CARTESIAN COORDINATES (ANGSTROEM)
---------------------------------
  C     -1.896730   -1.180070    0.396810
  C     -2.617180   -0.161430   -0.240050
  C     -2.175350    1.124140    0.137870
  C     -2.543630    2.569860   -0.183890
  C     -1.522960    3.329330    0.681060
  C     -0.701840    2.419280    1.408810
  C     -1.140410    1.091640    1.062260
  S     -0.681220   -0.507700    1.496260
  C      0.344760    2.851790    2.235680
  C      0.589300    4.214720    2.317870
  C      1.633170    4.944560    3.168200
  C      1.285940    6.390010    2.857840
  C      0.209110    6.457280    1.972910
  C     -0.238540    5.132480    1.606730
  C     -1.286550    4.694920    0.774910
  S     -0.251710    8.076390    1.610470
  C      1.032960    8.699010    2.655430
  C      1.779210    7.650850    3.212450
  C     -2.342950    2.896960   -1.685240
  C     -0.918610    2.679080   -2.190690
  C     -4.012240    2.813490    0.267140
  C     -4.545010    4.239500    0.154170
  C      1.433850    4.623150    4.673070
  C      0.015730    4.868390    5.187000
  C      3.091900    4.670390    2.702390
  C      3.597930    3.233280    2.797060
  C      1.268700   10.087740    2.852340
  C      0.423820   11.168360    2.772110
  C     -1.027640   11.302400    2.801820
  C     -1.351300   12.667230    2.314820
  C     -0.151030   13.398810    2.191240
  C      1.006100   12.528960    2.533560
  C     -2.574510   13.301520    2.059620
  C     -2.548300   14.638600    1.670970
  C     -1.342070   15.352650    1.545570
  C     -0.125320   14.736320    1.812620
  O      2.176940   12.848720    2.565040
  C     -1.926670   10.435850    3.401340
  C     -3.340030   10.636300    3.352780
  C     -1.509830    9.331770    4.208050
  F     -3.685660   15.277650    1.410950
  F     -1.391590   16.626510    1.167050
  N     -4.492810   10.775160    3.296930
  N     -1.197440    8.465200    4.915970
  C     -0.884340   -6.359500    0.661510
  C      0.361160   -6.736390    1.099900
  C      1.650100   -6.056580    1.133760
  C      2.439590   -6.677580    2.223910
  C      1.768660   -7.840850    2.659390
  C      0.494710   -7.998800    1.900230
  C      3.657410   -6.313630    2.812520
  C      4.141050   -7.112890    3.845580
  C      3.453290   -8.259320    4.283370
  C      2.261160   -8.646310    3.681390
  O     -0.294060   -8.917160    1.968050
  C      2.132780   -5.172730    0.186370
  C      3.417280   -4.556840    0.292450
  C      1.415180   -4.890450   -1.017800
  F      5.280200   -6.800800    4.457400
  F      3.968170   -8.955500    5.292460
  N      4.451230   -4.033520    0.381550
  N      0.856520   -4.694320   -2.017480
  C     -1.971880   -2.610360    0.260580
  S     -0.662940   -3.581790    0.888880
  C     -1.415400   -5.069630    0.374100
  C     -2.643670   -4.802230   -0.230230
  C     -2.957700   -3.427490   -0.328360
  S     -4.430820   -2.770870   -1.043040
  C     -5.010950   -4.151410   -2.096690
  C     -5.995100   -3.601850   -3.128060
  C     -6.603010   -4.704330   -3.992600
  H     -3.398520   -0.368420   -0.969250
  H      0.940550    2.129640    2.795850
  H     -1.884960    5.417500    0.217080
  H      2.618780    7.838070    3.883110
  H     -2.637580    3.944230   -1.859550
  H     -3.051160    2.282500   -2.266270
  H     -0.202610    3.303890   -1.636940
  H     -0.835420    2.944160   -3.256220
  H     -0.604720    1.629900   -2.075510
  H     -4.102350    2.473950    1.312290
  H     -4.649910    2.137360   -0.327250
  H     -3.985300    4.934510    0.795270
  H     -5.595320    4.273930    0.482970
  H     -4.510970    4.623360   -0.877380
  H      2.157080    5.225370    5.248140
  H      1.712780    3.570690    4.843620
  H     -0.281530    5.924430    5.095180
  H     -0.064960    4.585810    6.248300
  H     -0.714420    4.262560    4.630170
  H      3.749160    5.327160    3.297190
  H      3.181010    5.016760    1.659120
  H      3.557590    2.836700    3.823420
  H      4.647220    3.184210    2.466750
  H      3.025410    2.556550    2.147980
  H      2.315380   10.361860    3.041100
  H     -3.540740   12.808420    2.152000
  H      0.813070   15.286440    1.726650
  H     -1.616750   -7.177180    0.646480
  H      4.230980   -5.436470    2.516510
  H      1.730800   -9.539460    4.015000
  H     -3.287880   -5.603600   -0.588270
  H     -5.489840   -4.917630   -1.466520
  H     -4.138920   -4.603510   -2.594070
  H     -5.467990   -2.867550   -3.759880
  H     -6.798370   -3.048750   -2.610680
  H     -5.823530   -5.269570   -4.529890
  H     -7.286730   -4.280170   -4.744230
  H     -7.176580   -5.422790   -3.384010

 Total Charge           Charge          ....    0
 Multiplicity           Mult            ....    1
 Number of Electrons    NEL             ....  524
 Basis Dimension        Dim             .... 1200

ORBITAL ENERGIES
----------------

  NO   OCC          E(Eh)            E(eV)
   0   2.0000     -91.981966     -2502.9565
   1   2.0000     -91.981905     -2502.9549
   2   2.0000     -91.975117     -2502.7702
   3   2.0000     -91.943979     -2501.9229
   4   2.0000     -26.338362      -716.7033
   5   2.0000     -26.337201      -716.6717
   6   2.0000     -26.336515      -716.6530
   7   2.0000     -26.334968      -716.6109
   8   2.0000     -20.571110      -559.7683
   9   2.0000     -20.567418      -559.6679
  10   2.0000     -15.599695      -424.4893
  11   2.0000     -15.596318      -424.3974
  12   2.0000     -15.593706      -424.3263
  13   2.0000     -15.592235      -424.2863
  14   2.0000     -11.381054      -309.6942
  15   2.0000     -11.379869      -309.6620
  16   2.0000     -11.378734      -309.6311
  17   2.0000     -11.377661      -309.6019
  18   2.0000     -11.372385      -309.4583
  19   2.0000     -11.367658      -309.3297
  20   2.0000     -11.350897      -308.8736
  21   2.0000     -11.349741      -308.8422
  22   2.0000     -11.334352      -308.4234
  23   2.0000     -11.329486      -308.2910
  24   2.0000     -11.328319      -308.2592
  25   2.0000     -11.326003      -308.1962
  26   2.0000     -11.325446      -308.1810
  27   2.0000     -11.312028      -307.8159
  28   2.0000     -11.310571      -307.7763
  29   2.0000     -11.309241      -307.7401
  30   2.0000     -11.308018      -307.7068
  31   2.0000     -11.305980      -307.6514
  32   2.0000     -11.305657      -307.6426
  33   2.0000     -11.304238      -307.6040
  34   2.0000     -11.304005      -307.5976
  35   2.0000     -11.303982      -307.5970
  36   2.0000     -11.303054      -307.5717
  37   2.0000     -11.300759      -307.5093
  38   2.0000     -11.300517      -307.5027
  39   2.0000     -11.299851      -307.4846
  40   2.0000     -11.299238      -307.4679
  41   2.0000     -11.297773      -307.4280
  42   2.0000     -11.297316      -307.4156
  43   2.0000     -11.295028      -307.3533
  44   2.0000     -11.292577      -307.2867
  45   2.0000     -11.291292      -307.2517
  46   2.0000     -11.288141      -307.1659
  47   2.0000     -11.287623      -307.1518
  48   2.0000     -11.284882      -307.0773
  49   2.0000     -11.279811      -306.9393
  50   2.0000     -11.276732      -306.8555
  51   2.0000     -11.276555      -306.8507
  52   2.0000     -11.275646      -306.8259
  53   2.0000     -11.272990      -306.7537
  54   2.0000     -11.271950      -306.7254
  55   2.0000     -11.270887      -306.6964
  56   2.0000     -11.269163      -306.6495
  57   2.0000     -11.266350      -306.5730
  58   2.0000     -11.265110      -306.5392
  59   2.0000     -11.261294      -306.4354
  60   2.0000     -11.260269      -306.4075
  61   2.0000     -11.256936      -306.3168
  62   2.0000     -11.250022      -306.1287
  63   2.0000     -11.248003      -306.0737
  64   2.0000     -11.247497      -306.0600
  65   2.0000     -11.245543      -306.0068
  66   2.0000     -11.244584      -305.9807
  67   2.0000     -11.236223      -305.7532
  68   2.0000     -11.235615      -305.7366
  69   2.0000     -11.229524      -305.5709
  70   2.0000     -11.219331      -305.2935
  71   2.0000      -9.017536      -245.3796
  72   2.0000      -9.016641      -245.3553
  73   2.0000      -9.010325      -245.1834
  74   2.0000      -8.979553      -244.3461
  75   2.0000      -6.705021      -182.4529
  76   2.0000      -6.704143      -182.4290
  77   2.0000      -6.703868      -182.4215
  78   2.0000      -6.703159      -182.4022
  79   2.0000      -6.701953      -182.3694
  80   2.0000      -6.701299      -182.3516
  81   2.0000      -6.697879      -182.2586
  82   2.0000      -6.696848      -182.2305
  83   2.0000      -6.694936      -182.1785
  84   2.0000      -6.667601      -181.4346
  85   2.0000      -6.665916      -181.3888
  86   2.0000      -6.663781      -181.3307
  87   2.0000      -1.651931       -44.9513
  88   2.0000      -1.649583       -44.8874
  89   2.0000      -1.635564       -44.5060
  90   2.0000      -1.633653       -44.4540
  91   2.0000      -1.400335       -38.1051
  92   2.0000      -1.395903       -37.9845
  93   2.0000      -1.247447       -33.9448
  94   2.0000      -1.244638       -33.8683
  95   2.0000      -1.231685       -33.5159
  96   2.0000      -1.226648       -33.3788
  97   2.0000      -1.224045       -33.3080
  98   2.0000      -1.223037       -33.2805
  99   2.0000      -1.220225       -33.2040
 100   2.0000      -1.218647       -33.1611
 101   2.0000      -1.210169       -32.9304
 102   2.0000      -1.174450       -31.9584
 103   2.0000      -1.168763       -31.8036
 104   2.0000      -1.161224       -31.5985
 105   2.0000      -1.140881       -31.0449
 106   2.0000      -1.115220       -30.3467
 107   2.0000      -1.104828       -30.0639
 108   2.0000      -1.100844       -29.9555
 109   2.0000      -1.098094       -29.8807
 110   2.0000      -1.090029       -29.6612
 111   2.0000      -1.085408       -29.5355
 112   2.0000      -1.070578       -29.1319
 113   2.0000      -1.069645       -29.1065
 114   2.0000      -1.067438       -29.0465
 115   2.0000      -1.048365       -28.5275
 116   2.0000      -1.040706       -28.3191
 117   2.0000      -1.025318       -27.9003
 118   2.0000      -1.021075       -27.7849
 119   2.0000      -1.018995       -27.7283
 120   2.0000      -1.013428       -27.5768
 121   2.0000      -1.012262       -27.5451
 122   2.0000      -1.005873       -27.3712
 123   2.0000      -0.984097       -26.7786
 124   2.0000      -0.981107       -26.6973
 125   2.0000      -0.960151       -26.1270
 126   2.0000      -0.940624       -25.5957
 127   2.0000      -0.937397       -25.5079
 128   2.0000      -0.934535       -25.4300
 129   2.0000      -0.931113       -25.3369
 130   2.0000      -0.919213       -25.0130
 131   2.0000      -0.901615       -24.5342
 132   2.0000      -0.897754       -24.4291
 133   2.0000      -0.881547       -23.9881
 134   2.0000      -0.868202       -23.6250
 135   2.0000      -0.857976       -23.3467
 136   2.0000      -0.853045       -23.2125
 137   2.0000      -0.845526       -23.0079
 138   2.0000      -0.842835       -22.9347
 139   2.0000      -0.840407       -22.8686
 140   2.0000      -0.829085       -22.5605
 141   2.0000      -0.824968       -22.4485
 142   2.0000      -0.818351       -22.2685
 143   2.0000      -0.812813       -22.1178
 144   2.0000      -0.805452       -21.9175
 145   2.0000      -0.798075       -21.7167
 146   2.0000      -0.792162       -21.5558
 147   2.0000      -0.786626       -21.4052
 148   2.0000      -0.784134       -21.3374
 149   2.0000      -0.780426       -21.2365
 150   2.0000      -0.778195       -21.1758
 151   2.0000      -0.765295       -20.8247
 152   2.0000      -0.754735       -20.5374
 153   2.0000      -0.751714       -20.4552
 154   2.0000      -0.748785       -20.3755
 155   2.0000      -0.746396       -20.3105
 156   2.0000      -0.744179       -20.2501
 157   2.0000      -0.743456       -20.2305
 158   2.0000      -0.738049       -20.0833
 159   2.0000      -0.727894       -19.8070
 160   2.0000      -0.725025       -19.7289
 161   2.0000      -0.719693       -19.5838
 162   2.0000      -0.717736       -19.5306
 163   2.0000      -0.715871       -19.4798
 164   2.0000      -0.708320       -19.2744
 165   2.0000      -0.704564       -19.1722
 166   2.0000      -0.697855       -18.9896
 167   2.0000      -0.693239       -18.8640
 168   2.0000      -0.682506       -18.5719
 169   2.0000      -0.674190       -18.3456
 170   2.0000      -0.669261       -18.2115
 171   2.0000      -0.666271       -18.1302
 172   2.0000      -0.662543       -18.0287
 173   2.0000      -0.662001       -18.0140
 174   2.0000      -0.656078       -17.8528
 175   2.0000      -0.654329       -17.8052
 176   2.0000      -0.648889       -17.6572
 177   2.0000      -0.646793       -17.6001
 178   2.0000      -0.641037       -17.4435
 179   2.0000      -0.635132       -17.2828
 180   2.0000      -0.632221       -17.2036
 181   2.0000      -0.630293       -17.1512
 182   2.0000      -0.627340       -17.0708
 183   2.0000      -0.624921       -17.0050
 184   2.0000      -0.624287       -16.9877
 185   2.0000      -0.623006       -16.9528
 186   2.0000      -0.620427       -16.8827
 187   2.0000      -0.619492       -16.8572
 188   2.0000      -0.615877       -16.7589
 189   2.0000      -0.613989       -16.7075
 190   2.0000      -0.612666       -16.6715
 191   2.0000      -0.609145       -16.5757
 192   2.0000      -0.602632       -16.3984
 193   2.0000      -0.598594       -16.2886
 194   2.0000      -0.596461       -16.2305
 195   2.0000      -0.594403       -16.1745
 196   2.0000      -0.589345       -16.0369
 197   2.0000      -0.585812       -15.9408
 198   2.0000      -0.580452       -15.7949
 199   2.0000      -0.579798       -15.7771
 200   2.0000      -0.578051       -15.7296
 201   2.0000      -0.577838       -15.7238
 202   2.0000      -0.573849       -15.6152
 203   2.0000      -0.573222       -15.5982
 204   2.0000      -0.572552       -15.5799
 205   2.0000      -0.569692       -15.5021
 206   2.0000      -0.567971       -15.4553
 207   2.0000      -0.563800       -15.3418
 208   2.0000      -0.559234       -15.2175
 209   2.0000      -0.557746       -15.1770
 210   2.0000      -0.554979       -15.1018
 211   2.0000      -0.551255       -15.0004
 212   2.0000      -0.549234       -14.9454
 213   2.0000      -0.545213       -14.8360
 214   2.0000      -0.536909       -14.6100
 215   2.0000      -0.535255       -14.5650
 216   2.0000      -0.534436       -14.5427
 217   2.0000      -0.531532       -14.4637
 218   2.0000      -0.525630       -14.3031
 219   2.0000      -0.522491       -14.2177
 220   2.0000      -0.520889       -14.1741
 221   2.0000      -0.520204       -14.1555
 222   2.0000      -0.518875       -14.1193
 223   2.0000      -0.517641       -14.0857
 224   2.0000      -0.511813       -13.9271
 225   2.0000      -0.510492       -13.8912
 226   2.0000      -0.502944       -13.6858
 227   2.0000      -0.499837       -13.6013
 228   2.0000      -0.499568       -13.5939
 229   2.0000      -0.498281       -13.5589
 230   2.0000      -0.496368       -13.5069
 231   2.0000      -0.496099       -13.4995
 232   2.0000      -0.492110       -13.3910
 233   2.0000      -0.488814       -13.3013
 234   2.0000      -0.485734       -13.2175
 235   2.0000      -0.482992       -13.1429
 236   2.0000      -0.481009       -13.0889
 237   2.0000      -0.475649       -12.9431
 238   2.0000      -0.473212       -12.8768
 239   2.0000      -0.471246       -12.8232
 240   2.0000      -0.469749       -12.7825
 241   2.0000      -0.466007       -12.6807
 242   2.0000      -0.464431       -12.6378
 243   2.0000      -0.463507       -12.6127
 244   2.0000      -0.460925       -12.5424
 245   2.0000      -0.454111       -12.3570
 246   2.0000      -0.450555       -12.2602
 247   2.0000      -0.433527       -11.7969
 248   2.0000      -0.425229       -11.5711
 249   2.0000      -0.410117       -11.1599
 250   2.0000      -0.395523       -10.7627
 251   2.0000      -0.391099       -10.6424
 252   2.0000      -0.385082       -10.4786
 253   2.0000      -0.373436       -10.1617
 254   2.0000      -0.370076       -10.0703
 255   2.0000      -0.360896        -9.8205
 256   2.0000      -0.355580        -9.6758
 257   2.0000      -0.353638        -9.6230
 258   2.0000      -0.348200        -9.4750
 259   2.0000      -0.340186        -9.2569
 260   2.0000      -0.301304        -8.1989
 261   2.0000      -0.260279        -7.0826
 262   0.0000      -0.032297        -0.8788
 263   0.0000      -0.020122        -0.5475
 264   0.0000       0.012639         0.3439
 265   0.0000       0.019254         0.5239
 266   0.0000       0.042898         1.1673

MULLIKEN ATOMIC CHARGES
-----------------------
   0 C :   -0.170889
   1 C :    0.047878
   2 C :   -0.045056
   3 C :   -0.320088
   4 C :   -0.021733
   5 C :   -0.044680
   6 C :   -0.024314
   7 S :    0.162186
   8 C :   -0.019607
   9 C :   -0.003144
  10 C :   -0.318577
  11 C :   -0.056868
  12 C :    0.010749
  13 C :   -0.078749
  14 C :    0.001931
  15 S :    0.186852
  16 C :   -0.232122
  17 C :    0.107826
  18 C :    0.017632
  19 C :   -0.029826
  20 C :    0.033243
  21 C :   -0.030970
  22 C :    0.020710
  23 C :   -0.048566
  24 C :    0.031369
  25 C :   -0.030898
  26 C :    0.171475
  27 C :   -0.338736
  28 C :    0.234846
  29 C :   -0.041971
  30 C :   -0.171788
  31 C :    0.468100
  32 C :   -0.059834
  33 C :    0.344200
  34 C :    0.340162
  35 C :   -0.031765
  36 O :   -0.356042
  37 C :   -0.332173
  38 C :    0.046092
  39 C :    0.056333
  40 F :   -0.302498
  41 F :   -0.304073
  42 N :   -0.087306
  43 N :   -0.070304
  44 C :    0.171106
  45 C :   -0.319793
  46 C :    0.214689
  47 C :   -0.039727
  48 C :   -0.173664
  49 C :    0.470400
  50 C :   -0.056625
  51 C :    0.345021
  52 C :    0.338118
  53 C :   -0.031221
  54 O :   -0.352335
  55 C :   -0.320430
  56 C :    0.044710
  57 C :    0.049357
  58 F :   -0.302190
  59 F :   -0.303500
  60 N :   -0.081008
  61 N :   -0.064943
  62 C :   -0.083294
  63 S :    0.165063
  64 C :   -0.177146
  65 C :    0.042482
  66 C :   -0.036648
  67 S :   -0.016889
  68 C :   -0.147804
  69 C :   -0.078738
  70 C :   -0.050694
  71 H :    0.071445
  72 H :    0.037663
  73 H :    0.037185
  74 H :    0.059622
  75 H :    0.039811
  76 H :    0.034780
  77 H :    0.047044
  78 H :    0.039452
  79 H :    0.050758
  80 H :    0.044911
  81 H :    0.034285
  82 H :    0.043199
  83 H :    0.046063
  84 H :    0.032201
  85 H :    0.032273
  86 H :    0.038545
  87 H :    0.083278
  88 H :    0.036682
  89 H :    0.042616
  90 H :    0.031354
  91 H :    0.042608
  92 H :    0.034203
  93 H :    0.045801
  94 H :    0.044403
  95 H :    0.097698
  96 H :    0.103820
  97 H :    0.089250
  98 H :    0.092547
  99 H :    0.102945
 100 H :    0.089918
 101 H :    0.063791
 102 H :    0.077654
 103 H :    0.087944
 104 H :    0.053744
 105 H :    0.051463
 106 H :    0.038851
 107 H :    0.049669
 108 H :    0.037219
Sum of atomic charges:    0.0000000

LOEWDIN ATOMIC CHARGES
----------------------
   0 C :   -0.192139
   1 C :   -0.020204
   2 C :   -0.046344
   3 C :   -0.028431
   4 C :    0.001951
   5 C :   -0.021297
   6 C :   -0.163017
   7 S :    0.400436
   8 C :   -0.023834
   9 C :    0.017291
  10 C :   -0.031498
  11 C :   -0.060805
  12 C :   -0.120284
  13 C :   -0.045496
  14 C :   -0.009541
  15 S :    0.428314
  16 C :   -0.213410
  17 C :    0.033528
  18 C :   -0.004132
  19 C :   -0.037555
  20 C :    0.000496
  21 C :   -0.039636
  22 C :   -0.002450
  23 C :   -0.040738
  24 C :    0.000161
  25 C :   -0.039379
  26 C :    0.117850
  27 C :   -0.163555
  28 C :    0.111636
  29 C :   -0.019822
  30 C :   -0.056323
  31 C :    0.170134
  32 C :   -0.010922
  33 C :    0.121884
  34 C :    0.118503
  35 C :    0.005092
  36 O :   -0.234756
  37 C :   -0.169594
  38 C :    0.017260
  39 C :    0.012726
  40 F :   -0.102222
  41 F :   -0.102626
  42 N :   -0.098493
  43 N :   -0.094503
  44 C :    0.110603
  45 C :   -0.151397
  46 C :    0.103863
  47 C :   -0.018501
  48 C :   -0.056268
  49 C :    0.171752
  50 C :   -0.010852
  51 C :    0.122926
  52 C :    0.118281
  53 C :    0.005568
  54 O :   -0.231354
  55 C :   -0.162426
  56 C :    0.016988
  57 C :    0.002805
  58 F :   -0.101745
  59 F :   -0.102204
  60 N :   -0.093405
  61 N :   -0.088518
  62 C :   -0.150421
  63 S :    0.433815
  64 C :   -0.210048
  65 C :    0.002816
  66 C :   -0.204076
  67 S :    0.277500
  68 C :   -0.109119
  69 C :   -0.039356
  70 C :   -0.035802
  71 H :    0.026419
  72 H :    0.029845
  73 H :    0.029860
  74 H :    0.040087
  75 H :    0.014281
  76 H :    0.016180
  77 H :    0.020022
  78 H :    0.020443
  79 H :    0.021575
  80 H :    0.022968
  81 H :    0.015638
  82 H :    0.018203
  83 H :    0.024872
  84 H :    0.015073
  85 H :    0.015072
  86 H :    0.013238
  87 H :    0.026984
  88 H :    0.020298
  89 H :    0.018279
  90 H :    0.014324
  91 H :    0.021610
  92 H :    0.016053
  93 H :    0.024757
  94 H :    0.018530
  95 H :    0.060067
  96 H :    0.056888
  97 H :    0.059489
  98 H :    0.059441
  99 H :    0.057183
 100 H :    0.059573
 101 H :    0.038599
 102 H :    0.014534
 103 H :    0.022081
 104 H :    0.020926
 105 H :    0.018932
 106 H :    0.019292
 107 H :    0.024275
 108 H :    0.018430

  Mayer bond orders larger than 0.100000
B(  0-C ,  1-C ) :   1.5610 B(  0-C ,  7-S ) :   1.0993 B(  0-C , 62-C ) :   1.1507
B(  1-C ,  2-C ) :   1.3170 B(  1-C , 71-H ) :   0.9865 B(  2-C ,  3-C ) :   0.9513
B(  2-C ,  6-C ) :   1.6068 B(  3-C ,  4-C ) :   0.9190 B(  3-C , 18-C ) :   1.0036
B(  3-C , 20-C ) :   0.9976 B(  4-C ,  5-C ) :   1.3921 B(  4-C , 14-C ) :   1.5003
B(  5-C ,  6-C ) :   1.1217 B(  5-C ,  8-C ) :   1.3650 B(  6-C ,  7-S ) :   1.0905
B(  8-C ,  9-C ) :   1.4820 B(  8-C , 72-H ) :   1.0005 B(  9-C , 10-C ) :   0.9237
B(  9-C , 13-C ) :   1.4013 B( 10-C , 11-C ) :   0.9387 B( 10-C , 22-C ) :   1.0028
B( 10-C , 24-C ) :   1.0011 B( 11-C , 12-C ) :   1.5590 B( 11-C , 17-C ) :   1.3631
B( 12-C , 13-C ) :   1.1315 B( 12-C , 15-S ) :   1.1102 B( 13-C , 14-C ) :   1.3501
B( 14-C , 73-H ) :   0.9994 B( 15-S , 16-C ) :   1.0736 B( 16-C , 17-C ) :   1.4659
B( 16-C , 26-C ) :   1.1913 B( 17-C , 74-H ) :   0.9963 B( 18-C , 19-C ) :   1.0352
B( 18-C , 75-H ) :   0.9716 B( 18-C , 76-H ) :   0.9735 B( 19-C , 77-H ) :   0.9804
B( 19-C , 78-H ) :   0.9871 B( 19-C , 79-H ) :   0.9831 B( 20-C , 21-C ) :   1.0455
B( 20-C , 80-H ) :   0.9713 B( 20-C , 81-H ) :   0.9704 B( 21-C , 82-H ) :   0.9798
B( 21-C , 83-H ) :   0.9848 B( 21-C , 84-H ) :   0.9826 B( 22-C , 23-C ) :   1.0329
B( 22-C , 85-H ) :   0.9728 B( 22-C , 86-H ) :   0.9717 B( 23-C , 87-H ) :   0.9779
B( 23-C , 88-H ) :   0.9857 B( 23-C , 89-H ) :   0.9794 B( 24-C , 25-C ) :   1.0475
B( 24-C , 90-H ) :   0.9700 B( 24-C , 91-H ) :   0.9716 B( 25-C , 92-H ) :   0.9826
B( 25-C , 93-H ) :   0.9845 B( 25-C , 94-H ) :   0.9797 B( 26-C , 27-C ) :   1.6821
B( 26-C , 95-H ) :   0.9528 B( 27-C , 28-C ) :   1.0782 B( 27-C , 31-C ) :   0.9982
B( 28-C , 29-C ) :   1.0446 B( 28-C , 37-C ) :   1.6981 B( 29-C , 30-C ) :   1.3818
B( 29-C , 32-C ) :   1.3668 B( 30-C , 31-C ) :   0.9516 B( 30-C , 35-C ) :   1.3769
B( 31-C , 36-O ) :   2.0936 B( 32-C , 33-C ) :   1.4240 B( 32-C , 96-H ) :   0.9858
B( 33-C , 34-C ) :   1.3222 B( 33-C , 40-F ) :   0.9469 B( 34-C , 35-C ) :   1.3986
B( 34-C , 41-F ) :   0.9420 B( 35-C , 97-H ) :   1.0057 B( 37-C , 38-C ) :   1.0442
B( 37-C , 39-C ) :   1.0644 B( 38-C , 42-N ) :   2.9859 B( 39-C , 43-N ) :   3.0064
B( 44-C , 45-C ) :   1.7127 B( 44-C , 64-C ) :   1.1760 B( 44-C , 98-H ) :   0.9559
B( 45-C , 46-C ) :   1.0627 B( 45-C , 49-C ) :   0.9937 B( 46-C , 47-C ) :   1.0425
B( 46-C , 55-C ) :   1.7200 B( 47-C , 48-C ) :   1.3789 B( 47-C , 50-C ) :   1.3685
B( 48-C , 49-C ) :   0.9456 B( 48-C , 53-C ) :   1.3775 B( 49-C , 54-O ) :   2.0954
B( 50-C , 51-C ) :   1.4220 B( 50-C , 99-H ) :   0.9872 B( 51-C , 52-C ) :   1.3230
B( 51-C , 58-F ) :   0.9469 B( 52-C , 53-C ) :   1.4009 B( 52-C , 59-F ) :   0.9430
B( 53-C ,100-H ) :   1.0054 B( 55-C , 56-C ) :   1.0430 B( 55-C , 57-C ) :   1.0618
B( 56-C , 60-N ) :   2.9907 B( 57-C , 61-N ) :   3.0186 B( 62-C , 63-S ) :   1.1659
B( 62-C , 66-C ) :   1.5468 B( 63-S , 64-C ) :   1.0769 B( 64-C , 65-C ) :   1.5065
B( 65-C , 66-C ) :   1.3205 B( 65-C ,101-H ) :   0.9979 B( 66-C , 67-S ) :   0.9732
B( 67-S , 68-C ) :   0.9850 B( 68-C , 69-C ) :   0.9976 B( 68-C ,102-H ) :   0.9577
B( 68-C ,103-H ) :   0.9591 B( 69-C , 70-C ) :   1.0452 B( 69-C ,104-H ) :   0.9736
B( 69-C ,105-H ) :   0.9722 B( 70-C ,106-H ) :   0.9854 B( 70-C ,107-H ) :   0.9886
B( 70-C ,108-H ) :   0.9845

-----------------------------------------------------------------------------
         ABSORPTION SPECTRUM VIA TRANSITION ELECTRIC DIPOLE MOMENTS
-----------------------------------------------------------------------------
State   Energy    Wavelength  fosc         T2        TX        TY        TZ
        (cm-1)      (nm)                 (au**2)    (au)      (au)      (au)
-----------------------------------------------------------------------------
   1   20957.3    477.2   1.782055804  27.99373  -0.92216   5.17169   0.63007
   2   24704.9    404.8   0.100963629   1.34542   0.55875   0.79907   0.62826
   3   32822.3    304.7   0.886390281   8.89061   2.23077   1.97642   0.08952

FINAL SINGLE POINT ENERGY     -4532.994361235842

DIPOLE MOMENT
-------------
                                X             Y             Z
Electronic contribution:     37.58667      18.68718      33.73459
Nuclear contribution   :    -39.21646     -19.43264     -34.96807
                        -----------------------------------------
Total Dipole Moment    :     -1.62979      -0.74546      -1.23348
                        -----------------------------------------
Magnitude (a.u.)       :      2.17564
Magnitude (Debye)      :      5.53004

Rotational constants in cm-1:     0.001643     0.000288     0.000256
Rotational constants in MHz :    49.256467     8.630308     7.681499

                             ****ORCA TERMINATED NORMALLY****
TOTAL RUN TIME: 0 days 13 hours 24 minutes 33 seconds 64 msec
