                         Program Version 4.2.0 -  RELEASE  -
|  1> # ORCA input file
|  2> # IDTCF.out: Geometry 15
|  3> ! Engrad Keepdens
|  4> %maxcore 1000
|  5> %tddft
|  6>   nroots 3
|  7>   # nroots is the number of states to be computed
|  8>   Iroot 1
|  9>   end
| 10> * xyz 0 1
| 11>    C        2.64853         1.22107        -0.53170
| 12>    C        2.82642        -0.19418        -0.54917
| 13>    C        1.71829        -1.02750        -0.63989
| 14>    C        0.45052        -0.43424        -0.75726
| 15>    C        0.28039         0.98255        -0.78465
| 16>    C        1.38117         1.81519        -0.65105
| 17>    C       -0.87432        -1.01231        -0.79590
| 18>    C       -1.84454        -0.01235        -0.84581
| 19>    C       -1.19968         1.35937        -0.93046
| 20>    C        3.95487         1.80500        -0.34863
| 21>    C        4.93554         0.81362        -0.26833
| 22>    C        4.30919        -0.56883        -0.39407
| 23>    S       -1.55781        -2.58702        -0.67249
| 24>    C       -3.18517        -1.90149        -0.62367
| 25>    C       -3.15078        -0.50842        -0.75089
| 26>    S        4.59883         3.39297        -0.21657
| 27>    C        6.23288         2.74377        -0.07352
| 28>    C        6.22543         1.34280        -0.13306
| 29>    C       -1.69329         2.29512         0.19825
| 30>    C       -1.49177         1.95409        -2.34298
| 31>    C       -0.98208         3.36868        -2.61157
| 32>    C       -1.66476         1.67583         1.59492
| 33>    C        4.88087        -1.26122        -1.66589
| 34>    C        4.50513        -1.41249         0.89614
| 35>    C        4.38461        -2.67419        -1.97098
| 36>    C        5.94648        -1.79864         1.22626
| 37>    C        7.33913         3.62994         0.08775
| 38>    C       -4.30602        -2.75160        -0.36998
| 39>    C        8.64469         3.21144         0.13682
| 40>    C        9.80556         4.01154         0.32280
| 41>    C       11.18144         3.37024         0.28913
| 42>    O       12.08289         4.48612         0.50765
| 43>    C       11.40203         5.62593         0.67182
| 44>    C        9.97838         5.36204         0.56520
| 45>    C       11.50661         2.76748        -1.07714
| 46>    C       11.38074         2.38284         1.43917
| 47>    C        8.92705         6.30621         0.69470
| 48>    C       12.08212         6.80497         0.89829
| 49>    C       11.40928         8.05051         1.07430
| 50>    C       13.50931         6.79218         0.95541
| 51>    N       10.88916         9.07922         1.22122
| 52>    N       14.67021         6.78556         1.00232
| 53>    N        7.99739         6.99784         0.78210
| 54>    C       -5.50444        -2.29311         0.11226
| 55>    C       -6.63956        -3.08113         0.46251
| 56>    C       -7.76638        -2.49693         1.30019
| 57>    O       -8.69278        -3.60746         1.43967
| 58>    C       -8.22832        -4.70016         0.82533
| 59>    C       -6.94985        -4.40207         0.20402
| 60>    C       -6.15511        -5.29539        -0.56166
| 61>    C       -8.95753        -5.87082         0.85163
| 62>    C       -8.49808        -7.06708         0.22447
| 63>    C      -10.20992        -5.90420         1.53698
| 64>    C       -8.51381        -1.36319         0.60130
| 65>    C       -7.29551        -2.10599         2.70371
| 66>    N      -11.22870        -5.93555         2.09420
| 67>    N       -8.14754        -8.05486        -0.27689
| 68>    N       -5.44473        -5.95908        -1.19791
| 69>    H        1.81384        -2.11376        -0.59696
| 70>    H        1.27475         2.90091        -0.61504
| 71>    H       -4.05518         0.09970        -0.76716
| 72>    H        7.13859         0.75385        -0.07237
| 73>    H       -2.72006         2.61708        -0.04970
| 74>    H       -1.08296         3.21183         0.18718
| 75>    H       -2.58612         1.93180        -2.48375
| 76>    H       -1.07449         1.25979        -3.08994
| 77>    H       -1.39904         4.09933        -1.90274
| 78>    H       -1.28251         3.69098        -3.62070
| 79>    H        0.11588         3.43098        -2.56085
| 80>    H       -2.35942         0.82630         1.67717
| 81>    H       -1.95253         2.41718         2.35571
| 82>    H       -0.66021         1.30068         1.84862
| 83>    H        5.97804        -1.28110        -1.56392
| 84>    H        4.67241        -0.60188        -2.52410
| 85>    H        3.89599        -2.32566         0.80388
| 86>    H        4.07100        -0.84424         1.73489
| 87>    H        4.54561        -3.36398        -1.12813
| 88>    H        4.92990        -3.08541        -2.83419
| 89>    H        3.31502        -2.69172        -2.22589
| 90>    H        6.41701        -2.37985         0.41822
| 91>    H        5.97959        -2.41851         2.13547
| 92>    H        6.57155        -0.91386         1.41635
| 93>    H        7.11094         4.69433         0.18027
| 94>    H       -4.15956        -3.82414        -0.51896
| 95>    H        8.83994         2.14379         0.01073
| 96>    H       11.39643         3.52710        -1.86406
| 97>    H       10.82621         1.93329        -1.29768
| 98>    H       12.53932         2.38984        -1.08652
| 99>    H       11.13798         2.86186         2.39906
|100>    H       12.42675         2.04551         1.46481
|101>    H       10.73376         1.50343         1.30970
|102>    H       -5.58952        -1.22594         0.33260
|103>    H       -8.87878        -1.68946        -0.38277
|104>    H       -7.85471        -0.49356         0.46704
|105>    H       -9.37518        -1.05743         1.21240
|106>    H       -6.80729        -2.95825         3.19761
|107>    H       -8.15678        -1.78731         3.30851
|108>    H       -6.57684        -1.27463         2.65001
|109> *
|110>
|111>                          ****END OF INPUT****

CARTESIAN COORDINATES (ANGSTROEM)
---------------------------------
  C      2.648530    1.221070   -0.531700
  C      2.826420   -0.194180   -0.549170
  C      1.718290   -1.027500   -0.639890
  C      0.450520   -0.434240   -0.757260
  C      0.280390    0.982550   -0.784650
  C      1.381170    1.815190   -0.651050
  C     -0.874320   -1.012310   -0.795900
  C     -1.844540   -0.012350   -0.845810
  C     -1.199680    1.359370   -0.930460
  C      3.954870    1.805000   -0.348630
  C      4.935540    0.813620   -0.268330
  C      4.309190   -0.568830   -0.394070
  S     -1.557810   -2.587020   -0.672490
  C     -3.185170   -1.901490   -0.623670
  C     -3.150780   -0.508420   -0.750890
  S      4.598830    3.392970   -0.216570
  C      6.232880    2.743770   -0.073520
  C      6.225430    1.342800   -0.133060
  C     -1.693290    2.295120    0.198250
  C     -1.491770    1.954090   -2.342980
  C     -0.982080    3.368680   -2.611570
  C     -1.664760    1.675830    1.594920
  C      4.880870   -1.261220   -1.665890
  C      4.505130   -1.412490    0.896140
  C      4.384610   -2.674190   -1.970980
  C      5.946480   -1.798640    1.226260
  C      7.339130    3.629940    0.087750
  C     -4.306020   -2.751600   -0.369980
  C      8.644690    3.211440    0.136820
  C      9.805560    4.011540    0.322800
  C     11.181440    3.370240    0.289130
  O     12.082890    4.486120    0.507650
  C     11.402030    5.625930    0.671820
  C      9.978380    5.362040    0.565200
  C     11.506610    2.767480   -1.077140
  C     11.380740    2.382840    1.439170
  C      8.927050    6.306210    0.694700
  C     12.082120    6.804970    0.898290
  C     11.409280    8.050510    1.074300
  C     13.509310    6.792180    0.955410
  N     10.889160    9.079220    1.221220
  N     14.670210    6.785560    1.002320
  N      7.997390    6.997840    0.782100
  C     -5.504440   -2.293110    0.112260
  C     -6.639560   -3.081130    0.462510
  C     -7.766380   -2.496930    1.300190
  O     -8.692780   -3.607460    1.439670
  C     -8.228320   -4.700160    0.825330
  C     -6.949850   -4.402070    0.204020
  C     -6.155110   -5.295390   -0.561660
  C     -8.957530   -5.870820    0.851630
  C     -8.498080   -7.067080    0.224470
  C    -10.209920   -5.904200    1.536980
  C     -8.513810   -1.363190    0.601300
  C     -7.295510   -2.105990    2.703710
  N    -11.228700   -5.935550    2.094200
  N     -8.147540   -8.054860   -0.276890
  N     -5.444730   -5.959080   -1.197910
  H      1.813840   -2.113760   -0.596960
  H      1.274750    2.900910   -0.615040
  H     -4.055180    0.099700   -0.767160
  H      7.138590    0.753850   -0.072370
  H     -2.720060    2.617080   -0.049700
  H     -1.082960    3.211830    0.187180
  H     -2.586120    1.931800   -2.483750
  H     -1.074490    1.259790   -3.089940
  H     -1.399040    4.099330   -1.902740
  H     -1.282510    3.690980   -3.620700
  H      0.115880    3.430980   -2.560850
  H     -2.359420    0.826300    1.677170
  H     -1.952530    2.417180    2.355710
  H     -0.660210    1.300680    1.848620
  H      5.978040   -1.281100   -1.563920
  H      4.672410   -0.601880   -2.524100
  H      3.895990   -2.325660    0.803880
  H      4.071000   -0.844240    1.734890
  H      4.545610   -3.363980   -1.128130
  H      4.929900   -3.085410   -2.834190
  H      3.315020   -2.691720   -2.225890
  H      6.417010   -2.379850    0.418220
  H      5.979590   -2.418510    2.135470
  H      6.571550   -0.913860    1.416350
  H      7.110940    4.694330    0.180270
  H     -4.159560   -3.824140   -0.518960
  H      8.839940    2.143790    0.010730
  H     11.396430    3.527100   -1.864060
  H     10.826210    1.933290   -1.297680
  H     12.539320    2.389840   -1.086520
  H     11.137980    2.861860    2.399060
  H     12.426750    2.045510    1.464810
  H     10.733760    1.503430    1.309700
  H     -5.589520   -1.225940    0.332600
  H     -8.878780   -1.689460   -0.382770
  H     -7.854710   -0.493560    0.467040
  H     -9.375180   -1.057430    1.212400
  H     -6.807290   -2.958250    3.197610
  H     -8.156780   -1.787310    3.308510
  H     -6.576840   -1.274630    2.650010

 Total Charge           Charge          ....    0
 Multiplicity           Mult            ....    1
 Number of Electrons    NEL             ....  418
 Basis Dimension        Dim             .... 1020

ORBITAL ENERGIES
----------------

  NO   OCC          E(Eh)            E(eV)
   0   2.0000     -91.999030     -2503.4209
   1   2.0000     -91.998488     -2503.4061
   2   2.0000     -20.642340      -561.7066
   3   2.0000     -20.640202      -561.6485
   4   2.0000     -15.601910      -424.5495
   5   2.0000     -15.599781      -424.4916
   6   2.0000     -15.572852      -423.7588
   7   2.0000     -15.570907      -423.7059
   8   2.0000     -15.569430      -423.6657
   9   2.0000     -15.567247      -423.6063
  10   2.0000     -11.397319      -310.1368
  11   2.0000     -11.395209      -310.0794
  12   2.0000     -11.363346      -309.2124
  13   2.0000     -11.360578      -309.1370
  14   2.0000     -11.345222      -308.7192
  15   2.0000     -11.342615      -308.6482
  16   2.0000     -11.329724      -308.2975
  17   2.0000     -11.329293      -308.2857
  18   2.0000     -11.319522      -308.0198
  19   2.0000     -11.317716      -307.9707
  20   2.0000     -11.316959      -307.9501
  21   2.0000     -11.316128      -307.9275
  22   2.0000     -11.315759      -307.9175
  23   2.0000     -11.314394      -307.8803
  24   2.0000     -11.310522      -307.7749
  25   2.0000     -11.309190      -307.7387
  26   2.0000     -11.304457      -307.6099
  27   2.0000     -11.304394      -307.6082
  28   2.0000     -11.302191      -307.5482
  29   2.0000     -11.301672      -307.5341
  30   2.0000     -11.295890      -307.3768
  31   2.0000     -11.295533      -307.3671
  32   2.0000     -11.294931      -307.3507
  33   2.0000     -11.293851      -307.3213
  34   2.0000     -11.291753      -307.2642
  35   2.0000     -11.291248      -307.2505
  36   2.0000     -11.288426      -307.1737
  37   2.0000     -11.287555      -307.1500
  38   2.0000     -11.286840      -307.1305
  39   2.0000     -11.286277      -307.1152
  40   2.0000     -11.285347      -307.0899
  41   2.0000     -11.283882      -307.0500
  42   2.0000     -11.283623      -307.0430
  43   2.0000     -11.282016      -306.9993
  44   2.0000     -11.281995      -306.9987
  45   2.0000     -11.280567      -306.9598
  46   2.0000     -11.277989      -306.8897
  47   2.0000     -11.277118      -306.8660
  48   2.0000     -11.276258      -306.8426
  49   2.0000     -11.275673      -306.8267
  50   2.0000     -11.267993      -306.6177
  51   2.0000     -11.267880      -306.6146
  52   2.0000     -11.267759      -306.6113
  53   2.0000     -11.266896      -306.5878
  54   2.0000     -11.257958      -306.3446
  55   2.0000     -11.254747      -306.2572
  56   2.0000     -11.252749      -306.2029
  57   2.0000     -11.251320      -306.1640
  58   2.0000      -9.033858      -245.8238
  59   2.0000      -9.033291      -245.8083
  60   2.0000      -6.721268      -182.8950
  61   2.0000      -6.720709      -182.8798
  62   2.0000      -6.720312      -182.8690
  63   2.0000      -6.719758      -182.8539
  64   2.0000      -6.718529      -182.8205
  65   2.0000      -6.717945      -182.8046
  66   2.0000      -1.480515       -40.2868
  67   2.0000      -1.478548       -40.2333
  68   2.0000      -1.249999       -34.0142
  69   2.0000      -1.238782       -33.7090
  70   2.0000      -1.235573       -33.6217
  71   2.0000      -1.233823       -33.5740
  72   2.0000      -1.212782       -33.0015
  73   2.0000      -1.210716       -32.9452
  74   2.0000      -1.196107       -32.5477
  75   2.0000      -1.195330       -32.5266
  76   2.0000      -1.193618       -32.4800
  77   2.0000      -1.184438       -32.2302
  78   2.0000      -1.177005       -32.0279
  79   2.0000      -1.160915       -31.5901
  80   2.0000      -1.141261       -31.0553
  81   2.0000      -1.138929       -30.9918
  82   2.0000      -1.124926       -30.6108
  83   2.0000      -1.113130       -30.2898
  84   2.0000      -1.105676       -30.0870
  85   2.0000      -1.080671       -29.4065
  86   2.0000      -1.067809       -29.0566
  87   2.0000      -1.065313       -28.9886
  88   2.0000      -1.047148       -28.4943
  89   2.0000      -1.039888       -28.2968
  90   2.0000      -1.038293       -28.2534
  91   2.0000      -1.036645       -28.2085
  92   2.0000      -1.031283       -28.0626
  93   2.0000      -1.028362       -27.9831
  94   2.0000      -0.989721       -26.9317
  95   2.0000      -0.983732       -26.7687
  96   2.0000      -0.983033       -26.7497
  97   2.0000      -0.972775       -26.4706
  98   2.0000      -0.951004       -25.8781
  99   2.0000      -0.943751       -25.6808
 100   2.0000      -0.929860       -25.3028
 101   2.0000      -0.909158       -24.7394
 102   2.0000      -0.900640       -24.5077
 103   2.0000      -0.894361       -24.3368
 104   2.0000      -0.882192       -24.0057
 105   2.0000      -0.877413       -23.8756
 106   2.0000      -0.866455       -23.5774
 107   2.0000      -0.862288       -23.4641
 108   2.0000      -0.849822       -23.1248
 109   2.0000      -0.831396       -22.6234
 110   2.0000      -0.827031       -22.5047
 111   2.0000      -0.812898       -22.1201
 112   2.0000      -0.794042       -21.6070
 113   2.0000      -0.793844       -21.6016
 114   2.0000      -0.786173       -21.3929
 115   2.0000      -0.777857       -21.1666
 116   2.0000      -0.775868       -21.1124
 117   2.0000      -0.767023       -20.8718
 118   2.0000      -0.766175       -20.8487
 119   2.0000      -0.750777       -20.4297
 120   2.0000      -0.742283       -20.1986
 121   2.0000      -0.733409       -19.9571
 122   2.0000      -0.724309       -19.7094
 123   2.0000      -0.714625       -19.4459
 124   2.0000      -0.704305       -19.1651
 125   2.0000      -0.702692       -19.1212
 126   2.0000      -0.694015       -18.8851
 127   2.0000      -0.687000       -18.6942
 128   2.0000      -0.684073       -18.6146
 129   2.0000      -0.674152       -18.3446
 130   2.0000      -0.670074       -18.2336
 131   2.0000      -0.662416       -18.0252
 132   2.0000      -0.661079       -17.9889
 133   2.0000      -0.658970       -17.9315
 134   2.0000      -0.656600       -17.8670
 135   2.0000      -0.655546       -17.8383
 136   2.0000      -0.647027       -17.6065
 137   2.0000      -0.642139       -17.4735
 138   2.0000      -0.634635       -17.2693
 139   2.0000      -0.625252       -17.0140
 140   2.0000      -0.621338       -16.9075
 141   2.0000      -0.613706       -16.6998
 142   2.0000      -0.612584       -16.6693
 143   2.0000      -0.609105       -16.5746
 144   2.0000      -0.603838       -16.4313
 145   2.0000      -0.602513       -16.3952
 146   2.0000      -0.598472       -16.2852
 147   2.0000      -0.597886       -16.2693
 148   2.0000      -0.595849       -16.2139
 149   2.0000      -0.594769       -16.1845
 150   2.0000      -0.591872       -16.1057
 151   2.0000      -0.590127       -16.0582
 152   2.0000      -0.589259       -16.0345
 153   2.0000      -0.582785       -15.8584
 154   2.0000      -0.581742       -15.8300
 155   2.0000      -0.581069       -15.8117
 156   2.0000      -0.577870       -15.7247
 157   2.0000      -0.577086       -15.7033
 158   2.0000      -0.574604       -15.6358
 159   2.0000      -0.573434       -15.6039
 160   2.0000      -0.565024       -15.3751
 161   2.0000      -0.557090       -15.1592
 162   2.0000      -0.555502       -15.1160
 163   2.0000      -0.555107       -15.1052
 164   2.0000      -0.554311       -15.0836
 165   2.0000      -0.553469       -15.0607
 166   2.0000      -0.552468       -15.0334
 167   2.0000      -0.551125       -14.9969
 168   2.0000      -0.549739       -14.9592
 169   2.0000      -0.549161       -14.9434
 170   2.0000      -0.547809       -14.9066
 171   2.0000      -0.547016       -14.8851
 172   2.0000      -0.546255       -14.8644
 173   2.0000      -0.544016       -14.8034
 174   2.0000      -0.543648       -14.7934
 175   2.0000      -0.539330       -14.6759
 176   2.0000      -0.537784       -14.6339
 177   2.0000      -0.530772       -14.4431
 178   2.0000      -0.530227       -14.4282
 179   2.0000      -0.522006       -14.2045
 180   2.0000      -0.520435       -14.1618
 181   2.0000      -0.518941       -14.1211
 182   2.0000      -0.518623       -14.1124
 183   2.0000      -0.503829       -13.7099
 184   2.0000      -0.502412       -13.6713
 185   2.0000      -0.497354       -13.5337
 186   2.0000      -0.494596       -13.4586
 187   2.0000      -0.493306       -13.4235
 188   2.0000      -0.489826       -13.3288
 189   2.0000      -0.488010       -13.2794
 190   2.0000      -0.485354       -13.2072
 191   2.0000      -0.481143       -13.0926
 192   2.0000      -0.479444       -13.0463
 193   2.0000      -0.473599       -12.8873
 194   2.0000      -0.471732       -12.8365
 195   2.0000      -0.467852       -12.7309
 196   2.0000      -0.466004       -12.6806
 197   2.0000      -0.454207       -12.3596
 198   2.0000      -0.452642       -12.3170
 199   2.0000      -0.445201       -12.1145
 200   2.0000      -0.424338       -11.5468
 201   2.0000      -0.399639       -10.8747
 202   2.0000      -0.390994       -10.6395
 203   2.0000      -0.390115       -10.6156
 204   2.0000      -0.374187       -10.1822
 205   2.0000      -0.360479        -9.8091
 206   2.0000      -0.340671        -9.2701
 207   2.0000      -0.316964        -8.6250
 208   2.0000      -0.281150        -7.6505
 209   0.0000      -0.040679        -1.1069
 210   0.0000      -0.019393        -0.5277
 211   0.0000       0.041446         1.1278
 212   0.0000       0.076553         2.0831
 213   0.0000       0.085299         2.3211

MULLIKEN ATOMIC CHARGES
-----------------------
   0 C :   -0.081277
   1 C :    0.008975
   2 C :   -0.005567
   3 C :   -0.067118
   4 C :   -0.006207
   5 C :   -0.002029
   6 C :   -0.014217
   7 C :   -0.063784
   8 C :   -0.314203
   9 C :   -0.015931
  10 C :   -0.043284
  11 C :   -0.309753
  12 S :    0.200509
  13 C :   -0.218726
  14 C :    0.048524
  15 S :    0.209528
  16 C :   -0.226807
  17 C :    0.047538
  18 C :    0.002801
  19 C :    0.038909
  20 C :   -0.028053
  21 C :   -0.020055
  22 C :    0.017612
  23 C :    0.019267
  24 C :   -0.028420
  25 C :   -0.032199
  26 C :    0.138233
  27 C :    0.127918
  28 C :   -0.134879
  29 C :    0.100970
  30 C :   -0.038178
  31 O :   -0.510238
  32 C :    0.567845
  33 C :   -0.326613
  34 C :    0.073940
  35 C :    0.072139
  36 C :    0.047613
  37 C :   -0.504000
  38 C :    0.046735
  39 C :    0.098523
  40 N :   -0.064240
  41 N :   -0.083610
  42 N :   -0.050135
  43 C :   -0.120673
  44 C :    0.090203
  45 C :   -0.036522
  46 O :   -0.510195
  47 C :    0.566751
  48 C :   -0.316330
  49 C :    0.039145
  50 C :   -0.500128
  51 C :    0.045964
  52 C :    0.097983
  53 C :    0.067132
  54 C :    0.074937
  55 N :   -0.081528
  56 N :   -0.062183
  57 N :   -0.041561
  58 H :    0.040475
  59 H :    0.040792
  60 H :    0.053779
  61 H :    0.054470
  62 H :    0.033875
  63 H :    0.047919
  64 H :    0.033797
  65 H :    0.044362
  66 H :    0.037010
  67 H :    0.049010
  68 H :    0.039233
  69 H :    0.037406
  70 H :    0.044038
  71 H :    0.047483
  72 H :    0.033999
  73 H :    0.045874
  74 H :    0.041452
  75 H :    0.046456
  76 H :    0.034655
  77 H :    0.048428
  78 H :    0.042625
  79 H :    0.035887
  80 H :    0.050768
  81 H :    0.031658
  82 H :    0.098540
  83 H :    0.100351
  84 H :    0.046942
  85 H :    0.060275
  86 H :    0.038760
  87 H :    0.073207
  88 H :    0.059912
  89 H :    0.075047
  90 H :    0.038119
  91 H :    0.051210
  92 H :    0.061091
  93 H :    0.039558
  94 H :    0.074966
  95 H :    0.058870
  96 H :    0.073659
  97 H :    0.042994
Sum of atomic charges:   -0.0000000

LOEWDIN ATOMIC CHARGES
----------------------
   0 C :   -0.036404
   1 C :    0.011325
   2 C :   -0.016923
   3 C :   -0.031390
   4 C :    0.008099
   5 C :   -0.015564
   6 C :   -0.150313
   7 C :   -0.050700
   8 C :   -0.031146
   9 C :   -0.142837
  10 C :   -0.053757
  11 C :   -0.029009
  12 S :    0.430691
  13 C :   -0.196025
  14 C :   -0.004278
  15 S :    0.436984
  16 C :   -0.204845
  17 C :    0.001761
  18 C :   -0.006022
  19 C :    0.002778
  20 C :   -0.039094
  21 C :   -0.036705
  22 C :   -0.002590
  23 C :   -0.002219
  24 C :   -0.038789
  25 C :   -0.038346
  26 C :    0.087467
  27 C :    0.082157
  28 C :   -0.104158
  29 C :    0.099643
  30 C :    0.088664
  31 O :   -0.137204
  32 C :    0.216454
  33 C :   -0.157196
  34 C :   -0.012078
  35 C :   -0.012398
  36 C :    0.008352
  37 C :   -0.226890
  38 C :    0.002089
  39 C :    0.017892
  40 N :   -0.093879
  41 N :   -0.108162
  42 N :   -0.081923
  43 C :   -0.096533
  44 C :    0.097779
  45 C :    0.089975
  46 O :   -0.137326
  47 C :    0.215161
  48 C :   -0.150732
  49 C :    0.004923
  50 C :   -0.224321
  51 C :    0.001607
  52 C :    0.017571
  53 C :   -0.012761
  54 C :   -0.011909
  55 N :   -0.106043
  56 N :   -0.091696
  57 N :   -0.075863
  58 H :    0.030548
  59 H :    0.030743
  60 H :    0.034196
  61 H :    0.031457
  62 H :    0.015586
  63 H :    0.017464
  64 H :    0.015214
  65 H :    0.022907
  66 H :    0.017363
  67 H :    0.026132
  68 H :    0.017563
  69 H :    0.016316
  70 H :    0.022160
  71 H :    0.022187
  72 H :    0.013237
  73 H :    0.023607
  74 H :    0.015181
  75 H :    0.023631
  76 H :    0.016448
  77 H :    0.026254
  78 H :    0.018537
  79 H :    0.016597
  80 H :    0.026851
  81 H :    0.014812
  82 H :    0.048975
  83 H :    0.049049
  84 H :    0.025154
  85 H :    0.033103
  86 H :    0.024448
  87 H :    0.037441
  88 H :    0.032696
  89 H :    0.038155
  90 H :    0.023890
  91 H :    0.027224
  92 H :    0.032839
  93 H :    0.024147
  94 H :    0.038681
  95 H :    0.032325
  96 H :    0.037521
  97 H :    0.026020

  Mayer bond orders larger than 0.100000
B(  0-C ,  1-C ) :   1.4056 B(  0-C ,  5-C ) :   1.3550 B(  0-C ,  9-C ) :   1.1281
B(  1-C ,  2-C ) :   1.4844 B(  1-C , 11-C ) :   0.9490 B(  2-C ,  3-C ) :   1.3685
B(  2-C , 58-H ) :   0.9973 B(  3-C ,  4-C ) :   1.3950 B(  3-C ,  6-C ) :   1.1197
B(  4-C ,  5-C ) :   1.4963 B(  4-C ,  8-C ) :   0.9213 B(  5-C , 59-H ) :   0.9981
B(  6-C ,  7-C ) :   1.5709 B(  6-C , 12-S ) :   1.1140 B(  7-C ,  8-C ) :   0.9474
B(  7-C , 14-C ) :   1.3525 B(  8-C , 18-C ) :   1.0090 B(  8-C , 19-C ) :   0.9891
B(  9-C , 10-C ) :   1.5607 B(  9-C , 15-S ) :   1.1226 B( 10-C , 11-C ) :   0.9460
B( 10-C , 17-C ) :   1.3765 B( 11-C , 22-C ) :   0.9785 B( 11-C , 23-C ) :   0.9898
B( 12-S , 13-C ) :   1.1051 B( 13-C , 14-C ) :   1.5123 B( 13-C , 27-C ) :   1.1465
B( 14-C , 60-H ) :   0.9961 B( 15-S , 16-C ) :   1.1026 B( 16-C , 17-C ) :   1.4947
B( 16-C , 26-C ) :   1.1643 B( 17-C , 61-H ) :   0.9901 B( 18-C , 21-C ) :   1.0385
B( 18-C , 62-H ) :   0.9711 B( 18-C , 63-H ) :   0.9719 B( 19-C , 20-C ) :   1.0450
B( 19-C , 64-H ) :   0.9701 B( 19-C , 65-H ) :   0.9709 B( 20-C , 66-H ) :   0.9816
B( 20-C , 67-H ) :   0.9850 B( 20-C , 68-H ) :   0.9811 B( 21-C , 69-H ) :   0.9785
B( 21-C , 70-H ) :   0.9869 B( 21-C , 71-H ) :   0.9840 B( 22-C , 24-C ) :   1.0440
B( 22-C , 72-H ) :   0.9737 B( 22-C , 73-H ) :   0.9699 B( 23-C , 25-C ) :   1.0415
B( 23-C , 74-H ) :   0.9721 B( 23-C , 75-H ) :   0.9705 B( 24-C , 76-H ) :   0.9821
B( 24-C , 77-H ) :   0.9848 B( 24-C , 78-H ) :   0.9806 B( 25-C , 79-H ) :   0.9816
B( 25-C , 80-H ) :   0.9854 B( 25-C , 81-H ) :   0.9818 B( 26-C , 28-C ) :   1.6763
B( 26-C , 82-H ) :   0.9578 B( 27-C , 43-C ) :   1.6995 B( 27-C , 83-H ) :   0.9581
B( 28-C , 29-C ) :   1.1790 B( 28-C , 84-H ) :   0.9735 B( 29-C , 30-C ) :   1.0010
B( 29-C , 33-C ) :   1.6308 B( 30-C , 31-O ) :   0.7874 B( 30-C , 34-C ) :   1.0021
B( 30-C , 35-C ) :   1.0015 B( 31-O , 32-C ) :   1.1022 B( 32-C , 33-C ) :   1.0736
B( 32-C , 37-C ) :   1.6545 B( 33-C , 36-C ) :   1.0759 B( 34-C , 85-H ) :   0.9740
B( 34-C , 86-H ) :   0.9728 B( 34-C , 87-H ) :   0.9776 B( 35-C , 88-H ) :   0.9741
B( 35-C , 89-H ) :   0.9768 B( 35-C , 90-H ) :   0.9732 B( 36-C , 42-N ) :   2.9743
B( 37-C , 38-C ) :   1.0726 B( 37-C , 39-C ) :   1.0417 B( 38-C , 40-N ) :   3.0070
B( 39-C , 41-N ) :   3.0246 B( 43-C , 44-C ) :   1.1603 B( 43-C , 91-H ) :   0.9732
B( 44-C , 45-C ) :   0.9986 B( 44-C , 48-C ) :   1.6546 B( 45-C , 46-O ) :   0.7853
B( 45-C , 53-C ) :   1.0048 B( 45-C , 54-C ) :   1.0003 B( 46-O , 47-C ) :   1.1036
B( 47-C , 48-C ) :   1.0672 B( 47-C , 50-C ) :   1.6600 B( 48-C , 49-C ) :   1.0741
B( 49-C , 57-N ) :   2.9834 B( 50-C , 51-C ) :   1.0707 B( 50-C , 52-C ) :   1.0411
B( 51-C , 56-N ) :   3.0084 B( 52-C , 55-N ) :   3.0250 B( 53-C , 92-H ) :   0.9746
B( 53-C , 93-H ) :   0.9734 B( 53-C , 94-H ) :   0.9769 B( 54-C , 95-H ) :   0.9739
B( 54-C , 96-H ) :   0.9770 B( 54-C , 97-H ) :   0.9723

-----------------------------------------------------------------------------
         ABSORPTION SPECTRUM VIA TRANSITION ELECTRIC DIPOLE MOMENTS
-----------------------------------------------------------------------------
State   Energy    Wavelength  fosc         T2        TX        TY        TZ
        (cm-1)      (nm)                 (au**2)    (au)      (au)      (au)
-----------------------------------------------------------------------------
   1   22481.8    444.8   3.289268701  48.16635  -5.98325  -3.51383  -0.14143
   2   27857.4    359.0   0.060214565   0.71160   0.25863   0.06527  -0.80028
   3   36957.4    270.6   0.496627211   4.42390  -0.75449  -1.96330  -0.01029

FINAL SINGLE POINT ENERGY     -3110.199613322133

DIPOLE MOMENT
-------------
                                X             Y             Z
Electronic contribution:     -5.31395       2.64356       3.40319
Nuclear contribution   :      5.30128      -3.00063      -4.40021
                        -----------------------------------------
Total Dipole Moment    :     -0.01267      -0.35707      -0.99703
                        -----------------------------------------
Magnitude (a.u.)       :      1.05911
Magnitude (Debye)      :      2.69205

Rotational constants in cm-1:     0.004318     0.000325     0.000312
Rotational constants in MHz :   129.463166     9.738263     9.360710

                             ****ORCA TERMINATED NORMALLY****
TOTAL RUN TIME: 0 days 10 hours 0 minutes 20 seconds 243 msec
