                         Program Version 4.2.0 -  RELEASE  -
|  1> # ORCA input file
|  2> # IDTCF.out
|  3> ! Engrad Keepdens
|  4> %maxcore 1000
|  5> %tddft
|  6>   nroots 3
|  7>   # nroots is the number of states to be computed
|  8>   Iroot 1
|  9>   end
| 10> * xyz 0 1
| 11>    C        2.71923         1.14877        -0.08754
| 12>    C        2.83688        -0.25690        -0.20035
| 13>    C        1.70485        -1.03952        -0.19162
| 14>    C        0.47277        -0.39111        -0.13449
| 15>    C        0.35719         1.01954        -0.07735
| 16>    C        1.48848         1.79859        -0.02208
| 17>    C       -0.85233        -0.91999        -0.07908
| 18>    C       -1.78665         0.10687         0.01016
| 19>    C       -1.09804         1.44606        -0.03681
| 20>    C        4.04276         1.67603        -0.03931
| 21>    C        4.98741         0.65686        -0.11920
| 22>    C        4.29767        -0.68000        -0.25107
| 23>    S       -1.57474        -2.46992        -0.07184
| 24>    C       -3.16751        -1.74028         0.04754
| 25>    C       -3.09228        -0.35039         0.07676
| 26>    S        4.74171         3.23096         0.06699
| 27>    C        6.34518         2.52323        -0.01367
| 28>    C        6.28915         1.13603        -0.11892
| 29>    C       -1.41522         2.30570         1.19612
| 30>    C       -1.53504         2.14093        -1.34845
| 31>    C       -0.81825         3.44253        -1.68000
| 32>    C       -1.11921         1.58162         2.50456
| 33>    C        4.68473        -1.27455        -1.62265
| 34>    C        4.58583        -1.61459         0.93990
| 35>    C        4.02301        -2.59789        -1.98245
| 36>    C        6.02741        -2.09110         1.05688
| 37>    C        7.45338         3.39482         0.02678
| 38>    C       -4.29443        -2.58748         0.09642
| 39>    C        8.76270         3.01923        -0.01009
| 40>    C        9.85236         3.91385         0.02444
| 41>    C       11.28537         3.42528         0.00727
| 42>    O       12.07344         4.62101         0.05169
| 43>    C       11.27334         5.69659         0.09145
| 44>    C        9.88866         5.29105         0.07600
| 45>    C       11.62554         2.67681        -1.28407
| 46>    C       11.62017         2.58592         1.24308
| 47>    C        8.80711         6.18142         0.10460
| 48>    C       11.78891         6.96475         0.13815
| 49>    C       10.99236         8.12291         0.18081
| 50>    C       13.18323         7.17152         0.14549
| 51>    N       10.39537         9.10194         0.21674
| 52>    N       14.31703         7.34436         0.15227
| 53>    N        7.89854         6.88269         0.12330
| 54>    C       -5.58700        -2.16234         0.17381
| 55>    C       -6.71573        -3.00547         0.22155
| 56>    C       -8.12098        -2.44549         0.28963
| 57>    O       -8.96670        -3.60126         0.32471
| 58>    C       -8.22226        -4.71610         0.28347
| 59>    C       -6.82047        -4.37993         0.21883
| 60>    C       -5.78270        -5.31978         0.16684
| 61>    C       -8.80090        -5.95743         0.30486
| 62>    C       -8.06425        -7.15459         0.26369
| 63>    C      -10.20245        -6.09273         0.37126
| 64>    C       -8.47556        -1.63075        -0.95720
| 65>    C       -8.35981        -1.63888         1.56865
| 66>    N      -11.34248        -6.20614         0.42579
| 67>    N       -7.51660        -8.16225         0.23188
| 68>    N       -4.90615        -6.05978         0.12327
| 69>    H        1.74185        -2.11723        -0.21130
| 70>    H        1.45137         2.87104         0.08662
| 71>    H       -3.95883         0.28077         0.15078
| 72>    H        7.17228         0.52974        -0.20243
| 73>    H       -2.47018         2.58589         1.16461
| 74>    H       -0.82179         3.21913         1.15426
| 75>    H       -2.60829         2.33153        -1.27609
| 76>    H       -1.37928         1.43608        -2.16941
| 77>    H       -0.93375         4.17456        -0.88553
| 78>    H       -1.24387         3.86310        -2.58833
| 79>    H        0.24023         3.27065        -1.85341
| 80>    H       -1.72479         0.68280         2.59711
| 81>    H       -1.33931         2.23109         3.34821
| 82>    H       -0.07105         1.29501         2.55553
| 83>    H        5.76890        -1.39760        -1.63950
| 84>    H        4.43012        -0.53422        -2.38594
| 85>    H        3.92652        -2.47995         0.86435
| 86>    H        4.31396        -1.07762         1.85262
| 87>    H        4.21715        -3.35831        -1.23119
| 88>    H        4.42261        -2.95155        -2.93041
| 89>    H        2.94948        -2.47876        -2.09618
| 90>    H        6.33130        -2.65618         0.18001
| 91>    H        6.12248        -2.73978         1.92485
| 92>    H        6.70499        -1.25235         1.18925
| 93>    H        7.21563         4.44692         0.09331
| 94>    H       -4.09057        -3.64821         0.06554
| 95>    H        9.00971         1.96848        -0.06800
| 96>    H       11.38004         3.29052        -2.14839
| 97>    H       11.06964         1.74579        -1.34140
| 98>    H       12.69029         2.46055        -1.30181
| 99>    H       11.37624         3.13858         2.14811
|100>    H       12.68374         2.36337         1.24717
|101>    H       11.05893         1.65634         1.23409
|102>    H       -5.78857        -1.10072         0.19991
|103>    H       -8.30707        -2.22499        -1.85300
|104>    H       -7.86776        -0.73237        -1.00937
|105>    H       -9.52511        -1.35231        -0.91642
|106>    H       -8.09987        -2.23454         2.44132
|107>    H       -9.41090        -1.37033         1.63086
|108>    H       -7.75851        -0.73466         1.56540
|109> *
|110>
|111>                          ****END OF INPUT****

CARTESIAN COORDINATES (ANGSTROEM)
---------------------------------
  C      2.719230    1.148770   -0.087540
  C      2.836880   -0.256900   -0.200350
  C      1.704850   -1.039520   -0.191620
  C      0.472770   -0.391110   -0.134490
  C      0.357190    1.019540   -0.077350
  C      1.488480    1.798590   -0.022080
  C     -0.852330   -0.919990   -0.079080
  C     -1.786650    0.106870    0.010160
  C     -1.098040    1.446060   -0.036810
  C      4.042760    1.676030   -0.039310
  C      4.987410    0.656860   -0.119200
  C      4.297670   -0.680000   -0.251070
  S     -1.574740   -2.469920   -0.071840
  C     -3.167510   -1.740280    0.047540
  C     -3.092280   -0.350390    0.076760
  S      4.741710    3.230960    0.066990
  C      6.345180    2.523230   -0.013670
  C      6.289150    1.136030   -0.118920
  C     -1.415220    2.305700    1.196120
  C     -1.535040    2.140930   -1.348450
  C     -0.818250    3.442530   -1.680000
  C     -1.119210    1.581620    2.504560
  C      4.684730   -1.274550   -1.622650
  C      4.585830   -1.614590    0.939900
  C      4.023010   -2.597890   -1.982450
  C      6.027410   -2.091100    1.056880
  C      7.453380    3.394820    0.026780
  C     -4.294430   -2.587480    0.096420
  C      8.762700    3.019230   -0.010090
  C      9.852360    3.913850    0.024440
  C     11.285370    3.425280    0.007270
  O     12.073440    4.621010    0.051690
  C     11.273340    5.696590    0.091450
  C      9.888660    5.291050    0.076000
  C     11.625540    2.676810   -1.284070
  C     11.620170    2.585920    1.243080
  C      8.807110    6.181420    0.104600
  C     11.788910    6.964750    0.138150
  C     10.992360    8.122910    0.180810
  C     13.183230    7.171520    0.145490
  N     10.395370    9.101940    0.216740
  N     14.317030    7.344360    0.152270
  N      7.898540    6.882690    0.123300
  C     -5.587000   -2.162340    0.173810
  C     -6.715730   -3.005470    0.221550
  C     -8.120980   -2.445490    0.289630
  O     -8.966700   -3.601260    0.324710
  C     -8.222260   -4.716100    0.283470
  C     -6.820470   -4.379930    0.218830
  C     -5.782700   -5.319780    0.166840
  C     -8.800900   -5.957430    0.304860
  C     -8.064250   -7.154590    0.263690
  C    -10.202450   -6.092730    0.371260
  C     -8.475560   -1.630750   -0.957200
  C     -8.359810   -1.638880    1.568650
  N    -11.342480   -6.206140    0.425790
  N     -7.516600   -8.162250    0.231880
  N     -4.906150   -6.059780    0.123270
  H      1.741850   -2.117230   -0.211300
  H      1.451370    2.871040    0.086620
  H     -3.958830    0.280770    0.150780
  H      7.172280    0.529740   -0.202430
  H     -2.470180    2.585890    1.164610
  H     -0.821790    3.219130    1.154260
  H     -2.608290    2.331530   -1.276090
  H     -1.379280    1.436080   -2.169410
  H     -0.933750    4.174560   -0.885530
  H     -1.243870    3.863100   -2.588330
  H      0.240230    3.270650   -1.853410
  H     -1.724790    0.682800    2.597110
  H     -1.339310    2.231090    3.348210
  H     -0.071050    1.295010    2.555530
  H      5.768900   -1.397600   -1.639500
  H      4.430120   -0.534220   -2.385940
  H      3.926520   -2.479950    0.864350
  H      4.313960   -1.077620    1.852620
  H      4.217150   -3.358310   -1.231190
  H      4.422610   -2.951550   -2.930410
  H      2.949480   -2.478760   -2.096180
  H      6.331300   -2.656180    0.180010
  H      6.122480   -2.739780    1.924850
  H      6.704990   -1.252350    1.189250
  H      7.215630    4.446920    0.093310
  H     -4.090570   -3.648210    0.065540
  H      9.009710    1.968480   -0.068000
  H     11.380040    3.290520   -2.148390
  H     11.069640    1.745790   -1.341400
  H     12.690290    2.460550   -1.301810
  H     11.376240    3.138580    2.148110
  H     12.683740    2.363370    1.247170
  H     11.058930    1.656340    1.234090
  H     -5.788570   -1.100720    0.199910
  H     -8.307070   -2.224990   -1.853000
  H     -7.867760   -0.732370   -1.009370
  H     -9.525110   -1.352310   -0.916420
  H     -8.099870   -2.234540    2.441320
  H     -9.410900   -1.370330    1.630860
  H     -7.758510   -0.734660    1.565400

 Total Charge           Charge          ....    0
 Multiplicity           Mult            ....    1
 Number of Electrons    NEL             ....  418
 Basis Dimension        Dim             .... 1020

ORBITAL ENERGIES
----------------

  NO   OCC          E(Eh)            E(eV)
   0   2.0000     -91.998691     -2503.4116
   1   2.0000     -91.998345     -2503.4022
   2   2.0000     -20.640980      -561.6696
   3   2.0000     -20.640825      -561.6654
   4   2.0000     -15.594970      -424.3607
   5   2.0000     -15.594868      -424.3579
   6   2.0000     -15.563718      -423.5103
   7   2.0000     -15.563408      -423.5019
   8   2.0000     -15.561229      -423.4426
   9   2.0000     -15.561004      -423.4364
  10   2.0000     -11.390777      -309.9588
  11   2.0000     -11.390548      -309.9526
  12   2.0000     -11.356591      -309.0285
  13   2.0000     -11.356502      -309.0261
  14   2.0000     -11.338531      -308.5371
  15   2.0000     -11.338493      -308.5361
  16   2.0000     -11.324061      -308.1434
  17   2.0000     -11.323658      -308.1324
  18   2.0000     -11.313343      -307.8517
  19   2.0000     -11.313111      -307.8454
  20   2.0000     -11.312670      -307.8334
  21   2.0000     -11.312230      -307.8214
  22   2.0000     -11.309048      -307.7348
  23   2.0000     -11.308664      -307.7244
  24   2.0000     -11.302223      -307.5491
  25   2.0000     -11.302136      -307.5468
  26   2.0000     -11.300747      -307.5090
  27   2.0000     -11.299827      -307.4839
  28   2.0000     -11.294248      -307.3321
  29   2.0000     -11.293961      -307.3243
  30   2.0000     -11.291002      -307.2438
  31   2.0000     -11.290397      -307.2273
  32   2.0000     -11.287905      -307.1595
  33   2.0000     -11.287563      -307.1502
  34   2.0000     -11.287309      -307.1433
  35   2.0000     -11.285517      -307.0945
  36   2.0000     -11.284447      -307.0654
  37   2.0000     -11.283841      -307.0489
  38   2.0000     -11.283080      -307.0282
  39   2.0000     -11.282569      -307.0143
  40   2.0000     -11.278887      -306.9141
  41   2.0000     -11.277394      -306.8735
  42   2.0000     -11.275402      -306.8193
  43   2.0000     -11.275141      -306.8122
  44   2.0000     -11.274667      -306.7993
  45   2.0000     -11.274470      -306.7939
  46   2.0000     -11.270353      -306.6819
  47   2.0000     -11.270279      -306.6799
  48   2.0000     -11.270234      -306.6787
  49   2.0000     -11.270081      -306.6745
  50   2.0000     -11.263982      -306.5085
  51   2.0000     -11.263775      -306.5029
  52   2.0000     -11.263388      -306.4924
  53   2.0000     -11.262800      -306.4764
  54   2.0000     -11.252521      -306.1967
  55   2.0000     -11.248969      -306.1000
  56   2.0000     -11.246972      -306.0457
  57   2.0000     -11.243528      -305.9520
  58   2.0000      -9.033949      -245.8263
  59   2.0000      -9.033758      -245.8210
  60   2.0000      -6.721360      -182.8975
  61   2.0000      -6.721168      -182.8923
  62   2.0000      -6.720399      -182.8713
  63   2.0000      -6.720190      -182.8657
  64   2.0000      -6.718618      -182.8229
  65   2.0000      -6.718415      -182.8174
  66   2.0000      -1.482149       -40.3313
  67   2.0000      -1.481962       -40.3262
  68   2.0000      -1.259591       -34.2752
  69   2.0000      -1.247272       -33.9400
  70   2.0000      -1.240873       -33.7659
  71   2.0000      -1.240636       -33.7594
  72   2.0000      -1.217189       -33.1214
  73   2.0000      -1.216985       -33.1158
  74   2.0000      -1.203134       -32.7390
  75   2.0000      -1.198950       -32.6251
  76   2.0000      -1.198733       -32.6192
  77   2.0000      -1.188766       -32.3480
  78   2.0000      -1.180644       -32.1270
  79   2.0000      -1.167493       -31.7691
  80   2.0000      -1.143423       -31.1141
  81   2.0000      -1.143245       -31.1093
  82   2.0000      -1.132224       -30.8094
  83   2.0000      -1.119083       -30.4518
  84   2.0000      -1.109730       -30.1973
  85   2.0000      -1.086276       -29.5591
  86   2.0000      -1.069777       -29.1101
  87   2.0000      -1.068472       -29.0746
  88   2.0000      -1.053090       -28.6560
  89   2.0000      -1.045622       -28.4528
  90   2.0000      -1.043810       -28.4035
  91   2.0000      -1.042183       -28.3592
  92   2.0000      -1.037755       -28.2387
  93   2.0000      -1.034642       -28.1541
  94   2.0000      -0.994168       -27.0527
  95   2.0000      -0.984238       -26.7825
  96   2.0000      -0.984148       -26.7800
  97   2.0000      -0.978406       -26.6238
  98   2.0000      -0.954698       -25.9786
  99   2.0000      -0.948538       -25.8110
 100   2.0000      -0.932991       -25.3880
 101   2.0000      -0.913779       -24.8652
 102   2.0000      -0.904767       -24.6200
 103   2.0000      -0.898958       -24.4619
 104   2.0000      -0.886168       -24.1139
 105   2.0000      -0.881159       -23.9775
 106   2.0000      -0.870883       -23.6979
 107   2.0000      -0.864844       -23.5336
 108   2.0000      -0.851956       -23.1829
 109   2.0000      -0.834372       -22.7044
 110   2.0000      -0.830705       -22.6046
 111   2.0000      -0.816805       -22.2264
 112   2.0000      -0.800329       -21.7781
 113   2.0000      -0.797399       -21.6983
 114   2.0000      -0.789693       -21.4887
 115   2.0000      -0.781627       -21.2691
 116   2.0000      -0.779579       -21.2134
 117   2.0000      -0.768635       -20.9156
 118   2.0000      -0.767666       -20.8893
 119   2.0000      -0.754881       -20.5414
 120   2.0000      -0.746552       -20.3147
 121   2.0000      -0.738376       -20.0922
 122   2.0000      -0.727712       -19.8021
 123   2.0000      -0.719454       -19.5773
 124   2.0000      -0.704905       -19.1814
 125   2.0000      -0.704749       -19.1772
 126   2.0000      -0.697678       -18.9848
 127   2.0000      -0.691389       -18.8137
 128   2.0000      -0.686510       -18.6809
 129   2.0000      -0.677097       -18.4247
 130   2.0000      -0.673961       -18.3394
 131   2.0000      -0.666813       -18.1449
 132   2.0000      -0.664746       -18.0886
 133   2.0000      -0.663525       -18.0554
 134   2.0000      -0.659481       -17.9454
 135   2.0000      -0.657741       -17.8980
 136   2.0000      -0.650626       -17.7044
 137   2.0000      -0.648835       -17.6557
 138   2.0000      -0.639625       -17.4051
 139   2.0000      -0.629310       -17.1244
 140   2.0000      -0.623290       -16.9606
 141   2.0000      -0.616111       -16.7652
 142   2.0000      -0.614150       -16.7119
 143   2.0000      -0.611824       -16.6486
 144   2.0000      -0.605192       -16.4681
 145   2.0000      -0.603774       -16.4295
 146   2.0000      -0.603267       -16.4157
 147   2.0000      -0.602331       -16.3903
 148   2.0000      -0.600401       -16.3378
 149   2.0000      -0.597951       -16.2711
 150   2.0000      -0.595632       -16.2080
 151   2.0000      -0.592601       -16.1255
 152   2.0000      -0.592316       -16.1177
 153   2.0000      -0.586162       -15.9503
 154   2.0000      -0.584884       -15.9155
 155   2.0000      -0.583334       -15.8733
 156   2.0000      -0.579627       -15.7725
 157   2.0000      -0.577722       -15.7206
 158   2.0000      -0.576741       -15.6939
 159   2.0000      -0.575857       -15.6699
 160   2.0000      -0.570531       -15.5249
 161   2.0000      -0.560434       -15.2502
 162   2.0000      -0.558300       -15.1921
 163   2.0000      -0.557851       -15.1799
 164   2.0000      -0.555907       -15.1270
 165   2.0000      -0.553075       -15.0499
 166   2.0000      -0.550245       -14.9729
 167   2.0000      -0.550207       -14.9719
 168   2.0000      -0.549994       -14.9661
 169   2.0000      -0.548802       -14.9336
 170   2.0000      -0.546239       -14.8639
 171   2.0000      -0.545961       -14.8563
 172   2.0000      -0.545351       -14.8398
 173   2.0000      -0.544040       -14.8041
 174   2.0000      -0.543204       -14.7813
 175   2.0000      -0.541529       -14.7358
 176   2.0000      -0.539919       -14.6919
 177   2.0000      -0.535660       -14.5760
 178   2.0000      -0.532203       -14.4820
 179   2.0000      -0.525577       -14.3017
 180   2.0000      -0.522696       -14.2233
 181   2.0000      -0.518872       -14.1192
 182   2.0000      -0.518605       -14.1120
 183   2.0000      -0.508640       -13.8408
 184   2.0000      -0.505271       -13.7491
 185   2.0000      -0.501172       -13.6376
 186   2.0000      -0.500999       -13.6329
 187   2.0000      -0.494784       -13.4638
 188   2.0000      -0.491892       -13.3851
 189   2.0000      -0.489018       -13.3068
 190   2.0000      -0.488363       -13.2890
 191   2.0000      -0.484234       -13.1767
 192   2.0000      -0.481818       -13.1109
 193   2.0000      -0.474357       -12.9079
 194   2.0000      -0.474087       -12.9006
 195   2.0000      -0.468598       -12.7512
 196   2.0000      -0.468363       -12.7448
 197   2.0000      -0.451204       -12.2779
 198   2.0000      -0.450765       -12.2659
 199   2.0000      -0.448103       -12.1935
 200   2.0000      -0.425575       -11.5805
 201   2.0000      -0.400441       -10.8966
 202   2.0000      -0.393608       -10.7106
 203   2.0000      -0.392503       -10.6806
 204   2.0000      -0.376923       -10.2566
 205   2.0000      -0.360673        -9.8144
 206   2.0000      -0.338973        -9.2239
 207   2.0000      -0.313481        -8.5302
 208   2.0000      -0.279220        -7.5980
 209   0.0000      -0.042030        -1.1437
 210   0.0000      -0.017538        -0.4772
 211   0.0000       0.045547         1.2394
 212   0.0000       0.080234         2.1833
 213   0.0000       0.086228         2.3464

MULLIKEN ATOMIC CHARGES
-----------------------
   0 C :   -0.075870
   1 C :    0.017017
   2 C :   -0.009754
   3 C :   -0.069740
   4 C :    0.000799
   5 C :   -0.011634
   6 C :   -0.005717
   7 C :   -0.056766
   8 C :   -0.328288
   9 C :   -0.011315
  10 C :   -0.036648
  11 C :   -0.316903
  12 S :    0.209794
  13 C :   -0.212911
  14 C :    0.053747
  15 S :    0.209025
  16 C :   -0.214370
  17 C :    0.049357
  18 C :    0.026908
  19 C :    0.041530
  20 C :   -0.008684
  21 C :   -0.012509
  22 C :    0.022770
  23 C :    0.022740
  24 C :   -0.006699
  25 C :   -0.006381
  26 C :    0.134427
  27 C :    0.136521
  28 C :   -0.121487
  29 C :    0.103017
  30 C :   -0.042746
  31 O :   -0.503055
  32 C :    0.577724
  33 C :   -0.319487
  34 C :    0.089820
  35 C :    0.090842
  36 C :    0.011380
  37 C :   -0.528629
  38 C :    0.040415
  39 C :    0.090894
  40 N :   -0.048672
  41 N :   -0.068450
  42 N :   -0.030144
  43 C :   -0.125334
  44 C :    0.105665
  45 C :   -0.043472
  46 O :   -0.502977
  47 C :    0.577381
  48 C :   -0.319455
  49 C :    0.011825
  50 C :   -0.527929
  51 C :    0.040312
  52 C :    0.090995
  53 C :    0.090973
  54 C :    0.089844
  55 N :   -0.068298
  56 N :   -0.048556
  57 N :   -0.029260
  58 H :    0.032755
  59 H :    0.032327
  60 H :    0.040639
  61 H :    0.045521
  62 H :    0.030223
  63 H :    0.043000
  64 H :    0.028029
  65 H :    0.040678
  66 H :    0.029076
  67 H :    0.043726
  68 H :    0.041389
  69 H :    0.041728
  70 H :    0.039718
  71 H :    0.043767
  72 H :    0.032486
  73 H :    0.042313
  74 H :    0.038560
  75 H :    0.042625
  76 H :    0.028525
  77 H :    0.044408
  78 H :    0.039467
  79 H :    0.031866
  80 H :    0.046351
  81 H :    0.024528
  82 H :    0.086333
  83 H :    0.086564
  84 H :    0.037975
  85 H :    0.053252
  86 H :    0.034059
  87 H :    0.068446
  88 H :    0.053085
  89 H :    0.068100
  90 H :    0.034482
  91 H :    0.039276
  92 H :    0.053218
  93 H :    0.034113
  94 H :    0.068087
  95 H :    0.053294
  96 H :    0.068537
  97 H :    0.033894
Sum of atomic charges:   -0.0000000

LOEWDIN ATOMIC CHARGES
----------------------
   0 C :   -0.035902
   1 C :    0.012043
   2 C :   -0.011208
   3 C :   -0.034043
   4 C :    0.009749
   5 C :   -0.011170
   6 C :   -0.146822
   7 C :   -0.050210
   8 C :   -0.035896
   9 C :   -0.144184
  10 C :   -0.051214
  11 C :   -0.033193
  12 S :    0.446267
  13 C :   -0.201126
  14 C :    0.004677
  15 S :    0.447988
  16 C :   -0.203349
  17 C :    0.004664
  18 C :    0.000736
  19 C :    0.006167
  20 C :   -0.033461
  21 C :   -0.031455
  22 C :    0.001990
  23 C :    0.001541
  24 C :   -0.032898
  25 C :   -0.032033
  26 C :    0.084141
  27 C :    0.084777
  28 C :   -0.101286
  29 C :    0.098902
  30 C :    0.082277
  31 O :   -0.129438
  32 C :    0.216118
  33 C :   -0.159589
  34 C :   -0.007584
  35 C :   -0.007477
  36 C :   -0.002567
  37 C :   -0.227427
  38 C :   -0.002010
  39 C :    0.013843
  40 N :   -0.087856
  41 N :   -0.103229
  42 N :   -0.069830
  43 C :   -0.100119
  44 C :    0.098378
  45 C :    0.082235
  46 O :   -0.129331
  47 C :    0.216084
  48 C :   -0.158707
  49 C :   -0.002291
  50 C :   -0.227091
  51 C :   -0.002021
  52 C :    0.013826
  53 C :   -0.007485
  54 C :   -0.007601
  55 N :   -0.103000
  56 N :   -0.087666
  57 N :   -0.069872
  58 H :    0.028469
  59 H :    0.028992
  60 H :    0.030741
  61 H :    0.029589
  62 H :    0.014339
  63 H :    0.015173
  64 H :    0.012713
  65 H :    0.020713
  66 H :    0.014575
  67 H :    0.023667
  68 H :    0.017100
  69 H :    0.017212
  70 H :    0.020034
  71 H :    0.019186
  72 H :    0.012248
  73 H :    0.022310
  74 H :    0.013738
  75 H :    0.022451
  76 H :    0.014249
  77 H :    0.024277
  78 H :    0.017173
  79 H :    0.014994
  80 H :    0.025004
  81 H :    0.012834
  82 H :    0.044127
  83 H :    0.044618
  84 H :    0.023784
  85 H :    0.029539
  86 H :    0.021919
  87 H :    0.035347
  88 H :    0.029550
  89 H :    0.035137
  90 H :    0.022122
  91 H :    0.023741
  92 H :    0.029601
  93 H :    0.022011
  94 H :    0.035134
  95 H :    0.029545
  96 H :    0.035375
  97 H :    0.021906

  Mayer bond orders larger than 0.100000
B(  0-C ,  1-C ) :   1.4008 B(  0-C ,  5-C ) :   1.3495 B(  0-C ,  9-C ) :   1.1354
B(  1-C ,  2-C ) :   1.4876 B(  1-C , 11-C ) :   0.9464 B(  2-C ,  3-C ) :   1.3596
B(  2-C , 58-H ) :   1.0024 B(  3-C ,  4-C ) :   1.3946 B(  3-C ,  6-C ) :   1.1320
B(  4-C ,  5-C ) :   1.4927 B(  4-C ,  8-C ) :   0.9180 B(  5-C , 59-H ) :   1.0062
B(  6-C ,  7-C ) :   1.5496 B(  6-C , 12-S ) :   1.1209 B(  7-C ,  8-C ) :   0.9424
B(  7-C , 14-C ) :   1.3860 B(  8-C , 18-C ) :   1.0164 B(  8-C , 19-C ) :   0.9971
B(  9-C , 10-C ) :   1.5511 B(  9-C , 15-S ) :   1.1242 B( 10-C , 11-C ) :   0.9482
B( 10-C , 17-C ) :   1.3878 B( 11-C , 22-C ) :   0.9802 B( 11-C , 23-C ) :   0.9922
B( 12-S , 13-C ) :   1.1089 B( 13-C , 14-C ) :   1.4787 B( 13-C , 27-C ) :   1.1751
B( 14-C , 60-H ) :   1.0001 B( 15-S , 16-C ) :   1.1077 B( 16-C , 17-C ) :   1.4797
B( 16-C , 26-C ) :   1.1773 B( 17-C , 61-H ) :   0.9962 B( 18-C , 21-C ) :   1.0388
B( 18-C , 62-H ) :   0.9725 B( 18-C , 63-H ) :   0.9719 B( 19-C , 20-C ) :   1.0513
B( 19-C , 64-H ) :   0.9692 B( 19-C , 65-H ) :   0.9708 B( 20-C , 66-H ) :   0.9827
B( 20-C , 67-H ) :   0.9844 B( 20-C , 68-H ) :   0.9797 B( 21-C , 69-H ) :   0.9810
B( 21-C , 70-H ) :   0.9871 B( 21-C , 71-H ) :   0.9824 B( 22-C , 24-C ) :   1.0490
B( 22-C , 72-H ) :   0.9732 B( 22-C , 73-H ) :   0.9692 B( 23-C , 25-C ) :   1.0468
B( 23-C , 74-H ) :   0.9715 B( 23-C , 75-H ) :   0.9702 B( 24-C , 76-H ) :   0.9821
B( 24-C , 77-H ) :   0.9848 B( 24-C , 78-H ) :   0.9801 B( 25-C , 79-H ) :   0.9808
B( 25-C , 80-H ) :   0.9853 B( 25-C , 81-H ) :   0.9824 B( 26-C , 28-C ) :   1.6627
B( 26-C , 82-H ) :   0.9565 B( 27-C , 43-C ) :   1.6640 B( 27-C , 83-H ) :   0.9582
B( 28-C , 29-C ) :   1.1938 B( 28-C , 84-H ) :   0.9775 B( 29-C , 30-C ) :   0.9926
B( 29-C , 33-C ) :   1.6163 B( 30-C , 31-O ) :   0.7989 B( 30-C , 34-C ) :   1.0042
B( 30-C , 35-C ) :   1.0037 B( 31-O , 32-C ) :   1.1034 B( 32-C , 33-C ) :   1.0757
B( 32-C , 37-C ) :   1.6605 B( 33-C , 36-C ) :   1.0988 B( 34-C , 85-H ) :   0.9744
B( 34-C , 86-H ) :   0.9735 B( 34-C , 87-H ) :   0.9778 B( 35-C , 88-H ) :   0.9742
B( 35-C , 89-H ) :   0.9778 B( 35-C , 90-H ) :   0.9734 B( 36-C , 42-N ) :   2.9649
B( 37-C , 38-C ) :   1.0759 B( 37-C , 39-C ) :   1.0446 B( 38-C , 40-N ) :   3.0194
B( 39-C , 41-N ) :   3.0333 B( 43-C , 44-C ) :   1.1921 B( 43-C , 91-H ) :   0.9772
B( 44-C , 45-C ) :   0.9930 B( 44-C , 48-C ) :   1.6179 B( 45-C , 46-O ) :   0.7989
B( 45-C , 53-C ) :   1.0036 B( 45-C , 54-C ) :   1.0041 B( 46-O , 47-C ) :   1.1034
B( 47-C , 48-C ) :   1.0747 B( 47-C , 50-C ) :   1.6611 B( 48-C , 49-C ) :   1.0993
B( 49-C , 57-N ) :   2.9663 B( 50-C , 51-C ) :   1.0761 B( 50-C , 52-C ) :   1.0444
B( 51-C , 56-N ) :   3.0190 B( 52-C , 55-N ) :   3.0332 B( 53-C , 92-H ) :   0.9742
B( 53-C , 93-H ) :   0.9734 B( 53-C , 94-H ) :   0.9779 B( 54-C , 95-H ) :   0.9745
B( 54-C , 96-H ) :   0.9777 B( 54-C , 97-H ) :   0.9734

-----------------------------------------------------------------------------
         ABSORPTION SPECTRUM VIA TRANSITION ELECTRIC DIPOLE MOMENTS
-----------------------------------------------------------------------------
State   Energy    Wavelength  fosc         T2        TX        TY        TZ
        (cm-1)      (nm)                 (au**2)    (au)      (au)      (au)
-----------------------------------------------------------------------------
   1   21995.5    454.6   3.358073270  50.26103   6.08136   3.64346  -0.05719
   2   27660.4    361.5   0.004021523   0.04786  -0.01376   0.11570   0.18517
   3   37152.8    269.2   0.540182475   4.78657  -0.44063  -2.14290  -0.02035

FINAL SINGLE POINT ENERGY     -3110.206536084683

DIPOLE MOMENT
-------------
                                X             Y             Z
Electronic contribution:     -4.49467       2.69830       1.95833
Nuclear contribution   :      4.80826      -2.84715      -2.36179
                        -----------------------------------------
Total Dipole Moment    :      0.31359      -0.14886      -0.40346
                        -----------------------------------------
Magnitude (a.u.)       :      0.53224
Magnitude (Debye)      :      1.35283

Rotational constants in cm-1:     0.004650     0.000331     0.000314
Rotational constants in MHz :   139.404053     9.911544     9.407532

                             ****ORCA TERMINATED NORMALLY****
TOTAL RUN TIME: 0 days 12 hours 33 minutes 51 seconds 593 msec
