                         Program Version 4.2.0 -  RELEASE  -
|  1> # ORCA input file
|  2> # ITCC.out: Geometry 31
|  3> ! Engrad Keepdens
|  4> %maxcore 1000
|  5> %tddft
|  6>   nroots 3
|  7>   # nroots is the number of states to be computed
|  8>   Iroot 1
|  9>   end
| 10> * xyz 0 1
| 11>    C        0.92865        -1.19299         0.56682
| 12>    O        1.15839        -2.34321         0.89326
| 13>    C       -0.37541        -0.50830         0.62713
| 14>    C       -0.28666         0.80272         0.18491
| 15>    C        1.10633         1.07905        -0.20259
| 16>    C        1.53047         2.30805        -0.67516
| 17>    C        0.60328         3.38194        -0.86136
| 18>    N       -0.16264         4.24204        -1.01681
| 19>    C        2.88186         2.61997        -1.01832
| 20>    N        3.97601         2.89168        -1.30206
| 21>    C        1.87396        -0.16016         0.01819
| 22>    C        3.21024        -0.32112        -0.28290
| 23>    C        4.11132        -1.41760        -0.17596
| 24>    C        3.97539        -2.72490         0.31015
| 25>    C        5.15626        -3.46145         0.15748
| 26>    C        6.22373        -2.74662        -0.44676
| 27>    S        5.75392        -1.12856        -0.81258
| 28>    C        7.37203        -3.54308        -0.63497
| 29>    C        8.71725        -3.40855        -1.33712
| 30>    C        9.69995        -2.49671        -0.58999
| 31>    C        9.45620        -2.06912         0.71972
| 32>    C       10.36408        -1.23924         1.38102
| 33>    C       11.54643        -0.81584         0.76063
| 34>    C       12.54142         0.04545         1.50051
| 35>    C       13.51000        -0.78314         2.35621
| 36>    C       11.79075        -1.25414        -0.54964
| 37>    C       10.88462        -2.07861        -1.21483
| 38>    C        8.42356        -2.90796        -2.75944
| 39>    C        8.06691        -3.78882        -3.78700
| 40>    C        7.63042        -3.30300        -5.02213
| 41>    C        7.53935        -1.92689        -5.27204
| 42>    C        6.97450        -1.38607        -6.56346
| 43>    C        5.50604        -0.95961        -6.40622
| 44>    C        7.91531        -1.05111        -4.24421
| 45>    C        8.34398        -1.52972        -3.00816
| 46>    C        9.21418        -4.86927        -1.26475
| 47>    C        8.29861        -5.68037        -0.53650
| 48>    C        7.17203        -4.84134        -0.18947
| 49>    S        5.59741        -5.13011         0.49864
| 50>    C        8.52720        -7.04932        -0.32870
| 51>    C        9.66572        -7.60922        -0.88566
| 52>    C       10.11681        -9.08402        -0.86641
| 53>    C       10.71216        -9.55300         0.47937
| 54>    C       10.74077       -10.91658         0.80702
| 55>    C       11.49038       -11.37645         1.88996
| 56>    C       12.25293       -10.49961         2.67343
| 57>    C       13.12107       -11.02380         3.79484
| 58>    C       12.35241       -11.79950         4.86972
| 59>    C       12.20034        -9.13503         2.35561
| 60>    C       11.44549        -8.66770         1.27884
| 61>    C        9.00230        -9.99467        -1.37826
| 62>    C        8.98924       -10.46449        -2.69669
| 63>    C        7.96249       -11.29604        -3.14716
| 64>    C        6.91399       -11.68285        -2.30208
| 65>    C        5.78843       -12.54637        -2.82057
| 66>    C        4.73345       -11.73330        -3.58304
| 67>    C        6.92562       -11.20208        -0.98449
| 68>    C        7.95228       -10.37481        -0.52917
| 69>    C       11.32519        -9.00278        -1.78253
| 70>    C       11.59274        -7.69600        -2.15730
| 71>    C       10.56550        -6.80696        -1.64971
| 72>    C       10.35587        -5.42857        -1.82194
| 73>    S       13.09873        -7.50857        -3.02186
| 74>    C       13.39747        -9.23660        -2.86857
| 75>    C       12.34757        -9.88094        -2.17583
| 76>    S       12.64217       -11.56693        -1.98182
| 77>    C       14.20701       -11.41408        -2.79065
| 78>    C       14.43802       -10.11016        -3.23664
| 79>    C       15.05177       -12.54732        -2.98713
| 80>    C       15.07250       -13.74339        -2.32146
| 81>    C       14.50151       -14.19097        -1.04818
| 82>    C       14.29240       -13.45821         0.10485
| 83>    C       13.73008       -14.06490         1.27031
| 84>    N       13.24858       -14.54822         2.21155
| 85>    C       14.68759       -12.09337         0.26147
| 86>    N       15.04152       -11.00291         0.44945
| 87>    C       14.41827       -15.65871        -1.12215
| 88>    C       15.09834       -16.09483        -2.25525
| 89>    C       15.62075       -14.95641        -3.04152
| 90>    O       16.27633       -14.96133        -4.06036
| 91>    S       -1.95704        -0.94085         1.12285
| 92>    C       -2.52435         0.65966         0.73606
| 93>    C       -1.53879         1.48649         0.24769
| 94>    S       15.11922       -17.80425        -2.39082
| 95>    C       14.20305       -17.94748        -0.91852
| 96>    C       13.90317       -16.73388        -0.34094
| 97>    H        3.69047         0.56065        -0.70951
| 98>    H        3.03544        -3.07813         0.72764
| 99>    H        8.54161        -2.37815         1.22790
|100>    H       10.13909        -0.89806         2.39535
|101>    H       11.99584         0.75328         2.14687
|102>    H       13.11340         0.65456         0.78080
|103>    H       12.95854        -1.40740         3.07712
|104>    H       14.19927        -0.13475         2.92095
|105>    H       14.11405        -1.45835         1.72851
|106>    H       12.69887        -0.92676        -1.06366
|107>    H       11.08490        -2.37342        -2.24646
|108>    H        8.11414        -4.86637        -3.61618
|109>    H        7.34475        -4.01025        -5.80560
|110>    H        7.06540        -2.14711        -7.35635
|111>    H        7.57278        -0.52050        -6.89362
|112>    H        4.88272        -1.81202        -6.09207
|113>    H        5.09636        -0.55814        -7.34704
|114>    H        5.40343        -0.18061        -5.63393
|115>    H        7.85883         0.02858        -4.40892
|116>    H        8.61259        -0.81941        -2.22532
|117>    H        7.80952        -7.65658         0.22445
|118>    H       10.19008       -11.63428         0.19799
|119>    H       11.50478       -12.44547         2.11228
|120>    H       13.66517       -10.18308         4.25530
|121>    H       13.89412       -11.68057         3.35892
|122>    H       11.59935       -11.16057         5.35890
|123>    H       13.03723       -12.17706         5.64509
|124>    H       11.83248       -12.66925         4.44008
|125>    H       12.78558        -8.42512         2.94650
|126>    H       11.45997        -7.60300         1.03483
|127>    H        9.79473       -10.18719        -3.37877
|128>    H        7.98386       -11.66415        -4.17648
|129>    H        5.31150       -13.07935        -1.98164
|130>    H        6.20390       -13.32127        -3.48687
|131>    H        4.24590       -10.99945        -2.92166
|132>    H        3.95254       -12.38606        -4.00425
|133>    H        5.19566       -11.17442        -4.41216
|134>    H        6.12535       -11.49380        -0.29840
|135>    H        7.95742       -10.04759         0.51211
|136>    H       11.05493        -4.82615        -2.40416
|137>    H       15.34659        -9.82658        -3.76786
|138>    H       15.71545       -12.50874        -3.86036
|139>    H       -3.57201         0.91344         0.89551
|140>    H       -1.71916         2.51580        -0.05239
|141>    H       13.92756       -18.93477        -0.54900
|142>    H       13.34501       -16.63082         0.58710
|143> *
|144>
|145>                          ****END OF INPUT****

CARTESIAN COORDINATES (ANGSTROEM)
---------------------------------
  C      0.928650   -1.192990    0.566820
  O      1.158390   -2.343210    0.893260
  C     -0.375410   -0.508300    0.627130
  C     -0.286660    0.802720    0.184910
  C      1.106330    1.079050   -0.202590
  C      1.530470    2.308050   -0.675160
  C      0.603280    3.381940   -0.861360
  N     -0.162640    4.242040   -1.016810
  C      2.881860    2.619970   -1.018320
  N      3.976010    2.891680   -1.302060
  C      1.873960   -0.160160    0.018190
  C      3.210240   -0.321120   -0.282900
  C      4.111320   -1.417600   -0.175960
  C      3.975390   -2.724900    0.310150
  C      5.156260   -3.461450    0.157480
  C      6.223730   -2.746620   -0.446760
  S      5.753920   -1.128560   -0.812580
  C      7.372030   -3.543080   -0.634970
  C      8.717250   -3.408550   -1.337120
  C      9.699950   -2.496710   -0.589990
  C      9.456200   -2.069120    0.719720
  C     10.364080   -1.239240    1.381020
  C     11.546430   -0.815840    0.760630
  C     12.541420    0.045450    1.500510
  C     13.510000   -0.783140    2.356210
  C     11.790750   -1.254140   -0.549640
  C     10.884620   -2.078610   -1.214830
  C      8.423560   -2.907960   -2.759440
  C      8.066910   -3.788820   -3.787000
  C      7.630420   -3.303000   -5.022130
  C      7.539350   -1.926890   -5.272040
  C      6.974500   -1.386070   -6.563460
  C      5.506040   -0.959610   -6.406220
  C      7.915310   -1.051110   -4.244210
  C      8.343980   -1.529720   -3.008160
  C      9.214180   -4.869270   -1.264750
  C      8.298610   -5.680370   -0.536500
  C      7.172030   -4.841340   -0.189470
  S      5.597410   -5.130110    0.498640
  C      8.527200   -7.049320   -0.328700
  C      9.665720   -7.609220   -0.885660
  C     10.116810   -9.084020   -0.866410
  C     10.712160   -9.553000    0.479370
  C     10.740770  -10.916580    0.807020
  C     11.490380  -11.376450    1.889960
  C     12.252930  -10.499610    2.673430
  C     13.121070  -11.023800    3.794840
  C     12.352410  -11.799500    4.869720
  C     12.200340   -9.135030    2.355610
  C     11.445490   -8.667700    1.278840
  C      9.002300   -9.994670   -1.378260
  C      8.989240  -10.464490   -2.696690
  C      7.962490  -11.296040   -3.147160
  C      6.913990  -11.682850   -2.302080
  C      5.788430  -12.546370   -2.820570
  C      4.733450  -11.733300   -3.583040
  C      6.925620  -11.202080   -0.984490
  C      7.952280  -10.374810   -0.529170
  C     11.325190   -9.002780   -1.782530
  C     11.592740   -7.696000   -2.157300
  C     10.565500   -6.806960   -1.649710
  C     10.355870   -5.428570   -1.821940
  S     13.098730   -7.508570   -3.021860
  C     13.397470   -9.236600   -2.868570
  C     12.347570   -9.880940   -2.175830
  S     12.642170  -11.566930   -1.981820
  C     14.207010  -11.414080   -2.790650
  C     14.438020  -10.110160   -3.236640
  C     15.051770  -12.547320   -2.987130
  C     15.072500  -13.743390   -2.321460
  C     14.501510  -14.190970   -1.048180
  C     14.292400  -13.458210    0.104850
  C     13.730080  -14.064900    1.270310
  N     13.248580  -14.548220    2.211550
  C     14.687590  -12.093370    0.261470
  N     15.041520  -11.002910    0.449450
  C     14.418270  -15.658710   -1.122150
  C     15.098340  -16.094830   -2.255250
  C     15.620750  -14.956410   -3.041520
  O     16.276330  -14.961330   -4.060360
  S     -1.957040   -0.940850    1.122850
  C     -2.524350    0.659660    0.736060
  C     -1.538790    1.486490    0.247690
  S     15.119220  -17.804250   -2.390820
  C     14.203050  -17.947480   -0.918520
  C     13.903170  -16.733880   -0.340940
  H      3.690470    0.560650   -0.709510
  H      3.035440   -3.078130    0.727640
  H      8.541610   -2.378150    1.227900
  H     10.139090   -0.898060    2.395350
  H     11.995840    0.753280    2.146870
  H     13.113400    0.654560    0.780800
  H     12.958540   -1.407400    3.077120
  H     14.199270   -0.134750    2.920950
  H     14.114050   -1.458350    1.728510
  H     12.698870   -0.926760   -1.063660
  H     11.084900   -2.373420   -2.246460
  H      8.114140   -4.866370   -3.616180
  H      7.344750   -4.010250   -5.805600
  H      7.065400   -2.147110   -7.356350
  H      7.572780   -0.520500   -6.893620
  H      4.882720   -1.812020   -6.092070
  H      5.096360   -0.558140   -7.347040
  H      5.403430   -0.180610   -5.633930
  H      7.858830    0.028580   -4.408920
  H      8.612590   -0.819410   -2.225320
  H      7.809520   -7.656580    0.224450
  H     10.190080  -11.634280    0.197990
  H     11.504780  -12.445470    2.112280
  H     13.665170  -10.183080    4.255300
  H     13.894120  -11.680570    3.358920
  H     11.599350  -11.160570    5.358900
  H     13.037230  -12.177060    5.645090
  H     11.832480  -12.669250    4.440080
  H     12.785580   -8.425120    2.946500
  H     11.459970   -7.603000    1.034830
  H      9.794730  -10.187190   -3.378770
  H      7.983860  -11.664150   -4.176480
  H      5.311500  -13.079350   -1.981640
  H      6.203900  -13.321270   -3.486870
  H      4.245900  -10.999450   -2.921660
  H      3.952540  -12.386060   -4.004250
  H      5.195660  -11.174420   -4.412160
  H      6.125350  -11.493800   -0.298400
  H      7.957420  -10.047590    0.512110
  H     11.054930   -4.826150   -2.404160
  H     15.346590   -9.826580   -3.767860
  H     15.715450  -12.508740   -3.860360
  H     -3.572010    0.913440    0.895510
  H     -1.719160    2.515800   -0.052390
  H     13.927560  -18.934770   -0.549000
  H     13.345010  -16.630820    0.587100

 Total Charge           Charge          ....    0
 Multiplicity           Mult            ....    1
 Number of Electrons    NEL             ....  630
 Basis Dimension        Dim             .... 1458

ORBITAL ENERGIES
----------------

  NO   OCC          E(Eh)            E(eV)
   0   2.0000     -91.994439     -2503.2959
   1   2.0000     -91.991790     -2503.2239
   2   2.0000     -91.977247     -2502.8281
   3   2.0000     -91.975258     -2502.7740
   4   2.0000     -91.974486     -2502.7530
   5   2.0000     -91.972464     -2502.6980
   6   2.0000     -20.569135      -559.7146
   7   2.0000     -20.566422      -559.6408
   8   2.0000     -15.596706      -424.4079
   9   2.0000     -15.594214      -424.3401
  10   2.0000     -15.589214      -424.2041
  11   2.0000     -15.586827      -424.1391
  12   2.0000     -11.375140      -309.5333
  13   2.0000     -11.373342      -309.4844
  14   2.0000     -11.347130      -308.7711
  15   2.0000     -11.346068      -308.7422
  16   2.0000     -11.328475      -308.2635
  17   2.0000     -11.323482      -308.1276
  18   2.0000     -11.318493      -307.9919
  19   2.0000     -11.318285      -307.9862
  20   2.0000     -11.310691      -307.7796
  21   2.0000     -11.309656      -307.7514
  22   2.0000     -11.306581      -307.6677
  23   2.0000     -11.306357      -307.6616
  24   2.0000     -11.306175      -307.6567
  25   2.0000     -11.304035      -307.5984
  26   2.0000     -11.302227      -307.5492
  27   2.0000     -11.301622      -307.5328
  28   2.0000     -11.300302      -307.4969
  29   2.0000     -11.300212      -307.4944
  30   2.0000     -11.300137      -307.4924
  31   2.0000     -11.299383      -307.4719
  32   2.0000     -11.297875      -307.4308
  33   2.0000     -11.297227      -307.4132
  34   2.0000     -11.296950      -307.4056
  35   2.0000     -11.295406      -307.3636
  36   2.0000     -11.294011      -307.3257
  37   2.0000     -11.293286      -307.3059
  38   2.0000     -11.290054      -307.2180
  39   2.0000     -11.288757      -307.1827
  40   2.0000     -11.287023      -307.1355
  41   2.0000     -11.285084      -307.0827
  42   2.0000     -11.283277      -307.0336
  43   2.0000     -11.281466      -306.9843
  44   2.0000     -11.280093      -306.9469
  45   2.0000     -11.279531      -306.9316
  46   2.0000     -11.278450      -306.9022
  47   2.0000     -11.275540      -306.8230
  48   2.0000     -11.272281      -306.7344
  49   2.0000     -11.271026      -306.7002
  50   2.0000     -11.269781      -306.6663
  51   2.0000     -11.269020      -306.6456
  52   2.0000     -11.267602      -306.6070
  53   2.0000     -11.267122      -306.5940
  54   2.0000     -11.256938      -306.3168
  55   2.0000     -11.255874      -306.2879
  56   2.0000     -11.254931      -306.2622
  57   2.0000     -11.250131      -306.1316
  58   2.0000     -11.249676      -306.1193
  59   2.0000     -11.248023      -306.0743
  60   2.0000     -11.247746      -306.0667
  61   2.0000     -11.246949      -306.0451
  62   2.0000     -11.246154      -306.0234
  63   2.0000     -11.245547      -306.0069
  64   2.0000     -11.245350      -306.0015
  65   2.0000     -11.245133      -305.9956
  66   2.0000     -11.244418      -305.9762
  67   2.0000     -11.244120      -305.9681
  68   2.0000     -11.242984      -305.9371
  69   2.0000     -11.242821      -305.9327
  70   2.0000     -11.241458      -305.8956
  71   2.0000     -11.241371      -305.8933
  72   2.0000     -11.241000      -305.8832
  73   2.0000     -11.239399      -305.8396
  74   2.0000     -11.238310      -305.8100
  75   2.0000     -11.237341      -305.7836
  76   2.0000     -11.236932      -305.7725
  77   2.0000     -11.236862      -305.7706
  78   2.0000     -11.236181      -305.7520
  79   2.0000     -11.232337      -305.6474
  80   2.0000     -11.231757      -305.6317
  81   2.0000     -11.229552      -305.5717
  82   2.0000     -11.229429      -305.5683
  83   2.0000     -11.227814      -305.5243
  84   2.0000     -11.224349      -305.4301
  85   2.0000     -11.216115      -305.2060
  86   2.0000      -9.029405      -245.7026
  87   2.0000      -9.026735      -245.6299
  88   2.0000      -9.011443      -245.2138
  89   2.0000      -9.009782      -245.1686
  90   2.0000      -9.009081      -245.1496
  91   2.0000      -9.006893      -245.0900
  92   2.0000      -6.716702      -182.7707
  93   2.0000      -6.715726      -182.7442
  94   2.0000      -6.714052      -182.6986
  95   2.0000      -6.714039      -182.6983
  96   2.0000      -6.713072      -182.6720
  97   2.0000      -6.711401      -182.6265
  98   2.0000      -6.698984      -182.2886
  99   2.0000      -6.698134      -182.2655
 100   2.0000      -6.697300      -182.2428
 101   2.0000      -6.696580      -182.2232
 102   2.0000      -6.696431      -182.2192
 103   2.0000      -6.695991      -182.2072
 104   2.0000      -6.695547      -182.1951
 105   2.0000      -6.694312      -182.1615
 106   2.0000      -6.694309      -182.1614
 107   2.0000      -6.693550      -182.1408
 108   2.0000      -6.693277      -182.1333
 109   2.0000      -6.691348      -182.0808
 110   2.0000      -1.398217       -38.0474
 111   2.0000      -1.396661       -38.0051
 112   2.0000      -1.245340       -33.8874
 113   2.0000      -1.242955       -33.8225
 114   2.0000      -1.239742       -33.7351
 115   2.0000      -1.233202       -33.5571
 116   2.0000      -1.226499       -33.3747
 117   2.0000      -1.224984       -33.3335
 118   2.0000      -1.216890       -33.1133
 119   2.0000      -1.214850       -33.0577
 120   2.0000      -1.200928       -32.6789
 121   2.0000      -1.186857       -32.2960
 122   2.0000      -1.164031       -31.6749
 123   2.0000      -1.161350       -31.6019
 124   2.0000      -1.159062       -31.5397
 125   2.0000      -1.152765       -31.3683
 126   2.0000      -1.148716       -31.2581
 127   2.0000      -1.143345       -31.1120
 128   2.0000      -1.133405       -30.8415
 129   2.0000      -1.111986       -30.2587
 130   2.0000      -1.095671       -29.8147
 131   2.0000      -1.092476       -29.7278
 132   2.0000      -1.088889       -29.6302
 133   2.0000      -1.074841       -29.2479
 134   2.0000      -1.061303       -28.8795
 135   2.0000      -1.056829       -28.7578
 136   2.0000      -1.056415       -28.7465
 137   2.0000      -1.050379       -28.5823
 138   2.0000      -1.045145       -28.4398
 139   2.0000      -1.040246       -28.3065
 140   2.0000      -1.034221       -28.1426
 141   2.0000      -1.026495       -27.9324
 142   2.0000      -1.023518       -27.8513
 143   2.0000      -1.016059       -27.6484
 144   2.0000      -1.011262       -27.5178
 145   2.0000      -1.009501       -27.4699
 146   2.0000      -1.006755       -27.3952
 147   2.0000      -1.000903       -27.2359
 148   2.0000      -0.994993       -27.0751
 149   2.0000      -0.991763       -26.9873
 150   2.0000      -0.974890       -26.5281
 151   2.0000      -0.974283       -26.5116
 152   2.0000      -0.971708       -26.4415
 153   2.0000      -0.966229       -26.2924
 154   2.0000      -0.957375       -26.0515
 155   2.0000      -0.930742       -25.3268
 156   2.0000      -0.925212       -25.1763
 157   2.0000      -0.918218       -24.9860
 158   2.0000      -0.914703       -24.8903
 159   2.0000      -0.909771       -24.7561
 160   2.0000      -0.896261       -24.3885
 161   2.0000      -0.864985       -23.5374
 162   2.0000      -0.858919       -23.3724
 163   2.0000      -0.858130       -23.3509
 164   2.0000      -0.853189       -23.2165
 165   2.0000      -0.840997       -22.8847
 166   2.0000      -0.832902       -22.6644
 167   2.0000      -0.830306       -22.5938
 168   2.0000      -0.829209       -22.5639
 169   2.0000      -0.825490       -22.4627
 170   2.0000      -0.820815       -22.3355
 171   2.0000      -0.818502       -22.2726
 172   2.0000      -0.813872       -22.1466
 173   2.0000      -0.808433       -21.9986
 174   2.0000      -0.801021       -21.7969
 175   2.0000      -0.793642       -21.5961
 176   2.0000      -0.793052       -21.5800
 177   2.0000      -0.786594       -21.4043
 178   2.0000      -0.785768       -21.3818
 179   2.0000      -0.779422       -21.2091
 180   2.0000      -0.775733       -21.1088
 181   2.0000      -0.773493       -21.0478
 182   2.0000      -0.765857       -20.8400
 183   2.0000      -0.757930       -20.6243
 184   2.0000      -0.748839       -20.3769
 185   2.0000      -0.739738       -20.1293
 186   2.0000      -0.737991       -20.0817
 187   2.0000      -0.727818       -19.8049
 188   2.0000      -0.718015       -19.5382
 189   2.0000      -0.716124       -19.4867
 190   2.0000      -0.710718       -19.3396
 191   2.0000      -0.698293       -19.0015
 192   2.0000      -0.696381       -18.9495
 193   2.0000      -0.692340       -18.8395
 194   2.0000      -0.688557       -18.7366
 195   2.0000      -0.686332       -18.6760
 196   2.0000      -0.674914       -18.3653
 197   2.0000      -0.673829       -18.3358
 198   2.0000      -0.668317       -18.1858
 199   2.0000      -0.661725       -18.0065
 200   2.0000      -0.655157       -17.8277
 201   2.0000      -0.652804       -17.7637
 202   2.0000      -0.651827       -17.7371
 203   2.0000      -0.648516       -17.6470
 204   2.0000      -0.645773       -17.5724
 205   2.0000      -0.642424       -17.4812
 206   2.0000      -0.636888       -17.3306
 207   2.0000      -0.633694       -17.2437
 208   2.0000      -0.631523       -17.1846
 209   2.0000      -0.630531       -17.1576
 210   2.0000      -0.628311       -17.0972
 211   2.0000      -0.626540       -17.0490
 212   2.0000      -0.624333       -16.9890
 213   2.0000      -0.621784       -16.9196
 214   2.0000      -0.620259       -16.8781
 215   2.0000      -0.618459       -16.8291
 216   2.0000      -0.611466       -16.6388
 217   2.0000      -0.610413       -16.6102
 218   2.0000      -0.607982       -16.5440
 219   2.0000      -0.604390       -16.4463
 220   2.0000      -0.600076       -16.3289
 221   2.0000      -0.598254       -16.2793
 222   2.0000      -0.596190       -16.2232
 223   2.0000      -0.593933       -16.1617
 224   2.0000      -0.592335       -16.1182
 225   2.0000      -0.591797       -16.1036
 226   2.0000      -0.589564       -16.0428
 227   2.0000      -0.588944       -16.0260
 228   2.0000      -0.586816       -15.9681
 229   2.0000      -0.584824       -15.9139
 230   2.0000      -0.584652       -15.9092
 231   2.0000      -0.580898       -15.8070
 232   2.0000      -0.578754       -15.7487
 233   2.0000      -0.578506       -15.7420
 234   2.0000      -0.577277       -15.7085
 235   2.0000      -0.575780       -15.6678
 236   2.0000      -0.574559       -15.6345
 237   2.0000      -0.571968       -15.5640
 238   2.0000      -0.568684       -15.4747
 239   2.0000      -0.568653       -15.4738
 240   2.0000      -0.568298       -15.4642
 241   2.0000      -0.566493       -15.4150
 242   2.0000      -0.565961       -15.4006
 243   2.0000      -0.564230       -15.3535
 244   2.0000      -0.559394       -15.2219
 245   2.0000      -0.556509       -15.1434
 246   2.0000      -0.552495       -15.0342
 247   2.0000      -0.548986       -14.9387
 248   2.0000      -0.540951       -14.7200
 249   2.0000      -0.540701       -14.7132
 250   2.0000      -0.538419       -14.6511
 251   2.0000      -0.536826       -14.6078
 252   2.0000      -0.534201       -14.5364
 253   2.0000      -0.532338       -14.4857
 254   2.0000      -0.529054       -14.3963
 255   2.0000      -0.527009       -14.3407
 256   2.0000      -0.523496       -14.2450
 257   2.0000      -0.519923       -14.1478
 258   2.0000      -0.518123       -14.0988
 259   2.0000      -0.516722       -14.0607
 260   2.0000      -0.515341       -14.0232
 261   2.0000      -0.513985       -13.9862
 262   2.0000      -0.511285       -13.9128
 263   2.0000      -0.509044       -13.8518
 264   2.0000      -0.506465       -13.7816
 265   2.0000      -0.500999       -13.6329
 266   2.0000      -0.500834       -13.6284
 267   2.0000      -0.500024       -13.6064
 268   2.0000      -0.497963       -13.5503
 269   2.0000      -0.494104       -13.4453
 270   2.0000      -0.493201       -13.4207
 271   2.0000      -0.492955       -13.4140
 272   2.0000      -0.492340       -13.3972
 273   2.0000      -0.490286       -13.3414
 274   2.0000      -0.489274       -13.3138
 275   2.0000      -0.486374       -13.2349
 276   2.0000      -0.485143       -13.2014
 277   2.0000      -0.484162       -13.1747
 278   2.0000      -0.483513       -13.1570
 279   2.0000      -0.481918       -13.1137
 280   2.0000      -0.481190       -13.0938
 281   2.0000      -0.478176       -13.0118
 282   2.0000      -0.477306       -12.9881
 283   2.0000      -0.475227       -12.9316
 284   2.0000      -0.473917       -12.8959
 285   2.0000      -0.472151       -12.8479
 286   2.0000      -0.471214       -12.8224
 287   2.0000      -0.470034       -12.7903
 288   2.0000      -0.466526       -12.6948
 289   2.0000      -0.464499       -12.6396
 290   2.0000      -0.458391       -12.4735
 291   2.0000      -0.449146       -12.2219
 292   2.0000      -0.447974       -12.1900
 293   2.0000      -0.417620       -11.3640
 294   2.0000      -0.415922       -11.3178
 295   2.0000      -0.413029       -11.2391
 296   2.0000      -0.390122       -10.6158
 297   2.0000      -0.378177       -10.2907
 298   2.0000      -0.372916       -10.1476
 299   2.0000      -0.367112        -9.9896
 300   2.0000      -0.354200        -9.6383
 301   2.0000      -0.348966        -9.4959
 302   2.0000      -0.348191        -9.4748
 303   2.0000      -0.347646        -9.4599
 304   2.0000      -0.346023        -9.4158
 305   2.0000      -0.344760        -9.3814
 306   2.0000      -0.342471        -9.3191
 307   2.0000      -0.336382        -9.1534
 308   2.0000      -0.332371        -9.0443
 309   2.0000      -0.328447        -8.9375
 310   2.0000      -0.323090        -8.7917
 311   2.0000      -0.319879        -8.7044
 312   2.0000      -0.314182        -8.5493
 313   2.0000      -0.299407        -8.1473
 314   2.0000      -0.260357        -7.0847
 315   0.0000      -0.019645        -0.5346
 316   0.0000      -0.005938        -0.1616
 317   0.0000       0.010819         0.2944
 318   0.0000       0.016523         0.4496
 319   0.0000       0.056722         1.5435

MULLIKEN ATOMIC CHARGES
-----------------------
   0 C :    0.476511
   1 O :   -0.383917
   2 C :   -0.220030
   3 C :   -0.072199
   4 C :    0.243295
   5 C :   -0.350374
   6 C :    0.047799
   7 N :   -0.091477
   8 C :    0.049769
   9 N :   -0.091347
  10 C :   -0.298161
  11 C :    0.145278
  12 C :   -0.259991
  13 C :    0.061220
  14 C :   -0.126678
  15 C :    0.016693
  16 S :    0.193176
  17 C :   -0.122883
  18 C :   -0.027412
  19 C :   -0.090631
  20 C :   -0.006583
  21 C :   -0.005295
  22 C :   -0.161523
  23 C :    0.011574
  24 C :   -0.027948
  25 C :   -0.017108
  26 C :   -0.018807
  27 C :   -0.096049
  28 C :   -0.011973
  29 C :   -0.017297
  30 C :   -0.160009
  31 C :    0.015701
  32 C :   -0.033418
  33 C :   -0.012825
  34 C :   -0.020966
  35 C :   -0.010777
  36 C :   -0.082286
  37 C :    0.008166
  38 S :    0.200347
  39 C :    0.025555
  40 C :    0.004978
  41 C :   -0.049682
  42 C :   -0.066270
  43 C :   -0.030315
  44 C :   -0.044884
  45 C :   -0.141375
  46 C :    0.033984
  47 C :   -0.048912
  48 C :   -0.015079
  49 C :   -0.016465
  50 C :   -0.097247
  51 C :   -0.008557
  52 C :   -0.007158
  53 C :   -0.161008
  54 C :    0.013454
  55 C :   -0.028961
  56 C :   -0.018777
  57 C :   -0.026418
  58 C :   -0.109672
  59 C :    0.000778
  60 C :   -0.090936
  61 C :    0.018191
  62 S :    0.202460
  63 C :   -0.106525
  64 C :    0.009776
  65 S :    0.191365
  66 C :   -0.212959
  67 C :    0.055766
  68 C :    0.166638
  69 C :   -0.322155
  70 C :    0.224666
  71 C :   -0.318481
  72 C :    0.055871
  73 N :   -0.103676
  74 C :    0.059696
  75 N :   -0.060441
  76 C :   -0.085484
  77 C :   -0.212318
  78 C :    0.423980
  79 O :   -0.350338
  80 S :    0.207500
  81 C :   -0.076680
  82 C :    0.009539
  83 S :    0.206407
  84 C :   -0.076118
  85 C :    0.006467
  86 H :    0.090425
  87 H :    0.119185
  88 H :    0.058284
  89 H :    0.033806
  90 H :    0.040947
  91 H :    0.037098
  92 H :    0.033354
  93 H :    0.039492
  94 H :    0.033394
  95 H :    0.032381
  96 H :    0.048700
  97 H :    0.055506
  98 H :    0.031634
  99 H :    0.034320
 100 H :    0.041990
 101 H :    0.033954
 102 H :    0.039202
 103 H :    0.037093
 104 H :    0.037783
 105 H :    0.064507
 106 H :    0.036200
 107 H :    0.058437
 108 H :    0.052586
 109 H :    0.028119
 110 H :    0.056401
 111 H :    0.030113
 112 H :    0.034519
 113 H :    0.043668
 114 H :    0.031596
 115 H :    0.052001
 116 H :    0.057151
 117 H :    0.032600
 118 H :    0.036344
 119 H :    0.040714
 120 H :    0.034474
 121 H :    0.039310
 122 H :    0.032637
 123 H :    0.033800
 124 H :    0.053456
 125 H :    0.034209
 126 H :    0.067216
 127 H :    0.094386
 128 H :    0.101465
 129 H :    0.097909
 130 H :    0.102693
 131 H :    0.093192
Sum of atomic charges:    0.0000000

LOEWDIN ATOMIC CHARGES
----------------------
   0 C :    0.163658
   1 O :   -0.236904
   2 C :   -0.205290
   3 C :   -0.047936
   4 C :    0.127348
   5 C :   -0.178334
   6 C :    0.021469
   7 N :   -0.104877
   8 C :    0.016629
   9 N :   -0.099882
  10 C :   -0.155605
  11 C :    0.102473
  12 C :   -0.214958
  13 C :    0.029207
  14 C :   -0.213078
  15 C :   -0.148843
  16 S :    0.426279
  17 C :   -0.068314
  18 C :    0.000605
  19 C :   -0.027841
  20 C :   -0.019175
  21 C :   -0.024595
  22 C :   -0.023485
  23 C :   -0.013455
  24 C :   -0.031319
  25 C :   -0.026572
  26 C :   -0.015465
  27 C :   -0.034155
  28 C :   -0.016822
  29 C :   -0.028175
  30 C :   -0.023688
  31 C :   -0.013426
  32 C :   -0.031446
  33 C :   -0.022371
  34 C :   -0.022424
  35 C :    0.015992
  36 C :   -0.037091
  37 C :   -0.127603
  38 S :    0.396783
  39 C :   -0.003842
  40 C :    0.012650
  41 C :   -0.001039
  42 C :   -0.035051
  43 C :   -0.030142
  44 C :   -0.028532
  45 C :   -0.015597
  46 C :   -0.011528
  47 C :   -0.032778
  48 C :   -0.021582
  49 C :   -0.013369
  50 C :   -0.028851
  51 C :   -0.019889
  52 C :   -0.025342
  53 C :   -0.024387
  54 C :   -0.013506
  55 C :   -0.031251
  56 C :   -0.027378
  57 C :   -0.016002
  58 C :   -0.059970
  59 C :   -0.138285
  60 C :   -0.031065
  61 C :   -0.010528
  62 S :    0.394348
  63 C :   -0.205410
  64 C :   -0.152141
  65 S :    0.443171
  66 C :   -0.206914
  67 C :    0.011484
  68 C :    0.100947
  69 C :   -0.145259
  70 C :    0.106080
  71 C :   -0.163637
  72 C :    0.027971
  73 N :   -0.108069
  74 C :    0.001784
  75 N :   -0.084045
  76 C :   -0.042160
  77 C :   -0.210819
  78 C :    0.157446
  79 O :   -0.229860
  80 S :    0.464824
  81 C :   -0.138339
  82 C :   -0.042763
  83 S :    0.466097
  84 C :   -0.135332
  85 C :   -0.047234
  86 H :    0.046361
  87 H :    0.049880
  88 H :    0.030582
  89 H :    0.026630
  90 H :    0.021934
  91 H :    0.020341
  92 H :    0.017591
  93 H :    0.017637
  94 H :    0.017910
  95 H :    0.026147
  96 H :    0.026595
  97 H :    0.030489
  98 H :    0.025635
  99 H :    0.019034
 100 H :    0.022077
 101 H :    0.018326
 102 H :    0.017319
 103 H :    0.018635
 104 H :    0.027761
 105 H :    0.029718
 106 H :    0.033242
 107 H :    0.026547
 108 H :    0.026521
 109 H :    0.018290
 110 H :    0.025665
 111 H :    0.015441
 112 H :    0.017768
 113 H :    0.018795
 114 H :    0.026375
 115 H :    0.029706
 116 H :    0.030020
 117 H :    0.025866
 118 H :    0.020077
 119 H :    0.021736
 120 H :    0.018454
 121 H :    0.017561
 122 H :    0.017123
 123 H :    0.026638
 124 H :    0.028108
 125 H :    0.032363
 126 H :    0.043480
 127 H :    0.058830
 128 H :    0.036873
 129 H :    0.047589
 130 H :    0.037315
 131 H :    0.046797

  Mayer bond orders larger than 0.100000
B(  0-C ,  1-O ) :   2.0000 B(  0-C ,  2-C ) :   1.0808 B(  0-C , 10-C ) :   0.9682
B(  2-C ,  3-C ) :   1.5578 B(  2-C , 80-S ) :   1.1101 B(  3-C ,  4-C ) :   1.0550
B(  3-C , 82-C ) :   1.2279 B(  4-C ,  5-C ) :   1.6763 B(  4-C , 10-C ) :   1.0839
B(  5-C ,  6-C ) :   1.0597 B(  5-C ,  8-C ) :   1.0542 B(  6-C ,  7-N ) :   2.9856
B(  8-C ,  9-N ) :   2.9679 B( 10-C , 11-C ) :   1.6881 B( 11-C , 12-C ) :   1.2361
B( 11-C , 86-H ) :   0.9387 B( 12-C , 13-C ) :   1.4906 B( 12-C , 16-S ) :   1.0645
B( 13-C , 14-C ) :   1.3544 B( 13-C , 87-H ) :   0.9754 B( 14-C , 15-C ) :   1.4278
B( 14-C , 38-S ) :   1.0300 B( 15-C , 16-S ) :   1.1047 B( 15-C , 17-C ) :   1.3707
B( 17-C , 18-C ) :   0.9596 B( 17-C , 37-C ) :   1.6577 B( 18-C , 19-C ) :   0.9737
B( 18-C , 27-C ) :   0.9880 B( 18-C , 35-C ) :   0.9706 B( 19-C , 20-C ) :   1.4618
B( 19-C , 26-C ) :   1.4064 B( 20-C , 21-C ) :   1.4183 B( 20-C , 88-H ) :   0.9883
B( 21-C , 22-C ) :   1.4235 B( 21-C , 89-H ) :   0.9982 B( 22-C , 23-C ) :   0.9949
B( 22-C , 25-C ) :   1.4005 B( 23-C , 24-C ) :   1.0311 B( 23-C , 90-H ) :   0.9761
B( 23-C , 91-H ) :   0.9767 B( 24-C , 92-H ) :   0.9848 B( 24-C , 93-H ) :   0.9867
B( 24-C , 94-H ) :   0.9834 B( 25-C , 26-C ) :   1.4515 B( 25-C , 95-H ) :   0.9999
B( 26-C , 96-H ) :   0.9978 B( 27-C , 28-C ) :   1.4367 B( 27-C , 34-C ) :   1.4044
B( 28-C , 29-C ) :   1.4258 B( 28-C , 97-H ) :   0.9950 B( 29-C , 30-C ) :   1.4230
B( 29-C , 98-H ) :   0.9992 B( 30-C , 31-C ) :   0.9959 B( 30-C , 33-C ) :   1.3995
B( 31-C , 32-C ) :   1.0306 B( 31-C , 99-H ) :   0.9776 B( 31-C ,100-H ) :   0.9742
B( 32-C ,101-H ) :   0.9825 B( 32-C ,102-H ) :   0.9868 B( 32-C ,103-H ) :   0.9857
B( 33-C , 34-C ) :   1.4459 B( 33-C ,104-H ) :   1.0003 B( 34-C ,105-H ) :   0.9995
B( 35-C , 36-C ) :   1.3992 B( 35-C , 61-C ) :   1.4898 B( 36-C , 37-C ) :   1.1291
B( 36-C , 39-C ) :   1.3580 B( 37-C , 38-S ) :   1.0622 B( 39-C , 40-C ) :   1.4993
B( 39-C ,106-H ) :   0.9939 B( 40-C , 41-C ) :   0.9704 B( 40-C , 60-C ) :   1.3944
B( 41-C , 42-C ) :   0.9832 B( 41-C , 50-C ) :   0.9811 B( 41-C , 58-C ) :   0.9579
B( 42-C , 43-C ) :   1.4137 B( 42-C , 49-C ) :   1.4223 B( 43-C , 44-C ) :   1.4354
B( 43-C ,107-H ) :   0.9996 B( 44-C , 45-C ) :   1.4042 B( 44-C ,108-H ) :   0.9991
B( 45-C , 46-C ) :   0.9820 B( 45-C , 48-C ) :   1.4300 B( 46-C , 47-C ) :   1.0403
B( 46-C ,109-H ) :   0.9773 B( 46-C ,110-H ) :   0.9659 B( 47-C ,111-H ) :   0.9822
B( 47-C ,112-H ) :   0.9869 B( 47-C ,113-H ) :   0.9848 B( 48-C , 49-C ) :   1.4401
B( 48-C ,114-H ) :   0.9970 B( 49-C ,115-H ) :   0.9976 B( 50-C , 51-C ) :   1.4597
B( 50-C , 57-C ) :   1.4086 B( 51-C , 52-C ) :   1.4219 B( 51-C ,116-H ) :   0.9892
B( 52-C , 53-C ) :   1.4181 B( 52-C ,117-H ) :   0.9979 B( 53-C , 54-C ) :   0.9945
B( 53-C , 56-C ) :   1.4062 B( 54-C , 55-C ) :   1.0314 B( 54-C ,118-H ) :   0.9770
B( 54-C ,119-H ) :   0.9755 B( 55-C ,120-H ) :   0.9829 B( 55-C ,121-H ) :   0.9867
B( 55-C ,122-H ) :   0.9855 B( 56-C , 57-C ) :   1.4438 B( 56-C ,123-H ) :   1.0002
B( 57-C ,124-H ) :   0.9976 B( 58-C , 59-C ) :   1.6553 B( 58-C , 64-C ) :   1.3754
B( 59-C , 60-C ) :   1.1330 B( 59-C , 62-S ) :   1.0559 B( 60-C , 61-C ) :   1.3639
B( 61-C ,125-H ) :   0.9990 B( 62-S , 63-C ) :   1.0339 B( 63-C , 64-C ) :   1.4555
B( 63-C , 67-C ) :   1.3410 B( 64-C , 65-S ) :   1.0840 B( 65-S , 66-C ) :   1.0624
B( 66-C , 67-C ) :   1.5358 B( 66-C , 68-C ) :   1.1545 B( 67-C ,126-H ) :   0.9940
B( 68-C , 69-C ) :   1.7559 B( 68-C ,127-H ) :   0.9547 B( 69-C , 70-C ) :   1.0324
B( 69-C , 78-C ) :   0.9908 B( 70-C , 71-C ) :   1.7200 B( 70-C , 76-C ) :   1.0576
B( 71-C , 72-C ) :   1.0530 B( 71-C , 74-C ) :   1.0622 B( 72-C , 73-N ) :   2.9470
B( 74-C , 75-N ) :   3.0021 B( 76-C , 77-C ) :   1.5341 B( 76-C , 85-C ) :   1.2393
B( 77-C , 78-C ) :   1.0371 B( 77-C , 83-S ) :   1.1100 B( 78-C , 79-O ) :   2.0756
B( 80-S , 81-C ) :   1.1625 B( 81-C , 82-C ) :   1.6358 B( 81-C ,128-H ) :   0.9693
B( 82-C ,129-H ) :   0.9915 B( 83-S , 84-C ) :   1.1692 B( 84-C , 85-C ) :   1.6279
B( 84-C ,130-H ) :   0.9693 B( 85-C ,131-H ) :   0.9923

-----------------------------------------------------------------------------
         ABSORPTION SPECTRUM VIA TRANSITION ELECTRIC DIPOLE MOMENTS
-----------------------------------------------------------------------------
State   Energy    Wavelength  fosc         T2        TX        TY        TZ
        (cm-1)      (nm)                 (au**2)    (au)      (au)      (au)
-----------------------------------------------------------------------------
   1   23080.5    433.3   2.537399006  36.19255   3.80871  -4.65667   0.04158
   2   27084.8    369.2   0.297694024   3.61843  -1.62873   0.73134   0.65636
   3   33684.3    296.9   0.069907600   0.68324  -0.49152   0.32067   0.58208

FINAL SINGLE POINT ENERGY     -5578.308877505559

DIPOLE MOMENT
-------------
                                X             Y             Z
Electronic contribution:    -12.73380      -8.45763      -1.60784
Nuclear contribution   :     12.13554       6.67167       0.88416
                        -----------------------------------------
Total Dipole Moment    :     -0.59826      -1.78596      -0.72368
                        -----------------------------------------
Magnitude (a.u.)       :      2.01774
Magnitude (Debye)      :      5.12870

Rotational constants in cm-1:     0.001216     0.000251     0.000239
Rotational constants in MHz :    36.457663     7.520584     7.151960

                             ****ORCA TERMINATED NORMALLY****
TOTAL RUN TIME: 1 days 2 hours 23 minutes 44 seconds 240 msec
