                         Program Version 4.2.0 -  RELEASE  -
|  1> # ORCA input file
|  2> # ITCC.out
|  3> ! Engrad Keepdens
|  4> %maxcore 1000
|  5> %tddft
|  6>   nroots 3
|  7>   # nroots is the number of states to be computed
|  8>   Iroot 1
|  9>   end
| 10> * xyz 0 1
| 11>    C        1.43434        -1.07383         1.64669
| 12>    O        1.59572        -2.26646         1.80478
| 13>    C        0.32677        -0.26707         2.14861
| 14>    C        0.45230         1.06205         1.77261
| 15>    C        1.66193         1.21266         0.98819
| 16>    C        2.07102         2.39921         0.43713
| 17>    C        1.32977         3.58732         0.61449
| 18>    N        0.74855         4.56845         0.74271
| 19>    C        3.21579         2.62095        -0.35416
| 20>    N        4.11903         2.89490        -1.00935
| 21>    C        2.29190        -0.10087         0.91413
| 22>    C        3.48481        -0.31727         0.28059
| 23>    C        4.26251        -1.47573         0.09619
| 24>    C        4.08509        -2.80148         0.46104
| 25>    C        5.14491        -3.59769         0.05397
| 26>    C        6.16316        -2.90418        -0.63487
| 27>    S        5.78649        -1.23655        -0.77654
| 28>    C        7.21560        -3.73730        -1.00318
| 29>    C        8.51435        -3.62004        -1.75430
| 30>    C        9.52179        -2.69078        -1.10593
| 31>    C        9.44540        -2.37758         0.24338
| 32>    C       10.38673        -1.54798         0.82482
| 33>    C       11.42939        -1.01756         0.07800
| 34>    C       12.47162        -0.14650         0.71732
| 35>    C       13.65179        -0.99169         1.20097
| 36>    C       11.51190        -1.35011        -1.26827
| 37>    C       10.57272        -2.17602        -1.85473
| 38>    C        8.16667        -3.17752        -3.16618
| 39>    C        8.03697        -4.08228        -4.20913
| 40>    C        7.66327        -3.64623        -5.46809
| 41>    C        7.40254        -2.30544        -5.71339
| 42>    C        6.95113        -1.84209        -7.06822
| 43>    C        5.42313        -1.83429        -7.14705
| 44>    C        7.51948        -1.40668        -4.66000
| 45>    C        7.89510        -1.83485        -3.40218
| 46>    C        9.02228        -5.04863        -1.66685
| 47>    C        8.09237        -5.87743        -0.99515
| 48>    C        6.99322        -5.04726        -0.61148
| 49>    S        5.49882        -5.29499         0.22433
| 50>    C        8.32735        -7.23471        -0.79179
| 51>    C        9.51882        -7.74250        -1.25345
| 52>    C       10.02220        -9.17403        -1.17784
| 53>    C       10.30861        -9.67974         0.22539
| 54>    C       10.49689       -11.04209         0.42675
| 55>    C       10.85859       -11.52262         1.66973
| 56>    C       11.05698       -10.65755         2.73860
| 57>    C       11.41855       -11.19175         4.09311
| 58>    C       10.15676       -11.56195         4.87551
| 59>    C       10.87107        -9.29809         2.52894
| 60>    C       10.50698        -8.80996         1.28685
| 61>    C        9.04868       -10.06597        -1.92291
| 62>    C        9.22525       -10.35699        -3.26788
| 63>    C        8.31130       -11.14793        -3.93982
| 64>    C        7.19729       -11.66094        -3.28990
| 65>    C        6.18628       -12.48631        -4.03211
| 66>    C        5.10962       -11.58865        -4.64523
| 67>    C        7.01744       -11.35371        -1.94709
| 68>    C        7.92923       -10.56690        -1.27022
| 69>    C       11.36211        -9.03370        -1.84459
| 70>    C       11.58531        -7.72482        -2.23659
| 71>    C       10.45696        -6.90906        -1.91015
| 72>    C       10.21695        -5.55449        -2.12319
| 73>    S       13.15622        -7.44966        -2.90925
| 74>    C       13.55203        -9.12042        -2.62718
| 75>    C       12.48168        -9.83089        -2.05497
| 76>    S       12.90755       -11.46530        -1.74114
| 77>    C       14.54317       -11.17392        -2.32720
| 78>    C       14.69951        -9.88632        -2.80558
| 79>    C       15.52456       -12.19353        -2.33425
| 80>    C       15.59571       -13.30566        -1.55692
| 81>    C       14.90456       -13.68856        -0.33753
| 82>    C       14.43386       -12.87330         0.65807
| 83>    C       13.86330       -13.39482         1.83536
| 84>    N       13.38069       -13.79910         2.79544
| 85>    C       14.56035       -11.46904         0.67542
| 86>    N       14.70225       -10.33381         0.76902
| 87>    C       15.07086       -15.12422        -0.20847
| 88>    C       15.98885       -15.55951        -1.15760
| 89>    C       16.43903       -14.45866        -2.00380
| 90>    O       17.26152       -14.45380        -2.89008
| 91>    S       -1.07716        -0.55420         3.07863
| 92>    C       -1.49576         1.11499         2.96280
| 93>    C       -0.60710         1.86082         2.24665
| 94>    S       16.30711       -17.23427        -1.03049
| 95>    C       15.20436       -17.34751         0.29022
| 96>    C       14.62433       -16.16134         0.63155
| 97>    H        3.93986         0.56021        -0.16480
| 98>    H        3.22211        -3.14916         0.99785
| 99>    H        8.64450        -2.77924         0.84738
|100>    H       10.30575        -1.30651         1.87506
|101>    H       12.03885         0.38698         1.56580
|102>    H       12.82947         0.59123        -0.00372
|103>    H       13.31748        -1.72621         1.93027
|104>    H       14.40698        -0.36081         1.66380
|105>    H       14.10526        -1.52177         0.36642
|106>    H       12.31846        -0.95169        -1.86710
|107>    H       10.64603        -2.40971        -2.90712
|108>    H        8.22918        -5.13237        -4.04307
|109>    H        7.57324        -4.36324        -6.27183
|110>    H        7.34840        -2.50562        -7.83890
|111>    H        7.32522        -0.83408        -7.25777
|112>    H        5.03031        -2.83356        -6.97216
|113>    H        5.09424        -1.49797        -8.12749
|114>    H        5.00921        -1.16772        -6.39389
|115>    H        7.31492        -0.35898        -4.82580
|116>    H        7.98603        -1.12083        -2.59641
|117>    H        7.60242        -7.85036        -0.28260
|118>    H       10.35431       -11.72956        -0.39548
|119>    H       10.99966       -12.58420         1.81282
|120>    H       11.98120       -10.43948         4.64914
|121>    H       12.04515       -12.07866         3.98216
|122>    H        9.51992       -10.68917         5.00522
|123>    H       10.41975       -11.95016         5.85642
|124>    H        9.59161       -12.32251         4.34158
|125>    H       11.02364        -8.60728         3.34574
|126>    H       10.38173        -7.74625         1.14355
|127>    H       10.08412        -9.96862        -3.79640
|128>    H        8.46974       -11.37252        -4.98508
|129>    H        5.71603       -13.19718        -3.34980
|130>    H        6.67974       -13.04999        -4.82646
|131>    H        4.59726       -11.02706        -3.86729
|132>    H        4.37706       -12.18601        -5.18288
|133>    H        5.55750       -10.88038        -5.33876
|134>    H        6.15524       -11.74056        -1.42279
|135>    H        7.78144       -10.35412        -0.22144
|136>    H       10.94436        -4.93567        -2.62523
|137>    H       15.62506        -9.52012        -3.21067
|138>    H       16.28895       -12.11241        -3.10139
|139>    H       -2.39297         1.45760         3.44011
|140>    H       -0.71484         2.91576         2.07694
|141>    H       15.04816       -18.30235         0.75302
|142>    H       13.91555       -16.04882         1.43079
|143> *
|144>
|145>                          ****END OF INPUT****

CARTESIAN COORDINATES (ANGSTROEM)
---------------------------------
  C      1.434340   -1.073830    1.646690
  O      1.595720   -2.266460    1.804780
  C      0.326770   -0.267070    2.148610
  C      0.452300    1.062050    1.772610
  C      1.661930    1.212660    0.988190
  C      2.071020    2.399210    0.437130
  C      1.329770    3.587320    0.614490
  N      0.748550    4.568450    0.742710
  C      3.215790    2.620950   -0.354160
  N      4.119030    2.894900   -1.009350
  C      2.291900   -0.100870    0.914130
  C      3.484810   -0.317270    0.280590
  C      4.262510   -1.475730    0.096190
  C      4.085090   -2.801480    0.461040
  C      5.144910   -3.597690    0.053970
  C      6.163160   -2.904180   -0.634870
  S      5.786490   -1.236550   -0.776540
  C      7.215600   -3.737300   -1.003180
  C      8.514350   -3.620040   -1.754300
  C      9.521790   -2.690780   -1.105930
  C      9.445400   -2.377580    0.243380
  C     10.386730   -1.547980    0.824820
  C     11.429390   -1.017560    0.078000
  C     12.471620   -0.146500    0.717320
  C     13.651790   -0.991690    1.200970
  C     11.511900   -1.350110   -1.268270
  C     10.572720   -2.176020   -1.854730
  C      8.166670   -3.177520   -3.166180
  C      8.036970   -4.082280   -4.209130
  C      7.663270   -3.646230   -5.468090
  C      7.402540   -2.305440   -5.713390
  C      6.951130   -1.842090   -7.068220
  C      5.423130   -1.834290   -7.147050
  C      7.519480   -1.406680   -4.660000
  C      7.895100   -1.834850   -3.402180
  C      9.022280   -5.048630   -1.666850
  C      8.092370   -5.877430   -0.995150
  C      6.993220   -5.047260   -0.611480
  S      5.498820   -5.294990    0.224330
  C      8.327350   -7.234710   -0.791790
  C      9.518820   -7.742500   -1.253450
  C     10.022200   -9.174030   -1.177840
  C     10.308610   -9.679740    0.225390
  C     10.496890  -11.042090    0.426750
  C     10.858590  -11.522620    1.669730
  C     11.056980  -10.657550    2.738600
  C     11.418550  -11.191750    4.093110
  C     10.156760  -11.561950    4.875510
  C     10.871070   -9.298090    2.528940
  C     10.506980   -8.809960    1.286850
  C      9.048680  -10.065970   -1.922910
  C      9.225250  -10.356990   -3.267880
  C      8.311300  -11.147930   -3.939820
  C      7.197290  -11.660940   -3.289900
  C      6.186280  -12.486310   -4.032110
  C      5.109620  -11.588650   -4.645230
  C      7.017440  -11.353710   -1.947090
  C      7.929230  -10.566900   -1.270220
  C     11.362110   -9.033700   -1.844590
  C     11.585310   -7.724820   -2.236590
  C     10.456960   -6.909060   -1.910150
  C     10.216950   -5.554490   -2.123190
  S     13.156220   -7.449660   -2.909250
  C     13.552030   -9.120420   -2.627180
  C     12.481680   -9.830890   -2.054970
  S     12.907550  -11.465300   -1.741140
  C     14.543170  -11.173920   -2.327200
  C     14.699510   -9.886320   -2.805580
  C     15.524560  -12.193530   -2.334250
  C     15.595710  -13.305660   -1.556920
  C     14.904560  -13.688560   -0.337530
  C     14.433860  -12.873300    0.658070
  C     13.863300  -13.394820    1.835360
  N     13.380690  -13.799100    2.795440
  C     14.560350  -11.469040    0.675420
  N     14.702250  -10.333810    0.769020
  C     15.070860  -15.124220   -0.208470
  C     15.988850  -15.559510   -1.157600
  C     16.439030  -14.458660   -2.003800
  O     17.261520  -14.453800   -2.890080
  S     -1.077160   -0.554200    3.078630
  C     -1.495760    1.114990    2.962800
  C     -0.607100    1.860820    2.246650
  S     16.307110  -17.234270   -1.030490
  C     15.204360  -17.347510    0.290220
  C     14.624330  -16.161340    0.631550
  H      3.939860    0.560210   -0.164800
  H      3.222110   -3.149160    0.997850
  H      8.644500   -2.779240    0.847380
  H     10.305750   -1.306510    1.875060
  H     12.038850    0.386980    1.565800
  H     12.829470    0.591230   -0.003720
  H     13.317480   -1.726210    1.930270
  H     14.406980   -0.360810    1.663800
  H     14.105260   -1.521770    0.366420
  H     12.318460   -0.951690   -1.867100
  H     10.646030   -2.409710   -2.907120
  H      8.229180   -5.132370   -4.043070
  H      7.573240   -4.363240   -6.271830
  H      7.348400   -2.505620   -7.838900
  H      7.325220   -0.834080   -7.257770
  H      5.030310   -2.833560   -6.972160
  H      5.094240   -1.497970   -8.127490
  H      5.009210   -1.167720   -6.393890
  H      7.314920   -0.358980   -4.825800
  H      7.986030   -1.120830   -2.596410
  H      7.602420   -7.850360   -0.282600
  H     10.354310  -11.729560   -0.395480
  H     10.999660  -12.584200    1.812820
  H     11.981200  -10.439480    4.649140
  H     12.045150  -12.078660    3.982160
  H      9.519920  -10.689170    5.005220
  H     10.419750  -11.950160    5.856420
  H      9.591610  -12.322510    4.341580
  H     11.023640   -8.607280    3.345740
  H     10.381730   -7.746250    1.143550
  H     10.084120   -9.968620   -3.796400
  H      8.469740  -11.372520   -4.985080
  H      5.716030  -13.197180   -3.349800
  H      6.679740  -13.049990   -4.826460
  H      4.597260  -11.027060   -3.867290
  H      4.377060  -12.186010   -5.182880
  H      5.557500  -10.880380   -5.338760
  H      6.155240  -11.740560   -1.422790
  H      7.781440  -10.354120   -0.221440
  H     10.944360   -4.935670   -2.625230
  H     15.625060   -9.520120   -3.210670
  H     16.288950  -12.112410   -3.101390
  H     -2.392970    1.457600    3.440110
  H     -0.714840    2.915760    2.076940
  H     15.048160  -18.302350    0.753020
  H     13.915550  -16.048820    1.430790

 Total Charge           Charge          ....    0
 Multiplicity           Mult            ....    1
 Number of Electrons    NEL             ....  630
 Basis Dimension        Dim             .... 1458

ORBITAL ENERGIES
----------------

  NO   OCC          E(Eh)            E(eV)
   0   2.0000     -91.994080     -2503.2862
   1   2.0000     -91.991918     -2503.2274
   2   2.0000     -91.974887     -2502.7639
   3   2.0000     -91.974561     -2502.7550
   4   2.0000     -91.971442     -2502.6702
   5   2.0000     -91.971320     -2502.6669
   6   2.0000     -20.566673      -559.6476
   7   2.0000     -20.562835      -559.5432
   8   2.0000     -15.590654      -424.2433
   9   2.0000     -15.588501      -424.1847
  10   2.0000     -15.582201      -424.0133
  11   2.0000     -15.580076      -423.9554
  12   2.0000     -11.370940      -309.4190
  13   2.0000     -11.367160      -309.3162
  14   2.0000     -11.340311      -308.5855
  15   2.0000     -11.337982      -308.5222
  16   2.0000     -11.320511      -308.0468
  17   2.0000     -11.315319      -307.9055
  18   2.0000     -11.312990      -307.8421
  19   2.0000     -11.311610      -307.8045
  20   2.0000     -11.306328      -307.6608
  21   2.0000     -11.302719      -307.5626
  22   2.0000     -11.302151      -307.5472
  23   2.0000     -11.301517      -307.5299
  24   2.0000     -11.299944      -307.4871
  25   2.0000     -11.298844      -307.4572
  26   2.0000     -11.297215      -307.4129
  27   2.0000     -11.297073      -307.4090
  28   2.0000     -11.295754      -307.3731
  29   2.0000     -11.295483      -307.3657
  30   2.0000     -11.293762      -307.3189
  31   2.0000     -11.292643      -307.2884
  32   2.0000     -11.292034      -307.2719
  33   2.0000     -11.290595      -307.2327
  34   2.0000     -11.290201      -307.2220
  35   2.0000     -11.288797      -307.1838
  36   2.0000     -11.288666      -307.1802
  37   2.0000     -11.286286      -307.1155
  38   2.0000     -11.284942      -307.0789
  39   2.0000     -11.278924      -306.9151
  40   2.0000     -11.278118      -306.8932
  41   2.0000     -11.277849      -306.8859
  42   2.0000     -11.276723      -306.8552
  43   2.0000     -11.274818      -306.8034
  44   2.0000     -11.274388      -306.7917
  45   2.0000     -11.273219      -306.7599
  46   2.0000     -11.271014      -306.6999
  47   2.0000     -11.269915      -306.6700
  48   2.0000     -11.265081      -306.5384
  49   2.0000     -11.264642      -306.5265
  50   2.0000     -11.264630      -306.5262
  51   2.0000     -11.264096      -306.5116
  52   2.0000     -11.261843      -306.4503
  53   2.0000     -11.260853      -306.4234
  54   2.0000     -11.249943      -306.1265
  55   2.0000     -11.248821      -306.0960
  56   2.0000     -11.248468      -306.0864
  57   2.0000     -11.244344      -305.9742
  58   2.0000     -11.242343      -305.9197
  59   2.0000     -11.240797      -305.8776
  60   2.0000     -11.240618      -305.8728
  61   2.0000     -11.240230      -305.8622
  62   2.0000     -11.239292      -305.8367
  63   2.0000     -11.239255      -305.8357
  64   2.0000     -11.239133      -305.8324
  65   2.0000     -11.238131      -305.8051
  66   2.0000     -11.238073      -305.8035
  67   2.0000     -11.237993      -305.8013
  68   2.0000     -11.237333      -305.7834
  69   2.0000     -11.236022      -305.7477
  70   2.0000     -11.235196      -305.7252
  71   2.0000     -11.235091      -305.7224
  72   2.0000     -11.234612      -305.7093
  73   2.0000     -11.234476      -305.7056
  74   2.0000     -11.234066      -305.6945
  75   2.0000     -11.233262      -305.6726
  76   2.0000     -11.232121      -305.6415
  77   2.0000     -11.231896      -305.6354
  78   2.0000     -11.231777      -305.6322
  79   2.0000     -11.227905      -305.5268
  80   2.0000     -11.227728      -305.5220
  81   2.0000     -11.225746      -305.4681
  82   2.0000     -11.222616      -305.3829
  83   2.0000     -11.221840      -305.3618
  84   2.0000     -11.216877      -305.2267
  85   2.0000     -11.213458      -305.1337
  86   2.0000      -9.029555      -245.7067
  87   2.0000      -9.027344      -245.6465
  88   2.0000      -9.009905      -245.1720
  89   2.0000      -9.009672      -245.1656
  90   2.0000      -9.006387      -245.0763
  91   2.0000      -9.006367      -245.0757
  92   2.0000      -6.716848      -182.7747
  93   2.0000      -6.715892      -182.7487
  94   2.0000      -6.714643      -182.7147
  95   2.0000      -6.714216      -182.7031
  96   2.0000      -6.713698      -182.6890
  97   2.0000      -6.712028      -182.6436
  98   2.0000      -6.697473      -182.2475
  99   2.0000      -6.697216      -182.2405
 100   2.0000      -6.696634      -182.2247
 101   2.0000      -6.696371      -182.2175
 102   2.0000      -6.694494      -182.1665
 103   2.0000      -6.694238      -182.1595
 104   2.0000      -6.693899      -182.1502
 105   2.0000      -6.693834      -182.1485
 106   2.0000      -6.692878      -182.1225
 107   2.0000      -6.692794      -182.1202
 108   2.0000      -6.690866      -182.0677
 109   2.0000      -6.690830      -182.0667
 110   2.0000      -1.399490       -38.0821
 111   2.0000      -1.396090       -37.9896
 112   2.0000      -1.253521       -34.1100
 113   2.0000      -1.250588       -34.0302
 114   2.0000      -1.247869       -33.9562
 115   2.0000      -1.240927       -33.7673
 116   2.0000      -1.233631       -33.5688
 117   2.0000      -1.232046       -33.5257
 118   2.0000      -1.221305       -33.2334
 119   2.0000      -1.220751       -33.2183
 120   2.0000      -1.208521       -32.8855
 121   2.0000      -1.195147       -32.5216
 122   2.0000      -1.171331       -31.8735
 123   2.0000      -1.169265       -31.8173
 124   2.0000      -1.166468       -31.7412
 125   2.0000      -1.159586       -31.5539
 126   2.0000      -1.156064       -31.4581
 127   2.0000      -1.152975       -31.3740
 128   2.0000      -1.139592       -31.0099
 129   2.0000      -1.119408       -30.4606
 130   2.0000      -1.102581       -30.0028
 131   2.0000      -1.098978       -29.9047
 132   2.0000      -1.095149       -29.8005
 133   2.0000      -1.081675       -29.4339
 134   2.0000      -1.067073       -29.0365
 135   2.0000      -1.061815       -28.8935
 136   2.0000      -1.061337       -28.8804
 137   2.0000      -1.056172       -28.7399
 138   2.0000      -1.051336       -28.6083
 139   2.0000      -1.046125       -28.4665
 140   2.0000      -1.039493       -28.2860
 141   2.0000      -1.032362       -28.0920
 142   2.0000      -1.029417       -28.0119
 143   2.0000      -1.021679       -27.8013
 144   2.0000      -1.015649       -27.6372
 145   2.0000      -1.014865       -27.6159
 146   2.0000      -1.011771       -27.5317
 147   2.0000      -1.008127       -27.4325
 148   2.0000      -0.999915       -27.2091
 149   2.0000      -0.996165       -27.1070
 150   2.0000      -0.978267       -26.6200
 151   2.0000      -0.977381       -26.5959
 152   2.0000      -0.975882       -26.5551
 153   2.0000      -0.970382       -26.4054
 154   2.0000      -0.960296       -26.1310
 155   2.0000      -0.935532       -25.4571
 156   2.0000      -0.929366       -25.2893
 157   2.0000      -0.925291       -25.1784
 158   2.0000      -0.921571       -25.0772
 159   2.0000      -0.912855       -24.8401
 160   2.0000      -0.898514       -24.4498
 161   2.0000      -0.868894       -23.6438
 162   2.0000      -0.861577       -23.4447
 163   2.0000      -0.860678       -23.4202
 164   2.0000      -0.856802       -23.3148
 165   2.0000      -0.843968       -22.9655
 166   2.0000      -0.836156       -22.7530
 167   2.0000      -0.834791       -22.7158
 168   2.0000      -0.832593       -22.6560
 169   2.0000      -0.830896       -22.6098
 170   2.0000      -0.827535       -22.5184
 171   2.0000      -0.822984       -22.3945
 172   2.0000      -0.818196       -22.2643
 173   2.0000      -0.811499       -22.0820
 174   2.0000      -0.803581       -21.8665
 175   2.0000      -0.798829       -21.7373
 176   2.0000      -0.797621       -21.7044
 177   2.0000      -0.790080       -21.4992
 178   2.0000      -0.789406       -21.4808
 179   2.0000      -0.782968       -21.3056
 180   2.0000      -0.780313       -21.2334
 181   2.0000      -0.776994       -21.1431
 182   2.0000      -0.771033       -20.9809
 183   2.0000      -0.760991       -20.7076
 184   2.0000      -0.751426       -20.4473
 185   2.0000      -0.743651       -20.2358
 186   2.0000      -0.742684       -20.2095
 187   2.0000      -0.732491       -19.9321
 188   2.0000      -0.723563       -19.6891
 189   2.0000      -0.719870       -19.5887
 190   2.0000      -0.714204       -19.4345
 191   2.0000      -0.704771       -19.1778
 192   2.0000      -0.702623       -19.1193
 193   2.0000      -0.697796       -18.9880
 194   2.0000      -0.691808       -18.8251
 195   2.0000      -0.691025       -18.8037
 196   2.0000      -0.679050       -18.4779
 197   2.0000      -0.677797       -18.4438
 198   2.0000      -0.670294       -18.2396
 199   2.0000      -0.665012       -18.0959
 200   2.0000      -0.659888       -17.9565
 201   2.0000      -0.658249       -17.9119
 202   2.0000      -0.656566       -17.8661
 203   2.0000      -0.652181       -17.7468
 204   2.0000      -0.648643       -17.6505
 205   2.0000      -0.646774       -17.5996
 206   2.0000      -0.640219       -17.4213
 207   2.0000      -0.637196       -17.3390
 208   2.0000      -0.634602       -17.2684
 209   2.0000      -0.633862       -17.2483
 210   2.0000      -0.632334       -17.2067
 211   2.0000      -0.631229       -17.1766
 212   2.0000      -0.627713       -17.0809
 213   2.0000      -0.625596       -17.0233
 214   2.0000      -0.625334       -17.0162
 215   2.0000      -0.622912       -16.9503
 216   2.0000      -0.614988       -16.7347
 217   2.0000      -0.613029       -16.6814
 218   2.0000      -0.611452       -16.6384
 219   2.0000      -0.608219       -16.5505
 220   2.0000      -0.603913       -16.4333
 221   2.0000      -0.602010       -16.3815
 222   2.0000      -0.599864       -16.3231
 223   2.0000      -0.598905       -16.2970
 224   2.0000      -0.597097       -16.2478
 225   2.0000      -0.594699       -16.1826
 226   2.0000      -0.593819       -16.1586
 227   2.0000      -0.591733       -16.1019
 228   2.0000      -0.590154       -16.0589
 229   2.0000      -0.589581       -16.0433
 230   2.0000      -0.588483       -16.0134
 231   2.0000      -0.585773       -15.9397
 232   2.0000      -0.582419       -15.8484
 233   2.0000      -0.582080       -15.8392
 234   2.0000      -0.578451       -15.7404
 235   2.0000      -0.576357       -15.6835
 236   2.0000      -0.575432       -15.6583
 237   2.0000      -0.574290       -15.6272
 238   2.0000      -0.573472       -15.6050
 239   2.0000      -0.570381       -15.5209
 240   2.0000      -0.569055       -15.4848
 241   2.0000      -0.567890       -15.4531
 242   2.0000      -0.565359       -15.3842
 243   2.0000      -0.564537       -15.3618
 244   2.0000      -0.562035       -15.2937
 245   2.0000      -0.558618       -15.2008
 246   2.0000      -0.555736       -15.1223
 247   2.0000      -0.550176       -14.9711
 248   2.0000      -0.544128       -14.8065
 249   2.0000      -0.543656       -14.7936
 250   2.0000      -0.541627       -14.7384
 251   2.0000      -0.537645       -14.6301
 252   2.0000      -0.536122       -14.5886
 253   2.0000      -0.534031       -14.5317
 254   2.0000      -0.530798       -14.4437
 255   2.0000      -0.529581       -14.4106
 256   2.0000      -0.527182       -14.3453
 257   2.0000      -0.522250       -14.2112
 258   2.0000      -0.520493       -14.1633
 259   2.0000      -0.518466       -14.1082
 260   2.0000      -0.517583       -14.0842
 261   2.0000      -0.516496       -14.0546
 262   2.0000      -0.514567       -14.0021
 263   2.0000      -0.510828       -13.9003
 264   2.0000      -0.508674       -13.8417
 265   2.0000      -0.505143       -13.7456
 266   2.0000      -0.503128       -13.6908
 267   2.0000      -0.502843       -13.6830
 268   2.0000      -0.501833       -13.6556
 269   2.0000      -0.497899       -13.5485
 270   2.0000      -0.497103       -13.5268
 271   2.0000      -0.495909       -13.4944
 272   2.0000      -0.494623       -13.4594
 273   2.0000      -0.493632       -13.4324
 274   2.0000      -0.492599       -13.4043
 275   2.0000      -0.488979       -13.3058
 276   2.0000      -0.488629       -13.2963
 277   2.0000      -0.487393       -13.2626
 278   2.0000      -0.485318       -13.2062
 279   2.0000      -0.483176       -13.1479
 280   2.0000      -0.481664       -13.1068
 281   2.0000      -0.479278       -13.0418
 282   2.0000      -0.478030       -13.0078
 283   2.0000      -0.476113       -12.9557
 284   2.0000      -0.475286       -12.9332
 285   2.0000      -0.473742       -12.8912
 286   2.0000      -0.473406       -12.8820
 287   2.0000      -0.470834       -12.8121
 288   2.0000      -0.468890       -12.7591
 289   2.0000      -0.466777       -12.7016
 290   2.0000      -0.459111       -12.4931
 291   2.0000      -0.448399       -12.2016
 292   2.0000      -0.448028       -12.1915
 293   2.0000      -0.418914       -11.3992
 294   2.0000      -0.418864       -11.3979
 295   2.0000      -0.415614       -11.3094
 296   2.0000      -0.391624       -10.6566
 297   2.0000      -0.380197       -10.3457
 298   2.0000      -0.374060       -10.1787
 299   2.0000      -0.368632       -10.0310
 300   2.0000      -0.355235        -9.6664
 301   2.0000      -0.350462        -9.5366
 302   2.0000      -0.350098        -9.5267
 303   2.0000      -0.348427        -9.4812
 304   2.0000      -0.345952        -9.4138
 305   2.0000      -0.345242        -9.3945
 306   2.0000      -0.341897        -9.3035
 307   2.0000      -0.338468        -9.2102
 308   2.0000      -0.334663        -9.1066
 309   2.0000      -0.329111        -8.9556
 310   2.0000      -0.322818        -8.7843
 311   2.0000      -0.318061        -8.6549
 312   2.0000      -0.315620        -8.5885
 313   2.0000      -0.297982        -8.1085
 314   2.0000      -0.257050        -6.9947
 315   0.0000      -0.018285        -0.4976
 316   0.0000      -0.003731        -0.1015
 317   0.0000       0.010625         0.2891
 318   0.0000       0.017121         0.4659
 319   0.0000       0.059372         1.6156

MULLIKEN ATOMIC CHARGES
-----------------------
   0 C :    0.469605
   1 O :   -0.381558
   2 C :   -0.217491
   3 C :   -0.069137
   4 C :    0.261345
   5 C :   -0.380436
   6 C :    0.034638
   7 N :   -0.073784
   8 C :    0.039930
   9 N :   -0.067763
  10 C :   -0.296860
  11 C :    0.138264
  12 C :   -0.239299
  13 C :    0.054398
  14 C :   -0.118402
  15 C :    0.017659
  16 S :    0.183475
  17 C :   -0.127538
  18 C :   -0.017809
  19 C :   -0.092581
  20 C :   -0.003036
  21 C :   -0.002215
  22 C :   -0.160882
  23 C :    0.022236
  24 C :   -0.008068
  25 C :   -0.008962
  26 C :   -0.012281
  27 C :   -0.091717
  28 C :   -0.006534
  29 C :   -0.003879
  30 C :   -0.163491
  31 C :    0.022964
  32 C :   -0.008338
  33 C :   -0.009366
  34 C :   -0.010711
  35 C :   -0.017442
  36 C :   -0.085050
  37 C :    0.020617
  38 S :    0.206218
  39 C :    0.021116
  40 C :   -0.015189
  41 C :   -0.028880
  42 C :   -0.092907
  43 C :   -0.014226
  44 C :   -0.027083
  45 C :   -0.157061
  46 C :    0.009205
  47 C :   -0.003399
  48 C :    0.000328
  49 C :   -0.001157
  50 C :   -0.087327
  51 C :   -0.003887
  52 C :   -0.001782
  53 C :   -0.163007
  54 C :    0.022540
  55 C :   -0.007363
  56 C :   -0.009569
  57 C :   -0.013480
  58 C :   -0.109898
  59 C :    0.006690
  60 C :   -0.075779
  61 C :    0.013229
  62 S :    0.205166
  63 C :   -0.100924
  64 C :    0.023812
  65 S :    0.169097
  66 C :   -0.209978
  67 C :    0.063329
  68 C :    0.171909
  69 C :   -0.321977
  70 C :    0.237233
  71 C :   -0.334752
  72 C :    0.066369
  73 N :   -0.101271
  74 C :    0.051351
  75 N :   -0.046929
  76 C :   -0.087131
  77 C :   -0.206984
  78 C :    0.419122
  79 O :   -0.350390
  80 S :    0.213196
  81 C :   -0.058803
  82 C :    0.012094
  83 S :    0.211916
  84 C :   -0.058619
  85 C :    0.010282
  86 H :    0.083464
  87 H :    0.105724
  88 H :    0.047398
  89 H :    0.023553
  90 H :    0.034715
  91 H :    0.035295
  92 H :    0.028907
  93 H :    0.034153
  94 H :    0.027000
  95 H :    0.022935
  96 H :    0.048338
  97 H :    0.050124
  98 H :    0.021227
  99 H :    0.031854
 100 H :    0.035574
 101 H :    0.027277
 102 H :    0.033390
 103 H :    0.030713
 104 H :    0.028118
 105 H :    0.055454
 106 H :    0.026180
 107 H :    0.049656
 108 H :    0.033214
 109 H :    0.030019
 110 H :    0.068820
 111 H :    0.020339
 112 H :    0.031999
 113 H :    0.022971
 114 H :    0.021712
 115 H :    0.045916
 116 H :    0.047159
 117 H :    0.022248
 118 H :    0.033891
 119 H :    0.034219
 120 H :    0.027880
 121 H :    0.033922
 122 H :    0.027334
 123 H :    0.023080
 124 H :    0.047944
 125 H :    0.027113
 126 H :    0.053655
 127 H :    0.084431
 128 H :    0.089682
 129 H :    0.085663
 130 H :    0.090662
 131 H :    0.080129
Sum of atomic charges:   -0.0000000

LOEWDIN ATOMIC CHARGES
----------------------
   0 C :    0.156161
   1 O :   -0.234435
   2 C :   -0.205797
   3 C :   -0.045980
   4 C :    0.122007
   5 C :   -0.177464
   6 C :    0.016440
   7 N :   -0.099948
   8 C :    0.008878
   9 N :   -0.092089
  10 C :   -0.152470
  11 C :    0.100089
  12 C :   -0.215055
  13 C :    0.029904
  14 C :   -0.214895
  15 C :   -0.151074
  16 S :    0.429868
  17 C :   -0.065845
  18 C :   -0.007277
  19 C :   -0.029454
  20 C :   -0.015157
  21 C :   -0.023031
  22 C :   -0.022312
  23 C :   -0.009354
  24 C :   -0.025181
  25 C :   -0.023922
  26 C :   -0.014268
  27 C :   -0.027169
  28 C :   -0.018430
  29 C :   -0.025904
  30 C :   -0.024028
  31 C :   -0.009561
  32 C :   -0.025190
  33 C :   -0.020038
  34 C :   -0.016162
  35 C :    0.015832
  36 C :   -0.038403
  37 C :   -0.130262
  38 S :    0.408866
  39 C :   -0.001318
  40 C :    0.013536
  41 C :   -0.007766
  42 C :   -0.032009
  43 C :   -0.026099
  44 C :   -0.024559
  45 C :   -0.016360
  46 C :   -0.011738
  47 C :   -0.025301
  48 C :   -0.020664
  49 C :   -0.014007
  50 C :   -0.026440
  51 C :   -0.016793
  52 C :   -0.024377
  53 C :   -0.024295
  54 C :   -0.009522
  55 C :   -0.025286
  56 C :   -0.024298
  57 C :   -0.012805
  58 C :   -0.056887
  59 C :   -0.140542
  60 C :   -0.031172
  61 C :   -0.005637
  62 S :    0.408741
  63 C :   -0.208180
  64 C :   -0.151627
  65 S :    0.449380
  66 C :   -0.206995
  67 C :    0.013338
  68 C :    0.101279
  69 C :   -0.142617
  70 C :    0.102122
  71 C :   -0.164571
  72 C :    0.028702
  73 N :   -0.102228
  74 C :   -0.005081
  75 N :   -0.081940
  76 C :   -0.039840
  77 C :   -0.210866
  78 C :    0.149137
  79 O :   -0.229720
  80 S :    0.476412
  81 C :   -0.135483
  82 C :   -0.041012
  83 S :    0.477020
  84 C :   -0.132065
  85 C :   -0.045674
  86 H :    0.044440
  87 H :    0.045453
  88 H :    0.027988
  89 H :    0.023816
  90 H :    0.019269
  91 H :    0.019346
  92 H :    0.016372
  93 H :    0.014880
  94 H :    0.015312
  95 H :    0.023311
  96 H :    0.026766
  97 H :    0.028118
  98 H :    0.022688
  99 H :    0.017975
 100 H :    0.019455
 101 H :    0.015744
 102 H :    0.014528
 103 H :    0.016788
 104 H :    0.025530
 105 H :    0.021929
 106 H :    0.030475
 107 H :    0.020193
 108 H :    0.023756
 109 H :    0.017667
 110 H :    0.024959
 111 H :    0.012063
 112 H :    0.014385
 113 H :    0.013894
 114 H :    0.023415
 115 H :    0.027437
 116 H :    0.027969
 117 H :    0.023077
 118 H :    0.018799
 119 H :    0.018930
 120 H :    0.015852
 121 H :    0.014730
 122 H :    0.015619
 123 H :    0.023413
 124 H :    0.026818
 125 H :    0.030512
 126 H :    0.039302
 127 H :    0.055791
 128 H :    0.030950
 129 H :    0.044274
 130 H :    0.031280
 131 H :    0.042949

  Mayer bond orders larger than 0.100000
B(  0-C ,  1-O ) :   2.0040 B(  0-C ,  2-C ) :   1.0969 B(  0-C , 10-C ) :   0.9641
B(  2-C ,  3-C ) :   1.5440 B(  2-C , 80-S ) :   1.1099 B(  3-C ,  4-C ) :   1.0532
B(  3-C , 82-C ) :   1.2411 B(  4-C ,  5-C ) :   1.6721 B(  4-C , 10-C ) :   1.0863
B(  5-C ,  6-C ) :   1.0701 B(  5-C ,  8-C ) :   1.0638 B(  6-C ,  7-N ) :   2.9903
B(  8-C ,  9-N ) :   2.9738 B( 10-C , 11-C ) :   1.6912 B( 11-C , 12-C ) :   1.2396
B( 11-C , 86-H ) :   0.9384 B( 12-C , 13-C ) :   1.4901 B( 12-C , 16-S ) :   1.0600
B( 13-C , 14-C ) :   1.3591 B( 13-C , 87-H ) :   0.9827 B( 14-C , 15-C ) :   1.4240
B( 14-C , 38-S ) :   1.0308 B( 15-C , 16-S ) :   1.0960 B( 15-C , 17-C ) :   1.4011
B( 17-C , 18-C ) :   0.9716 B( 17-C , 37-C ) :   1.6509 B( 18-C , 19-C ) :   0.9846
B( 18-C , 27-C ) :   0.9768 B( 18-C , 35-C ) :   0.9629 B( 19-C , 20-C ) :   1.4473
B( 19-C , 26-C ) :   1.4169 B( 20-C , 21-C ) :   1.4221 B( 20-C , 88-H ) :   0.9963
B( 21-C , 22-C ) :   1.4217 B( 21-C , 89-H ) :   1.0032 B( 22-C , 23-C ) :   0.9975
B( 22-C , 25-C ) :   1.3996 B( 23-C , 24-C ) :   1.0337 B( 23-C , 90-H ) :   0.9764
B( 23-C , 91-H ) :   0.9756 B( 24-C , 92-H ) :   0.9838 B( 24-C , 93-H ) :   0.9873
B( 24-C , 94-H ) :   0.9848 B( 25-C , 26-C ) :   1.4427 B( 25-C , 95-H ) :   1.0045
B( 26-C , 96-H ) :   0.9996 B( 27-C , 28-C ) :   1.4536 B( 27-C , 34-C ) :   1.3973
B( 28-C , 29-C ) :   1.4165 B( 28-C , 97-H ) :   0.9943 B( 29-C , 30-C ) :   1.4239
B( 29-C , 98-H ) :   1.0032 B( 30-C , 31-C ) :   0.9986 B( 30-C , 33-C ) :   1.3963
B( 31-C , 32-C ) :   1.0339 B( 31-C , 99-H ) :   0.9766 B( 31-C ,100-H ) :   0.9753
B( 32-C ,101-H ) :   0.9836 B( 32-C ,102-H ) :   0.9872 B( 32-C ,103-H ) :   0.9849
B( 33-C , 34-C ) :   1.4549 B( 33-C ,104-H ) :   1.0054 B( 34-C ,105-H ) :   1.0021
B( 35-C , 36-C ) :   1.3950 B( 35-C , 61-C ) :   1.4935 B( 36-C , 37-C ) :   1.1430
B( 36-C , 39-C ) :   1.3514 B( 37-C , 38-S ) :   1.0562 B( 39-C , 40-C ) :   1.4975
B( 39-C ,106-H ) :   1.0019 B( 40-C , 41-C ) :   0.9629 B( 40-C , 60-C ) :   1.3914
B( 41-C , 42-C ) :   0.9900 B( 41-C , 50-C ) :   0.9831 B( 41-C , 58-C ) :   0.9660
B( 42-C , 43-C ) :   1.3992 B( 42-C , 49-C ) :   1.4449 B( 43-C , 44-C ) :   1.4398
B( 43-C ,107-H ) :   1.0019 B( 44-C , 45-C ) :   1.4044 B( 44-C ,108-H ) :   1.0049
B( 45-C , 46-C ) :   0.9932 B( 45-C , 48-C ) :   1.4206 B( 46-C , 47-C ) :   1.0374
B( 46-C ,109-H ) :   0.9741 B( 46-C ,110-H ) :   0.9705 B( 47-C ,111-H ) :   0.9836
B( 47-C ,112-H ) :   0.9873 B( 47-C ,113-H ) :   0.9845 B( 48-C , 49-C ) :   1.4214
B( 48-C ,114-H ) :   1.0028 B( 49-C ,115-H ) :   0.9964 B( 50-C , 51-C ) :   1.4505
B( 50-C , 57-C ) :   1.4163 B( 51-C , 52-C ) :   1.4202 B( 51-C ,116-H ) :   0.9951
B( 52-C , 53-C ) :   1.4203 B( 52-C ,117-H ) :   1.0032 B( 53-C , 54-C ) :   0.9981
B( 53-C , 56-C ) :   1.4008 B( 54-C , 55-C ) :   1.0339 B( 54-C ,118-H ) :   0.9759
B( 54-C ,119-H ) :   0.9761 B( 55-C ,120-H ) :   0.9842 B( 55-C ,121-H ) :   0.9872
B( 55-C ,122-H ) :   0.9842 B( 56-C , 57-C ) :   1.4423 B( 56-C ,123-H ) :   1.0048
B( 57-C ,124-H ) :   1.0007 B( 58-C , 59-C ) :   1.6476 B( 58-C , 64-C ) :   1.4016
B( 59-C , 60-C ) :   1.1425 B( 59-C , 62-S ) :   1.0573 B( 60-C , 61-C ) :   1.3537
B( 61-C ,125-H ) :   1.0025 B( 62-S , 63-C ) :   1.0345 B( 63-C , 64-C ) :   1.4552
B( 63-C , 67-C ) :   1.3391 B( 64-C , 65-S ) :   1.0673 B( 65-S , 66-C ) :   1.0611
B( 66-C , 67-C ) :   1.5375 B( 66-C , 68-C ) :   1.1461 B( 67-C ,126-H ) :   0.9983
B( 68-C , 69-C ) :   1.7552 B( 68-C ,127-H ) :   0.9612 B( 69-C , 70-C ) :   1.0315
B( 69-C , 78-C ) :   0.9911 B( 70-C , 71-C ) :   1.7156 B( 70-C , 76-C ) :   1.0599
B( 71-C , 72-C ) :   1.0725 B( 71-C , 74-C ) :   1.0618 B( 72-C , 73-N ) :   2.9176
B( 74-C , 75-N ) :   3.0158 B( 76-C , 77-C ) :   1.5245 B( 76-C , 85-C ) :   1.2514
B( 77-C , 78-C ) :   1.0534 B( 77-C , 83-S ) :   1.1080 B( 78-C , 79-O ) :   2.0828
B( 80-S , 81-C ) :   1.1721 B( 81-C , 82-C ) :   1.6220 B( 81-C ,128-H ) :   0.9719
B( 82-C ,129-H ) :   0.9972 B( 83-S , 84-C ) :   1.1777 B( 84-C , 85-C ) :   1.6161
B( 84-C ,130-H ) :   0.9721 B( 85-C ,131-H ) :   0.9980

-----------------------------------------------------------------------------
         ABSORPTION SPECTRUM VIA TRANSITION ELECTRIC DIPOLE MOMENTS
-----------------------------------------------------------------------------
State   Energy    Wavelength  fosc         T2        TX        TY        TZ
        (cm-1)      (nm)                 (au**2)    (au)      (au)      (au)
-----------------------------------------------------------------------------
   1   22793.7    438.7   2.497845470  36.07662  -3.85439   4.60528   0.10800
   2   27082.5    369.2   0.407431765   4.95269   1.34240  -1.07713  -1.41083
   3   33377.7    299.6   0.071999037   0.71014  -0.65110   0.30680   0.43828

FINAL SINGLE POINT ENERGY     -5578.314750377995

DIPOLE MOMENT
-------------
                                X             Y             Z
Electronic contribution:     -0.87332      -2.84434      18.07554
Nuclear contribution   :      0.31482       0.62548     -18.93338
                        -----------------------------------------
Total Dipole Moment    :     -0.55850      -2.21886      -0.85784
                        -----------------------------------------
Magnitude (a.u.)       :      2.44359
Magnitude (Debye)      :      6.21112

Rotational constants in cm-1:     0.001199     0.000257     0.000247
Rotational constants in MHz :    35.959952     7.690200     7.407541

                             ****ORCA TERMINATED NORMALLY****
TOTAL RUN TIME: 1 days 6 hours 53 minutes 41 seconds 848 msec
