                         Program Version 4.2.0 -  RELEASE  -
|  1> # ORCA input file
|  2> # ITIC-Th.out: Geometry 111
|  3> ! Engrad Keepdens
|  4> %maxcore 1000
|  5> %tddft
|  6>   nroots 3
|  7>   # nroots is the number of states to be computed
|  8>   Iroot 1
|  9>   end
| 10> * xyz 0 1
| 11>    C       -3.99854         0.41119         0.58998
| 12>    O       -5.12985         0.77177         0.84183
| 13>    C       -2.72670         1.00159         1.08983
| 14>    C       -2.55739         2.04759         1.98954
| 15>    C       -1.25376         2.40423         2.35039
| 16>    C       -0.15837         1.71966         1.80507
| 17>    C       -0.32841         0.67346         0.88879
| 18>    C       -1.63104         0.30737         0.52947
| 19>    C       -2.15040        -0.71280        -0.41814
| 20>    C       -1.42759        -1.30032        -1.44220
| 21>    C       -2.05480        -1.95274        -2.54927
| 22>    N       -2.54029        -2.44529        -3.48325
| 23>    C       -0.00487        -1.20152        -1.53294
| 24>    N        1.15413        -1.14597        -1.60157
| 25>    C       -3.59061        -0.78587        -0.21972
| 26>    C       -4.53823        -1.75828        -0.42771
| 27>    C       -4.45523        -3.15256        -0.68425
| 28>    C       -5.57173        -3.98059        -0.86702
| 29>    C       -5.21862        -5.33289        -0.96544
| 30>    C       -3.82581        -5.56197        -0.83970
| 31>    S       -2.95834        -4.09099        -0.58739
| 32>    C       -3.48850        -6.92189        -0.95367
| 33>    C       -2.23013        -7.77225        -0.84742
| 34>    C       -1.21398        -7.39383        -1.90589
| 35>    C       -1.33462        -6.49562        -2.93870
| 36>    C       -0.18523        -6.46243        -3.78782
| 37>    C        0.80387        -7.33734        -3.40997
| 38>    C        2.10780        -7.63679        -4.09253
| 39>    C        3.30153        -7.81271        -3.15067
| 40>    S        0.33792        -8.19113        -1.96028
| 41>    C       -1.69213        -7.65130         0.57247
| 42>    C       -2.02439        -8.39635         1.67740
| 43>    C       -1.48548        -7.86392         2.88799
| 44>    C       -0.74932        -6.71784         2.70863
| 45>    C       -0.04100        -5.89296         3.74336
| 46>    C        1.43991        -5.63400         3.44487
| 47>    S       -0.69740        -6.28764         1.01588
| 48>    C       -2.82701        -9.18161        -1.05580
| 49>    C       -4.24350        -9.11811        -1.17564
| 50>    C       -4.61004        -7.71915        -1.13004
| 51>    S       -6.10838        -6.83321        -1.18949
| 52>    C       -5.02586       -10.28246        -1.23593
| 53>    C       -4.36812       -11.50026        -1.17679
| 54>    C       -4.98526       -12.91003        -1.03113
| 55>    C       -5.64149       -13.00334         0.34118
| 56>    C       -5.08068       -13.44196         1.51521
| 57>    C       -5.92388       -13.23962         2.64907
| 58>    C       -7.12265       -12.64306         2.34521
| 59>    C       -8.24291       -12.27811         3.27288
| 60>    C       -8.58910       -10.78346         3.28729
| 61>    S       -7.23456       -12.34081         0.62538
| 62>    C       -5.92715       -13.30799        -2.14822
| 63>    C       -6.87972       -14.29758        -2.13283
| 64>    C       -7.50523       -14.48802        -3.40309
| 65>    C       -7.02451       -13.65280        -4.38340
| 66>    C       -7.45366       -13.54478        -5.81851
| 67>    C       -7.92309       -12.14177        -6.22596
| 68>    S       -5.78478       -12.60670        -3.73655
| 69>    C       -3.72478       -13.75858        -1.02048
| 70>    C       -2.58764       -12.96526        -1.04090
| 71>    C       -2.94675       -11.56401        -1.11591
| 72>    C       -2.16629       -10.39960        -1.05079
| 73>    S       -1.10607       -13.85565        -0.81781
| 74>    C       -2.03233       -15.34089        -0.64901
| 75>    C       -3.41935       -15.11011        -0.79684
| 76>    S       -4.33881       -16.54850        -0.53022
| 77>    C       -2.86541       -17.44915        -0.14755
| 78>    C       -1.71871       -16.66986        -0.31517
| 79>    C       -2.89088       -18.80115         0.30403
| 80>    C       -3.88365       -19.50135         0.93767
| 81>    C       -5.12158       -19.10841         1.60744
| 82>    C       -5.35150       -17.92729         2.28988
| 83>    C       -6.60273       -17.61098         2.90480
| 84>    N       -7.61584       -17.31197         3.39016
| 85>    C       -4.32111       -16.96536         2.52956
| 86>    N       -3.49464       -16.19325         2.79545
| 87>    C       -5.98061       -20.31570         1.67242
| 88>    C       -7.31301       -20.49300         2.06246
| 89>    C       -7.83095       -21.79337         2.09013
| 90>    C       -7.04462       -22.90514         1.75605
| 91>    C       -5.71335       -22.73432         1.36409
| 92>    C       -5.20454       -21.44182         1.31714
| 93>    C       -3.84529       -21.00135         0.90301
| 94>    O       -2.91500       -21.69817         0.55577
| 95>    H       -3.43017         2.56251         2.39531
| 96>    H       -1.08154         3.21846         3.05814
| 97>    H        0.85213         2.00850         2.10395
| 98>    H        0.54114         0.15774         0.48609
| 99>    H       -5.55717        -1.40361        -0.22364
|100>    H       -6.58580        -3.58410        -0.91651
|101>    H       -2.21465        -5.87278        -3.09771
|102>    H       -0.09949        -5.81126        -4.65897
|103>    H        2.30560        -6.82233        -4.80800
|104>    H        1.99078        -8.55293        -4.70120
|105>    H        3.48450        -6.90109        -2.56114
|106>    H        4.21362        -8.04870        -3.72056
|107>    H        3.13236        -8.63713        -2.43923
|108>    H       -2.64134        -9.29344         1.62543
|109>    H       -1.63720        -8.31913         3.86828
|110>    H       -0.14744        -6.41699         4.70706
|111>    H       -0.56154        -4.92590         3.86339
|112>    H        1.99134        -6.58000         3.33227
|113>    H        1.90862        -5.05403         4.25493
|114>    H        1.56652        -5.06272         2.51137
|115>    H       -6.11519       -10.22969        -1.28164
|116>    H       -4.09413       -13.89561         1.58536
|117>    H       -5.64712       -13.54566         3.65930
|118>    H       -7.94641       -12.60719         4.28172
|119>    H       -9.14470       -12.85991         3.01332
|120>    H       -7.71513       -10.17831         3.57411
|121>    H       -9.39935       -10.57358         4.00254
|122>    H       -8.92213       -10.43959         2.29489
|123>    H       -7.13298       -14.85979        -1.23392
|124>    H       -8.29691       -15.21628        -3.58759
|125>    H       -8.26315       -14.27551        -5.97682
|126>    H       -6.62711       -13.86094        -6.48055
|127>    H       -8.73217       -11.79032        -5.56763
|128>    H       -8.29636       -12.13706        -7.26218
|129>    H       -7.10017       -11.41254        -6.16057
|130>    H       -1.08022       -10.45532        -0.96106
|131>    H       -0.71806       -17.05744        -0.12197
|132>    H       -2.00493       -19.40303         0.06139
|133>    H       -7.94557       -19.65164         2.33929
|134>    H       -8.86968       -21.94389         2.39232
|135>    H       -7.47986       -23.90622         1.80376
|136>    H       -5.07498       -23.57769         1.09482
|137> *
|138>
|139>                          ****END OF INPUT****

CARTESIAN COORDINATES (ANGSTROEM)
---------------------------------
  C     -3.998540    0.411190    0.589980
  O     -5.129850    0.771770    0.841830
  C     -2.726700    1.001590    1.089830
  C     -2.557390    2.047590    1.989540
  C     -1.253760    2.404230    2.350390
  C     -0.158370    1.719660    1.805070
  C     -0.328410    0.673460    0.888790
  C     -1.631040    0.307370    0.529470
  C     -2.150400   -0.712800   -0.418140
  C     -1.427590   -1.300320   -1.442200
  C     -2.054800   -1.952740   -2.549270
  N     -2.540290   -2.445290   -3.483250
  C     -0.004870   -1.201520   -1.532940
  N      1.154130   -1.145970   -1.601570
  C     -3.590610   -0.785870   -0.219720
  C     -4.538230   -1.758280   -0.427710
  C     -4.455230   -3.152560   -0.684250
  C     -5.571730   -3.980590   -0.867020
  C     -5.218620   -5.332890   -0.965440
  C     -3.825810   -5.561970   -0.839700
  S     -2.958340   -4.090990   -0.587390
  C     -3.488500   -6.921890   -0.953670
  C     -2.230130   -7.772250   -0.847420
  C     -1.213980   -7.393830   -1.905890
  C     -1.334620   -6.495620   -2.938700
  C     -0.185230   -6.462430   -3.787820
  C      0.803870   -7.337340   -3.409970
  C      2.107800   -7.636790   -4.092530
  C      3.301530   -7.812710   -3.150670
  S      0.337920   -8.191130   -1.960280
  C     -1.692130   -7.651300    0.572470
  C     -2.024390   -8.396350    1.677400
  C     -1.485480   -7.863920    2.887990
  C     -0.749320   -6.717840    2.708630
  C     -0.041000   -5.892960    3.743360
  C      1.439910   -5.634000    3.444870
  S     -0.697400   -6.287640    1.015880
  C     -2.827010   -9.181610   -1.055800
  C     -4.243500   -9.118110   -1.175640
  C     -4.610040   -7.719150   -1.130040
  S     -6.108380   -6.833210   -1.189490
  C     -5.025860  -10.282460   -1.235930
  C     -4.368120  -11.500260   -1.176790
  C     -4.985260  -12.910030   -1.031130
  C     -5.641490  -13.003340    0.341180
  C     -5.080680  -13.441960    1.515210
  C     -5.923880  -13.239620    2.649070
  C     -7.122650  -12.643060    2.345210
  C     -8.242910  -12.278110    3.272880
  C     -8.589100  -10.783460    3.287290
  S     -7.234560  -12.340810    0.625380
  C     -5.927150  -13.307990   -2.148220
  C     -6.879720  -14.297580   -2.132830
  C     -7.505230  -14.488020   -3.403090
  C     -7.024510  -13.652800   -4.383400
  C     -7.453660  -13.544780   -5.818510
  C     -7.923090  -12.141770   -6.225960
  S     -5.784780  -12.606700   -3.736550
  C     -3.724780  -13.758580   -1.020480
  C     -2.587640  -12.965260   -1.040900
  C     -2.946750  -11.564010   -1.115910
  C     -2.166290  -10.399600   -1.050790
  S     -1.106070  -13.855650   -0.817810
  C     -2.032330  -15.340890   -0.649010
  C     -3.419350  -15.110110   -0.796840
  S     -4.338810  -16.548500   -0.530220
  C     -2.865410  -17.449150   -0.147550
  C     -1.718710  -16.669860   -0.315170
  C     -2.890880  -18.801150    0.304030
  C     -3.883650  -19.501350    0.937670
  C     -5.121580  -19.108410    1.607440
  C     -5.351500  -17.927290    2.289880
  C     -6.602730  -17.610980    2.904800
  N     -7.615840  -17.311970    3.390160
  C     -4.321110  -16.965360    2.529560
  N     -3.494640  -16.193250    2.795450
  C     -5.980610  -20.315700    1.672420
  C     -7.313010  -20.493000    2.062460
  C     -7.830950  -21.793370    2.090130
  C     -7.044620  -22.905140    1.756050
  C     -5.713350  -22.734320    1.364090
  C     -5.204540  -21.441820    1.317140
  C     -3.845290  -21.001350    0.903010
  O     -2.915000  -21.698170    0.555770
  H     -3.430170    2.562510    2.395310
  H     -1.081540    3.218460    3.058140
  H      0.852130    2.008500    2.103950
  H      0.541140    0.157740    0.486090
  H     -5.557170   -1.403610   -0.223640
  H     -6.585800   -3.584100   -0.916510
  H     -2.214650   -5.872780   -3.097710
  H     -0.099490   -5.811260   -4.658970
  H      2.305600   -6.822330   -4.808000
  H      1.990780   -8.552930   -4.701200
  H      3.484500   -6.901090   -2.561140
  H      4.213620   -8.048700   -3.720560
  H      3.132360   -8.637130   -2.439230
  H     -2.641340   -9.293440    1.625430
  H     -1.637200   -8.319130    3.868280
  H     -0.147440   -6.416990    4.707060
  H     -0.561540   -4.925900    3.863390
  H      1.991340   -6.580000    3.332270
  H      1.908620   -5.054030    4.254930
  H      1.566520   -5.062720    2.511370
  H     -6.115190  -10.229690   -1.281640
  H     -4.094130  -13.895610    1.585360
  H     -5.647120  -13.545660    3.659300
  H     -7.946410  -12.607190    4.281720
  H     -9.144700  -12.859910    3.013320
  H     -7.715130  -10.178310    3.574110
  H     -9.399350  -10.573580    4.002540
  H     -8.922130  -10.439590    2.294890
  H     -7.132980  -14.859790   -1.233920
  H     -8.296910  -15.216280   -3.587590
  H     -8.263150  -14.275510   -5.976820
  H     -6.627110  -13.860940   -6.480550
  H     -8.732170  -11.790320   -5.567630
  H     -8.296360  -12.137060   -7.262180
  H     -7.100170  -11.412540   -6.160570
  H     -1.080220  -10.455320   -0.961060
  H     -0.718060  -17.057440   -0.121970
  H     -2.004930  -19.403030    0.061390
  H     -7.945570  -19.651640    2.339290
  H     -8.869680  -21.943890    2.392320
  H     -7.479860  -23.906220    1.803760
  H     -5.074980  -23.577690    1.094820

 Total Charge           Charge          ....    0
 Multiplicity           Mult            ....    1
 Number of Electrons    NEL             ....  634
 Basis Dimension        Dim             .... 1418

ORBITAL ENERGIES
----------------

  NO   OCC          E(Eh)            E(eV)
   0   2.0000     -91.978556     -2502.8638
   1   2.0000     -91.977235     -2502.8278
   2   2.0000     -91.975748     -2502.7873
   3   2.0000     -91.971946     -2502.6839
   4   2.0000     -91.947471     -2502.0179
   5   2.0000     -91.944043     -2501.9246
   6   2.0000     -91.942866     -2501.8926
   7   2.0000     -91.942544     -2501.8838
   8   2.0000     -20.560575      -559.4817
   9   2.0000     -20.554354      -559.3124
  10   2.0000     -15.591840      -424.2755
  11   2.0000     -15.588421      -424.1825
  12   2.0000     -15.585751      -424.1098
  13   2.0000     -15.581728      -424.0004
  14   2.0000     -11.359730      -309.1140
  15   2.0000     -11.354344      -308.9674
  16   2.0000     -11.342648      -308.6491
  17   2.0000     -11.336787      -308.4897
  18   2.0000     -11.324851      -308.1649
  19   2.0000     -11.319103      -308.0084
  20   2.0000     -11.318670      -307.9967
  21   2.0000     -11.313961      -307.8685
  22   2.0000     -11.305495      -307.6382
  23   2.0000     -11.304402      -307.6084
  24   2.0000     -11.303722      -307.5899
  25   2.0000     -11.302044      -307.5443
  26   2.0000     -11.301837      -307.5386
  27   2.0000     -11.301626      -307.5329
  28   2.0000     -11.300640      -307.5060
  29   2.0000     -11.300420      -307.5001
  30   2.0000     -11.299633      -307.4786
  31   2.0000     -11.298006      -307.4344
  32   2.0000     -11.297889      -307.4312
  33   2.0000     -11.296917      -307.4047
  34   2.0000     -11.295515      -307.3666
  35   2.0000     -11.293678      -307.3166
  36   2.0000     -11.293557      -307.3133
  37   2.0000     -11.293227      -307.3043
  38   2.0000     -11.291667      -307.2619
  39   2.0000     -11.287892      -307.1592
  40   2.0000     -11.280247      -306.9511
  41   2.0000     -11.279709      -306.9365
  42   2.0000     -11.278957      -306.9160
  43   2.0000     -11.278139      -306.8938
  44   2.0000     -11.277954      -306.8887
  45   2.0000     -11.276725      -306.8553
  46   2.0000     -11.276654      -306.8533
  47   2.0000     -11.276241      -306.8421
  48   2.0000     -11.275527      -306.8227
  49   2.0000     -11.275223      -306.8144
  50   2.0000     -11.274870      -306.8048
  51   2.0000     -11.274590      -306.7972
  52   2.0000     -11.274070      -306.7830
  53   2.0000     -11.273318      -306.7626
  54   2.0000     -11.273106      -306.7568
  55   2.0000     -11.272595      -306.7429
  56   2.0000     -11.272468      -306.7394
  57   2.0000     -11.272351      -306.7363
  58   2.0000     -11.272007      -306.7269
  59   2.0000     -11.271619      -306.7164
  60   2.0000     -11.271405      -306.7105
  61   2.0000     -11.270393      -306.6830
  62   2.0000     -11.269283      -306.6528
  63   2.0000     -11.268641      -306.6353
  64   2.0000     -11.268615      -306.6346
  65   2.0000     -11.267403      -306.6016
  66   2.0000     -11.267371      -306.6008
  67   2.0000     -11.265965      -306.5625
  68   2.0000     -11.249832      -306.1235
  69   2.0000     -11.247293      -306.0544
  70   2.0000     -11.246929      -306.0445
  71   2.0000     -11.245404      -306.0030
  72   2.0000     -11.243896      -305.9620
  73   2.0000     -11.243588      -305.9536
  74   2.0000     -11.243528      -305.9519
  75   2.0000     -11.241474      -305.8961
  76   2.0000     -11.239953      -305.8547
  77   2.0000     -11.238090      -305.8040
  78   2.0000     -11.234249      -305.6995
  79   2.0000     -11.233837      -305.6882
  80   2.0000     -11.233836      -305.6882
  81   2.0000     -11.231270      -305.6184
  82   2.0000     -11.230376      -305.5941
  83   2.0000     -11.230239      -305.5903
  84   2.0000      -9.012891      -245.2532
  85   2.0000      -9.011647      -245.2194
  86   2.0000      -9.010367      -245.1845
  87   2.0000      -9.006561      -245.0810
  88   2.0000      -8.983090      -244.4423
  89   2.0000      -8.979733      -244.3510
  90   2.0000      -8.978390      -244.3144
  91   2.0000      -8.978344      -244.3131
  92   2.0000      -6.700400      -182.3272
  93   2.0000      -6.699544      -182.3039
  94   2.0000      -6.699171      -182.2937
  95   2.0000      -6.698311      -182.2703
  96   2.0000      -6.697867      -182.2582
  97   2.0000      -6.697422      -182.2461
  98   2.0000      -6.696847      -182.2305
  99   2.0000      -6.696178      -182.2123
 100   2.0000      -6.694850      -182.1761
 101   2.0000      -6.693945      -182.1515
 102   2.0000      -6.692925      -182.1238
 103   2.0000      -6.690928      -182.0694
 104   2.0000      -6.670613      -181.5166
 105   2.0000      -6.669547      -181.4876
 106   2.0000      -6.667781      -181.4395
 107   2.0000      -6.667243      -181.4249
 108   2.0000      -6.666172      -181.3958
 109   2.0000      -6.665963      -181.3901
 110   2.0000      -6.665929      -181.3892
 111   2.0000      -6.664921      -181.3617
 112   2.0000      -6.664869      -181.3603
 113   2.0000      -6.664419      -181.3481
 114   2.0000      -6.663127      -181.3129
 115   2.0000      -6.663074      -181.3114
 116   2.0000      -1.389622       -37.8135
 117   2.0000      -1.383535       -37.6479
 118   2.0000      -1.243174       -33.8285
 119   2.0000      -1.238504       -33.7014
 120   2.0000      -1.235341       -33.6153
 121   2.0000      -1.230955       -33.4960
 122   2.0000      -1.215643       -33.0793
 123   2.0000      -1.211793       -32.9746
 124   2.0000      -1.209196       -32.9039
 125   2.0000      -1.205551       -32.8047
 126   2.0000      -1.202895       -32.7324
 127   2.0000      -1.192686       -32.4546
 128   2.0000      -1.172241       -31.8983
 129   2.0000      -1.166314       -31.7370
 130   2.0000      -1.162676       -31.6380
 131   2.0000      -1.162563       -31.6349
 132   2.0000      -1.153081       -31.3769
 133   2.0000      -1.146306       -31.1926
 134   2.0000      -1.132768       -30.8242
 135   2.0000      -1.112946       -30.2848
 136   2.0000      -1.092488       -29.7281
 137   2.0000      -1.090241       -29.6670
 138   2.0000      -1.085389       -29.5349
 139   2.0000      -1.074475       -29.2379
 140   2.0000      -1.064455       -28.9653
 141   2.0000      -1.052920       -28.6514
 142   2.0000      -1.050725       -28.5917
 143   2.0000      -1.049759       -28.5654
 144   2.0000      -1.046345       -28.4725
 145   2.0000      -1.045220       -28.4419
 146   2.0000      -1.042163       -28.3587
 147   2.0000      -1.039900       -28.2971
 148   2.0000      -1.037363       -28.2281
 149   2.0000      -1.022969       -27.8364
 150   2.0000      -1.000681       -27.2299
 151   2.0000      -0.999194       -27.1895
 152   2.0000      -0.980082       -26.6694
 153   2.0000      -0.977204       -26.5911
 154   2.0000      -0.976633       -26.5755
 155   2.0000      -0.974522       -26.5181
 156   2.0000      -0.971426       -26.4338
 157   2.0000      -0.962454       -26.1897
 158   2.0000      -0.960254       -26.1298
 159   2.0000      -0.956752       -26.0345
 160   2.0000      -0.954283       -25.9673
 161   2.0000      -0.944437       -25.6994
 162   2.0000      -0.924930       -25.1686
 163   2.0000      -0.918584       -24.9959
 164   2.0000      -0.917363       -24.9627
 165   2.0000      -0.906997       -24.6807
 166   2.0000      -0.903352       -24.5815
 167   2.0000      -0.878358       -23.9013
 168   2.0000      -0.853982       -23.2380
 169   2.0000      -0.852298       -23.1922
 170   2.0000      -0.850007       -23.1299
 171   2.0000      -0.848125       -23.0786
 172   2.0000      -0.840957       -22.8836
 173   2.0000      -0.836979       -22.7753
 174   2.0000      -0.832032       -22.6407
 175   2.0000      -0.824996       -22.4493
 176   2.0000      -0.808890       -22.0110
 177   2.0000      -0.805131       -21.9087
 178   2.0000      -0.801270       -21.8037
 179   2.0000      -0.784005       -21.3339
 180   2.0000      -0.779790       -21.2192
 181   2.0000      -0.774223       -21.0677
 182   2.0000      -0.773073       -21.0364
 183   2.0000      -0.763221       -20.7683
 184   2.0000      -0.754913       -20.5422
 185   2.0000      -0.747390       -20.3375
 186   2.0000      -0.746700       -20.3187
 187   2.0000      -0.742186       -20.1959
 188   2.0000      -0.741824       -20.1861
 189   2.0000      -0.729916       -19.8620
 190   2.0000      -0.729122       -19.8404
 191   2.0000      -0.725417       -19.7396
 192   2.0000      -0.722513       -19.6606
 193   2.0000      -0.721907       -19.6441
 194   2.0000      -0.716588       -19.4993
 195   2.0000      -0.714705       -19.4481
 196   2.0000      -0.712154       -19.3787
 197   2.0000      -0.698372       -19.0037
 198   2.0000      -0.690437       -18.7877
 199   2.0000      -0.688202       -18.7269
 200   2.0000      -0.683569       -18.6009
 201   2.0000      -0.682020       -18.5587
 202   2.0000      -0.679205       -18.4821
 203   2.0000      -0.674184       -18.3455
 204   2.0000      -0.670702       -18.2507
 205   2.0000      -0.666196       -18.1281
 206   2.0000      -0.662704       -18.0331
 207   2.0000      -0.656136       -17.8544
 208   2.0000      -0.648116       -17.6361
 209   2.0000      -0.640970       -17.4417
 210   2.0000      -0.639384       -17.3985
 211   2.0000      -0.635238       -17.2857
 212   2.0000      -0.633774       -17.2459
 213   2.0000      -0.630913       -17.1680
 214   2.0000      -0.629663       -17.1340
 215   2.0000      -0.627919       -17.0865
 216   2.0000      -0.622698       -16.9445
 217   2.0000      -0.620148       -16.8751
 218   2.0000      -0.619200       -16.8493
 219   2.0000      -0.614223       -16.7139
 220   2.0000      -0.611382       -16.6366
 221   2.0000      -0.608190       -16.5497
 222   2.0000      -0.605667       -16.4810
 223   2.0000      -0.604274       -16.4431
 224   2.0000      -0.603031       -16.4093
 225   2.0000      -0.601516       -16.3681
 226   2.0000      -0.601162       -16.3585
 227   2.0000      -0.598380       -16.2827
 228   2.0000      -0.596872       -16.2417
 229   2.0000      -0.592596       -16.1254
 230   2.0000      -0.584721       -15.9111
 231   2.0000      -0.584506       -15.9052
 232   2.0000      -0.581308       -15.8182
 233   2.0000      -0.580768       -15.8035
 234   2.0000      -0.576876       -15.6976
 235   2.0000      -0.576682       -15.6923
 236   2.0000      -0.574404       -15.6303
 237   2.0000      -0.568929       -15.4813
 238   2.0000      -0.568398       -15.4669
 239   2.0000      -0.566481       -15.4147
 240   2.0000      -0.564918       -15.3722
 241   2.0000      -0.562090       -15.2953
 242   2.0000      -0.561652       -15.2833
 243   2.0000      -0.559050       -15.2125
 244   2.0000      -0.557178       -15.1616
 245   2.0000      -0.555462       -15.1149
 246   2.0000      -0.551758       -15.0141
 247   2.0000      -0.547582       -14.9005
 248   2.0000      -0.541519       -14.7355
 249   2.0000      -0.541109       -14.7243
 250   2.0000      -0.540736       -14.7142
 251   2.0000      -0.538265       -14.6469
 252   2.0000      -0.535938       -14.5836
 253   2.0000      -0.534918       -14.5559
 254   2.0000      -0.532982       -14.5032
 255   2.0000      -0.532504       -14.4902
 256   2.0000      -0.530504       -14.4358
 257   2.0000      -0.529729       -14.4147
 258   2.0000      -0.528046       -14.3689
 259   2.0000      -0.525516       -14.3000
 260   2.0000      -0.525036       -14.2870
 261   2.0000      -0.520897       -14.1743
 262   2.0000      -0.519082       -14.1249
 263   2.0000      -0.518661       -14.1135
 264   2.0000      -0.514487       -13.9999
 265   2.0000      -0.511751       -13.9255
 266   2.0000      -0.508343       -13.8327
 267   2.0000      -0.507230       -13.8024
 268   2.0000      -0.502525       -13.6744
 269   2.0000      -0.500658       -13.6236
 270   2.0000      -0.499642       -13.5959
 271   2.0000      -0.499169       -13.5831
 272   2.0000      -0.496879       -13.5208
 273   2.0000      -0.495737       -13.4897
 274   2.0000      -0.493580       -13.4310
 275   2.0000      -0.491042       -13.3619
 276   2.0000      -0.489957       -13.3324
 277   2.0000      -0.487368       -13.2620
 278   2.0000      -0.486175       -13.2295
 279   2.0000      -0.484947       -13.1961
 280   2.0000      -0.483821       -13.1654
 281   2.0000      -0.482020       -13.1164
 282   2.0000      -0.479266       -13.0415
 283   2.0000      -0.478326       -13.0159
 284   2.0000      -0.476745       -12.9729
 285   2.0000      -0.470926       -12.8145
 286   2.0000      -0.466945       -12.7062
 287   2.0000      -0.464629       -12.6432
 288   2.0000      -0.460480       -12.5303
 289   2.0000      -0.460426       -12.5288
 290   2.0000      -0.457228       -12.4418
 291   2.0000      -0.456544       -12.4232
 292   2.0000      -0.449869       -12.2416
 293   2.0000      -0.440797       -11.9947
 294   2.0000      -0.434840       -11.8326
 295   2.0000      -0.417959       -11.3732
 296   2.0000      -0.413802       -11.2601
 297   2.0000      -0.408365       -11.1122
 298   2.0000      -0.383960       -10.4481
 299   2.0000      -0.373362       -10.1597
 300   2.0000      -0.368439       -10.0257
 301   2.0000      -0.366072        -9.9613
 302   2.0000      -0.357096        -9.7171
 303   2.0000      -0.352704        -9.5976
 304   2.0000      -0.352399        -9.5893
 305   2.0000      -0.348988        -9.4964
 306   2.0000      -0.346901        -9.4397
 307   2.0000      -0.343294        -9.3415
 308   2.0000      -0.339555        -9.2398
 309   2.0000      -0.337439        -9.1822
 310   2.0000      -0.333804        -9.0833
 311   2.0000      -0.320195        -8.7130
 312   2.0000      -0.315982        -8.5983
 313   2.0000      -0.309223        -8.4144
 314   2.0000      -0.307754        -8.3744
 315   2.0000      -0.298127        -8.1124
 316   2.0000      -0.260421        -7.0864
 317   0.0000      -0.023762        -0.6466
 318   0.0000      -0.010656        -0.2900
 319   0.0000       0.022138         0.6024
 320   0.0000       0.030092         0.8189
 321   0.0000       0.053526         1.4565

MULLIKEN ATOMIC CHARGES
-----------------------
   0 C :    0.466425
   1 O :   -0.365522
   2 C :   -0.180006
   3 C :    0.015460
   4 C :   -0.021003
   5 C :   -0.017051
   6 C :   -0.019740
   7 C :   -0.053291
   8 C :    0.237215
   9 C :   -0.337359
  10 C :    0.051734
  11 N :   -0.077943
  12 C :    0.051632
  13 N :   -0.093761
  14 C :   -0.321999
  15 C :    0.143198
  16 C :   -0.173482
  17 C :    0.032135
  18 C :   -0.106542
  19 C :   -0.006085
  20 S :    0.218084
  21 C :   -0.096494
  22 C :   -0.096690
  23 C :   -0.111591
  24 C :   -0.001330
  25 C :   -0.025206
  26 C :   -0.203890
  27 C :    0.020904
  28 C :   -0.068914
  29 S :    0.093086
  30 C :   -0.112100
  31 C :   -0.003659
  32 C :   -0.023403
  33 C :   -0.218673
  34 C :    0.026192
  35 C :   -0.064906
  36 S :    0.116131
  37 C :   -0.027038
  38 C :   -0.087282
  39 C :    0.003028
  40 S :    0.207703
  41 C :    0.049857
  42 C :   -0.013706
  43 C :   -0.092975
  44 C :   -0.143304
  45 C :   -0.005674
  46 C :   -0.021328
  47 C :   -0.215195
  48 C :    0.026946
  49 C :   -0.058902
  50 S :    0.102267
  51 C :   -0.127490
  52 C :   -0.004009
  53 C :   -0.027713
  54 C :   -0.221013
  55 C :    0.028387
  56 C :   -0.063854
  57 S :    0.117561
  58 C :   -0.079593
  59 C :   -0.001075
  60 C :   -0.075240
  61 C :    0.027992
  62 S :    0.209196
  63 C :   -0.113037
  64 C :   -0.005162
  65 S :    0.197505
  66 C :   -0.221902
  67 C :    0.070258
  68 C :    0.168720
  69 C :   -0.325513
  70 C :    0.230056
  71 C :   -0.331546
  72 C :    0.052017
  73 N :   -0.088775
  74 C :    0.073654
  75 N :   -0.093788
  76 C :   -0.054727
  77 C :   -0.018739
  78 C :   -0.016060
  79 C :   -0.019776
  80 C :    0.017584
  81 C :   -0.179870
  82 C :    0.466012
  83 O :   -0.358885
  84 H :    0.067067
  85 H :    0.062375
  86 H :    0.062779
  87 H :    0.082963
  88 H :    0.089928
  89 H :    0.069338
  90 H :    0.075804
  91 H :    0.048809
  92 H :    0.047762
  93 H :    0.060563
  94 H :    0.050478
  95 H :    0.041761
  96 H :    0.043480
  97 H :    0.064834
  98 H :    0.040726
  99 H :    0.041414
 100 H :    0.057510
 101 H :    0.044720
 102 H :    0.040345
 103 H :    0.048306
 104 H :    0.045538
 105 H :    0.084584
 106 H :    0.047941
 107 H :    0.046014
 108 H :    0.059832
 109 H :    0.041579
 110 H :    0.040889
 111 H :    0.039342
 112 H :    0.060819
 113 H :    0.040669
 114 H :    0.041524
 115 H :    0.058819
 116 H :    0.043571
 117 H :    0.042356
 118 H :    0.046164
 119 H :    0.048211
 120 H :    0.069111
 121 H :    0.095912
 122 H :    0.082283
 123 H :    0.064000
 124 H :    0.064140
 125 H :    0.068611
Sum of atomic charges:   -0.0000000

LOEWDIN ATOMIC CHARGES
----------------------
   0 C :    0.171307
   1 O :   -0.241195
   2 C :   -0.057889
   3 C :    0.018889
   4 C :   -0.003054
   5 C :    0.000777
   6 C :    0.003997
   7 C :   -0.021219
   8 C :    0.112917
   9 C :   -0.174428
  10 C :    0.002376
  11 N :   -0.100778
  12 C :    0.020974
  13 N :   -0.103755
  14 C :   -0.157517
  15 C :    0.107490
  16 C :   -0.208513
  17 C :    0.015915
  18 C :   -0.213431
  19 C :   -0.148264
  20 S :    0.448943
  21 C :   -0.063593
  22 C :   -0.030269
  23 C :   -0.188025
  24 C :   -0.044067
  25 C :   -0.074104
  26 C :   -0.154642
  27 C :   -0.027611
  28 C :   -0.039252
  29 S :    0.384271
  30 C :   -0.180101
  31 C :   -0.051828
  32 C :   -0.077238
  33 C :   -0.159728
  34 C :   -0.027895
  35 C :   -0.037155
  36 S :    0.389892
  37 C :    0.014703
  38 C :   -0.033019
  39 C :   -0.125329
  40 S :    0.400947
  41 C :   -0.003443
  42 C :   -0.000915
  43 C :   -0.029182
  44 C :   -0.176800
  45 C :   -0.044879
  46 C :   -0.072875
  47 C :   -0.155375
  48 C :   -0.027168
  49 C :   -0.036608
  50 S :    0.379115
  51 C :   -0.186852
  52 C :   -0.055722
  53 C :   -0.076806
  54 C :   -0.160004
  55 C :   -0.027942
  56 C :   -0.036733
  57 S :    0.393227
  58 C :   -0.061510
  59 C :   -0.131190
  60 C :   -0.028941
  61 C :   -0.006863
  62 S :    0.403942
  63 C :   -0.207767
  64 C :   -0.149323
  65 S :    0.432848
  66 C :   -0.208613
  67 C :    0.017329
  68 C :    0.107880
  69 C :   -0.150139
  70 C :    0.110723
  71 C :   -0.168154
  72 C :    0.019636
  73 N :   -0.101350
  74 C :    0.016385
  75 N :   -0.105396
  76 C :   -0.021527
  77 C :    0.003652
  78 C :    0.002809
  79 C :   -0.001650
  80 C :    0.020542
  81 C :   -0.058719
  82 C :    0.169930
  83 O :   -0.235577
  84 H :    0.044509
  85 H :    0.036151
  86 H :    0.037460
  87 H :    0.042856
  88 H :    0.058729
  89 H :    0.043892
  90 H :    0.035175
  91 H :    0.032188
  92 H :    0.029215
  93 H :    0.028971
  94 H :    0.023395
  95 H :    0.020833
  96 H :    0.014620
  97 H :    0.033814
  98 H :    0.027915
  99 H :    0.027007
 100 H :    0.027364
 101 H :    0.021496
 102 H :    0.019647
 103 H :    0.017885
 104 H :    0.031449
 105 H :    0.034584
 106 H :    0.031670
 107 H :    0.029562
 108 H :    0.028575
 109 H :    0.020340
 110 H :    0.019521
 111 H :    0.015016
 112 H :    0.029077
 113 H :    0.027910
 114 H :    0.026985
 115 H :    0.027944
 116 H :    0.020940
 117 H :    0.020268
 118 H :    0.017228
 119 H :    0.029089
 120 H :    0.044495
 121 H :    0.059432
 122 H :    0.042962
 123 H :    0.038085
 124 H :    0.036980
 125 H :    0.045269

  Mayer bond orders larger than 0.100000
B(  0-C ,  1-O ) :   2.0733 B(  0-C ,  2-C ) :   0.9505 B(  0-C , 14-C ) :   0.9984
B(  2-C ,  3-C ) :   1.4387 B(  2-C ,  7-C ) :   1.3535 B(  3-C ,  4-C ) :   1.3981
B(  3-C , 84-H ) :   1.0012 B(  4-C ,  5-C ) :   1.4076 B(  4-C , 85-H ) :   0.9967
B(  5-C ,  6-C ) :   1.4210 B(  5-C , 86-H ) :   0.9936 B(  6-C ,  7-C ) :   1.4232
B(  6-C , 87-H ) :   0.9871 B(  7-C ,  8-C ) :   1.0368 B(  8-C ,  9-C ) :   1.6961
B(  8-C , 14-C ) :   1.0657 B(  9-C , 10-C ) :   1.0681 B(  9-C , 12-C ) :   1.0433
B( 10-C , 11-N ) :   3.0008 B( 12-C , 13-N ) :   2.9877 B( 14-C , 15-C ) :   1.6996
B( 15-C , 16-C ) :   1.2096 B( 15-C , 88-H ) :   0.9546 B( 16-C , 17-C ) :   1.5069
B( 16-C , 20-S ) :   1.0397 B( 17-C , 18-C ) :   1.3621 B( 17-C , 89-H ) :   0.9965
B( 18-C , 19-C ) :   1.4278 B( 18-C , 40-S ) :   1.0294 B( 19-C , 20-S ) :   1.1056
B( 19-C , 21-C ) :   1.3937 B( 21-C , 22-C ) :   0.9753 B( 21-C , 39-C ) :   1.6579
B( 22-C , 23-C ) :   0.9898 B( 22-C , 30-C ) :   0.9782 B( 22-C , 37-C ) :   0.9867
B( 23-C , 24-C ) :   1.7090 B( 23-C , 29-S ) :   1.1066 B( 24-C , 25-C ) :   1.2123
B( 24-C , 90-H ) :   0.9878 B( 25-C , 26-C ) :   1.7031 B( 25-C , 91-H ) :   0.9997
B( 26-C , 27-C ) :   0.9781 B( 26-C , 29-S ) :   1.1157 B( 27-C , 28-C ) :   1.0404
B( 27-C , 92-H ) :   0.9748 B( 27-C , 93-H ) :   0.9658 B( 28-C , 94-H ) :   0.9846
B( 28-C , 95-H ) :   0.9875 B( 28-C , 96-H ) :   0.9821 B( 30-C , 31-C ) :   1.7036
B( 30-C , 36-S ) :   1.1119 B( 31-C , 32-C ) :   1.2089 B( 31-C , 97-H ) :   0.9901
B( 32-C , 33-C ) :   1.6956 B( 32-C , 98-H ) :   0.9990 B( 33-C , 34-C ) :   0.9799
B( 33-C , 36-S ) :   1.1190 B( 34-C , 35-C ) :   1.0377 B( 34-C , 99-H ) :   0.9755
B( 34-C ,100-H ) :   0.9666 B( 35-C ,101-H ) :   0.9841 B( 35-C ,102-H ) :   0.9873
B( 35-C ,103-H ) :   0.9834 B( 37-C , 38-C ) :   1.4041 B( 37-C , 61-C ) :   1.4863
B( 38-C , 39-C ) :   1.1340 B( 38-C , 41-C ) :   1.3625 B( 39-C , 40-S ) :   1.0632
B( 41-C , 42-C ) :   1.4922 B( 41-C ,104-H ) :   0.9897 B( 42-C , 43-C ) :   0.9786
B( 42-C , 60-C ) :   1.3881 B( 43-C , 44-C ) :   0.9853 B( 43-C , 51-C ) :   0.9933
B( 43-C , 58-C ) :   0.9825 B( 44-C , 45-C ) :   1.6996 B( 44-C , 50-S ) :   1.1012
B( 45-C , 46-C ) :   1.2070 B( 45-C ,105-H ) :   0.9916 B( 46-C , 47-C ) :   1.6966
B( 46-C ,106-H ) :   1.0003 B( 47-C , 48-C ) :   0.9784 B( 47-C , 50-S ) :   1.1091
B( 48-C , 49-C ) :   1.0358 B( 48-C ,107-H ) :   0.9752 B( 48-C ,108-H ) :   0.9678
B( 49-C ,109-H ) :   0.9835 B( 49-C ,110-H ) :   0.9875 B( 49-C ,111-H ) :   0.9843
B( 51-C , 52-C ) :   1.6922 B( 51-C , 57-S ) :   1.1151 B( 52-C , 53-C ) :   1.2125
B( 52-C ,112-H ) :   0.9936 B( 53-C , 54-C ) :   1.6943 B( 53-C ,113-H ) :   0.9995
B( 54-C , 55-C ) :   0.9790 B( 54-C , 57-S ) :   1.1201 B( 55-C , 56-C ) :   1.0362
B( 55-C ,114-H ) :   0.9757 B( 55-C ,115-H ) :   0.9670 B( 56-C ,116-H ) :   0.9842
B( 56-C ,117-H ) :   0.9875 B( 56-C ,118-H ) :   0.9835 B( 58-C , 59-C ) :   1.6510
B( 58-C , 64-C ) :   1.3959 B( 59-C , 60-C ) :   1.1307 B( 59-C , 62-S ) :   1.0659
B( 60-C , 61-C ) :   1.3699 B( 61-C ,119-H ) :   0.9917 B( 62-S , 63-C ) :   1.0345
B( 63-C , 64-C ) :   1.4608 B( 63-C , 67-C ) :   1.3380 B( 64-C , 65-S ) :   1.0689
B( 65-S , 66-C ) :   1.0608 B( 66-C , 67-C ) :   1.5316 B( 66-C , 68-C ) :   1.1579
B( 67-C ,120-H ) :   0.9934 B( 68-C , 69-C ) :   1.7309 B( 68-C ,121-H ) :   0.9540
B( 69-C , 70-C ) :   1.0555 B( 69-C , 82-C ) :   0.9877 B( 70-C , 71-C ) :   1.7073
B( 70-C , 76-C ) :   1.0393 B( 71-C , 72-C ) :   1.0455 B( 71-C , 74-C ) :   1.0707
B( 72-C , 73-N ) :   2.9876 B( 74-C , 75-N ) :   2.9740 B( 76-C , 77-C ) :   1.4198
B( 76-C , 81-C ) :   1.3532 B( 77-C , 78-C ) :   1.4256 B( 77-C ,122-H ) :   0.9873
B( 78-C , 79-C ) :   1.4038 B( 78-C ,123-H ) :   0.9934 B( 79-C , 80-C ) :   1.4010
B( 79-C ,124-H ) :   0.9965 B( 80-C , 81-C ) :   1.4350 B( 80-C ,125-H ) :   1.0012
B( 81-C , 82-C ) :   0.9524 B( 82-C , 83-O ) :   2.0877

-----------------------------------------------------------------------------
         ABSORPTION SPECTRUM VIA TRANSITION ELECTRIC DIPOLE MOMENTS
-----------------------------------------------------------------------------
State   Energy    Wavelength  fosc         T2        TX        TY        TZ
        (cm-1)      (nm)                 (au**2)    (au)      (au)      (au)
-----------------------------------------------------------------------------
   1   22384.7    446.7   2.106938661  30.98681   1.25881   5.37668  -0.70254
   2   25864.6    386.6   0.122214859   1.55559  -0.14384  -0.77811  -0.96408
   3   33632.9    297.3   0.565294480   5.53333  -0.86802   1.89594   1.08870

FINAL SINGLE POINT ENERGY     -6219.396828657876

DIPOLE MOMENT
-------------
                                X             Y             Z
Electronic contribution:     -2.57787      -7.07876      -6.13954
Nuclear contribution   :      1.85020       5.77626       6.57886
                        -----------------------------------------
Total Dipole Moment    :     -0.72767      -1.30250       0.43932
                        -----------------------------------------
Magnitude (a.u.)       :      1.55532
Magnitude (Debye)      :      3.95330

Rotational constants in cm-1:     0.001355     0.000279     0.000274
Rotational constants in MHz :    40.636295     8.367153     8.212076

                             ****ORCA TERMINATED NORMALLY****
TOTAL RUN TIME: 0 days 22 hours 33 minutes 42 seconds 848 msec
