                         Program Version 4.2.0 -  RELEASE  -
|  1> # ORCA input file
|  2> # ITIC-Th.out
|  3> ! Engrad Keepdens
|  4> %maxcore 1000
|  5> %tddft
|  6>   nroots 3
|  7>   # nroots is the number of states to be computed
|  8>   Iroot 1
|  9>   end
| 10> * xyz 0 1
| 11>    C       -3.67565         0.65567        -0.64580
| 12>    O       -4.66294         1.30151        -0.37999
| 13>    C       -2.27540         1.12117        -0.73002
| 14>    C       -1.75666         2.37248        -0.45884
| 15>    C       -0.38724         2.55774        -0.58877
| 16>    C        0.43452         1.50811        -0.97508
| 17>    C       -0.08172         0.25045        -1.25767
| 18>    C       -1.44813         0.05789        -1.13851
| 19>    C       -2.28420        -1.10939        -1.40754
| 20>    C       -1.95011        -2.14610        -2.23760
| 21>    C       -2.88442        -3.08323        -2.73013
| 22>    N       -3.62370        -3.82235        -3.20416
| 23>    C       -0.66036        -2.35882        -2.76211
| 24>    N        0.37278        -2.60588        -3.19810
| 25>    C       -3.60788        -0.81026        -0.89760
| 26>    C       -4.64862        -1.61333        -0.54922
| 27>    C       -4.63227        -3.01341        -0.33983
| 28>    C       -5.71236        -3.87271        -0.41094
| 29>    C       -5.33929        -5.19912        -0.21374
| 30>    C       -3.96916        -5.36825         0.05782
| 31>    S       -3.14986        -3.85852         0.09142
| 32>    C       -3.61248        -6.70482         0.18922
| 33>    C       -2.34465        -7.51074         0.37016
| 34>    C       -1.44232        -7.23013        -0.80333
| 35>    C       -0.84706        -6.05544        -1.14358
| 36>    C       -0.14092        -6.12352        -2.36478
| 37>    C       -0.21614        -7.33986        -2.96383
| 38>    C        0.41991        -7.79157        -4.23274
| 39>    C        1.59965        -8.72709        -3.96095
| 40>    S       -1.16254        -8.44155        -2.01306
| 41>    C       -1.71999        -7.23212         1.70870
| 42>    C       -1.99691        -7.87168         2.87739
| 43>    C       -1.30281        -7.33307         3.98342
| 44>    C       -0.51210        -6.27693         3.66077
| 45>    C        0.38642        -5.48046         4.54302
| 46>    C        1.85426        -5.85125         4.32174
| 47>    S       -0.60359        -5.93134         1.96314
| 48>    C       -2.89965        -8.92341         0.31513
| 49>    C       -4.29645        -8.91389         0.09976
| 50>    C       -4.70093        -7.54416         0.02298
| 51>    S       -6.18689        -6.71587        -0.28429
| 52>    C       -5.02630       -10.09278        -0.02377
| 53>    C       -4.32447       -11.27122         0.06228
| 54>    C       -4.86072       -12.68562        -0.08787
| 55>    C       -5.87113       -13.03445         0.96801
| 56>    C       -5.73856       -13.86517         2.03502
| 57>    C       -6.92503       -13.97880         2.79540
| 58>    C       -7.95399       -13.23785         2.31009
| 59>    C       -9.32765       -13.07866         2.86374
| 60>    C       -9.46668       -11.76055         3.62850
| 61>    S       -7.47070       -12.36597         0.88894
| 62>    C       -5.43326       -12.93116        -1.45624
| 63>    C       -6.16921       -14.00316        -1.85261
| 64>    C       -6.50450       -13.95759        -3.22388
| 65>    C       -6.01250       -12.86507        -3.86476
| 66>    C       -6.19624       -12.46030        -5.28680
| 67>    C       -7.16000       -11.27800        -5.40555
| 68>    S       -5.11686       -11.85364        -2.77375
| 69>    C       -3.59773       -13.48390         0.08193
| 70>    C       -2.51362       -12.65219         0.30058
| 71>    C       -2.92725       -11.28233         0.28475
| 72>    C       -2.20078       -10.10323         0.42198
| 73>    S       -1.02339       -13.49843         0.53559
| 74>    C       -1.86556       -15.01104         0.34934
| 75>    C       -3.23633       -14.82415         0.09538
| 76>    S       -4.06099       -16.32131        -0.06986
| 77>    C       -2.57276       -17.20117         0.27376
| 78>    C       -1.49316       -16.34926         0.42622
| 79>    C       -2.53198       -18.61408         0.31689
| 80>    C       -3.56003       -19.48591         0.50026
| 81>    C       -4.92059       -19.30040         0.96139
| 82>    C       -5.34059       -18.39905         1.90325
| 83>    C       -6.66562       -18.30130         2.37225
| 84>    N       -7.73161       -18.15634         2.77281
| 85>    C       -4.47098       -17.51329         2.57449
| 86>    N       -3.79440       -16.81503         3.18507
| 87>    C       -5.69516       -20.44146         0.47864
| 88>    C       -7.05819       -20.68720         0.47787
| 89>    C       -7.50903       -21.90370        -0.01750
| 90>    C       -6.62690       -22.86243        -0.49588
| 91>    C       -5.25962       -22.62337        -0.50405
| 92>    C       -4.80558       -21.41157        -0.02083
| 93>    C       -3.42111       -20.90004         0.05505
| 94>    O       -2.39541       -21.47435        -0.22849
| 95>    H       -2.41060         3.17605        -0.15700
| 96>    H        0.04447         3.52621        -0.38579
| 97>    H        1.49864         1.67022        -1.05984
| 98>    H        0.57472        -0.55379        -1.54961
| 99>    H       -5.58938        -1.10925        -0.35078
|100>    H       -6.70664        -3.54573        -0.65431
|101>    H       -0.89637        -5.16197        -0.54796
|102>    H        0.39185        -5.28758        -2.78228
|103>    H        0.76460        -6.91184        -4.77979
|104>    H       -0.31702        -8.31294        -4.84873
|105>    H        2.35203        -8.22033        -3.36089
|106>    H        2.05464        -9.04276        -4.89646
|107>    H        1.26299        -9.60977        -3.42137
|108>    H       -2.67328        -8.70490         2.95028
|109>    H       -1.39555        -7.71883         4.98316
|110>    H        0.11220        -5.66818         5.58333
|111>    H        0.25162        -4.41536         4.33931
|112>    H        2.01299        -6.90661         4.53126
|113>    H        2.49413        -5.26573         4.97709
|114>    H        2.13965        -5.65673         3.29037
|115>    H       -6.09208       -10.07439        -0.19263
|116>    H       -4.83423       -14.38988         2.28679
|117>    H       -7.00570       -14.60580         3.66533
|118>    H       -9.53243       -13.91639         3.53335
|119>    H      -10.05761       -13.10087         2.05125
|120>    H       -8.75534       -11.72427         4.45050
|121>    H      -10.47122       -11.66314         4.03237
|122>    H       -9.27354       -10.91891         2.96683
|123>    H       -6.46874       -14.79428        -1.18751
|124>    H       -7.09123       -14.71468        -3.71315
|125>    H       -6.58780       -13.31310        -5.84546
|126>    H       -5.23203       -12.18073        -5.71850
|127>    H       -8.12960       -11.53766        -4.98670
|128>    H       -7.29295       -11.00271        -6.44872
|129>    H       -6.76879       -10.41889        -4.86539
|130>    H       -1.13548       -10.12129         0.59178
|131>    H       -0.49767       -16.69834         0.63093
|132>    H       -1.56730       -19.06589         0.10653
|133>    H       -7.76085       -19.95306         0.83888
|134>    H       -8.56968       -22.10547        -0.02855
|135>    H       -7.00927       -23.80136        -0.86696
|136>    H       -4.55881       -23.35545        -0.87476
|137> *
|138>
|139>                          ****END OF INPUT****

CARTESIAN COORDINATES (ANGSTROEM)
---------------------------------
  C     -3.675650    0.655670   -0.645800
  O     -4.662940    1.301510   -0.379990
  C     -2.275400    1.121170   -0.730020
  C     -1.756660    2.372480   -0.458840
  C     -0.387240    2.557740   -0.588770
  C      0.434520    1.508110   -0.975080
  C     -0.081720    0.250450   -1.257670
  C     -1.448130    0.057890   -1.138510
  C     -2.284200   -1.109390   -1.407540
  C     -1.950110   -2.146100   -2.237600
  C     -2.884420   -3.083230   -2.730130
  N     -3.623700   -3.822350   -3.204160
  C     -0.660360   -2.358820   -2.762110
  N      0.372780   -2.605880   -3.198100
  C     -3.607880   -0.810260   -0.897600
  C     -4.648620   -1.613330   -0.549220
  C     -4.632270   -3.013410   -0.339830
  C     -5.712360   -3.872710   -0.410940
  C     -5.339290   -5.199120   -0.213740
  C     -3.969160   -5.368250    0.057820
  S     -3.149860   -3.858520    0.091420
  C     -3.612480   -6.704820    0.189220
  C     -2.344650   -7.510740    0.370160
  C     -1.442320   -7.230130   -0.803330
  C     -0.847060   -6.055440   -1.143580
  C     -0.140920   -6.123520   -2.364780
  C     -0.216140   -7.339860   -2.963830
  C      0.419910   -7.791570   -4.232740
  C      1.599650   -8.727090   -3.960950
  S     -1.162540   -8.441550   -2.013060
  C     -1.719990   -7.232120    1.708700
  C     -1.996910   -7.871680    2.877390
  C     -1.302810   -7.333070    3.983420
  C     -0.512100   -6.276930    3.660770
  C      0.386420   -5.480460    4.543020
  C      1.854260   -5.851250    4.321740
  S     -0.603590   -5.931340    1.963140
  C     -2.899650   -8.923410    0.315130
  C     -4.296450   -8.913890    0.099760
  C     -4.700930   -7.544160    0.022980
  S     -6.186890   -6.715870   -0.284290
  C     -5.026300  -10.092780   -0.023770
  C     -4.324470  -11.271220    0.062280
  C     -4.860720  -12.685620   -0.087870
  C     -5.871130  -13.034450    0.968010
  C     -5.738560  -13.865170    2.035020
  C     -6.925030  -13.978800    2.795400
  C     -7.953990  -13.237850    2.310090
  C     -9.327650  -13.078660    2.863740
  C     -9.466680  -11.760550    3.628500
  S     -7.470700  -12.365970    0.888940
  C     -5.433260  -12.931160   -1.456240
  C     -6.169210  -14.003160   -1.852610
  C     -6.504500  -13.957590   -3.223880
  C     -6.012500  -12.865070   -3.864760
  C     -6.196240  -12.460300   -5.286800
  C     -7.160000  -11.278000   -5.405550
  S     -5.116860  -11.853640   -2.773750
  C     -3.597730  -13.483900    0.081930
  C     -2.513620  -12.652190    0.300580
  C     -2.927250  -11.282330    0.284750
  C     -2.200780  -10.103230    0.421980
  S     -1.023390  -13.498430    0.535590
  C     -1.865560  -15.011040    0.349340
  C     -3.236330  -14.824150    0.095380
  S     -4.060990  -16.321310   -0.069860
  C     -2.572760  -17.201170    0.273760
  C     -1.493160  -16.349260    0.426220
  C     -2.531980  -18.614080    0.316890
  C     -3.560030  -19.485910    0.500260
  C     -4.920590  -19.300400    0.961390
  C     -5.340590  -18.399050    1.903250
  C     -6.665620  -18.301300    2.372250
  N     -7.731610  -18.156340    2.772810
  C     -4.470980  -17.513290    2.574490
  N     -3.794400  -16.815030    3.185070
  C     -5.695160  -20.441460    0.478640
  C     -7.058190  -20.687200    0.477870
  C     -7.509030  -21.903700   -0.017500
  C     -6.626900  -22.862430   -0.495880
  C     -5.259620  -22.623370   -0.504050
  C     -4.805580  -21.411570   -0.020830
  C     -3.421110  -20.900040    0.055050
  O     -2.395410  -21.474350   -0.228490
  H     -2.410600    3.176050   -0.157000
  H      0.044470    3.526210   -0.385790
  H      1.498640    1.670220   -1.059840
  H      0.574720   -0.553790   -1.549610
  H     -5.589380   -1.109250   -0.350780
  H     -6.706640   -3.545730   -0.654310
  H     -0.896370   -5.161970   -0.547960
  H      0.391850   -5.287580   -2.782280
  H      0.764600   -6.911840   -4.779790
  H     -0.317020   -8.312940   -4.848730
  H      2.352030   -8.220330   -3.360890
  H      2.054640   -9.042760   -4.896460
  H      1.262990   -9.609770   -3.421370
  H     -2.673280   -8.704900    2.950280
  H     -1.395550   -7.718830    4.983160
  H      0.112200   -5.668180    5.583330
  H      0.251620   -4.415360    4.339310
  H      2.012990   -6.906610    4.531260
  H      2.494130   -5.265730    4.977090
  H      2.139650   -5.656730    3.290370
  H     -6.092080  -10.074390   -0.192630
  H     -4.834230  -14.389880    2.286790
  H     -7.005700  -14.605800    3.665330
  H     -9.532430  -13.916390    3.533350
  H    -10.057610  -13.100870    2.051250
  H     -8.755340  -11.724270    4.450500
  H    -10.471220  -11.663140    4.032370
  H     -9.273540  -10.918910    2.966830
  H     -6.468740  -14.794280   -1.187510
  H     -7.091230  -14.714680   -3.713150
  H     -6.587800  -13.313100   -5.845460
  H     -5.232030  -12.180730   -5.718500
  H     -8.129600  -11.537660   -4.986700
  H     -7.292950  -11.002710   -6.448720
  H     -6.768790  -10.418890   -4.865390
  H     -1.135480  -10.121290    0.591780
  H     -0.497670  -16.698340    0.630930
  H     -1.567300  -19.065890    0.106530
  H     -7.760850  -19.953060    0.838880
  H     -8.569680  -22.105470   -0.028550
  H     -7.009270  -23.801360   -0.866960
  H     -4.558810  -23.355450   -0.874760

 Total Charge           Charge          ....    0
 Multiplicity           Mult            ....    1
 Number of Electrons    NEL             ....  634
 Basis Dimension        Dim             .... 1418

ORBITAL ENERGIES
----------------

  NO   OCC          E(Eh)            E(eV)
   0   2.0000     -91.976201     -2502.7997
   1   2.0000     -91.971795     -2502.6798
   2   2.0000     -91.971498     -2502.6717
   3   2.0000     -91.968244     -2502.5831
   4   2.0000     -91.945891     -2501.9749
   5   2.0000     -91.943869     -2501.9199
   6   2.0000     -91.939896     -2501.8118
   7   2.0000     -91.938957     -2501.7862
   8   2.0000     -20.557274      -559.3919
   9   2.0000     -20.556634      -559.3744
  10   2.0000     -15.586804      -424.1385
  11   2.0000     -15.585508      -424.1032
  12   2.0000     -15.581849      -424.0037
  13   2.0000     -15.576440      -423.8565
  14   2.0000     -11.355077      -308.9874
  15   2.0000     -11.354318      -308.9667
  16   2.0000     -11.333760      -308.4073
  17   2.0000     -11.332054      -308.3609
  18   2.0000     -11.315689      -307.9156
  19   2.0000     -11.314439      -307.8815
  20   2.0000     -11.311578      -307.8037
  21   2.0000     -11.310262      -307.7679
  22   2.0000     -11.299111      -307.4644
  23   2.0000     -11.298305      -307.4425
  24   2.0000     -11.296093      -307.3823
  25   2.0000     -11.295625      -307.3696
  26   2.0000     -11.295469      -307.3653
  27   2.0000     -11.293776      -307.3193
  28   2.0000     -11.292871      -307.2946
  29   2.0000     -11.292119      -307.2742
  30   2.0000     -11.291232      -307.2500
  31   2.0000     -11.290888      -307.2407
  32   2.0000     -11.290143      -307.2204
  33   2.0000     -11.290026      -307.2172
  34   2.0000     -11.287426      -307.1465
  35   2.0000     -11.286813      -307.1298
  36   2.0000     -11.286659      -307.1256
  37   2.0000     -11.286127      -307.1111
  38   2.0000     -11.285478      -307.0935
  39   2.0000     -11.283622      -307.0430
  40   2.0000     -11.274575      -306.7968
  41   2.0000     -11.274246      -306.7878
  42   2.0000     -11.274015      -306.7815
  43   2.0000     -11.273719      -306.7735
  44   2.0000     -11.273180      -306.7588
  45   2.0000     -11.272706      -306.7459
  46   2.0000     -11.271956      -306.7255
  47   2.0000     -11.271360      -306.7093
  48   2.0000     -11.271358      -306.7093
  49   2.0000     -11.271083      -306.7018
  50   2.0000     -11.271006      -306.6997
  51   2.0000     -11.270595      -306.6885
  52   2.0000     -11.269881      -306.6690
  53   2.0000     -11.268577      -306.6336
  54   2.0000     -11.268050      -306.6192
  55   2.0000     -11.267685      -306.6093
  56   2.0000     -11.267090      -306.5931
  57   2.0000     -11.266886      -306.5876
  58   2.0000     -11.266038      -306.5645
  59   2.0000     -11.265667      -306.5544
  60   2.0000     -11.265509      -306.5501
  61   2.0000     -11.264863      -306.5325
  62   2.0000     -11.264431      -306.5208
  63   2.0000     -11.262581      -306.4704
  64   2.0000     -11.262060      -306.4562
  65   2.0000     -11.261053      -306.4288
  66   2.0000     -11.261041      -306.4285
  67   2.0000     -11.254054      -306.2384
  68   2.0000     -11.243704      -305.9567
  69   2.0000     -11.240755      -305.8765
  70   2.0000     -11.238166      -305.8060
  71   2.0000     -11.237376      -305.7845
  72   2.0000     -11.236424      -305.7587
  73   2.0000     -11.234190      -305.6979
  74   2.0000     -11.233825      -305.6879
  75   2.0000     -11.232904      -305.6629
  76   2.0000     -11.232152      -305.6424
  77   2.0000     -11.231519      -305.6252
  78   2.0000     -11.226399      -305.4859
  79   2.0000     -11.225925      -305.4730
  80   2.0000     -11.223450      -305.4056
  81   2.0000     -11.222625      -305.3831
  82   2.0000     -11.222224      -305.3723
  83   2.0000     -11.219157      -305.2888
  84   2.0000      -9.011173      -245.2065
  85   2.0000      -9.006876      -245.0896
  86   2.0000      -9.006671      -245.0840
  87   2.0000      -9.003483      -244.9972
  88   2.0000      -8.982171      -244.4173
  89   2.0000      -8.979899      -244.3555
  90   2.0000      -8.976293      -244.2573
  91   2.0000      -8.974840      -244.2178
  92   2.0000      -6.698718      -182.2814
  93   2.0000      -6.697882      -182.2586
  94   2.0000      -6.695747      -182.2005
  95   2.0000      -6.694434      -182.1648
  96   2.0000      -6.694200      -182.1584
  97   2.0000      -6.693596      -182.1420
  98   2.0000      -6.693154      -182.1300
  99   2.0000      -6.691449      -182.0836
 100   2.0000      -6.691155      -182.0756
 101   2.0000      -6.691027      -182.0721
 102   2.0000      -6.689981      -182.0436
 103   2.0000      -6.687959      -181.9886
 104   2.0000      -6.669712      -181.4921
 105   2.0000      -6.668649      -181.4632
 106   2.0000      -6.667412      -181.4295
 107   2.0000      -6.666821      -181.4134
 108   2.0000      -6.666332      -181.4001
 109   2.0000      -6.664541      -181.3514
 110   2.0000      -6.663901      -181.3340
 111   2.0000      -6.662842      -181.3051
 112   2.0000      -6.662349      -181.2917
 113   2.0000      -6.661262      -181.2622
 114   2.0000      -6.661002      -181.2551
 115   2.0000      -6.659467      -181.2133
 116   2.0000      -1.389510       -37.8105
 117   2.0000      -1.388716       -37.7889
 118   2.0000      -1.250511       -34.0281
 119   2.0000      -1.246098       -33.9080
 120   2.0000      -1.244197       -33.8563
 121   2.0000      -1.240331       -33.7511
 122   2.0000      -1.221186       -33.2302
 123   2.0000      -1.220424       -33.2094
 124   2.0000      -1.218091       -33.1460
 125   2.0000      -1.214508       -33.0484
 126   2.0000      -1.209756       -32.9191
 127   2.0000      -1.199896       -32.6508
 128   2.0000      -1.179185       -32.0873
 129   2.0000      -1.173031       -31.9198
 130   2.0000      -1.169910       -31.8349
 131   2.0000      -1.168002       -31.7830
 132   2.0000      -1.159947       -31.5638
 133   2.0000      -1.154692       -31.4208
 134   2.0000      -1.138164       -30.9710
 135   2.0000      -1.119288       -30.4574
 136   2.0000      -1.098368       -29.8881
 137   2.0000      -1.096043       -29.8248
 138   2.0000      -1.093845       -29.7650
 139   2.0000      -1.080901       -29.4128
 140   2.0000      -1.070295       -29.1242
 141   2.0000      -1.057015       -28.7629
 142   2.0000      -1.055162       -28.7124
 143   2.0000      -1.053684       -28.6722
 144   2.0000      -1.049886       -28.5689
 145   2.0000      -1.049032       -28.5456
 146   2.0000      -1.048747       -28.5379
 147   2.0000      -1.047777       -28.5115
 148   2.0000      -1.041718       -28.3466
 149   2.0000      -1.027037       -27.9471
 150   2.0000      -1.003739       -27.3131
 151   2.0000      -1.002617       -27.2826
 152   2.0000      -0.983387       -26.7593
 153   2.0000      -0.981754       -26.7149
 154   2.0000      -0.979608       -26.6565
 155   2.0000      -0.977039       -26.5866
 156   2.0000      -0.974995       -26.5310
 157   2.0000      -0.967444       -26.3255
 158   2.0000      -0.963625       -26.2216
 159   2.0000      -0.955603       -26.0033
 160   2.0000      -0.954751       -25.9801
 161   2.0000      -0.948901       -25.8209
 162   2.0000      -0.930724       -25.3263
 163   2.0000      -0.925843       -25.1935
 164   2.0000      -0.919584       -25.0232
 165   2.0000      -0.911314       -24.7981
 166   2.0000      -0.903412       -24.5831
 167   2.0000      -0.881801       -23.9950
 168   2.0000      -0.854463       -23.2511
 169   2.0000      -0.854159       -23.2429
 170   2.0000      -0.852608       -23.2006
 171   2.0000      -0.850803       -23.1515
 172   2.0000      -0.845968       -23.0199
 173   2.0000      -0.839228       -22.8365
 174   2.0000      -0.836496       -22.7622
 175   2.0000      -0.828557       -22.5462
 176   2.0000      -0.812189       -22.1008
 177   2.0000      -0.810556       -22.0564
 178   2.0000      -0.805741       -21.9253
 179   2.0000      -0.787183       -21.4203
 180   2.0000      -0.784789       -21.3552
 181   2.0000      -0.777360       -21.1530
 182   2.0000      -0.775550       -21.1038
 183   2.0000      -0.766148       -20.8479
 184   2.0000      -0.758077       -20.6283
 185   2.0000      -0.756202       -20.5773
 186   2.0000      -0.750544       -20.4233
 187   2.0000      -0.748368       -20.3641
 188   2.0000      -0.744168       -20.2499
 189   2.0000      -0.735666       -20.0185
 190   2.0000      -0.734355       -19.9828
 191   2.0000      -0.730820       -19.8866
 192   2.0000      -0.728087       -19.8123
 193   2.0000      -0.726254       -19.7624
 194   2.0000      -0.719615       -19.5817
 195   2.0000      -0.717974       -19.5371
 196   2.0000      -0.715987       -19.4830
 197   2.0000      -0.702604       -19.1188
 198   2.0000      -0.694719       -18.9043
 199   2.0000      -0.692160       -18.8346
 200   2.0000      -0.685701       -18.6589
 201   2.0000      -0.684508       -18.6264
 202   2.0000      -0.683154       -18.5896
 203   2.0000      -0.677000       -18.4221
 204   2.0000      -0.675340       -18.3769
 205   2.0000      -0.667586       -18.1659
 206   2.0000      -0.667304       -18.1583
 207   2.0000      -0.659442       -17.9443
 208   2.0000      -0.652285       -17.7496
 209   2.0000      -0.645111       -17.5544
 210   2.0000      -0.641985       -17.4693
 211   2.0000      -0.639855       -17.4113
 212   2.0000      -0.637227       -17.3398
 213   2.0000      -0.636873       -17.3302
 214   2.0000      -0.636322       -17.3152
 215   2.0000      -0.633231       -17.2311
 216   2.0000      -0.627258       -17.0685
 217   2.0000      -0.623403       -16.9637
 218   2.0000      -0.622907       -16.9502
 219   2.0000      -0.617826       -16.8119
 220   2.0000      -0.615115       -16.7381
 221   2.0000      -0.611245       -16.6328
 222   2.0000      -0.610564       -16.6143
 223   2.0000      -0.608309       -16.5529
 224   2.0000      -0.605486       -16.4761
 225   2.0000      -0.604179       -16.4406
 226   2.0000      -0.603468       -16.4212
 227   2.0000      -0.603032       -16.4093
 228   2.0000      -0.597991       -16.2722
 229   2.0000      -0.593088       -16.1388
 230   2.0000      -0.589707       -16.0467
 231   2.0000      -0.586977       -15.9725
 232   2.0000      -0.585352       -15.9282
 233   2.0000      -0.581097       -15.8125
 234   2.0000      -0.578486       -15.7414
 235   2.0000      -0.576716       -15.6932
 236   2.0000      -0.574149       -15.6234
 237   2.0000      -0.572340       -15.5742
 238   2.0000      -0.570595       -15.5267
 239   2.0000      -0.568722       -15.4757
 240   2.0000      -0.567212       -15.4346
 241   2.0000      -0.565027       -15.3752
 242   2.0000      -0.562472       -15.3056
 243   2.0000      -0.560388       -15.2489
 244   2.0000      -0.558079       -15.1861
 245   2.0000      -0.555501       -15.1160
 246   2.0000      -0.553276       -15.0554
 247   2.0000      -0.547790       -14.9061
 248   2.0000      -0.547377       -14.8949
 249   2.0000      -0.545747       -14.8505
 250   2.0000      -0.544243       -14.8096
 251   2.0000      -0.540071       -14.6961
 252   2.0000      -0.538962       -14.6659
 253   2.0000      -0.538336       -14.6489
 254   2.0000      -0.536929       -14.6106
 255   2.0000      -0.534641       -14.5483
 256   2.0000      -0.533104       -14.5065
 257   2.0000      -0.531801       -14.4710
 258   2.0000      -0.529674       -14.4132
 259   2.0000      -0.527973       -14.3669
 260   2.0000      -0.527047       -14.3417
 261   2.0000      -0.526474       -14.3261
 262   2.0000      -0.520431       -14.1617
 263   2.0000      -0.519536       -14.1373
 264   2.0000      -0.517415       -14.0796
 265   2.0000      -0.514424       -13.9982
 266   2.0000      -0.507960       -13.8223
 267   2.0000      -0.503966       -13.7136
 268   2.0000      -0.503409       -13.6985
 269   2.0000      -0.500833       -13.6283
 270   2.0000      -0.499512       -13.5924
 271   2.0000      -0.498959       -13.5774
 272   2.0000      -0.496694       -13.5157
 273   2.0000      -0.494885       -13.4665
 274   2.0000      -0.494789       -13.4639
 275   2.0000      -0.491712       -13.3802
 276   2.0000      -0.491286       -13.3686
 277   2.0000      -0.490028       -13.3343
 278   2.0000      -0.488247       -13.2859
 279   2.0000      -0.487760       -13.2726
 280   2.0000      -0.485192       -13.2027
 281   2.0000      -0.483962       -13.1693
 282   2.0000      -0.482854       -13.1391
 283   2.0000      -0.479726       -13.0540
 284   2.0000      -0.478971       -13.0334
 285   2.0000      -0.471132       -12.8202
 286   2.0000      -0.468019       -12.7354
 287   2.0000      -0.467168       -12.7123
 288   2.0000      -0.465204       -12.6588
 289   2.0000      -0.463214       -12.6047
 290   2.0000      -0.459795       -12.5117
 291   2.0000      -0.458517       -12.4769
 292   2.0000      -0.450323       -12.2539
 293   2.0000      -0.440125       -11.9764
 294   2.0000      -0.437143       -11.8953
 295   2.0000      -0.418007       -11.3745
 296   2.0000      -0.413453       -11.2506
 297   2.0000      -0.409165       -11.1340
 298   2.0000      -0.385219       -10.4824
 299   2.0000      -0.374711       -10.1964
 300   2.0000      -0.373603       -10.1663
 301   2.0000      -0.364775        -9.9260
 302   2.0000      -0.358719        -9.7612
 303   2.0000      -0.353231        -9.6119
 304   2.0000      -0.352654        -9.5962
 305   2.0000      -0.349064        -9.4985
 306   2.0000      -0.347123        -9.4457
 307   2.0000      -0.344988        -9.3876
 308   2.0000      -0.339026        -9.2254
 309   2.0000      -0.335257        -9.1228
 310   2.0000      -0.333232        -9.0677
 311   2.0000      -0.319324        -8.6893
 312   2.0000      -0.315616        -8.5883
 313   2.0000      -0.306271        -8.3340
 314   2.0000      -0.304778        -8.2934
 315   2.0000      -0.296640        -8.0720
 316   2.0000      -0.256519        -6.9802
 317   0.0000      -0.022057        -0.6002
 318   0.0000      -0.008968        -0.2440
 319   0.0000       0.023880         0.6498
 320   0.0000       0.030678         0.8348
 321   0.0000       0.054624         1.4864

MULLIKEN ATOMIC CHARGES
-----------------------
   0 C :    0.472139
   1 O :   -0.353985
   2 C :   -0.175124
   3 C :    0.020008
   4 C :   -0.013067
   5 C :   -0.002812
   6 C :   -0.015824
   7 C :   -0.056393
   8 C :    0.228926
   9 C :   -0.347439
  10 C :    0.046721
  11 N :   -0.051466
  12 C :    0.059190
  13 N :   -0.090594
  14 C :   -0.320731
  15 C :    0.187214
  16 C :   -0.221755
  17 C :    0.079658
  18 C :   -0.108260
  19 C :    0.024616
  20 S :    0.157519
  21 C :   -0.027963
  22 C :   -0.089990
  23 C :   -0.101872
  24 C :   -0.017048
  25 C :   -0.016112
  26 C :   -0.228282
  27 C :    0.043290
  28 C :   -0.032489
  29 S :    0.096161
  30 C :   -0.084537
  31 C :   -0.004599
  32 C :   -0.006237
  33 C :   -0.221432
  34 C :    0.041052
  35 C :   -0.030390
  36 S :    0.080809
  37 C :   -0.113011
  38 C :   -0.052753
  39 C :   -0.013287
  40 S :    0.209551
  41 C :    0.041577
  42 C :   -0.022637
  43 C :   -0.068431
  44 C :   -0.119477
  45 C :   -0.020758
  46 C :   -0.004272
  47 C :   -0.227646
  48 C :    0.038670
  49 C :   -0.027306
  50 S :    0.097908
  51 C :   -0.129315
  52 C :    0.007730
  53 C :   -0.012711
  54 C :   -0.231305
  55 C :    0.042181
  56 C :   -0.033521
  57 S :    0.117991
  58 C :   -0.098820
  59 C :    0.011586
  60 C :   -0.077209
  61 C :    0.053695
  62 S :    0.213407
  63 C :   -0.106298
  64 C :    0.010972
  65 S :    0.171319
  66 C :   -0.212576
  67 C :    0.071916
  68 C :    0.179176
  69 C :   -0.321308
  70 C :    0.229984
  71 C :   -0.342853
  72 C :    0.041522
  73 N :   -0.071490
  74 C :    0.059127
  75 N :   -0.077190
  76 C :   -0.057576
  77 C :   -0.014435
  78 C :   -0.003461
  79 C :   -0.012335
  80 C :    0.019578
  81 C :   -0.174238
  82 C :    0.472045
  83 O :   -0.354447
  84 H :    0.058492
  85 H :    0.054579
  86 H :    0.054917
  87 H :    0.070841
  88 H :    0.083180
  89 H :    0.054443
  90 H :    0.058311
  91 H :    0.050224
  92 H :    0.046201
  93 H :    0.046880
  94 H :    0.035364
  95 H :    0.033497
  96 H :    0.031937
  97 H :    0.052700
  98 H :    0.029347
  99 H :    0.040995
 100 H :    0.046306
 101 H :    0.035449
 102 H :    0.034971
 103 H :    0.036907
 104 H :    0.038691
 105 H :    0.074608
 106 H :    0.038177
 107 H :    0.049260
 108 H :    0.044551
 109 H :    0.035555
 110 H :    0.035053
 111 H :    0.031408
 112 H :    0.048453
 113 H :    0.026699
 114 H :    0.038684
 115 H :    0.048899
 116 H :    0.034431
 117 H :    0.035735
 118 H :    0.039152
 119 H :    0.037608
 120 H :    0.055866
 121 H :    0.082715
 122 H :    0.072038
 123 H :    0.055206
 124 H :    0.054860
 125 H :    0.058644
Sum of atomic charges:   -0.0000000

LOEWDIN ATOMIC CHARGES
----------------------
   0 C :    0.165739
   1 O :   -0.232289
   2 C :   -0.057317
   3 C :    0.024314
   4 C :   -0.000836
   5 C :    0.006260
   6 C :    0.004717
   7 C :   -0.020458
   8 C :    0.102251
   9 C :   -0.170199
  10 C :   -0.003368
  11 N :   -0.086433
  12 C :    0.021400
  13 N :   -0.102534
  14 C :   -0.147730
  15 C :    0.108566
  16 C :   -0.207708
  17 C :    0.019978
  18 C :   -0.207828
  19 C :   -0.148634
  20 S :    0.445745
  21 C :   -0.051242
  22 C :   -0.036205
  23 C :   -0.173343
  24 C :   -0.067378
  25 C :   -0.065647
  26 C :   -0.162805
  27 C :   -0.023838
  28 C :   -0.029483
  29 S :    0.406237
  30 C :   -0.168250
  31 C :   -0.051967
  32 C :   -0.072828
  33 C :   -0.161629
  34 C :   -0.024903
  35 C :   -0.028417
  36 S :    0.401590
  37 C :   -0.007594
  38 C :   -0.024900
  39 C :   -0.139052
  40 S :    0.414384
  41 C :   -0.006494
  42 C :    0.001008
  43 C :   -0.037887
  44 C :   -0.171930
  45 C :   -0.049884
  46 C :   -0.071912
  47 C :   -0.155302
  48 C :   -0.024557
  49 C :   -0.027968
  50 S :    0.389585
  51 C :   -0.182563
  52 C :   -0.053239
  53 C :   -0.073067
  54 C :   -0.161902
  55 C :   -0.025045
  56 C :   -0.028731
  57 S :    0.407088
  58 C :   -0.060112
  59 C :   -0.130007
  60 C :   -0.033110
  61 C :   -0.001753
  62 S :    0.415078
  63 C :   -0.212254
  64 C :   -0.148164
  65 S :    0.443891
  66 C :   -0.207482
  67 C :    0.021462
  68 C :    0.107558
  69 C :   -0.149965
  70 C :    0.104132
  71 C :   -0.172044
  72 C :    0.014586
  73 N :   -0.096868
  74 C :    0.004325
  75 N :   -0.099373
  76 C :   -0.021078
  77 C :    0.005981
  78 C :    0.006004
  79 C :   -0.000066
  80 C :    0.024018
  81 C :   -0.056749
  82 C :    0.165951
  83 O :   -0.232611
  84 H :    0.041731
  85 H :    0.033747
  86 H :    0.035216
  87 H :    0.039753
  88 H :    0.055442
  89 H :    0.039937
  90 H :    0.002957
  91 H :    0.028538
  92 H :    0.028509
  93 H :    0.022680
  94 H :    0.018207
  95 H :    0.014920
  96 H :    0.012388
  97 H :    0.029584
  98 H :    0.024748
  99 H :    0.026161
 100 H :    0.022442
 101 H :    0.018402
 102 H :    0.015528
 103 H :    0.014900
 104 H :    0.026059
 105 H :    0.030549
 106 H :    0.028805
 107 H :    0.029451
 108 H :    0.021783
 109 H :    0.018423
 110 H :    0.015515
 111 H :    0.013366
 112 H :    0.023722
 113 H :    0.023739
 114 H :    0.025096
 115 H :    0.023538
 116 H :    0.017844
 117 H :    0.015943
 118 H :    0.015224
 119 H :    0.032805
 120 H :    0.040422
 121 H :    0.055705
 122 H :    0.040310
 123 H :    0.035322
 124 H :    0.033880
 125 H :    0.041796

  Mayer bond orders larger than 0.100000
B(  0-C ,  1-O ) :   2.1042 B(  0-C ,  2-C ) :   0.9487 B(  0-C , 14-C ) :   0.9850
B(  2-C ,  3-C ) :   1.4380 B(  2-C ,  7-C ) :   1.3467 B(  3-C ,  4-C ) :   1.3970
B(  3-C , 84-H ) :   1.0068 B(  4-C ,  5-C ) :   1.4070 B(  4-C , 85-H ) :   1.0005
B(  5-C ,  6-C ) :   1.4170 B(  5-C , 86-H ) :   0.9970 B(  6-C ,  7-C ) :   1.4265
B(  6-C , 87-H ) :   0.9919 B(  7-C ,  8-C ) :   1.0405 B(  8-C ,  9-C ) :   1.7086
B(  8-C , 14-C ) :   1.0566 B(  9-C , 10-C ) :   1.0625 B(  9-C , 12-C ) :   1.0688
B( 10-C , 11-N ) :   3.0166 B( 12-C , 13-N ) :   2.9412 B( 14-C , 15-C ) :   1.7245
B( 15-C , 16-C ) :   1.1519 B( 15-C , 88-H ) :   0.9636 B( 16-C , 17-C ) :   1.5318
B( 16-C , 20-S ) :   1.0630 B( 17-C , 18-C ) :   1.3421 B( 17-C , 89-H ) :   0.9971
B( 18-C , 19-C ) :   1.4532 B( 18-C , 40-S ) :   1.0373 B( 19-C , 20-S ) :   1.0556
B( 19-C , 21-C ) :   1.4084 B( 21-C , 22-C ) :   0.9694 B( 21-C , 39-C ) :   1.6535
B( 22-C , 23-C ) :   0.9734 B( 22-C , 30-C ) :   0.9783 B( 22-C , 37-C ) :   0.9922
B( 23-C , 24-C ) :   1.6833 B( 23-C , 29-S ) :   1.1245 B( 24-C , 25-C ) :   1.2390
B( 24-C , 90-H ) :   0.9877 B( 25-C , 26-C ) :   1.6873 B( 25-C , 91-H ) :   1.0034
B( 26-C , 27-C ) :   0.9824 B( 26-C , 29-S ) :   1.1208 B( 27-C , 28-C ) :   1.0371
B( 27-C , 92-H ) :   0.9737 B( 27-C , 93-H ) :   0.9698 B( 28-C , 94-H ) :   0.9836
B( 28-C , 95-H ) :   0.9875 B( 28-C , 96-H ) :   0.9853 B( 30-C , 31-C ) :   1.7099
B( 30-C , 36-S ) :   1.1072 B( 31-C , 32-C ) :   1.2065 B( 31-C , 97-H ) :   0.9948
B( 32-C , 33-C ) :   1.6904 B( 32-C , 98-H ) :   1.0055 B( 33-C , 34-C ) :   0.9826
B( 33-C , 36-S ) :   1.1245 B( 34-C , 35-C ) :   1.0361 B( 34-C , 99-H ) :   0.9739
B( 34-C ,100-H ) :   0.9702 B( 35-C ,101-H ) :   0.9837 B( 35-C ,102-H ) :   0.9873
B( 35-C ,103-H ) :   0.9853 B( 37-C , 38-C ) :   1.3962 B( 37-C , 61-C ) :   1.4830
B( 38-C , 39-C ) :   1.1426 B( 38-C , 41-C ) :   1.3619 B( 39-C , 40-S ) :   1.0590
B( 41-C , 42-C ) :   1.4855 B( 41-C ,104-H ) :   0.9929 B( 42-C , 43-C ) :   0.9813
B( 42-C , 60-C ) :   1.3940 B( 43-C , 44-C ) :   0.9941 B( 43-C , 51-C ) :   0.9791
B( 43-C , 58-C ) :   0.9827 B( 44-C , 45-C ) :   1.7160 B( 44-C , 50-S ) :   1.1056
B( 45-C , 46-C ) :   1.2040 B( 45-C ,105-H ) :   0.9939 B( 46-C , 47-C ) :   1.6917
B( 46-C ,106-H ) :   1.0055 B( 47-C , 48-C ) :   0.9838 B( 47-C , 50-S ) :   1.1201
B( 48-C , 49-C ) :   1.0364 B( 48-C ,107-H ) :   0.9737 B( 48-C ,108-H ) :   0.9701
B( 49-C ,109-H ) :   0.9839 B( 49-C ,110-H ) :   0.9875 B( 49-C ,111-H ) :   0.9848
B( 51-C , 52-C ) :   1.6949 B( 51-C , 57-S ) :   1.1179 B( 52-C , 53-C ) :   1.2182
B( 52-C ,112-H ) :   0.9987 B( 53-C , 54-C ) :   1.6865 B( 53-C ,113-H ) :   1.0066
B( 54-C , 55-C ) :   0.9829 B( 54-C , 57-S ) :   1.1240 B( 55-C , 56-C ) :   1.0363
B( 55-C ,114-H ) :   0.9746 B( 55-C ,115-H ) :   0.9694 B( 56-C ,116-H ) :   0.9836
B( 56-C ,117-H ) :   0.9874 B( 56-C ,118-H ) :   0.9855 B( 58-C , 59-C ) :   1.6437
B( 58-C , 64-C ) :   1.4232 B( 59-C , 60-C ) :   1.1443 B( 59-C , 62-S ) :   1.0624
B( 60-C , 61-C ) :   1.3460 B( 61-C ,119-H ) :   1.0071 B( 62-S , 63-C ) :   1.0341
B( 63-C , 64-C ) :   1.4441 B( 63-C , 67-C ) :   1.3455 B( 64-C , 65-S ) :   1.0688
B( 65-S , 66-C ) :   1.0522 B( 66-C , 67-C ) :   1.5254 B( 66-C , 68-C ) :   1.1653
B( 67-C ,120-H ) :   0.9988 B( 68-C , 69-C ) :   1.7175 B( 68-C ,121-H ) :   0.9632
B( 69-C , 70-C ) :   1.0581 B( 69-C , 82-C ) :   0.9865 B( 70-C , 71-C ) :   1.7053
B( 70-C , 76-C ) :   1.0406 B( 71-C , 72-C ) :   1.0587 B( 71-C , 74-C ) :   1.0712
B( 72-C , 73-N ) :   2.9909 B( 74-C , 75-N ) :   2.9700 B( 76-C , 77-C ) :   1.4276
B( 76-C , 81-C ) :   1.3459 B( 77-C , 78-C ) :   1.4157 B( 77-C ,122-H ) :   0.9919
B( 78-C , 79-C ) :   1.4078 B( 78-C ,123-H ) :   0.9970 B( 79-C , 80-C ) :   1.3958
B( 79-C ,124-H ) :   1.0005 B( 80-C , 81-C ) :   1.4392 B( 80-C ,125-H ) :   1.0069
B( 81-C , 82-C ) :   0.9486 B( 82-C , 83-O ) :   2.1022

-----------------------------------------------------------------------------
         ABSORPTION SPECTRUM VIA TRANSITION ELECTRIC DIPOLE MOMENTS
-----------------------------------------------------------------------------
State   Energy    Wavelength  fosc         T2        TX        TY        TZ
        (cm-1)      (nm)                 (au**2)    (au)      (au)      (au)
-----------------------------------------------------------------------------
   1   22042.6    453.7   2.008990658  30.00483   1.11888   5.29685  -0.83447
   2   25480.7    392.5   0.006585630   0.08509   0.03508   0.21963   0.18873
   3   33358.8    299.8   0.708838572   6.99540  -0.69819   2.29243   1.11924

FINAL SINGLE POINT ENERGY     -6219.388106529276

DIPOLE MOMENT
-------------
                                X             Y             Z
Electronic contribution:     -2.22873      -4.72011       2.45120
Nuclear contribution   :      2.26984       4.80966      -2.29683
                        -----------------------------------------
Total Dipole Moment    :      0.04111       0.08955       0.15437
                        -----------------------------------------
Magnitude (a.u.)       :      0.18314
Magnitude (Debye)      :      0.46550

Rotational constants in cm-1:     0.001496     0.000286     0.000280
Rotational constants in MHz :    44.839730     8.577916     8.400107

                             ****ORCA TERMINATED NORMALLY****
TOTAL RUN TIME: 1 days 1 hours 52 minutes 2 seconds 180 msec
