                         Program Version 4.2.0 -  RELEASE  -
|  1> # ORCA input file
|  2> # M34.out: Geometry 47
|  3> ! Engrad Keepdens
|  4> %maxcore 1000
|  5> %tddft
|  6>   nroots 3
|  7>   # nroots is the number of states to be computed
|  8>   Iroot 1
|  9>   end
| 10> * xyz 0 1
| 11>    C       -1.19310        -0.52550         0.10064
| 12>    C       -1.83687        -0.37330         1.37737
| 13>    C       -1.27956        -1.05732         2.48530
| 14>    C       -0.19584        -1.91013         2.26793
| 15>    C        0.42590        -2.07385         0.98579
| 16>    C       -0.12023        -1.38600        -0.11681
| 17>    O        0.40206        -1.54659        -1.36886
| 18>    C       -0.37981        -2.30146        -2.31877
| 19>    O       -1.74950        -0.90359         3.76034
| 20>    C       -1.45244         0.36590         4.38614
| 21>    S        0.52168        -2.90950         3.53991
| 22>    C        1.70295        -3.50520         2.39395
| 23>    C        1.55362        -2.95651         1.09934
| 24>    S       -1.83794         0.52478        -1.16566
| 25>    C       -3.04564         1.09515        -0.05098
| 26>    C       -2.95693         0.52602         1.23609
| 27>    C       -4.15109         1.95932        -0.06087
| 28>    C       -4.73593         1.88007         1.22936
| 29>    N       -4.00170         0.99994         2.02943
| 30>    S       -5.00266         3.00632        -1.13268
| 31>    C       -6.18808         3.35755         0.15045
| 32>    C       -5.88416         2.66920         1.34943
| 33>    C        2.83352        -4.34447         2.35991
| 34>    C        3.35610        -4.25244         1.04165
| 35>    N        2.57551        -3.40401         0.27323
| 36>    S        3.83590        -5.33708         3.36031
| 37>    C        4.98690        -5.57732         2.02158
| 38>    C        4.55936        -4.93569         0.85365
| 39>    C       -7.31767         4.21151         0.07005
| 40>    C       -7.89549         4.93539        -0.95805
| 41>    C        6.13200        -6.39140         2.21673
| 42>    C        7.27516        -6.52747         1.45234
| 43>    C       -7.42980         4.95915        -2.36604
| 44>    C       -8.43629         5.73071        -3.13200
| 45>    C       -9.45489         6.17077        -2.26662
| 46>    C       -9.12145         5.73675        -0.88356
| 47>    C        8.09321        -7.77795         1.61346
| 48>    C        9.00547        -7.81534         0.43459
| 49>    C        8.83883        -6.63796        -0.32261
| 50>    C        7.86393        -5.75595         0.36842
| 51>    C       -8.43604         5.98971        -4.49751
| 52>    C       -9.50766         6.70989        -5.01141
| 53>    C      -10.54964         7.13646        -4.16813
| 54>    C      -10.53855         6.88649        -2.79750
| 55>    C        9.89895        -8.81763         0.06605
| 56>    C       10.63085        -8.63129        -1.10341
| 57>    C       10.47388        -7.45916        -1.86595
| 58>    C        9.59075        -6.45197        -1.48930
| 59>    F       -9.57352         7.00682        -6.30576
| 60>    F      -11.56758         7.79532        -4.71705
| 61>    O       -6.43238         4.44221        -2.83840
| 62>    C       -9.85349         6.07816         0.24118
| 63>    C       -9.47556         5.71796         1.57213
| 64>    C      -11.05966         6.84235         0.17181
| 65>    C       -4.63785         0.24257         3.11332
| 66>    C       -5.61208        -0.80624         2.58066
| 67>    C        3.12451        -2.73003        -0.91138
| 68>    C        3.22218        -3.63265        -2.13411
| 69>    C       -0.70094        -3.71050        -1.85040
| 70>    C        0.01576         0.52562         4.73179
| 71>    O        8.00421        -8.60904         2.49262
| 72>    C        7.73078        -4.39727         0.12022
| 73>    F       11.19619        -7.32114        -2.97412
| 74>    F       11.49045        -9.55405        -1.53000
| 75>    N      -12.04538         7.45648         0.12676
| 76>    N       -9.18438         5.43761         2.66234
| 77>    C        7.06396        -3.50296         1.00871
| 78>    C        8.31766        -3.75730        -1.01452
| 79>    N        8.75798        -3.22887        -1.95183
| 80>    N        6.53598        -2.74419         1.71359
| 81>    H        0.24266        -2.30919        -3.22456
| 82>    H       -1.30612        -1.75106        -2.55445
| 83>    H       -2.07407         0.37957         5.29278
| 84>    H       -1.79633         1.18222         3.72812
| 85>    H       -6.50208         2.78028         2.24126
| 86>    H        5.10554        -5.00022        -0.08355
| 87>    H       -7.82697         4.26602         1.03206
| 88>    H        6.09633        -7.09124         3.06252
| 89>    H       -7.63025         5.63702        -5.14345
| 90>    H      -11.37192         7.25658        -2.20428
| 91>    H       10.02686        -9.71982         0.66683
| 92>    H        9.51750        -5.56876        -2.12011
| 93>    H       -5.14813         0.96537         3.76943
| 94>    H       -3.84926        -0.24849         3.69328
| 95>    H       -6.41330        -0.34667         1.98120
| 96>    H       -6.07795        -1.35451         3.41384
| 97>    H       -5.08035        -1.53475         1.94815
| 98>    H        4.11858        -2.34076        -0.63360
| 99>    H        2.47757        -1.87657        -1.13142
|100>    H        3.84098        -4.52332        -1.94808
|101>    H        3.68111        -3.07790        -2.96669
|102>    H        2.22892        -3.97769        -2.45541
|103>    H        0.21193        -4.26387        -1.58540
|104>    H       -1.21889        -4.25829        -2.65355
|105>    H       -1.35891        -3.70166        -0.96853
|106>    H        0.64108         0.54073         3.82690
|107>    H        0.36088        -0.29551         5.37662
|108>    H        0.16738         1.47625         5.26757
|109> *
|110>
|111>                          ****END OF INPUT****

CARTESIAN COORDINATES (ANGSTROEM)
---------------------------------
  C     -1.193100   -0.525500    0.100640
  C     -1.836870   -0.373300    1.377370
  C     -1.279560   -1.057320    2.485300
  C     -0.195840   -1.910130    2.267930
  C      0.425900   -2.073850    0.985790
  C     -0.120230   -1.386000   -0.116810
  O      0.402060   -1.546590   -1.368860
  C     -0.379810   -2.301460   -2.318770
  O     -1.749500   -0.903590    3.760340
  C     -1.452440    0.365900    4.386140
  S      0.521680   -2.909500    3.539910
  C      1.702950   -3.505200    2.393950
  C      1.553620   -2.956510    1.099340
  S     -1.837940    0.524780   -1.165660
  C     -3.045640    1.095150   -0.050980
  C     -2.956930    0.526020    1.236090
  C     -4.151090    1.959320   -0.060870
  C     -4.735930    1.880070    1.229360
  N     -4.001700    0.999940    2.029430
  S     -5.002660    3.006320   -1.132680
  C     -6.188080    3.357550    0.150450
  C     -5.884160    2.669200    1.349430
  C      2.833520   -4.344470    2.359910
  C      3.356100   -4.252440    1.041650
  N      2.575510   -3.404010    0.273230
  S      3.835900   -5.337080    3.360310
  C      4.986900   -5.577320    2.021580
  C      4.559360   -4.935690    0.853650
  C     -7.317670    4.211510    0.070050
  C     -7.895490    4.935390   -0.958050
  C      6.132000   -6.391400    2.216730
  C      7.275160   -6.527470    1.452340
  C     -7.429800    4.959150   -2.366040
  C     -8.436290    5.730710   -3.132000
  C     -9.454890    6.170770   -2.266620
  C     -9.121450    5.736750   -0.883560
  C      8.093210   -7.777950    1.613460
  C      9.005470   -7.815340    0.434590
  C      8.838830   -6.637960   -0.322610
  C      7.863930   -5.755950    0.368420
  C     -8.436040    5.989710   -4.497510
  C     -9.507660    6.709890   -5.011410
  C    -10.549640    7.136460   -4.168130
  C    -10.538550    6.886490   -2.797500
  C      9.898950   -8.817630    0.066050
  C     10.630850   -8.631290   -1.103410
  C     10.473880   -7.459160   -1.865950
  C      9.590750   -6.451970   -1.489300
  F     -9.573520    7.006820   -6.305760
  F    -11.567580    7.795320   -4.717050
  O     -6.432380    4.442210   -2.838400
  C     -9.853490    6.078160    0.241180
  C     -9.475560    5.717960    1.572130
  C    -11.059660    6.842350    0.171810
  C     -4.637850    0.242570    3.113320
  C     -5.612080   -0.806240    2.580660
  C      3.124510   -2.730030   -0.911380
  C      3.222180   -3.632650   -2.134110
  C     -0.700940   -3.710500   -1.850400
  C      0.015760    0.525620    4.731790
  O      8.004210   -8.609040    2.492620
  C      7.730780   -4.397270    0.120220
  F     11.196190   -7.321140   -2.974120
  F     11.490450   -9.554050   -1.530000
  N    -12.045380    7.456480    0.126760
  N     -9.184380    5.437610    2.662340
  C      7.063960   -3.502960    1.008710
  C      8.317660   -3.757300   -1.014520
  N      8.757980   -3.228870   -1.951830
  N      6.535980   -2.744190    1.713590
  H      0.242660   -2.309190   -3.224560
  H     -1.306120   -1.751060   -2.554450
  H     -2.074070    0.379570    5.292780
  H     -1.796330    1.182220    3.728120
  H     -6.502080    2.780280    2.241260
  H      5.105540   -5.000220   -0.083550
  H     -7.826970    4.266020    1.032060
  H      6.096330   -7.091240    3.062520
  H     -7.630250    5.637020   -5.143450
  H    -11.371920    7.256580   -2.204280
  H     10.026860   -9.719820    0.666830
  H      9.517500   -5.568760   -2.120110
  H     -5.148130    0.965370    3.769430
  H     -3.849260   -0.248490    3.693280
  H     -6.413300   -0.346670    1.981200
  H     -6.077950   -1.354510    3.413840
  H     -5.080350   -1.534750    1.948150
  H      4.118580   -2.340760   -0.633600
  H      2.477570   -1.876570   -1.131420
  H      3.840980   -4.523320   -1.948080
  H      3.681110   -3.077900   -2.966690
  H      2.228920   -3.977690   -2.455410
  H      0.211930   -4.263870   -1.585400
  H     -1.218890   -4.258290   -2.653550
  H     -1.358910   -3.701660   -0.968530
  H      0.641080    0.540730    3.826900
  H      0.360880   -0.295510    5.376620
  H      0.167380    1.476250    5.267570

 Total Charge           Charge          ....    0
 Multiplicity           Mult            ....    1
 Number of Electrons    NEL             ....  514
 Basis Dimension        Dim             .... 1136

ORBITAL ENERGIES
----------------

  NO   OCC          E(Eh)            E(eV)
   0   2.0000     -91.981523     -2502.9445
   1   2.0000     -91.977180     -2502.8263
   2   2.0000     -91.975447     -2502.7792
   3   2.0000     -91.972515     -2502.6994
   4   2.0000     -26.338799      -716.7152
   5   2.0000     -26.337385      -716.6767
   6   2.0000     -26.337227      -716.6724
   7   2.0000     -26.334223      -716.5906
   8   2.0000     -20.604840      -560.6862
   9   2.0000     -20.604557      -560.6785
  10   2.0000     -20.570708      -559.7574
  11   2.0000     -20.569895      -559.7353
  12   2.0000     -15.644620      -425.7118
  13   2.0000     -15.642740      -425.6606
  14   2.0000     -15.600863      -424.5211
  15   2.0000     -15.600414      -424.5088
  16   2.0000     -15.598972      -424.4696
  17   2.0000     -15.595111      -424.3645
  18   2.0000     -11.381501      -309.7064
  19   2.0000     -11.380142      -309.6694
  20   2.0000     -11.379072      -309.6403
  21   2.0000     -11.377259      -309.5910
  22   2.0000     -11.370523      -309.4077
  23   2.0000     -11.369275      -309.3737
  24   2.0000     -11.354804      -308.9799
  25   2.0000     -11.352539      -308.9183
  26   2.0000     -11.345024      -308.7138
  27   2.0000     -11.342408      -308.6426
  28   2.0000     -11.332515      -308.3734
  29   2.0000     -11.329377      -308.2880
  30   2.0000     -11.328639      -308.2679
  31   2.0000     -11.327679      -308.2418
  32   2.0000     -11.327201      -308.2288
  33   2.0000     -11.321986      -308.0869
  34   2.0000     -11.318729      -307.9983
  35   2.0000     -11.318441      -307.9904
  36   2.0000     -11.313323      -307.8512
  37   2.0000     -11.313279      -307.8500
  38   2.0000     -11.311420      -307.7994
  39   2.0000     -11.310707      -307.7800
  40   2.0000     -11.309081      -307.7358
  41   2.0000     -11.308725      -307.7260
  42   2.0000     -11.308524      -307.7206
  43   2.0000     -11.308141      -307.7102
  44   2.0000     -11.307838      -307.7019
  45   2.0000     -11.307104      -307.6820
  46   2.0000     -11.306045      -307.6531
  47   2.0000     -11.305694      -307.6436
  48   2.0000     -11.305148      -307.6287
  49   2.0000     -11.304376      -307.6077
  50   2.0000     -11.303271      -307.5777
  51   2.0000     -11.302183      -307.5480
  52   2.0000     -11.301712      -307.5352
  53   2.0000     -11.301521      -307.5300
  54   2.0000     -11.300850      -307.5118
  55   2.0000     -11.299790      -307.4829
  56   2.0000     -11.297988      -307.4339
  57   2.0000     -11.297721      -307.4266
  58   2.0000     -11.297128      -307.4105
  59   2.0000     -11.295105      -307.3554
  60   2.0000     -11.294706      -307.3446
  61   2.0000     -11.294251      -307.3322
  62   2.0000     -11.294243      -307.3320
  63   2.0000     -11.290512      -307.2304
  64   2.0000     -11.283139      -307.0298
  65   2.0000     -11.281805      -306.9935
  66   2.0000     -11.254232      -306.2432
  67   2.0000     -11.253142      -306.2136
  68   2.0000     -11.252973      -306.2090
  69   2.0000     -11.247008      -306.0467
  70   2.0000      -9.015845      -245.3336
  71   2.0000      -9.010542      -245.1893
  72   2.0000      -9.010043      -245.1757
  73   2.0000      -9.006619      -245.0826
  74   2.0000      -6.703367      -182.4079
  75   2.0000      -6.702408      -182.3818
  76   2.0000      -6.700293      -182.3243
  77   2.0000      -6.697698      -182.2536
  78   2.0000      -6.697684      -182.2532
  79   2.0000      -6.696746      -182.2277
  80   2.0000      -6.696585      -182.2233
  81   2.0000      -6.694540      -182.1677
  82   2.0000      -6.694330      -182.1620
  83   2.0000      -6.694224      -182.1591
  84   2.0000      -6.693314      -182.1343
  85   2.0000      -6.690880      -182.0681
  86   2.0000      -1.651571       -44.9415
  87   2.0000      -1.649616       -44.8883
  88   2.0000      -1.635779       -44.5118
  89   2.0000      -1.633333       -44.4453
  90   2.0000      -1.422001       -38.6946
  91   2.0000      -1.419949       -38.6388
  92   2.0000      -1.399877       -38.0926
  93   2.0000      -1.398954       -38.0675
  94   2.0000      -1.333483       -36.2859
  95   2.0000      -1.333150       -36.2769
  96   2.0000      -1.248953       -33.9857
  97   2.0000      -1.246871       -33.9291
  98   2.0000      -1.227022       -33.3890
  99   2.0000      -1.226880       -33.3851
 100   2.0000      -1.224933       -33.3321
 101   2.0000      -1.222235       -33.2587
 102   2.0000      -1.213514       -33.0214
 103   2.0000      -1.194118       -32.4936
 104   2.0000      -1.193650       -32.4809
 105   2.0000      -1.179602       -32.0986
 106   2.0000      -1.166015       -31.7289
 107   2.0000      -1.164596       -31.6903
 108   2.0000      -1.125817       -30.6350
 109   2.0000      -1.107277       -30.1305
 110   2.0000      -1.099848       -29.9284
 111   2.0000      -1.093598       -29.7583
 112   2.0000      -1.081413       -29.4267
 113   2.0000      -1.079988       -29.3880
 114   2.0000      -1.070194       -29.1215
 115   2.0000      -1.067847       -29.0576
 116   2.0000      -1.061988       -28.8982
 117   2.0000      -1.055201       -28.7135
 118   2.0000      -1.038879       -28.2693
 119   2.0000      -1.036539       -28.2057
 120   2.0000      -1.027046       -27.9473
 121   2.0000      -1.026554       -27.9340
 122   2.0000      -1.013670       -27.5834
 123   2.0000      -1.000362       -27.2212
 124   2.0000      -0.989508       -26.9259
 125   2.0000      -0.984852       -26.7992
 126   2.0000      -0.964455       -26.2442
 127   2.0000      -0.952586       -25.9212
 128   2.0000      -0.941869       -25.6296
 129   2.0000      -0.937807       -25.5190
 130   2.0000      -0.934062       -25.4171
 131   2.0000      -0.910508       -24.7762
 132   2.0000      -0.893203       -24.3053
 133   2.0000      -0.891502       -24.2590
 134   2.0000      -0.882102       -24.0032
 135   2.0000      -0.873615       -23.7723
 136   2.0000      -0.866670       -23.5833
 137   2.0000      -0.862085       -23.4585
 138   2.0000      -0.857939       -23.3457
 139   2.0000      -0.849519       -23.1166
 140   2.0000      -0.830676       -22.6038
 141   2.0000      -0.825479       -22.4624
 142   2.0000      -0.816897       -22.2289
 143   2.0000      -0.811388       -22.0790
 144   2.0000      -0.803126       -21.8542
 145   2.0000      -0.800028       -21.7699
 146   2.0000      -0.792895       -21.5758
 147   2.0000      -0.786610       -21.4047
 148   2.0000      -0.784794       -21.3553
 149   2.0000      -0.784266       -21.3410
 150   2.0000      -0.778713       -21.1899
 151   2.0000      -0.773884       -21.0585
 152   2.0000      -0.763875       -20.7861
 153   2.0000      -0.754592       -20.5335
 154   2.0000      -0.751463       -20.4483
 155   2.0000      -0.746281       -20.3073
 156   2.0000      -0.744110       -20.2483
 157   2.0000      -0.741805       -20.1855
 158   2.0000      -0.734874       -19.9969
 159   2.0000      -0.724843       -19.7240
 160   2.0000      -0.724143       -19.7049
 161   2.0000      -0.721323       -19.6282
 162   2.0000      -0.718090       -19.5402
 163   2.0000      -0.715683       -19.4747
 164   2.0000      -0.715114       -19.4592
 165   2.0000      -0.708385       -19.2761
 166   2.0000      -0.703369       -19.1396
 167   2.0000      -0.698732       -19.0135
 168   2.0000      -0.694826       -18.9072
 169   2.0000      -0.693037       -18.8585
 170   2.0000      -0.687890       -18.7184
 171   2.0000      -0.684662       -18.6306
 172   2.0000      -0.675299       -18.3758
 173   2.0000      -0.671829       -18.2814
 174   2.0000      -0.665582       -18.1114
 175   2.0000      -0.663180       -18.0460
 176   2.0000      -0.662129       -18.0175
 177   2.0000      -0.660492       -17.9729
 178   2.0000      -0.658042       -17.9062
 179   2.0000      -0.656626       -17.8677
 180   2.0000      -0.650704       -17.7066
 181   2.0000      -0.644157       -17.5284
 182   2.0000      -0.641923       -17.4676
 183   2.0000      -0.635922       -17.3043
 184   2.0000      -0.630833       -17.1659
 185   2.0000      -0.625874       -17.0309
 186   2.0000      -0.624798       -17.0016
 187   2.0000      -0.622672       -16.9438
 188   2.0000      -0.621315       -16.9068
 189   2.0000      -0.618918       -16.8416
 190   2.0000      -0.618172       -16.8213
 191   2.0000      -0.614406       -16.7188
 192   2.0000      -0.607256       -16.5243
 193   2.0000      -0.604925       -16.4608
 194   2.0000      -0.601577       -16.3697
 195   2.0000      -0.593280       -16.1440
 196   2.0000      -0.589282       -16.0352
 197   2.0000      -0.584907       -15.9161
 198   2.0000      -0.584262       -15.8986
 199   2.0000      -0.582957       -15.8631
 200   2.0000      -0.582421       -15.8485
 201   2.0000      -0.579919       -15.7804
 202   2.0000      -0.577671       -15.7192
 203   2.0000      -0.576150       -15.6778
 204   2.0000      -0.574364       -15.6292
 205   2.0000      -0.573161       -15.5965
 206   2.0000      -0.571908       -15.5624
 207   2.0000      -0.569080       -15.4855
 208   2.0000      -0.566805       -15.4235
 209   2.0000      -0.564995       -15.3743
 210   2.0000      -0.562035       -15.2938
 211   2.0000      -0.561752       -15.2861
 212   2.0000      -0.558264       -15.1911
 213   2.0000      -0.554953       -15.1010
 214   2.0000      -0.548693       -14.9307
 215   2.0000      -0.547703       -14.9037
 216   2.0000      -0.547325       -14.8935
 217   2.0000      -0.541711       -14.7407
 218   2.0000      -0.534584       -14.5468
 219   2.0000      -0.532204       -14.4820
 220   2.0000      -0.528974       -14.3941
 221   2.0000      -0.525568       -14.3014
 222   2.0000      -0.524195       -14.2641
 223   2.0000      -0.518227       -14.1017
 224   2.0000      -0.511795       -13.9267
 225   2.0000      -0.509499       -13.8642
 226   2.0000      -0.504431       -13.7263
 227   2.0000      -0.503359       -13.6971
 228   2.0000      -0.500799       -13.6274
 229   2.0000      -0.499074       -13.5805
 230   2.0000      -0.498762       -13.5720
 231   2.0000      -0.497134       -13.5277
 232   2.0000      -0.490361       -13.3434
 233   2.0000      -0.486844       -13.2477
 234   2.0000      -0.482053       -13.1173
 235   2.0000      -0.478864       -13.0305
 236   2.0000      -0.478010       -13.0073
 237   2.0000      -0.476185       -12.9576
 238   2.0000      -0.470169       -12.7939
 239   2.0000      -0.468942       -12.7606
 240   2.0000      -0.453958       -12.3528
 241   2.0000      -0.449139       -12.2217
 242   2.0000      -0.443249       -12.0614
 243   2.0000      -0.422579       -11.4990
 244   2.0000      -0.410412       -11.1679
 245   2.0000      -0.407816       -11.0972
 246   2.0000      -0.392457       -10.6793
 247   2.0000      -0.390122       -10.6157
 248   2.0000      -0.381614       -10.3842
 249   2.0000      -0.368656       -10.0316
 250   2.0000      -0.358261        -9.7488
 251   2.0000      -0.355762        -9.6808
 252   2.0000      -0.351722        -9.5708
 253   2.0000      -0.334978        -9.1152
 254   2.0000      -0.306708        -8.3459
 255   2.0000      -0.302287        -8.2257
 256   2.0000      -0.263734        -7.1766
 257   0.0000      -0.036078        -0.9817
 258   0.0000      -0.020786        -0.5656
 259   0.0000       0.010626         0.2892
 260   0.0000       0.017431         0.4743
 261   0.0000       0.048917         1.3311

MULLIKEN ATOMIC CHARGES
-----------------------
   0 C :   -0.113720
   1 C :   -0.060318
   2 C :    0.258007
   3 C :   -0.107073
   4 C :   -0.044274
   5 C :    0.258177
   6 O :   -0.619878
   7 C :    0.221507
   8 O :   -0.609233
   9 C :    0.187881
  10 S :    0.224157
  11 C :   -0.147640
  12 C :    0.251777
  13 S :    0.212206
  14 C :   -0.146683
  15 C :    0.239169
  16 C :   -0.104136
  17 C :    0.232678
  18 N :   -0.587546
  19 S :    0.263286
  20 C :   -0.164769
  21 C :   -0.030178
  22 C :   -0.107029
  23 C :    0.200024
  24 N :   -0.585149
  25 S :    0.202400
  26 C :   -0.236971
  27 C :    0.041046
  28 C :    0.086854
  29 C :   -0.301693
  30 C :    0.212787
  31 C :   -0.336739
  32 C :    0.511407
  33 C :   -0.186008
  34 C :   -0.025988
  35 C :    0.243584
  36 C :    0.464036
  37 C :   -0.164397
  38 C :   -0.048262
  39 C :    0.236734
  40 C :   -0.036000
  41 C :    0.344952
  42 C :    0.342964
  43 C :   -0.055804
  44 C :   -0.031827
  45 C :    0.338649
  46 C :    0.345708
  47 C :   -0.063723
  48 F :   -0.303640
  49 F :   -0.302920
  50 O :   -0.380446
  51 C :   -0.350778
  52 C :    0.049064
  53 C :    0.044541
  54 C :    0.096241
  55 C :   -0.051636
  56 C :    0.127521
  57 C :   -0.053218
  58 C :   -0.104444
  59 C :   -0.067695
  60 O :   -0.353880
  61 C :   -0.378387
  62 F :   -0.301930
  63 F :   -0.304615
  64 N :   -0.086720
  65 N :   -0.099986
  66 C :    0.047256
  67 C :    0.052207
  68 N :   -0.087766
  69 N :   -0.063909
  70 H :    0.050419
  71 H :    0.057058
  72 H :    0.050308
  73 H :    0.055737
  74 H :    0.075560
  75 H :    0.082968
  76 H :    0.088305
  77 H :    0.095860
  78 H :    0.088560
  79 H :    0.106293
  80 H :    0.090032
  81 H :    0.103720
  82 H :    0.052876
  83 H :    0.101446
  84 H :    0.048734
  85 H :    0.051043
  86 H :    0.050983
  87 H :    0.064298
  88 H :    0.098685
  89 H :    0.030535
  90 H :    0.054028
  91 H :    0.039069
  92 H :    0.052695
  93 H :    0.053713
  94 H :    0.060000
  95 H :    0.058942
  96 H :    0.059842
  97 H :    0.048479
Sum of atomic charges:   -0.0000000

LOEWDIN ATOMIC CHARGES
----------------------
   0 C :   -0.148923
   1 C :   -0.072626
   2 C :    0.057334
   3 C :   -0.146497
   4 C :   -0.064445
   5 C :    0.053812
   6 O :   -0.210293
   7 C :    0.134753
   8 O :   -0.215634
   9 C :    0.132483
  10 S :    0.382498
  11 C :   -0.220061
  12 C :    0.040833
  13 S :    0.386852
  14 C :   -0.225369
  15 C :    0.040468
  16 C :   -0.177975
  17 C :   -0.017959
  18 N :   -0.054297
  19 S :    0.458000
  20 C :   -0.205492
  21 C :    0.013615
  22 C :   -0.177784
  23 C :   -0.005216
  24 N :   -0.042232
  25 S :    0.408221
  26 C :   -0.206924
  27 C :    0.018241
  28 C :    0.113862
  29 C :   -0.171461
  30 C :    0.117153
  31 C :   -0.162921
  32 C :    0.167497
  33 C :   -0.052424
  34 C :   -0.023655
  35 C :    0.128071
  36 C :    0.170007
  37 C :   -0.054763
  38 C :   -0.022143
  39 C :    0.115261
  40 C :    0.003521
  41 C :    0.120868
  42 C :    0.120132
  43 C :   -0.006889
  44 C :    0.004876
  45 C :    0.119818
  46 C :    0.121358
  47 C :   -0.012141
  48 F :   -0.102050
  49 F :   -0.102982
  50 O :   -0.247138
  51 C :   -0.181030
  52 C :    0.021524
  53 C :    0.018434
  54 C :    0.074430
  55 C :   -0.041627
  56 C :    0.079960
  57 C :   -0.039383
  58 C :   -0.053677
  59 C :   -0.049300
  60 O :   -0.232389
  61 C :   -0.183039
  62 F :   -0.101737
  63 F :   -0.103548
  64 N :   -0.100000
  65 N :   -0.107898
  66 C :    0.011668
  67 C :    0.015386
  68 N :   -0.100824
  69 N :   -0.086637
  70 H :    0.020036
  71 H :    0.003803
  72 H :    0.019361
  73 H :    0.010153
  74 H :    0.044935
  75 H :    0.037860
  76 H :    0.052209
  77 H :    0.057645
  78 H :    0.059312
  79 H :    0.057103
  80 H :    0.059648
  81 H :    0.056225
  82 H :    0.020293
  83 H :    0.029632
  84 H :    0.020782
  85 H :    0.027354
  86 H :    0.025245
  87 H :    0.022534
  88 H :    0.031823
  89 H :    0.014995
  90 H :    0.030252
  91 H :    0.019821
  92 H :    0.020897
  93 H :    0.031499
  94 H :    0.026323
  95 H :    0.025968
  96 H :    0.025082
  97 H :    0.029655

  Mayer bond orders larger than 0.100000
B(  0-C ,  1-C ) :   1.3262 B(  0-C ,  5-C ) :   1.4786 B(  0-C , 13-S ) :   1.0229
B(  1-C ,  2-C ) :   1.3283 B(  1-C , 15-C ) :   1.1586 B(  2-C ,  3-C ) :   1.5114
B(  2-C ,  8-O ) :   1.0383 B(  3-C ,  4-C ) :   1.3314 B(  3-C , 10-S ) :   1.0267
B(  4-C ,  5-C ) :   1.3645 B(  4-C , 12-C ) :   1.1530 B(  5-C ,  6-O ) :   1.0155
B(  6-O ,  7-C ) :   0.7960 B(  7-C , 58-C ) :   1.0391 B(  7-C , 70-H ) :   0.9815
B(  7-C , 71-H ) :   0.9774 B(  8-O ,  9-C ) :   0.7842 B(  9-C , 59-C ) :   1.0520
B(  9-C , 72-H ) :   0.9780 B(  9-C , 73-H ) :   0.9765 B( 10-S , 11-C ) :   0.9359
B( 11-C , 12-C ) :   1.5065 B( 11-C , 22-C ) :   1.5064 B( 12-C , 24-N ) :   1.1289
B( 13-S , 14-C ) :   0.9443 B( 14-C , 15-C ) :   1.5246 B( 14-C , 16-C ) :   1.4868
B( 15-C , 18-N ) :   1.1069 B( 16-C , 17-C ) :   1.3778 B( 16-C , 19-S ) :   1.0289
B( 17-C , 18-N ) :   1.0439 B( 17-C , 21-C ) :   1.3284 B( 18-N , 54-C ) :   0.8549
B( 19-S , 20-C ) :   1.0314 B( 20-C , 21-C ) :   1.4347 B( 20-C , 28-C ) :   1.3176
B( 21-C , 74-H ) :   1.0065 B( 22-C , 23-C ) :   1.3942 B( 22-C , 25-S ) :   1.0423
B( 23-C , 24-N ) :   1.0652 B( 23-C , 27-C ) :   1.3361 B( 24-N , 56-C ) :   0.8212
B( 25-S , 26-C ) :   1.0657 B( 26-C , 27-C ) :   1.4624 B( 26-C , 30-C ) :   1.2083
B( 27-C , 75-H ) :   0.9882 B( 28-C , 29-C ) :   1.5857 B( 28-C , 76-H ) :   0.9581
B( 29-C , 32-C ) :   0.9869 B( 29-C , 35-C ) :   1.1210 B( 30-C , 31-C ) :   1.6606
B( 30-C , 77-H ) :   0.9457 B( 31-C , 36-C ) :   1.0025 B( 31-C , 39-C ) :   1.0990
B( 32-C , 33-C ) :   0.9796 B( 32-C , 50-O ) :   2.0391 B( 33-C , 34-C ) :   1.3898
B( 33-C , 40-C ) :   1.3794 B( 34-C , 35-C ) :   1.0402 B( 34-C , 43-C ) :   1.3596
B( 35-C , 51-C ) :   1.6666 B( 36-C , 37-C ) :   0.9452 B( 36-C , 60-O ) :   2.0915
B( 37-C , 38-C ) :   1.3842 B( 37-C , 44-C ) :   1.3794 B( 38-C , 39-C ) :   1.0459
B( 38-C , 47-C ) :   1.3661 B( 39-C , 61-C ) :   1.6671 B( 40-C , 41-C ) :   1.3927
B( 40-C , 78-H ) :   1.0063 B( 41-C , 42-C ) :   1.3228 B( 41-C , 48-F ) :   0.9426
B( 42-C , 43-C ) :   1.4249 B( 42-C , 49-F ) :   0.9479 B( 43-C , 79-H ) :   0.9850
B( 44-C , 45-C ) :   1.3980 B( 44-C , 80-H ) :   1.0053 B( 45-C , 46-C ) :   1.3237
B( 45-C , 63-F ) :   0.9415 B( 46-C , 47-C ) :   1.4236 B( 46-C , 62-F ) :   0.9485
B( 47-C , 81-H ) :   0.9854 B( 51-C , 52-C ) :   1.0607 B( 51-C , 53-C ) :   1.0555
B( 52-C , 65-N ) :   2.9706 B( 53-C , 64-N ) :   2.9801 B( 54-C , 55-C ) :   1.0382
B( 54-C , 82-H ) :   0.9779 B( 54-C , 83-H ) :   0.9688 B( 55-C , 84-H ) :   0.9812
B( 55-C , 85-H ) :   0.9843 B( 55-C , 86-H ) :   0.9808 B( 56-C , 57-C ) :   1.0410
B( 56-C , 87-H ) :   0.9799 B( 56-C , 88-H ) :   0.9686 B( 57-C , 89-H ) :   0.9855
B( 57-C , 90-H ) :   0.9835 B( 57-C , 91-H ) :   0.9818 B( 58-C , 92-H ) :   0.9804
B( 58-C , 93-H ) :   0.9794 B( 58-C , 94-H ) :   0.9778 B( 59-C , 95-H ) :   0.9818
B( 59-C , 96-H ) :   0.9785 B( 59-C , 97-H ) :   0.9787 B( 61-C , 66-C ) :   1.0819
B( 61-C , 67-C ) :   1.0392 B( 66-C , 69-N ) :   2.9885 B( 67-C , 68-N ) :   2.9856

-----------------------------------------------------------------------------
         ABSORPTION SPECTRUM VIA TRANSITION ELECTRIC DIPOLE MOMENTS
-----------------------------------------------------------------------------
State   Energy    Wavelength  fosc         T2        TX        TY        TZ
        (cm-1)      (nm)                 (au**2)    (au)      (au)      (au)
-----------------------------------------------------------------------------
   1   21497.0    465.2   2.679517181  41.03500   5.43703  -3.34489   0.53423
   2   25837.9    387.0   0.653802190   8.33037  -1.38084   2.21277  -1.23585
   3   33752.9    296.3   0.305900395   2.98362   0.24711   0.72228  -1.54948

FINAL SINGLE POINT ENERGY     -4596.353503676925

DIPOLE MOMENT
-------------
                                X             Y             Z
Electronic contribution:      7.00241      15.45650     -27.76874
Nuclear contribution   :     -8.17161     -17.42274      28.10916
                        -----------------------------------------
Total Dipole Moment    :     -1.16920      -1.96623       0.34042
                        -----------------------------------------
Magnitude (a.u.)       :      2.31279
Magnitude (Debye)      :      5.87864

Rotational constants in cm-1:     0.002563     0.000238     0.000223
Rotational constants in MHz :    76.840507     7.135988     6.680129

                             ****ORCA TERMINATED NORMALLY****
TOTAL RUN TIME: 0 days 11 hours 43 minutes 20 seconds 987 msec
