                         Program Version 4.2.0 -  RELEASE  -
|  1> # ORCA input file
|  2> # M34.out
|  3> ! Engrad Keepdens
|  4> %maxcore 1000
|  5> %tddft
|  6>   nroots 3
|  7>   # nroots is the number of states to be computed
|  8>   Iroot 1
|  9>   end
| 10> * xyz 0 1
| 11>    C       -1.15780        -0.55646        -0.11151
| 12>    C       -1.80821        -0.44266         1.15485
| 13>    C       -1.20500        -1.02894         2.27491
| 14>    C       -0.07249        -1.79735         2.07557
| 15>    C        0.53508        -1.99503         0.80789
| 16>    C       -0.02989        -1.34638        -0.31365
| 17>    O        0.62345        -1.51828        -1.49175
| 18>    C       -0.05473        -1.50843        -2.74043
| 19>    O       -1.66550        -0.85581         3.55920
| 20>    C       -1.37197         0.42374         4.12335
| 21>    S        0.71106        -2.61245         3.40716
| 22>    C        1.88974        -3.21990         2.29994
| 23>    C        1.69137        -2.81936         0.95870
| 24>    S       -1.90390         0.46970        -1.34214
| 25>    C       -3.12877         0.94320        -0.22260
| 26>    C       -2.98595         0.34935         1.04371
| 27>    C       -4.27549         1.73147        -0.19789
| 28>    C       -4.82689         1.56260         1.09935
| 29>    N       -4.03664         0.72127         1.84711
| 30>    S       -5.19956         2.79381        -1.18290
| 31>    C       -6.34461         3.01432         0.14377
| 32>    C       -5.99159         2.28175         1.28438
| 33>    C        3.03787        -3.99947         2.34308
| 34>    C        3.52212        -4.05560         1.01290
| 35>    N        2.70373        -3.33250         0.18818
| 36>    S        4.04264        -4.86849         3.42716
| 37>    C        5.14511        -5.26820         2.10329
| 38>    C        4.70386        -4.77154         0.88163
| 39>    C       -7.49152         3.81634         0.12573
| 40>    C       -8.01374         4.61819        -0.86073
| 41>    C        6.26588        -6.05640         2.40591
| 42>    C        7.38682        -6.33704         1.66947
| 43>    C       -7.43945         4.82414        -2.19317
| 44>    C       -8.33119         5.78618        -2.87506
| 45>    C       -9.38537         6.13426        -2.01448
| 46>    C       -9.21944         5.41380        -0.75036
| 47>    C        8.18632        -7.53108         2.04163
| 48>    C        9.10545        -7.75539         0.90137
| 49>    C        8.95091        -6.71557        -0.03116
| 50>    C        7.98337        -5.74917         0.49668
| 51>    C       -8.21448         6.30867        -4.14733
| 52>    C       -9.18444         7.20634        -4.56379
| 53>    C      -10.23534         7.55936        -3.71722
| 54>    C      -10.35167         7.03272        -2.43906
| 55>    C        9.98921        -8.79586         0.69683
| 56>    C       10.72372        -8.79459        -0.47870
| 57>    C       10.56661        -7.77279        -1.41498
| 58>    C        9.68677        -6.72098        -1.20459
| 59>    F       -9.11239         7.73987        -5.78905
| 60>    F      -11.15752         8.42913        -4.14449
| 61>    O       -6.43753         4.32021        -2.66374
| 62>    C      -10.07432         5.49693         0.31817
| 63>    C       -9.94192         4.80386         1.53970
| 64>    C      -11.23423         6.30071         0.34268
| 65>    C       -4.52768         0.06536         3.03878
| 66>    C       -5.65061        -0.91439         2.70343
| 67>    C        2.96975        -3.20728        -1.22424
| 68>    C        2.37438        -4.37770        -2.00252
| 69>    C       -1.18480        -2.52490        -2.82217
| 70>    C        0.11429         0.65131         4.35870
| 71>    O        8.07835        -8.19825         3.04402
| 72>    C        7.88254        -4.44659         0.07501
| 73>    F       11.27723        -7.80483        -2.54823
| 74>    F       11.58980        -9.78602        -0.72042
| 75>    N      -12.18969         6.93042         0.43202
| 76>    N       -9.91349         4.27945         2.56168
| 77>    C        7.16823        -3.44579         0.76159
| 78>    C        8.53814        -3.92992        -1.06062
| 79>    N        9.00951        -3.45695        -1.99457
| 80>    N        6.62213        -2.58468         1.28927
| 81>    H        0.73362        -1.76619        -3.45334
| 82>    H       -0.41906        -0.50549        -2.98379
| 83>    H       -1.91091         0.42805         5.07355
| 84>    H       -1.77486         1.21632         3.47833
| 85>    H       -6.57968         2.30916         2.18426
| 86>    H        5.20406        -4.97710        -0.04717
| 87>    H       -8.03957         3.78592         1.05967
| 88>    H        6.21761        -6.59071         3.35068
| 89>    H       -7.39982         6.03198        -4.79714
| 90>    H      -11.18255         7.34014        -1.82613
| 91>    H       10.10885        -9.58438         1.42244
| 92>    H        9.60004        -5.95560        -1.95846
| 93>    H       -4.89172         0.83489         3.72583
| 94>    H       -3.70760        -0.47681         3.50587
| 95>    H       -6.49046        -0.40148         2.24096
| 96>    H       -5.99475        -1.39872         3.61249
| 97>    H       -5.29043        -1.67868         2.01845
| 98>    H        4.05544        -3.18154        -1.35183
| 99>    H        2.55360        -2.26598        -1.57576
|100>    H        2.78678        -5.32144        -1.65207
|101>    H        2.59517        -4.27175        -3.06077
|102>    H        1.29604        -4.40310        -1.87001
|103>    H       -0.81680        -3.52205        -2.59199
|104>    H       -1.59249        -2.52495        -3.82843
|105>    H       -1.98254        -2.28024        -2.12557
|106>    H        0.65743         0.66173         3.41577
|107>    H        0.52027        -0.13628         4.98800
|108>    H        0.25590         1.60845         4.85266
|109> *
|110>
|111>                          ****END OF INPUT****

CARTESIAN COORDINATES (ANGSTROEM)
---------------------------------
  C     -1.157800   -0.556460   -0.111510
  C     -1.808210   -0.442660    1.154850
  C     -1.205000   -1.028940    2.274910
  C     -0.072490   -1.797350    2.075570
  C      0.535080   -1.995030    0.807890
  C     -0.029890   -1.346380   -0.313650
  O      0.623450   -1.518280   -1.491750
  C     -0.054730   -1.508430   -2.740430
  O     -1.665500   -0.855810    3.559200
  C     -1.371970    0.423740    4.123350
  S      0.711060   -2.612450    3.407160
  C      1.889740   -3.219900    2.299940
  C      1.691370   -2.819360    0.958700
  S     -1.903900    0.469700   -1.342140
  C     -3.128770    0.943200   -0.222600
  C     -2.985950    0.349350    1.043710
  C     -4.275490    1.731470   -0.197890
  C     -4.826890    1.562600    1.099350
  N     -4.036640    0.721270    1.847110
  S     -5.199560    2.793810   -1.182900
  C     -6.344610    3.014320    0.143770
  C     -5.991590    2.281750    1.284380
  C      3.037870   -3.999470    2.343080
  C      3.522120   -4.055600    1.012900
  N      2.703730   -3.332500    0.188180
  S      4.042640   -4.868490    3.427160
  C      5.145110   -5.268200    2.103290
  C      4.703860   -4.771540    0.881630
  C     -7.491520    3.816340    0.125730
  C     -8.013740    4.618190   -0.860730
  C      6.265880   -6.056400    2.405910
  C      7.386820   -6.337040    1.669470
  C     -7.439450    4.824140   -2.193170
  C     -8.331190    5.786180   -2.875060
  C     -9.385370    6.134260   -2.014480
  C     -9.219440    5.413800   -0.750360
  C      8.186320   -7.531080    2.041630
  C      9.105450   -7.755390    0.901370
  C      8.950910   -6.715570   -0.031160
  C      7.983370   -5.749170    0.496680
  C     -8.214480    6.308670   -4.147330
  C     -9.184440    7.206340   -4.563790
  C    -10.235340    7.559360   -3.717220
  C    -10.351670    7.032720   -2.439060
  C      9.989210   -8.795860    0.696830
  C     10.723720   -8.794590   -0.478700
  C     10.566610   -7.772790   -1.414980
  C      9.686770   -6.720980   -1.204590
  F     -9.112390    7.739870   -5.789050
  F    -11.157520    8.429130   -4.144490
  O     -6.437530    4.320210   -2.663740
  C    -10.074320    5.496930    0.318170
  C     -9.941920    4.803860    1.539700
  C    -11.234230    6.300710    0.342680
  C     -4.527680    0.065360    3.038780
  C     -5.650610   -0.914390    2.703430
  C      2.969750   -3.207280   -1.224240
  C      2.374380   -4.377700   -2.002520
  C     -1.184800   -2.524900   -2.822170
  C      0.114290    0.651310    4.358700
  O      8.078350   -8.198250    3.044020
  C      7.882540   -4.446590    0.075010
  F     11.277230   -7.804830   -2.548230
  F     11.589800   -9.786020   -0.720420
  N    -12.189690    6.930420    0.432020
  N     -9.913490    4.279450    2.561680
  C      7.168230   -3.445790    0.761590
  C      8.538140   -3.929920   -1.060620
  N      9.009510   -3.456950   -1.994570
  N      6.622130   -2.584680    1.289270
  H      0.733620   -1.766190   -3.453340
  H     -0.419060   -0.505490   -2.983790
  H     -1.910910    0.428050    5.073550
  H     -1.774860    1.216320    3.478330
  H     -6.579680    2.309160    2.184260
  H      5.204060   -4.977100   -0.047170
  H     -8.039570    3.785920    1.059670
  H      6.217610   -6.590710    3.350680
  H     -7.399820    6.031980   -4.797140
  H    -11.182550    7.340140   -1.826130
  H     10.108850   -9.584380    1.422440
  H      9.600040   -5.955600   -1.958460
  H     -4.891720    0.834890    3.725830
  H     -3.707600   -0.476810    3.505870
  H     -6.490460   -0.401480    2.240960
  H     -5.994750   -1.398720    3.612490
  H     -5.290430   -1.678680    2.018450
  H      4.055440   -3.181540   -1.351830
  H      2.553600   -2.265980   -1.575760
  H      2.786780   -5.321440   -1.652070
  H      2.595170   -4.271750   -3.060770
  H      1.296040   -4.403100   -1.870010
  H     -0.816800   -3.522050   -2.591990
  H     -1.592490   -2.524950   -3.828430
  H     -1.982540   -2.280240   -2.125570
  H      0.657430    0.661730    3.415770
  H      0.520270   -0.136280    4.988000
  H      0.255900    1.608450    4.852660

 Total Charge           Charge          ....    0
 Multiplicity           Mult            ....    1
 Number of Electrons    NEL             ....  514
 Basis Dimension        Dim             .... 1136

ORBITAL ENERGIES
----------------

  NO   OCC          E(Eh)            E(eV)
   0   2.0000     -91.976233     -2502.8005
   1   2.0000     -91.973866     -2502.7361
   2   2.0000     -91.973683     -2502.7311
   3   2.0000     -91.968212     -2502.5823
   4   2.0000     -26.335956      -716.6378
   5   2.0000     -26.335282      -716.6194
   6   2.0000     -26.334610      -716.6012
   7   2.0000     -26.333662      -716.5754
   8   2.0000     -20.614121      -560.9387
   9   2.0000     -20.606136      -560.7215
  10   2.0000     -20.571839      -559.7882
  11   2.0000     -20.565593      -559.6182
  12   2.0000     -15.646636      -425.7666
  13   2.0000     -15.644400      -425.7058
  14   2.0000     -15.595432      -424.3733
  15   2.0000     -15.593365      -424.3170
  16   2.0000     -15.592038      -424.2809
  17   2.0000     -15.589048      -424.1996
  18   2.0000     -11.378668      -309.6293
  19   2.0000     -11.378498      -309.6247
  20   2.0000     -11.377257      -309.5909
  21   2.0000     -11.377155      -309.5881
  22   2.0000     -11.369530      -309.3806
  23   2.0000     -11.364078      -309.2323
  24   2.0000     -11.352081      -308.9058
  25   2.0000     -11.345553      -308.7282
  26   2.0000     -11.344807      -308.7079
  27   2.0000     -11.336715      -308.4877
  28   2.0000     -11.323771      -308.1355
  29   2.0000     -11.323423      -308.1260
  30   2.0000     -11.323154      -308.1187
  31   2.0000     -11.321111      -308.0631
  32   2.0000     -11.320918      -308.0578
  33   2.0000     -11.320094      -308.0354
  34   2.0000     -11.319794      -308.0272
  35   2.0000     -11.314881      -307.8936
  36   2.0000     -11.310309      -307.7692
  37   2.0000     -11.306881      -307.6759
  38   2.0000     -11.304925      -307.6226
  39   2.0000     -11.304189      -307.6026
  40   2.0000     -11.304181      -307.6024
  41   2.0000     -11.304101      -307.6002
  42   2.0000     -11.302091      -307.5455
  43   2.0000     -11.301784      -307.5372
  44   2.0000     -11.300411      -307.4998
  45   2.0000     -11.300329      -307.4976
  46   2.0000     -11.299883      -307.4854
  47   2.0000     -11.299695      -307.4803
  48   2.0000     -11.298879      -307.4581
  49   2.0000     -11.298322      -307.4430
  50   2.0000     -11.298006      -307.4344
  51   2.0000     -11.296764      -307.4006
  52   2.0000     -11.296311      -307.3882
  53   2.0000     -11.296213      -307.3856
  54   2.0000     -11.296046      -307.3810
  55   2.0000     -11.295899      -307.3770
  56   2.0000     -11.295687      -307.3713
  57   2.0000     -11.295685      -307.3712
  58   2.0000     -11.293668      -307.3163
  59   2.0000     -11.293282      -307.3058
  60   2.0000     -11.289527      -307.2037
  61   2.0000     -11.289407      -307.2004
  62   2.0000     -11.288992      -307.1891
  63   2.0000     -11.284730      -307.0731
  64   2.0000     -11.275052      -306.8098
  65   2.0000     -11.273468      -306.7667
  66   2.0000     -11.248987      -306.1005
  67   2.0000     -11.248797      -306.0953
  68   2.0000     -11.248354      -306.0833
  69   2.0000     -11.241250      -305.8900
  70   2.0000      -9.011367      -245.2117
  71   2.0000      -9.009010      -245.1476
  72   2.0000      -9.007305      -245.1012
  73   2.0000      -9.003517      -244.9982
  74   2.0000      -6.698945      -182.2876
  75   2.0000      -6.697953      -182.2606
  76   2.0000      -6.696761      -182.2281
  77   2.0000      -6.695803      -182.2021
  78   2.0000      -6.695777      -182.2014
  79   2.0000      -6.694419      -182.1644
  80   2.0000      -6.693261      -182.1329
  81   2.0000      -6.693175      -182.1306
  82   2.0000      -6.691164      -182.0758
  83   2.0000      -6.691054      -182.0728
  84   2.0000      -6.690226      -182.0503
  85   2.0000      -6.687784      -181.9838
  86   2.0000      -1.645099       -44.7654
  87   2.0000      -1.645070       -44.7646
  88   2.0000      -1.630226       -44.3607
  89   2.0000      -1.630093       -44.3571
  90   2.0000      -1.436259       -39.0826
  91   2.0000      -1.424649       -38.7667
  92   2.0000      -1.406220       -38.2652
  93   2.0000      -1.398799       -38.0632
  94   2.0000      -1.348134       -36.6846
  95   2.0000      -1.345095       -36.6019
  96   2.0000      -1.255357       -34.1600
  97   2.0000      -1.255278       -34.1579
  98   2.0000      -1.234689       -33.5976
  99   2.0000      -1.232936       -33.5499
 100   2.0000      -1.229417       -33.4541
 101   2.0000      -1.227960       -33.4145
 102   2.0000      -1.222205       -33.2579
 103   2.0000      -1.201283       -32.6886
 104   2.0000      -1.199614       -32.6432
 105   2.0000      -1.188298       -32.3352
 106   2.0000      -1.172175       -31.8965
 107   2.0000      -1.171115       -31.8677
 108   2.0000      -1.133264       -30.8377
 109   2.0000      -1.113285       -30.2940
 110   2.0000      -1.105891       -30.0928
 111   2.0000      -1.100081       -29.9347
 112   2.0000      -1.088454       -29.6183
 113   2.0000      -1.085332       -29.5334
 114   2.0000      -1.073978       -29.2244
 115   2.0000      -1.073751       -29.2182
 116   2.0000      -1.069540       -29.1037
 117   2.0000      -1.062517       -28.9126
 118   2.0000      -1.042151       -28.3584
 119   2.0000      -1.040787       -28.3213
 120   2.0000      -1.031234       -28.0613
 121   2.0000      -1.029433       -28.0123
 122   2.0000      -1.018433       -27.7130
 123   2.0000      -1.005075       -27.3495
 124   2.0000      -0.992873       -27.0175
 125   2.0000      -0.989415       -26.9234
 126   2.0000      -0.968479       -26.3537
 127   2.0000      -0.956911       -26.0389
 128   2.0000      -0.946840       -25.7648
 129   2.0000      -0.944600       -25.7039
 130   2.0000      -0.937636       -25.5144
 131   2.0000      -0.914724       -24.8909
 132   2.0000      -0.902971       -24.5711
 133   2.0000      -0.893761       -24.3205
 134   2.0000      -0.888032       -24.1646
 135   2.0000      -0.880023       -23.9466
 136   2.0000      -0.870951       -23.6998
 137   2.0000      -0.865873       -23.5616
 138   2.0000      -0.862295       -23.4642
 139   2.0000      -0.853173       -23.2160
 140   2.0000      -0.833134       -22.6707
 141   2.0000      -0.829277       -22.5658
 142   2.0000      -0.821444       -22.3526
 143   2.0000      -0.813264       -22.1300
 144   2.0000      -0.807712       -21.9790
 145   2.0000      -0.803357       -21.8604
 146   2.0000      -0.796500       -21.6739
 147   2.0000      -0.787252       -21.4222
 148   2.0000      -0.786567       -21.4036
 149   2.0000      -0.784139       -21.3375
 150   2.0000      -0.778606       -21.1869
 151   2.0000      -0.776642       -21.1335
 152   2.0000      -0.767894       -20.8954
 153   2.0000      -0.757226       -20.6052
 154   2.0000      -0.750945       -20.4343
 155   2.0000      -0.743676       -20.2365
 156   2.0000      -0.742285       -20.1986
 157   2.0000      -0.742183       -20.1958
 158   2.0000      -0.740627       -20.1535
 159   2.0000      -0.730808       -19.8863
 160   2.0000      -0.729085       -19.8394
 161   2.0000      -0.727483       -19.7958
 162   2.0000      -0.718517       -19.5519
 163   2.0000      -0.715170       -19.4608
 164   2.0000      -0.714237       -19.4354
 165   2.0000      -0.714032       -19.4298
 166   2.0000      -0.709061       -19.2945
 167   2.0000      -0.705329       -19.1930
 168   2.0000      -0.697743       -18.9865
 169   2.0000      -0.696137       -18.9428
 170   2.0000      -0.689605       -18.7651
 171   2.0000      -0.684929       -18.6379
 172   2.0000      -0.679497       -18.4900
 173   2.0000      -0.674902       -18.3650
 174   2.0000      -0.669830       -18.2270
 175   2.0000      -0.668347       -18.1867
 176   2.0000      -0.667065       -18.1518
 177   2.0000      -0.666536       -18.1374
 178   2.0000      -0.660638       -17.9769
 179   2.0000      -0.658950       -17.9309
 180   2.0000      -0.654174       -17.8010
 181   2.0000      -0.653593       -17.7852
 182   2.0000      -0.649872       -17.6839
 183   2.0000      -0.640356       -17.4250
 184   2.0000      -0.633684       -17.2434
 185   2.0000      -0.629308       -17.1244
 186   2.0000      -0.628810       -17.1108
 187   2.0000      -0.627365       -17.0715
 188   2.0000      -0.626102       -17.0371
 189   2.0000      -0.622406       -16.9365
 190   2.0000      -0.620990       -16.8980
 191   2.0000      -0.618744       -16.8369
 192   2.0000      -0.610859       -16.6223
 193   2.0000      -0.607554       -16.5324
 194   2.0000      -0.603375       -16.4187
 195   2.0000      -0.596464       -16.2306
 196   2.0000      -0.591552       -16.0970
 197   2.0000      -0.588526       -16.0146
 198   2.0000      -0.586577       -15.9616
 199   2.0000      -0.584403       -15.9024
 200   2.0000      -0.581699       -15.8288
 201   2.0000      -0.580933       -15.8080
 202   2.0000      -0.579354       -15.7650
 203   2.0000      -0.577427       -15.7126
 204   2.0000      -0.576560       -15.6890
 205   2.0000      -0.576130       -15.6773
 206   2.0000      -0.573484       -15.6053
 207   2.0000      -0.572408       -15.5760
 208   2.0000      -0.569853       -15.5065
 209   2.0000      -0.566305       -15.4099
 210   2.0000      -0.564784       -15.3685
 211   2.0000      -0.562653       -15.3106
 212   2.0000      -0.561715       -15.2851
 213   2.0000      -0.559290       -15.2190
 214   2.0000      -0.553387       -15.0584
 215   2.0000      -0.552765       -15.0415
 216   2.0000      -0.548157       -14.9161
 217   2.0000      -0.543634       -14.7930
 218   2.0000      -0.538432       -14.6515
 219   2.0000      -0.535916       -14.5830
 220   2.0000      -0.532749       -14.4968
 221   2.0000      -0.528809       -14.3896
 222   2.0000      -0.525297       -14.2941
 223   2.0000      -0.523904       -14.2561
 224   2.0000      -0.518726       -14.1152
 225   2.0000      -0.515059       -14.0155
 226   2.0000      -0.510277       -13.8853
 227   2.0000      -0.505382       -13.7521
 228   2.0000      -0.502129       -13.6636
 229   2.0000      -0.501202       -13.6384
 230   2.0000      -0.500427       -13.6173
 231   2.0000      -0.497586       -13.5400
 232   2.0000      -0.492788       -13.4094
 233   2.0000      -0.489938       -13.3319
 234   2.0000      -0.484425       -13.1819
 235   2.0000      -0.480675       -13.0798
 236   2.0000      -0.478503       -13.0207
 237   2.0000      -0.477970       -13.0062
 238   2.0000      -0.472784       -12.8651
 239   2.0000      -0.470712       -12.8087
 240   2.0000      -0.454284       -12.3617
 241   2.0000      -0.448584       -12.2066
 242   2.0000      -0.438055       -11.9201
 243   2.0000      -0.424548       -11.5525
 244   2.0000      -0.410701       -11.1757
 245   2.0000      -0.405856       -11.0439
 246   2.0000      -0.394190       -10.7265
 247   2.0000      -0.392475       -10.6798
 248   2.0000      -0.383176       -10.4267
 249   2.0000      -0.370058       -10.0698
 250   2.0000      -0.358778        -9.7628
 251   2.0000      -0.355323        -9.6688
 252   2.0000      -0.349919        -9.5218
 253   2.0000      -0.330840        -9.0026
 254   2.0000      -0.304328        -8.2812
 255   2.0000      -0.299726        -8.1560
 256   2.0000      -0.259517        -7.0618
 257   0.0000      -0.034693        -0.9440
 258   0.0000      -0.017826        -0.4851
 259   0.0000       0.011718         0.3189
 260   0.0000       0.018517         0.5039
 261   0.0000       0.051506         1.4015

MULLIKEN ATOMIC CHARGES
-----------------------
   0 C :   -0.138279
   1 C :   -0.038759
   2 C :    0.225288
   3 C :   -0.084879
   4 C :   -0.084613
   5 C :    0.333365
   6 O :   -0.610158
   7 C :    0.199107
   8 O :   -0.611016
   9 C :    0.193369
  10 S :    0.218407
  11 C :   -0.157638
  12 C :    0.264249
  13 S :    0.155790
  14 C :   -0.145824
  15 C :    0.245889
  16 C :   -0.080672
  17 C :    0.233889
  18 N :   -0.567432
  19 S :    0.256355
  20 C :   -0.146500
  21 C :   -0.039276
  22 C :   -0.098349
  23 C :    0.204807
  24 N :   -0.566434
  25 S :    0.193716
  26 C :   -0.228400
  27 C :    0.034817
  28 C :    0.085872
  29 C :   -0.318550
  30 C :    0.217782
  31 C :   -0.340161
  32 C :    0.531261
  33 C :   -0.175744
  34 C :   -0.029320
  35 C :    0.267304
  36 C :    0.467802
  37 C :   -0.156973
  38 C :   -0.051420
  39 C :    0.248741
  40 C :   -0.031366
  41 C :    0.346099
  42 C :    0.353941
  43 C :   -0.052361
  44 C :   -0.028480
  45 C :    0.342499
  46 C :    0.352619
  47 C :   -0.057616
  48 F :   -0.311957
  49 F :   -0.309144
  50 O :   -0.391371
  51 C :   -0.383174
  52 C :    0.037827
  53 C :    0.030273
  54 C :    0.089981
  55 C :   -0.024830
  56 C :    0.140388
  57 C :   -0.034335
  58 C :   -0.070986
  59 C :   -0.057829
  60 O :   -0.352378
  61 C :   -0.385906
  62 F :   -0.310134
  63 F :   -0.312419
  64 N :   -0.065551
  65 N :   -0.080088
  66 C :    0.027846
  67 C :    0.040781
  68 N :   -0.066575
  69 N :   -0.045735
  70 H :    0.044157
  71 H :    0.067871
  72 H :    0.045710
  73 H :    0.048002
  74 H :    0.062101
  75 H :    0.064997
  76 H :    0.082608
  77 H :    0.085502
  78 H :    0.078117
  79 H :    0.096683
  80 H :    0.079705
  81 H :    0.092418
  82 H :    0.047347
  83 H :    0.110887
  84 H :    0.040625
  85 H :    0.046181
  86 H :    0.043953
  87 H :    0.049815
  88 H :    0.090173
  89 H :    0.034712
  90 H :    0.040308
  91 H :    0.038337
  92 H :    0.041249
  93 H :    0.050130
  94 H :    0.061781
  95 H :    0.057020
  96 H :    0.058248
  97 H :    0.043934
Sum of atomic charges:   -0.0000000

LOEWDIN ATOMIC CHARGES
----------------------
   0 C :   -0.169103
   1 C :   -0.065871
   2 C :    0.046023
   3 C :   -0.141727
   4 C :   -0.071455
   5 C :    0.077389
   6 O :   -0.183454
   7 C :    0.121066
   8 O :   -0.208334
   9 C :    0.127518
  10 S :    0.401476
  11 C :   -0.229307
  12 C :    0.043958
  13 S :    0.383202
  14 C :   -0.231108
  15 C :    0.038872
  16 C :   -0.181551
  17 C :   -0.020998
  18 N :   -0.027597
  19 S :    0.470792
  20 C :   -0.205536
  21 C :    0.012445
  22 C :   -0.182940
  23 C :   -0.007508
  24 N :   -0.011511
  25 S :    0.412955
  26 C :   -0.208265
  27 C :    0.021945
  28 C :    0.114879
  29 C :   -0.174791
  30 C :    0.114351
  31 C :   -0.164604
  32 C :    0.167171
  33 C :   -0.050931
  34 C :   -0.023234
  35 C :    0.122181
  36 C :    0.164489
  37 C :   -0.053926
  38 C :   -0.021218
  39 C :    0.109272
  40 C :    0.009969
  41 C :    0.123469
  42 C :    0.124273
  43 C :   -0.001196
  44 C :    0.011678
  45 C :    0.121172
  46 C :    0.125181
  47 C :   -0.007328
  48 F :   -0.110135
  49 F :   -0.108644
  50 O :   -0.249712
  51 C :   -0.180446
  52 C :    0.014952
  53 C :    0.011686
  54 C :    0.070407
  55 C :   -0.034094
  56 C :    0.076996
  57 C :   -0.036338
  58 C :   -0.047451
  59 C :   -0.046442
  60 O :   -0.231273
  61 C :   -0.181340
  62 F :   -0.109306
  63 F :   -0.110690
  64 N :   -0.093686
  65 N :   -0.100894
  66 C :    0.008810
  67 C :    0.009001
  68 N :   -0.094586
  69 N :   -0.079944
  70 H :    0.019517
  71 H :   -0.000475
  72 H :    0.017478
  73 H :    0.006759
  74 H :    0.040561
  75 H :    0.035242
  76 H :    0.050943
  77 H :    0.053083
  78 H :    0.055731
  79 H :    0.054871
  80 H :    0.056224
  81 H :    0.053545
  82 H :    0.017432
  83 H :    0.030684
  84 H :    0.016932
  85 H :    0.025032
  86 H :    0.023205
  87 H :    0.019727
  88 H :    0.028060
  89 H :    0.017263
  90 H :    0.021458
  91 H :    0.017534
  92 H :    0.020127
  93 H :    0.030021
  94 H :    0.019897
  95 H :    0.023484
  96 H :    0.019934
  97 H :    0.026629

  Mayer bond orders larger than 0.100000
B(  0-C ,  1-C ) :   1.3110 B(  0-C ,  5-C ) :   1.4927 B(  0-C , 13-S ) :   0.9922
B(  1-C ,  2-C ) :   1.3500 B(  1-C , 15-C ) :   1.1609 B(  2-C ,  3-C ) :   1.4805
B(  2-C ,  8-O ) :   1.0299 B(  3-C ,  4-C ) :   1.3688 B(  3-C , 10-S ) :   1.0395
B(  4-C ,  5-C ) :   1.3518 B(  4-C , 12-C ) :   1.1537 B(  5-C ,  6-O ) :   1.0216
B(  6-O ,  7-C ) :   0.8062 B(  7-C , 58-C ) :   1.0442 B(  7-C , 70-H ) :   0.9790
B(  7-C , 71-H ) :   0.9765 B(  8-O ,  9-C ) :   0.7955 B(  9-C , 59-C ) :   1.0537
B(  9-C , 72-H ) :   0.9788 B(  9-C , 73-H ) :   0.9770 B( 10-S , 11-C ) :   0.9311
B( 11-C , 12-C ) :   1.4823 B( 11-C , 22-C ) :   1.5498 B( 12-C , 24-N ) :   1.1445
B( 13-S , 14-C ) :   0.9469 B( 14-C , 15-C ) :   1.4928 B( 14-C , 16-C ) :   1.5180
B( 15-C , 18-N ) :   1.1336 B( 16-C , 17-C ) :   1.3536 B( 16-C , 19-S ) :   1.0182
B( 17-C , 18-N ) :   1.0595 B( 17-C , 21-C ) :   1.3329 B( 18-N , 54-C ) :   0.8460
B( 19-S , 20-C ) :   1.0241 B( 20-C , 21-C ) :   1.4196 B( 20-C , 28-C ) :   1.3374
B( 21-C , 74-H ) :   1.0156 B( 22-C , 23-C ) :   1.3759 B( 22-C , 25-S ) :   1.0356
B( 23-C , 24-N ) :   1.0808 B( 23-C , 27-C ) :   1.3343 B( 24-N , 56-C ) :   0.8448
B( 25-S , 26-C ) :   1.0623 B( 26-C , 27-C ) :   1.4502 B( 26-C , 30-C ) :   1.2212
B( 27-C , 75-H ) :   0.9956 B( 28-C , 29-C ) :   1.5565 B( 28-C , 76-H ) :   0.9600
B( 29-C , 32-C ) :   0.9951 B( 29-C , 35-C ) :   1.1285 B( 30-C , 31-C ) :   1.6463
B( 30-C , 77-H ) :   0.9465 B( 31-C , 36-C ) :   1.0083 B( 31-C , 39-C ) :   1.1029
B( 32-C , 33-C ) :   0.9841 B( 32-C , 50-O ) :   2.0058 B( 33-C , 34-C ) :   1.3707
B( 33-C , 40-C ) :   1.3912 B( 34-C , 35-C ) :   1.0396 B( 34-C , 43-C ) :   1.3761
B( 35-C , 51-C ) :   1.6600 B( 36-C , 37-C ) :   0.9452 B( 36-C , 60-O ) :   2.0987
B( 37-C , 38-C ) :   1.3673 B( 37-C , 44-C ) :   1.3911 B( 38-C , 39-C ) :   1.0426
B( 38-C , 47-C ) :   1.3829 B( 39-C , 61-C ) :   1.6663 B( 40-C , 41-C ) :   1.3766
B( 40-C , 78-H ) :   1.0139 B( 41-C , 42-C ) :   1.3403 B( 41-C , 48-F ) :   0.9351
B( 42-C , 43-C ) :   1.4021 B( 42-C , 49-F ) :   0.9442 B( 43-C , 79-H ) :   0.9902
B( 44-C , 45-C ) :   1.3795 B( 44-C , 80-H ) :   1.0133 B( 45-C , 46-C ) :   1.3413
B( 45-C , 63-F ) :   0.9349 B( 46-C , 47-C ) :   1.4021 B( 46-C , 62-F ) :   0.9417
B( 47-C , 81-H ) :   0.9925 B( 51-C , 52-C ) :   1.0716 B( 51-C , 53-C ) :   1.0660
B( 52-C , 65-N ) :   2.9687 B( 53-C , 64-N ) :   2.9842 B( 54-C , 55-C ) :   1.0462
B( 54-C , 82-H ) :   0.9766 B( 54-C , 83-H ) :   0.9638 B( 55-C , 84-H ) :   0.9818
B( 55-C , 85-H ) :   0.9850 B( 55-C , 86-H ) :   0.9815 B( 56-C , 57-C ) :   1.0409
B( 56-C , 87-H ) :   0.9797 B( 56-C , 88-H ) :   0.9692 B( 57-C , 89-H ) :   0.9814
B( 57-C , 90-H ) :   0.9861 B( 57-C , 91-H ) :   0.9806 B( 58-C , 92-H ) :   0.9802
B( 58-C , 93-H ) :   0.9796 B( 58-C , 94-H ) :   0.9784 B( 59-C , 95-H ) :   0.9823
B( 59-C , 96-H ) :   0.9778 B( 59-C , 97-H ) :   0.9791 B( 61-C , 66-C ) :   1.0863
B( 61-C , 67-C ) :   1.0510 B( 66-C , 69-N ) :   3.0010 B( 67-C , 68-N ) :   2.9948

-----------------------------------------------------------------------------
         ABSORPTION SPECTRUM VIA TRANSITION ELECTRIC DIPOLE MOMENTS
-----------------------------------------------------------------------------
State   Energy    Wavelength  fosc         T2        TX        TY        TZ
        (cm-1)      (nm)                 (au**2)    (au)      (au)      (au)
-----------------------------------------------------------------------------
   1   21337.1    468.7   2.933430721  45.26024   5.72267  -3.47722   0.64821
   2   25882.1    386.4   0.476270048   6.05800   1.18805  -1.87648   1.06082
   3   33471.7    298.8   0.315783730   3.10590   0.39068   0.47855  -1.65053

FINAL SINGLE POINT ENERGY     -4596.349656429572

DIPOLE MOMENT
-------------
                                X             Y             Z
Electronic contribution:     11.58651      14.69342     -21.27475
Nuclear contribution   :    -12.40805     -16.26638      21.19419
                        -----------------------------------------
Total Dipole Moment    :     -0.82154      -1.57297      -0.08056
                        -----------------------------------------
Magnitude (a.u.)       :      1.77641
Magnitude (Debye)      :      4.51528

Rotational constants in cm-1:     0.002794     0.000238     0.000224
Rotational constants in MHz :    83.755002     7.124170     6.704385

                             ****ORCA TERMINATED NORMALLY****
TOTAL RUN TIME: 0 days 13 hours 46 minutes 14 seconds 209 msec
