                         Program Version 4.2.0 -  RELEASE  -
|  1> # ORCA input file
|  2> # M8.out: Geometry 83
|  3> ! Engrad Keepdens
|  4> %maxcore 1000
|  5> %tddft
|  6>   nroots 3
|  7>   # nroots is the number of states to be computed
|  8>   Iroot 1
|  9>   end
| 10> * xyz 0 1
| 11>    C       -0.33965         0.26688        -0.38377
| 12>    C       -0.85681         0.57339         0.92275
| 13>    C       -0.15402         0.16596         2.08311
| 14>    C        0.99235        -0.59849         1.85691
| 15>    C        1.45866        -0.94501         0.54497
| 16>    C        0.78994        -0.50752        -0.61212
| 17>    O        1.26288        -0.87204        -1.82760
| 18>    C        0.34336        -1.37114        -2.82090
| 19>    O       -0.61279         0.45189         3.33344
| 20>    C       -0.22693         1.73078         3.87099
| 21>    O        1.76666        -1.18292         2.83688
| 22>    C        2.70395        -1.93069         2.17409
| 23>    C        2.57406        -1.80181         0.78055
| 24>    O       -1.14410         0.75037        -1.38965
| 25>    C       -2.20204         1.31871        -0.75463
| 26>    C       -2.10222         1.24243         0.64186
| 27>    C       -3.39746         1.94741        -1.09332
| 28>    C       -4.04490         2.22083         0.15361
| 29>    N       -3.23481         1.80266         1.20951
| 30>    S       -4.31090         2.49986        -2.43523
| 31>    C       -5.59781         3.07897        -1.34092
| 32>    C       -5.29752         2.83542         0.01090
| 33>    C        3.71838        -2.86734         2.43315
| 34>    C        4.19008        -3.25595         1.13716
| 35>    N        3.49428        -2.59438         0.14142
| 36>    S        4.57016        -3.72944         3.67275
| 37>    C        5.54242        -4.60167         2.44950
| 38>    C        5.20426        -4.20968         1.14845
| 39>    C       -6.64141         3.76418        -2.00814
| 40>    C       -7.84883         4.29395        -1.59855
| 41>    C        6.38800        -5.65233         2.87268
| 42>    C        7.26382        -6.48553         2.19601
| 43>    C       -8.53068         4.06441        -0.29723
| 44>    C       -9.91253         4.59413        -0.46603
| 45>    C      -10.04092         5.18948        -1.73627
| 46>    C       -8.75087         5.06813        -2.45363
| 47>    C        7.56546        -7.80400         2.84945
| 48>    C        8.18401        -8.64830         1.79276
| 49>    C        8.35809        -7.88292         0.62262
| 50>    C        7.90350        -6.48948         0.89224
| 51>    C      -10.96924         4.52868         0.43604
| 52>    C      -12.18822         5.06935         0.03853
| 53>    C      -12.32554         5.67684        -1.22203
| 54>    C      -11.26552         5.74911        -2.11958
| 55>    C        8.55431        -9.98584         1.87645
| 56>    C        9.11128       -10.57230         0.74501
| 57>    C        9.29839        -9.82199        -0.42935
| 58>    C        8.93079        -8.47983        -0.50951
| 59>    F      -13.25315         5.02089         0.83405
| 60>    F      -13.50935         6.18280        -1.55300
| 61>    O       -8.09343         3.53033         0.70868
| 62>    C       -8.47025         5.64617        -3.67998
| 63>    C       -7.19284         5.57495        -4.32056
| 64>    C       -9.42475         6.41004        -4.42191
| 65>    C       -3.67061         1.69442         2.59877
| 66>    C       -4.08166         0.27469         2.97689
| 67>    C        3.76677        -2.72753        -1.28693
| 68>    C        3.34938        -4.09017        -1.83526
| 69>    C       -0.54182        -2.48704        -2.29684
| 70>    C        1.23741         1.79656         4.26685
| 71>    O        7.31636        -8.13083         3.99163
| 72>    C        8.23058        -5.39652         0.10045
| 73>    F        9.84640       -10.42850        -1.48108
| 74>    F        9.47941       -11.85050         0.74798
| 75>    N      -10.17037         7.03880        -5.05426
| 76>    N       -6.17075         5.53245        -4.87304
| 77>    C        8.07304        -4.04900         0.53751
| 78>    C        8.84976        -5.53077        -1.18074
| 79>    N        9.33231        -5.62788        -2.23398
| 80>    N        7.95865        -2.94274         0.87689
| 81>    H        1.00082        -1.73636        -3.62293
| 82>    H       -0.25777        -0.54050        -3.21913
| 83>    H       -0.87512         1.86977         4.74885
| 84>    H       -0.47297         2.51928         3.13696
| 85>    H       -5.99469         3.12125         0.79638
| 86>    H        5.63923        -4.66167         0.26219
| 87>    H       -6.42670         3.89051        -3.06983
| 88>    H        6.25439        -5.97271         3.91451
| 89>    H      -10.85652         4.05919         1.41425
| 90>    H      -11.43604         6.22851        -3.08101
| 91>    H        8.41163       -10.55998         2.79357
| 92>    H        9.11080        -7.95552        -1.44611
| 93>    H       -4.50815         2.39561         2.72308
| 94>    H       -2.85838         2.04883         3.24844
| 95>    H       -4.85983        -0.10266         2.29603
| 96>    H       -4.48420         0.25489         4.00168
| 97>    H       -3.21316        -0.39885         2.94014
| 98>    H        4.84525        -2.55812        -1.44119
| 99>    H        3.22587        -1.92043        -1.79325
|100>    H        3.85980        -4.91157        -1.31154
|101>    H        3.60576        -4.16442        -2.90364
|102>    H        2.26440        -4.24090        -1.72316
|103>    H        0.06142        -3.28435        -1.83657
|104>    H       -1.11765        -2.92374        -3.12745
|105>    H       -1.25831        -2.12291        -1.54603
|106>    H        1.49257         0.96852         4.94345
|107>    H        1.44381         2.74863         4.78163
|108>    H        1.89500         1.73658         3.38699
|109> *
|110>
|111>                          ****END OF INPUT****

CARTESIAN COORDINATES (ANGSTROEM)
---------------------------------
  C     -0.339650    0.266880   -0.383770
  C     -0.856810    0.573390    0.922750
  C     -0.154020    0.165960    2.083110
  C      0.992350   -0.598490    1.856910
  C      1.458660   -0.945010    0.544970
  C      0.789940   -0.507520   -0.612120
  O      1.262880   -0.872040   -1.827600
  C      0.343360   -1.371140   -2.820900
  O     -0.612790    0.451890    3.333440
  C     -0.226930    1.730780    3.870990
  O      1.766660   -1.182920    2.836880
  C      2.703950   -1.930690    2.174090
  C      2.574060   -1.801810    0.780550
  O     -1.144100    0.750370   -1.389650
  C     -2.202040    1.318710   -0.754630
  C     -2.102220    1.242430    0.641860
  C     -3.397460    1.947410   -1.093320
  C     -4.044900    2.220830    0.153610
  N     -3.234810    1.802660    1.209510
  S     -4.310900    2.499860   -2.435230
  C     -5.597810    3.078970   -1.340920
  C     -5.297520    2.835420    0.010900
  C      3.718380   -2.867340    2.433150
  C      4.190080   -3.255950    1.137160
  N      3.494280   -2.594380    0.141420
  S      4.570160   -3.729440    3.672750
  C      5.542420   -4.601670    2.449500
  C      5.204260   -4.209680    1.148450
  C     -6.641410    3.764180   -2.008140
  C     -7.848830    4.293950   -1.598550
  C      6.388000   -5.652330    2.872680
  C      7.263820   -6.485530    2.196010
  C     -8.530680    4.064410   -0.297230
  C     -9.912530    4.594130   -0.466030
  C    -10.040920    5.189480   -1.736270
  C     -8.750870    5.068130   -2.453630
  C      7.565460   -7.804000    2.849450
  C      8.184010   -8.648300    1.792760
  C      8.358090   -7.882920    0.622620
  C      7.903500   -6.489480    0.892240
  C    -10.969240    4.528680    0.436040
  C    -12.188220    5.069350    0.038530
  C    -12.325540    5.676840   -1.222030
  C    -11.265520    5.749110   -2.119580
  C      8.554310   -9.985840    1.876450
  C      9.111280  -10.572300    0.745010
  C      9.298390   -9.821990   -0.429350
  C      8.930790   -8.479830   -0.509510
  F    -13.253150    5.020890    0.834050
  F    -13.509350    6.182800   -1.553000
  O     -8.093430    3.530330    0.708680
  C     -8.470250    5.646170   -3.679980
  C     -7.192840    5.574950   -4.320560
  C     -9.424750    6.410040   -4.421910
  C     -3.670610    1.694420    2.598770
  C     -4.081660    0.274690    2.976890
  C      3.766770   -2.727530   -1.286930
  C      3.349380   -4.090170   -1.835260
  C     -0.541820   -2.487040   -2.296840
  C      1.237410    1.796560    4.266850
  O      7.316360   -8.130830    3.991630
  C      8.230580   -5.396520    0.100450
  F      9.846400  -10.428500   -1.481080
  F      9.479410  -11.850500    0.747980
  N    -10.170370    7.038800   -5.054260
  N     -6.170750    5.532450   -4.873040
  C      8.073040   -4.049000    0.537510
  C      8.849760   -5.530770   -1.180740
  N      9.332310   -5.627880   -2.233980
  N      7.958650   -2.942740    0.876890
  H      1.000820   -1.736360   -3.622930
  H     -0.257770   -0.540500   -3.219130
  H     -0.875120    1.869770    4.748850
  H     -0.472970    2.519280    3.136960
  H     -5.994690    3.121250    0.796380
  H      5.639230   -4.661670    0.262190
  H     -6.426700    3.890510   -3.069830
  H      6.254390   -5.972710    3.914510
  H    -10.856520    4.059190    1.414250
  H    -11.436040    6.228510   -3.081010
  H      8.411630  -10.559980    2.793570
  H      9.110800   -7.955520   -1.446110
  H     -4.508150    2.395610    2.723080
  H     -2.858380    2.048830    3.248440
  H     -4.859830   -0.102660    2.296030
  H     -4.484200    0.254890    4.001680
  H     -3.213160   -0.398850    2.940140
  H      4.845250   -2.558120   -1.441190
  H      3.225870   -1.920430   -1.793250
  H      3.859800   -4.911570   -1.311540
  H      3.605760   -4.164420   -2.903640
  H      2.264400   -4.240900   -1.723160
  H      0.061420   -3.284350   -1.836570
  H     -1.117650   -2.923740   -3.127450
  H     -1.258310   -2.122910   -1.546030
  H      1.492570    0.968520    4.943450
  H      1.443810    2.748630    4.781630
  H      1.895000    1.736580    3.386990

 Total Charge           Charge          ....    0
 Multiplicity           Mult            ....    1
 Number of Electrons    NEL             ....  498
 Basis Dimension        Dim             .... 1128

ORBITAL ENERGIES
----------------

  NO   OCC          E(Eh)            E(eV)
   0   2.0000     -91.982503     -2502.9712
   1   2.0000     -91.981193     -2502.9355
   2   2.0000     -26.339974      -716.7471
   3   2.0000     -26.337443      -716.6783
   4   2.0000     -26.336598      -716.6553
   5   2.0000     -26.334880      -716.6085
   6   2.0000     -20.652001      -561.9695
   7   2.0000     -20.645354      -561.7886
   8   2.0000     -20.609939      -560.8249
   9   2.0000     -20.601853      -560.6049
  10   2.0000     -20.576785      -559.9228
  11   2.0000     -20.566209      -559.6350
  12   2.0000     -15.654017      -425.9675
  13   2.0000     -15.649743      -425.8512
  14   2.0000     -15.599033      -424.4713
  15   2.0000     -15.597884      -424.4400
  16   2.0000     -15.596887      -424.4129
  17   2.0000     -15.596532      -424.4032
  18   2.0000     -11.382109      -309.7229
  19   2.0000     -11.380143      -309.6694
  20   2.0000     -11.378599      -309.6274
  21   2.0000     -11.377496      -309.5974
  22   2.0000     -11.377169      -309.5885
  23   2.0000     -11.366451      -309.2968
  24   2.0000     -11.352505      -308.9174
  25   2.0000     -11.351816      -308.8986
  26   2.0000     -11.347906      -308.7922
  27   2.0000     -11.345484      -308.7263
  28   2.0000     -11.343644      -308.6763
  29   2.0000     -11.342807      -308.6535
  30   2.0000     -11.330896      -308.3293
  31   2.0000     -11.330850      -308.3281
  32   2.0000     -11.329732      -308.2977
  33   2.0000     -11.328863      -308.2740
  34   2.0000     -11.328300      -308.2587
  35   2.0000     -11.325952      -308.1948
  36   2.0000     -11.322781      -308.1085
  37   2.0000     -11.319130      -308.0092
  38   2.0000     -11.318257      -307.9854
  39   2.0000     -11.317645      -307.9688
  40   2.0000     -11.316139      -307.9278
  41   2.0000     -11.310899      -307.7852
  42   2.0000     -11.310692      -307.7796
  43   2.0000     -11.310620      -307.7776
  44   2.0000     -11.310520      -307.7749
  45   2.0000     -11.310155      -307.7650
  46   2.0000     -11.309367      -307.7435
  47   2.0000     -11.309162      -307.7379
  48   2.0000     -11.308727      -307.7261
  49   2.0000     -11.308349      -307.7158
  50   2.0000     -11.307547      -307.6940
  51   2.0000     -11.306231      -307.6582
  52   2.0000     -11.304622      -307.6144
  53   2.0000     -11.304399      -307.6083
  54   2.0000     -11.303269      -307.5776
  55   2.0000     -11.302615      -307.5598
  56   2.0000     -11.301627      -307.5329
  57   2.0000     -11.301563      -307.5312
  58   2.0000     -11.299954      -307.4874
  59   2.0000     -11.298262      -307.4413
  60   2.0000     -11.297530      -307.4214
  61   2.0000     -11.295373      -307.3627
  62   2.0000     -11.294784      -307.3467
  63   2.0000     -11.290994      -307.2436
  64   2.0000     -11.284449      -307.0655
  65   2.0000     -11.278775      -306.9111
  66   2.0000     -11.258573      -306.3614
  67   2.0000     -11.255288      -306.2720
  68   2.0000     -11.252187      -306.1876
  69   2.0000     -11.246874      -306.0430
  70   2.0000      -9.017122      -245.3684
  71   2.0000      -9.015052      -245.3120
  72   2.0000      -6.704673      -182.4434
  73   2.0000      -6.703583      -182.4138
  74   2.0000      -6.702596      -182.3869
  75   2.0000      -6.701627      -182.3605
  76   2.0000      -6.701502      -182.3571
  77   2.0000      -6.699463      -182.3017
  78   2.0000      -1.652800       -44.9750
  79   2.0000      -1.649198       -44.8770
  80   2.0000      -1.636644       -44.5353
  81   2.0000      -1.633093       -44.4387
  82   2.0000      -1.484669       -40.3999
  83   2.0000      -1.471968       -40.0543
  84   2.0000      -1.424902       -38.7736
  85   2.0000      -1.416462       -38.5439
  86   2.0000      -1.403379       -38.1879
  87   2.0000      -1.395669       -37.9781
  88   2.0000      -1.337091       -36.3841
  89   2.0000      -1.335953       -36.3531
  90   2.0000      -1.247956       -33.9586
  91   2.0000      -1.245824       -33.9006
  92   2.0000      -1.227825       -33.4108
  93   2.0000      -1.223990       -33.3065
  94   2.0000      -1.222928       -33.2776
  95   2.0000      -1.222520       -33.2665
  96   2.0000      -1.199461       -32.6390
  97   2.0000      -1.194996       -32.5175
  98   2.0000      -1.180368       -32.1195
  99   2.0000      -1.167649       -31.7734
 100   2.0000      -1.163257       -31.6538
 101   2.0000      -1.129930       -30.7469
 102   2.0000      -1.122890       -30.5554
 103   2.0000      -1.106337       -30.1050
 104   2.0000      -1.098995       -29.9052
 105   2.0000      -1.093800       -29.7638
 106   2.0000      -1.080126       -29.3917
 107   2.0000      -1.070719       -29.1357
 108   2.0000      -1.067496       -29.0480
 109   2.0000      -1.066199       -29.0127
 110   2.0000      -1.061118       -28.8745
 111   2.0000      -1.044347       -28.4181
 112   2.0000      -1.043046       -28.3827
 113   2.0000      -1.038557       -28.2606
 114   2.0000      -1.018287       -27.7090
 115   2.0000      -1.013310       -27.5736
 116   2.0000      -1.004734       -27.3402
 117   2.0000      -1.003220       -27.2990
 118   2.0000      -0.983475       -26.7617
 119   2.0000      -0.967110       -26.3164
 120   2.0000      -0.943480       -25.6734
 121   2.0000      -0.940610       -25.5953
 122   2.0000      -0.934075       -25.4175
 123   2.0000      -0.913947       -24.8698
 124   2.0000      -0.908870       -24.7316
 125   2.0000      -0.897522       -24.4228
 126   2.0000      -0.892879       -24.2965
 127   2.0000      -0.884500       -24.0685
 128   2.0000      -0.871416       -23.7124
 129   2.0000      -0.866530       -23.5795
 130   2.0000      -0.861566       -23.4444
 131   2.0000      -0.858892       -23.3716
 132   2.0000      -0.852538       -23.1987
 133   2.0000      -0.836124       -22.7521
 134   2.0000      -0.833735       -22.6871
 135   2.0000      -0.827480       -22.5169
 136   2.0000      -0.813569       -22.1383
 137   2.0000      -0.805577       -21.9209
 138   2.0000      -0.801492       -21.8097
 139   2.0000      -0.790526       -21.5113
 140   2.0000      -0.788082       -21.4448
 141   2.0000      -0.786459       -21.4006
 142   2.0000      -0.783748       -21.3269
 143   2.0000      -0.779034       -21.1986
 144   2.0000      -0.767605       -20.8876
 145   2.0000      -0.759283       -20.6611
 146   2.0000      -0.753520       -20.5043
 147   2.0000      -0.748746       -20.3744
 148   2.0000      -0.747257       -20.3339
 149   2.0000      -0.743977       -20.2446
 150   2.0000      -0.741519       -20.1778
 151   2.0000      -0.739401       -20.1201
 152   2.0000      -0.731539       -19.9062
 153   2.0000      -0.727967       -19.8090
 154   2.0000      -0.723773       -19.6949
 155   2.0000      -0.722272       -19.6540
 156   2.0000      -0.718767       -19.5586
 157   2.0000      -0.717701       -19.5296
 158   2.0000      -0.715626       -19.4732
 159   2.0000      -0.712045       -19.3757
 160   2.0000      -0.707863       -19.2619
 161   2.0000      -0.698770       -19.0145
 162   2.0000      -0.696710       -18.9584
 163   2.0000      -0.693832       -18.8801
 164   2.0000      -0.685506       -18.6536
 165   2.0000      -0.682411       -18.5694
 166   2.0000      -0.678527       -18.4637
 167   2.0000      -0.675693       -18.3865
 168   2.0000      -0.673052       -18.3147
 169   2.0000      -0.671532       -18.2733
 170   2.0000      -0.668541       -18.1919
 171   2.0000      -0.666756       -18.1434
 172   2.0000      -0.664293       -18.0763
 173   2.0000      -0.661395       -17.9975
 174   2.0000      -0.654329       -17.8052
 175   2.0000      -0.651638       -17.7320
 176   2.0000      -0.641602       -17.4589
 177   2.0000      -0.640966       -17.4416
 178   2.0000      -0.637487       -17.3469
 179   2.0000      -0.635257       -17.2862
 180   2.0000      -0.630413       -17.1544
 181   2.0000      -0.628004       -17.0889
 182   2.0000      -0.624088       -16.9823
 183   2.0000      -0.623230       -16.9590
 184   2.0000      -0.621779       -16.9195
 185   2.0000      -0.620683       -16.8896
 186   2.0000      -0.619655       -16.8617
 187   2.0000      -0.615839       -16.7578
 188   2.0000      -0.614063       -16.7095
 189   2.0000      -0.605997       -16.4900
 190   2.0000      -0.600770       -16.3478
 191   2.0000      -0.594534       -16.1781
 192   2.0000      -0.583570       -15.8797
 193   2.0000      -0.582722       -15.8567
 194   2.0000      -0.580943       -15.8083
 195   2.0000      -0.579753       -15.7759
 196   2.0000      -0.576111       -15.6768
 197   2.0000      -0.575175       -15.6513
 198   2.0000      -0.575021       -15.6471
 199   2.0000      -0.574369       -15.6294
 200   2.0000      -0.572093       -15.5674
 201   2.0000      -0.571742       -15.5579
 202   2.0000      -0.569582       -15.4991
 203   2.0000      -0.566691       -15.4205
 204   2.0000      -0.565147       -15.3784
 205   2.0000      -0.560070       -15.2403
 206   2.0000      -0.558346       -15.1934
 207   2.0000      -0.556473       -15.1424
 208   2.0000      -0.554468       -15.0878
 209   2.0000      -0.553807       -15.0699
 210   2.0000      -0.548132       -14.9154
 211   2.0000      -0.547151       -14.8887
 212   2.0000      -0.540445       -14.7063
 213   2.0000      -0.537572       -14.6281
 214   2.0000      -0.532438       -14.4884
 215   2.0000      -0.529755       -14.4154
 216   2.0000      -0.524652       -14.2765
 217   2.0000      -0.522016       -14.2048
 218   2.0000      -0.520083       -14.1522
 219   2.0000      -0.514292       -13.9946
 220   2.0000      -0.506789       -13.7904
 221   2.0000      -0.503917       -13.7123
 222   2.0000      -0.501078       -13.6350
 223   2.0000      -0.499181       -13.5834
 224   2.0000      -0.498237       -13.5577
 225   2.0000      -0.497508       -13.5379
 226   2.0000      -0.495784       -13.4910
 227   2.0000      -0.485068       -13.1994
 228   2.0000      -0.481248       -13.0954
 229   2.0000      -0.479675       -13.0526
 230   2.0000      -0.478485       -13.0202
 231   2.0000      -0.471923       -12.8417
 232   2.0000      -0.466398       -12.6913
 233   2.0000      -0.454710       -12.3733
 234   2.0000      -0.448188       -12.1958
 235   2.0000      -0.430609       -11.7175
 236   2.0000      -0.424668       -11.5558
 237   2.0000      -0.419856       -11.4249
 238   2.0000      -0.397117       -10.8061
 239   2.0000      -0.391305       -10.6480
 240   2.0000      -0.385474       -10.4893
 241   2.0000      -0.369271       -10.0484
 242   2.0000      -0.358885        -9.7658
 243   2.0000      -0.356760        -9.7079
 244   2.0000      -0.352931        -9.6037
 245   2.0000      -0.342596        -9.3225
 246   2.0000      -0.325859        -8.8671
 247   2.0000      -0.302997        -8.2450
 248   2.0000      -0.262219        -7.1354
 249   0.0000      -0.036974        -1.0061
 250   0.0000      -0.019763        -0.5378
 251   0.0000       0.009104         0.2477
 252   0.0000       0.016670         0.4536
 253   0.0000       0.052837         1.4378

MULLIKEN ATOMIC CHARGES
-----------------------
   0 C :    0.264504
   1 C :   -0.059960
   2 C :    0.197920
   3 C :    0.318015
   4 C :   -0.096599
   5 C :    0.262585
   6 O :   -0.608613
   7 C :    0.230589
   8 O :   -0.601724
   9 C :    0.194568
  10 O :   -0.497354
  11 C :    0.125689
  12 C :    0.240840
  13 O :   -0.500850
  14 C :    0.138899
  15 C :    0.230860
  16 C :   -0.039634
  17 C :    0.190553
  18 N :   -0.593617
  19 S :    0.209088
  20 C :   -0.247711
  21 C :    0.053791
  22 C :   -0.017275
  23 C :    0.160084
  24 N :   -0.574804
  25 S :    0.222030
  26 C :   -0.224499
  27 C :    0.071887
  28 C :    0.147327
  29 C :   -0.296401
  30 C :    0.199128
  31 C :   -0.339070
  32 C :    0.516960
  33 C :   -0.183801
  34 C :   -0.029814
  35 C :    0.235551
  36 C :    0.458528
  37 C :   -0.163899
  38 C :   -0.044267
  39 C :    0.243659
  40 C :   -0.036913
  41 C :    0.340545
  42 C :    0.346432
  43 C :   -0.055080
  44 C :   -0.032999
  45 C :    0.340387
  46 C :    0.343014
  47 C :   -0.064396
  48 F :   -0.304045
  49 F :   -0.300911
  50 O :   -0.389019
  51 C :   -0.344293
  52 C :    0.035173
  53 C :    0.041272
  54 C :    0.151037
  55 C :   -0.061188
  56 C :    0.134237
  57 C :   -0.060448
  58 C :   -0.103169
  59 C :   -0.058696
  60 O :   -0.360659
  61 C :   -0.378227
  62 F :   -0.304039
  63 F :   -0.304502
  64 N :   -0.082029
  65 N :   -0.080666
  66 C :    0.032835
  67 C :    0.050661
  68 N :   -0.088834
  69 N :   -0.062683
  70 H :    0.045962
  71 H :    0.069968
  72 H :    0.053157
  73 H :    0.037410
  74 H :    0.110696
  75 H :    0.082889
  76 H :    0.096864
  77 H :    0.095703
  78 H :    0.085937
  79 H :    0.106152
  80 H :    0.088938
  81 H :    0.103683
  82 H :    0.055696
  83 H :    0.056332
  84 H :    0.047092
  85 H :    0.048570
  86 H :    0.065850
  87 H :    0.064901
  88 H :    0.095331
  89 H :    0.037101
  90 H :    0.053102
  91 H :    0.042410
  92 H :    0.043729
  93 H :    0.057358
  94 H :    0.058405
  95 H :    0.062955
  96 H :    0.045511
  97 H :    0.052344
Sum of atomic charges:   -0.0000000

LOEWDIN ATOMIC CHARGES
----------------------
   0 C :    0.066886
   1 C :   -0.061744
   2 C :    0.043674
   3 C :    0.093290
   4 C :   -0.072513
   5 C :    0.065340
   6 O :   -0.193226
   7 C :    0.138240
   8 O :   -0.205257
   9 C :    0.132210
  10 O :   -0.112202
  11 C :    0.021929
  12 C :    0.036588
  13 O :   -0.107908
  14 C :    0.019737
  15 C :    0.028091
  16 C :   -0.189284
  17 C :   -0.004336
  18 N :   -0.038346
  19 S :    0.415244
  20 C :   -0.202358
  21 C :    0.026201
  22 C :   -0.177160
  23 C :   -0.006948
  24 N :   -0.026341
  25 S :    0.403900
  26 C :   -0.207063
  27 C :    0.029696
  28 C :    0.107996
  29 C :   -0.163622
  30 C :    0.114656
  31 C :   -0.168455
  32 C :    0.176787
  33 C :   -0.053601
  34 C :   -0.022829
  35 C :    0.122630
  36 C :    0.169895
  37 C :   -0.054945
  38 C :   -0.021340
  39 C :    0.115779
  40 C :    0.002438
  41 C :    0.119945
  42 C :    0.120747
  43 C :   -0.006887
  44 C :    0.004417
  45 C :    0.118491
  46 C :    0.121164
  47 C :   -0.012150
  48 F :   -0.102696
  49 F :   -0.100643
  50 O :   -0.246916
  51 C :   -0.175374
  52 C :    0.013845
  53 C :    0.016756
  54 C :    0.082196
  55 C :   -0.040438
  56 C :    0.079551
  57 C :   -0.041326
  58 C :   -0.052465
  59 C :   -0.048324
  60 O :   -0.236855
  61 C :   -0.187464
  62 F :   -0.104050
  63 F :   -0.103058
  64 N :   -0.097122
  65 N :   -0.095906
  66 C :    0.008833
  67 C :    0.015882
  68 N :   -0.102263
  69 N :   -0.088166
  70 H :    0.019361
  71 H :    0.017684
  72 H :    0.017814
  73 H :    0.005311
  74 H :    0.049407
  75 H :    0.039442
  76 H :    0.046718
  77 H :    0.057103
  78 H :    0.057918
  79 H :    0.057646
  80 H :    0.059371
  81 H :    0.056080
  82 H :    0.025770
  83 H :    0.023821
  84 H :    0.023262
  85 H :    0.027444
  86 H :    0.027557
  87 H :    0.025316
  88 H :    0.032673
  89 H :    0.017681
  90 H :    0.028510
  91 H :    0.020841
  92 H :    0.021128
  93 H :    0.032761
  94 H :    0.025221
  95 H :    0.030651
  96 H :    0.028055
  97 H :    0.024000

  Mayer bond orders larger than 0.100000
B(  0-C ,  1-C ) :   1.2760 B(  0-C ,  5-C ) :   1.4130 B(  0-C , 13-O ) :   0.9609
B(  1-C ,  2-C ) :   1.2751 B(  1-C , 15-C ) :   1.1597 B(  2-C ,  3-C ) :   1.4351
B(  2-C ,  8-O ) :   1.0453 B(  3-C ,  4-C ) :   1.2890 B(  3-C , 10-O ) :   0.9810
B(  4-C ,  5-C ) :   1.3043 B(  4-C , 12-C ) :   1.1524 B(  5-C ,  6-O ) :   1.0549
B(  6-O ,  7-C ) :   0.7945 B(  7-C , 58-C ) :   1.0459 B(  7-C , 70-H ) :   0.9820
B(  7-C , 71-H ) :   0.9780 B(  8-O ,  9-C ) :   0.8039 B(  9-C , 59-C ) :   1.0553
B(  9-C , 72-H ) :   0.9760 B(  9-C , 73-H ) :   0.9736 B( 10-O , 11-C ) :   0.9640
B( 11-C , 12-C ) :   1.4375 B( 11-C , 22-C ) :   1.5043 B( 12-C , 24-N ) :   1.1354
B( 13-O , 14-C ) :   0.9709 B( 14-C , 15-C ) :   1.4566 B( 14-C , 16-C ) :   1.4898
B( 15-C , 18-N ) :   1.1056 B( 16-C , 17-C ) :   1.3432 B( 16-C , 19-S ) :   1.0072
B( 17-C , 18-N ) :   1.0620 B( 17-C , 21-C ) :   1.2995 B( 18-N , 54-C ) :   0.8447
B( 19-S , 20-C ) :   1.0606 B( 20-C , 21-C ) :   1.4535 B( 20-C , 28-C ) :   1.2620
B( 21-C , 74-H ) :   0.9845 B( 22-C , 23-C ) :   1.3393 B( 22-C , 25-S ) :   0.9946
B( 23-C , 24-N ) :   1.0670 B( 23-C , 27-C ) :   1.3569 B( 24-N , 56-C ) :   0.8270
B( 25-S , 26-C ) :   1.0545 B( 26-C , 27-C ) :   1.4342 B( 26-C , 30-C ) :   1.2451
B( 27-C , 75-H ) :   0.9834 B( 28-C , 29-C ) :   1.6327 B( 28-C , 76-H ) :   0.9399
B( 29-C , 32-C ) :   0.9841 B( 29-C , 35-C ) :   1.1141 B( 30-C , 31-C ) :   1.6340
B( 30-C , 77-H ) :   0.9414 B( 31-C , 36-C ) :   1.0136 B( 31-C , 39-C ) :   1.1149
B( 32-C , 33-C ) :   0.9759 B( 32-C , 50-O ) :   2.0216 B( 33-C , 34-C ) :   1.3869
B( 33-C , 40-C ) :   1.3796 B( 34-C , 35-C ) :   1.0387 B( 34-C , 43-C ) :   1.3632
B( 35-C , 51-C ) :   1.6760 B( 36-C , 37-C ) :   0.9483 B( 36-C , 60-O ) :   2.0764
B( 37-C , 38-C ) :   1.3849 B( 37-C , 44-C ) :   1.3825 B( 38-C , 39-C ) :   1.0419
B( 38-C , 47-C ) :   1.3691 B( 39-C , 61-C ) :   1.6494 B( 40-C , 41-C ) :   1.3951
B( 40-C , 78-H ) :   1.0064 B( 41-C , 42-C ) :   1.3252 B( 41-C , 48-F ) :   0.9418
B( 42-C , 43-C ) :   1.4218 B( 42-C , 49-F ) :   0.9504 B( 43-C , 79-H ) :   0.9840
B( 44-C , 45-C ) :   1.3929 B( 44-C , 80-H ) :   1.0057 B( 45-C , 46-C ) :   1.3271
B( 45-C , 63-F ) :   0.9416 B( 46-C , 47-C ) :   1.4214 B( 46-C , 62-F ) :   0.9467
B( 47-C , 81-H ) :   0.9855 B( 51-C , 52-C ) :   1.0566 B( 51-C , 53-C ) :   1.0574
B( 52-C , 65-N ) :   2.9837 B( 53-C , 64-N ) :   2.9804 B( 54-C , 55-C ) :   1.0376
B( 54-C , 82-H ) :   0.9805 B( 54-C , 83-H ) :   0.9786 B( 55-C , 84-H ) :   0.9806
B( 55-C , 85-H ) :   0.9838 B( 55-C , 86-H ) :   0.9792 B( 56-C , 57-C ) :   1.0376
B( 56-C , 87-H ) :   0.9794 B( 56-C , 88-H ) :   0.9716 B( 57-C , 89-H ) :   0.9841
B( 57-C , 90-H ) :   0.9831 B( 57-C , 91-H ) :   0.9802 B( 58-C , 92-H ) :   0.9801
B( 58-C , 93-H ) :   0.9790 B( 58-C , 94-H ) :   0.9784 B( 59-C , 95-H ) :   0.9769
B( 59-C , 96-H ) :   0.9788 B( 59-C , 97-H ) :   0.9796 B( 61-C , 66-C ) :   1.0846
B( 61-C , 67-C ) :   1.0407 B( 66-C , 69-N ) :   2.9937 B( 67-C , 68-N ) :   2.9865

-----------------------------------------------------------------------------
         ABSORPTION SPECTRUM VIA TRANSITION ELECTRIC DIPOLE MOMENTS
-----------------------------------------------------------------------------
State   Energy    Wavelength  fosc         T2        TX        TY        TZ
        (cm-1)      (nm)                 (au**2)    (au)      (au)      (au)
-----------------------------------------------------------------------------
   1   21191.2    471.9   3.117823344  48.43629   5.64070  -3.88411   1.23790
   2   25968.3    385.1   0.342060480   4.33645  -1.25212   0.63463  -1.53815
   3   34693.8    288.2   0.140156948   1.32996   0.73595  -0.72822   0.50797

FINAL SINGLE POINT ENERGY     -3951.117020781854

DIPOLE MOMENT
-------------
                                X             Y             Z
Electronic contribution:     -9.83416      -5.74499     -11.44691
Nuclear contribution   :      8.14077       5.17742      13.72406
                        -----------------------------------------
Total Dipole Moment    :     -1.69339      -0.56757       2.27715
                        -----------------------------------------
Magnitude (a.u.)       :      2.89397
Magnitude (Debye)      :      7.35590

Rotational constants in cm-1:     0.002906     0.000233     0.000226
Rotational constants in MHz :    87.122068     6.991327     6.780976

                             ****ORCA TERMINATED NORMALLY****
TOTAL RUN TIME: 0 days 11 hours 10 minutes 55 seconds 921 msec
