                         Program Version 4.2.0 -  RELEASE  -
|  1> # ORCA input file
|  2> # M8.out
|  3> ! Engrad Keepdens
|  4> %maxcore 1000
|  5> %tddft
|  6>   nroots 3
|  7>   # nroots is the number of states to be computed
|  8>   Iroot 1
|  9>   end
| 10> * xyz 0 1
| 11>    C       -0.96256        -0.82411        -0.63995
| 12>    C       -1.49856        -0.52082         0.65156
| 13>    C       -0.89132        -0.98076         1.82833
| 14>    C        0.21936        -1.78989         1.64758
| 15>    C        0.73889        -2.11579         0.35821
| 16>    C        0.15197        -1.63106        -0.82400
| 17>    O        0.75581        -1.96084        -1.98907
| 18>    C        0.07223        -1.79535        -3.22560
| 19>    O       -1.37721        -0.65287         3.07009
| 20>    C       -0.79537         0.50827         3.66589
| 21>    O        0.94743        -2.34859         2.65433
| 22>    C        1.94852        -3.01978         2.04249
| 23>    C        1.87532        -2.91907         0.63940
| 24>    O       -1.67333        -0.20941        -1.64394
| 25>    C       -2.66138         0.46884        -1.02057
| 26>    C       -2.62507         0.30129         0.37600
| 27>    C       -3.71914         1.31631        -1.31463
| 28>    C       -4.31485         1.63066        -0.05712
| 29>    N       -3.63810         1.00352         0.96052
| 30>    S       -4.51963         2.10487        -2.61153
| 31>    C       -5.63768         2.87820        -1.46564
| 32>    C       -5.38709         2.50406        -0.15075
| 33>    C        3.07603        -3.76889         2.34767
| 34>    C        3.66310        -4.10323         1.09254
| 35>    N        2.92219        -3.57816         0.06572
| 36>    S        3.99401        -4.38275         3.66216
| 37>    C        5.19575        -5.02959         2.53932
| 38>    C        4.85193        -4.80794         1.21056
| 39>    C       -6.58270         3.74156        -2.03831
| 40>    C       -7.52409         4.57391        -1.48170
| 41>    C        6.29963        -5.71040         3.07715
| 42>    C        7.48655        -6.06636         2.49320
| 43>    C       -7.77540         4.86201        -0.05697
| 44>    C       -8.74584         5.97917        -0.04100
| 45>    C       -9.10624         6.31437        -1.35483
| 46>    C       -8.40189         5.41994        -2.27345
| 47>    C        8.28820        -7.14636         3.12020
| 48>    C        9.30621        -7.51260         2.10727
| 49>    C        9.19987        -6.64549         1.00644
| 50>    C        8.16301        -5.64955         1.29012
| 51>    C       -9.25636         6.64445         1.05608
| 52>    C      -10.14759         7.67861         0.82231
| 53>    C      -10.50791         8.02385        -0.48051
| 54>    C       -9.99856         7.35102        -1.58121
| 55>    C       10.23440        -8.53350         2.14612
| 56>    C       11.06385        -8.69153         1.04681
| 57>    C       10.95571        -7.84280        -0.05469
| 58>    C       10.03095        -6.80935        -0.08940
| 59>    F      -10.66543         8.35480         1.85523
| 60>    F      -11.36571         9.03114        -0.67802
| 61>    O       -7.31268         4.32984         0.93234
| 62>    C       -8.60155         5.38343        -3.62852
| 63>    C       -8.00908         4.48345        -4.54116
| 64>    C       -9.48101         6.24522        -4.31959
| 65>    C       -4.09829         0.92950         2.32719
| 66>    C       -5.37887         0.10517         2.43541
| 67>    C        3.19726        -3.75086        -1.33868
| 68>    C        2.57957        -5.04240        -1.86894
| 69>    C       -1.06686        -2.79229        -3.39422
| 70>    C        0.68469         0.37182         3.99136
| 71>    O        8.11818        -7.64443         4.20855
| 72>    C        8.06119        -4.43489         0.65890
| 73>    F       11.75880        -8.02801        -1.10859
| 74>    F       11.97554        -9.67140         1.03976
| 75>    N      -10.17143         6.91425        -4.94633
| 76>    N       -7.59967         3.79014        -5.36034
| 77>    C        7.25887        -3.37026         1.11383
| 78>    C        8.80353        -4.07383        -0.48335
| 79>    N        9.35220        -3.73679        -1.43367
| 80>    N        6.65104        -2.45515         1.44736
| 81>    H        0.84688        -1.97686        -3.97529
| 82>    H       -0.29277        -0.77105        -3.33231
| 83>    H       -1.37038         0.64407         4.58517
| 84>    H       -0.95665         1.37627         3.00968
| 85>    H       -5.96642         2.88162         0.67113
| 86>    H        5.42821        -5.18834         0.38678
| 87>    H       -6.52163         3.76539        -3.11997
| 88>    H        6.18102        -6.06829         4.09560
| 89>    H       -8.97262         6.37400         2.06060
| 90>    H      -10.30879         7.65944        -2.56571
| 91>    H       10.31641        -9.18863         2.99859
| 92>    H        9.98483        -6.18019        -0.96329
| 93>    H       -4.27526         1.94588         2.69157
| 94>    H       -3.31317         0.45937         2.91823
| 95>    H       -6.17732         0.55197         1.84857
| 96>    H       -5.69451         0.05770         3.47345
| 97>    H       -5.20570        -0.90740         2.07867
| 98>    H        4.28192        -3.76217        -1.47368
| 99>    H        2.77907        -2.89506        -1.86928
|100>    H        2.96970        -5.90425        -1.33217
|101>    H        2.80732        -5.15558        -2.92490
|102>    H        1.49991        -5.01542        -1.74476
|103>    H       -0.69831        -3.80887        -3.27699
|104>    H       -1.49635        -2.68479        -4.38567
|105>    H       -1.84633        -2.61482        -2.65782
|106>    H        0.86046        -0.53532         4.56283
|107>    H        0.99996         1.22971         4.57913
|108>    H        1.28289         0.33580         3.08383
|109> *
|110>
|111>                          ****END OF INPUT****

CARTESIAN COORDINATES (ANGSTROEM)
---------------------------------
  C     -0.962560   -0.824110   -0.639950
  C     -1.498560   -0.520820    0.651560
  C     -0.891320   -0.980760    1.828330
  C      0.219360   -1.789890    1.647580
  C      0.738890   -2.115790    0.358210
  C      0.151970   -1.631060   -0.824000
  O      0.755810   -1.960840   -1.989070
  C      0.072230   -1.795350   -3.225600
  O     -1.377210   -0.652870    3.070090
  C     -0.795370    0.508270    3.665890
  O      0.947430   -2.348590    2.654330
  C      1.948520   -3.019780    2.042490
  C      1.875320   -2.919070    0.639400
  O     -1.673330   -0.209410   -1.643940
  C     -2.661380    0.468840   -1.020570
  C     -2.625070    0.301290    0.376000
  C     -3.719140    1.316310   -1.314630
  C     -4.314850    1.630660   -0.057120
  N     -3.638100    1.003520    0.960520
  S     -4.519630    2.104870   -2.611530
  C     -5.637680    2.878200   -1.465640
  C     -5.387090    2.504060   -0.150750
  C      3.076030   -3.768890    2.347670
  C      3.663100   -4.103230    1.092540
  N      2.922190   -3.578160    0.065720
  S      3.994010   -4.382750    3.662160
  C      5.195750   -5.029590    2.539320
  C      4.851930   -4.807940    1.210560
  C     -6.582700    3.741560   -2.038310
  C     -7.524090    4.573910   -1.481700
  C      6.299630   -5.710400    3.077150
  C      7.486550   -6.066360    2.493200
  C     -7.775400    4.862010   -0.056970
  C     -8.745840    5.979170   -0.041000
  C     -9.106240    6.314370   -1.354830
  C     -8.401890    5.419940   -2.273450
  C      8.288200   -7.146360    3.120200
  C      9.306210   -7.512600    2.107270
  C      9.199870   -6.645490    1.006440
  C      8.163010   -5.649550    1.290120
  C     -9.256360    6.644450    1.056080
  C    -10.147590    7.678610    0.822310
  C    -10.507910    8.023850   -0.480510
  C     -9.998560    7.351020   -1.581210
  C     10.234400   -8.533500    2.146120
  C     11.063850   -8.691530    1.046810
  C     10.955710   -7.842800   -0.054690
  C     10.030950   -6.809350   -0.089400
  F    -10.665430    8.354800    1.855230
  F    -11.365710    9.031140   -0.678020
  O     -7.312680    4.329840    0.932340
  C     -8.601550    5.383430   -3.628520
  C     -8.009080    4.483450   -4.541160
  C     -9.481010    6.245220   -4.319590
  C     -4.098290    0.929500    2.327190
  C     -5.378870    0.105170    2.435410
  C      3.197260   -3.750860   -1.338680
  C      2.579570   -5.042400   -1.868940
  C     -1.066860   -2.792290   -3.394220
  C      0.684690    0.371820    3.991360
  O      8.118180   -7.644430    4.208550
  C      8.061190   -4.434890    0.658900
  F     11.758800   -8.028010   -1.108590
  F     11.975540   -9.671400    1.039760
  N    -10.171430    6.914250   -4.946330
  N     -7.599670    3.790140   -5.360340
  C      7.258870   -3.370260    1.113830
  C      8.803530   -4.073830   -0.483350
  N      9.352200   -3.736790   -1.433670
  N      6.651040   -2.455150    1.447360
  H      0.846880   -1.976860   -3.975290
  H     -0.292770   -0.771050   -3.332310
  H     -1.370380    0.644070    4.585170
  H     -0.956650    1.376270    3.009680
  H     -5.966420    2.881620    0.671130
  H      5.428210   -5.188340    0.386780
  H     -6.521630    3.765390   -3.119970
  H      6.181020   -6.068290    4.095600
  H     -8.972620    6.374000    2.060600
  H    -10.308790    7.659440   -2.565710
  H     10.316410   -9.188630    2.998590
  H      9.984830   -6.180190   -0.963290
  H     -4.275260    1.945880    2.691570
  H     -3.313170    0.459370    2.918230
  H     -6.177320    0.551970    1.848570
  H     -5.694510    0.057700    3.473450
  H     -5.205700   -0.907400    2.078670
  H      4.281920   -3.762170   -1.473680
  H      2.779070   -2.895060   -1.869280
  H      2.969700   -5.904250   -1.332170
  H      2.807320   -5.155580   -2.924900
  H      1.499910   -5.015420   -1.744760
  H     -0.698310   -3.808870   -3.276990
  H     -1.496350   -2.684790   -4.385670
  H     -1.846330   -2.614820   -2.657820
  H      0.860460   -0.535320    4.562830
  H      0.999960    1.229710    4.579130
  H      1.282890    0.335800    3.083830

 Total Charge           Charge          ....    0
 Multiplicity           Mult            ....    1
 Number of Electrons    NEL             ....  498
 Basis Dimension        Dim             .... 1128

ORBITAL ENERGIES
----------------

  NO   OCC          E(Eh)            E(eV)
   0   2.0000     -91.979823     -2502.8982
   1   2.0000     -91.977094     -2502.8240
   2   2.0000     -26.336949      -716.6648
   3   2.0000     -26.335300      -716.6199
   4   2.0000     -26.334637      -716.6019
   5   2.0000     -26.334504      -716.5983
   6   2.0000     -20.652177      -561.9743
   7   2.0000     -20.647585      -561.8493
   8   2.0000     -20.615126      -560.9661
   9   2.0000     -20.601798      -560.6034
  10   2.0000     -20.575599      -559.8905
  11   2.0000     -20.565575      -559.6177
  12   2.0000     -15.651952      -425.9113
  13   2.0000     -15.647164      -425.7810
  14   2.0000     -15.593156      -424.3114
  15   2.0000     -15.593073      -424.3091
  16   2.0000     -15.591530      -424.2671
  17   2.0000     -15.588905      -424.1957
  18   2.0000     -11.379581      -309.6541
  19   2.0000     -11.378507      -309.6249
  20   2.0000     -11.378168      -309.6157
  21   2.0000     -11.377281      -309.5915
  22   2.0000     -11.374238      -309.5087
  23   2.0000     -11.364174      -309.2349
  24   2.0000     -11.352572      -308.9192
  25   2.0000     -11.345358      -308.7229
  26   2.0000     -11.344223      -308.6920
  27   2.0000     -11.343618      -308.6755
  28   2.0000     -11.342447      -308.6437
  29   2.0000     -11.335838      -308.4638
  30   2.0000     -11.328632      -308.2677
  31   2.0000     -11.324398      -308.1525
  32   2.0000     -11.323187      -308.1196
  33   2.0000     -11.322200      -308.0927
  34   2.0000     -11.321687      -308.0788
  35   2.0000     -11.320090      -308.0353
  36   2.0000     -11.318350      -307.9880
  37   2.0000     -11.313360      -307.8522
  38   2.0000     -11.312703      -307.8343
  39   2.0000     -11.312152      -307.8193
  40   2.0000     -11.307593      -307.6953
  41   2.0000     -11.306543      -307.6667
  42   2.0000     -11.304929      -307.6228
  43   2.0000     -11.304791      -307.6190
  44   2.0000     -11.304257      -307.6045
  45   2.0000     -11.303944      -307.5960
  46   2.0000     -11.303435      -307.5821
  47   2.0000     -11.301272      -307.5232
  48   2.0000     -11.300868      -307.5123
  49   2.0000     -11.300762      -307.5094
  50   2.0000     -11.300160      -307.4930
  51   2.0000     -11.300018      -307.4891
  52   2.0000     -11.298898      -307.4587
  53   2.0000     -11.298184      -307.4392
  54   2.0000     -11.297627      -307.4241
  55   2.0000     -11.297348      -307.4165
  56   2.0000     -11.296837      -307.4026
  57   2.0000     -11.296323      -307.3886
  58   2.0000     -11.296249      -307.3866
  59   2.0000     -11.296042      -307.3809
  60   2.0000     -11.291331      -307.2527
  61   2.0000     -11.290847      -307.2396
  62   2.0000     -11.290358      -307.2263
  63   2.0000     -11.289095      -307.1919
  64   2.0000     -11.279102      -306.9200
  65   2.0000     -11.273443      -306.7660
  66   2.0000     -11.248619      -306.0905
  67   2.0000     -11.248221      -306.0797
  68   2.0000     -11.244916      -305.9897
  69   2.0000     -11.239093      -305.8313
  70   2.0000      -9.014632      -245.3006
  71   2.0000      -9.011898      -245.2262
  72   2.0000      -6.702206      -182.3763
  73   2.0000      -6.701169      -182.3481
  74   2.0000      -6.699496      -182.3026
  75   2.0000      -6.699034      -182.2900
  76   2.0000      -6.698509      -182.2757
  77   2.0000      -6.696330      -182.2164
  78   2.0000      -1.645884       -44.7868
  79   2.0000      -1.645154       -44.7669
  80   2.0000      -1.630927       -44.3798
  81   2.0000      -1.630277       -44.3621
  82   2.0000      -1.488877       -40.5144
  83   2.0000      -1.485972       -40.4353
  84   2.0000      -1.433782       -39.0152
  85   2.0000      -1.416222       -38.5374
  86   2.0000      -1.407670       -38.3046
  87   2.0000      -1.398716       -38.0610
  88   2.0000      -1.348393       -36.6916
  89   2.0000      -1.344170       -36.5767
  90   2.0000      -1.255220       -34.1563
  91   2.0000      -1.254830       -34.1457
  92   2.0000      -1.234130       -33.5824
  93   2.0000      -1.232847       -33.5475
  94   2.0000      -1.229086       -33.4451
  95   2.0000      -1.227142       -33.3922
  96   2.0000      -1.203953       -32.7612
  97   2.0000      -1.201235       -32.6873
  98   2.0000      -1.186084       -32.2750
  99   2.0000      -1.172775       -31.9128
 100   2.0000      -1.171134       -31.8682
 101   2.0000      -1.134521       -30.8719
 102   2.0000      -1.126986       -30.6668
 103   2.0000      -1.111531       -30.2463
 104   2.0000      -1.104793       -30.0629
 105   2.0000      -1.099650       -29.9230
 106   2.0000      -1.084535       -29.5117
 107   2.0000      -1.074422       -29.2365
 108   2.0000      -1.073800       -29.2196
 109   2.0000      -1.069976       -29.1155
 110   2.0000      -1.064120       -28.9562
 111   2.0000      -1.045863       -28.4594
 112   2.0000      -1.043554       -28.3966
 113   2.0000      -1.039964       -28.2988
 114   2.0000      -1.020824       -27.7780
 115   2.0000      -1.015979       -27.6462
 116   2.0000      -1.008689       -27.4478
 117   2.0000      -1.005162       -27.3518
 118   2.0000      -0.985178       -26.8081
 119   2.0000      -0.971080       -26.4244
 120   2.0000      -0.947479       -25.7822
 121   2.0000      -0.945477       -25.7277
 122   2.0000      -0.939210       -25.5572
 123   2.0000      -0.917498       -24.9664
 124   2.0000      -0.912428       -24.8284
 125   2.0000      -0.901088       -24.5198
 126   2.0000      -0.895155       -24.3584
 127   2.0000      -0.886308       -24.1177
 128   2.0000      -0.875725       -23.8297
 129   2.0000      -0.868566       -23.6349
 130   2.0000      -0.863706       -23.5026
 131   2.0000      -0.860309       -23.4102
 132   2.0000      -0.855761       -23.2864
 133   2.0000      -0.842411       -22.9232
 134   2.0000      -0.836762       -22.7694
 135   2.0000      -0.831472       -22.6255
 136   2.0000      -0.816466       -22.2172
 137   2.0000      -0.806630       -21.9495
 138   2.0000      -0.802558       -21.8387
 139   2.0000      -0.792480       -21.5645
 140   2.0000      -0.788753       -21.4631
 141   2.0000      -0.786979       -21.4148
 142   2.0000      -0.786481       -21.4012
 143   2.0000      -0.779447       -21.2098
 144   2.0000      -0.770823       -20.9752
 145   2.0000      -0.760206       -20.6862
 146   2.0000      -0.753706       -20.5094
 147   2.0000      -0.751102       -20.4385
 148   2.0000      -0.746007       -20.2999
 149   2.0000      -0.743280       -20.2257
 150   2.0000      -0.743048       -20.2194
 151   2.0000      -0.742323       -20.1996
 152   2.0000      -0.734482       -19.9863
 153   2.0000      -0.729460       -19.8496
 154   2.0000      -0.727757       -19.8033
 155   2.0000      -0.725382       -19.7387
 156   2.0000      -0.720816       -19.6144
 157   2.0000      -0.716419       -19.4948
 158   2.0000      -0.714916       -19.4539
 159   2.0000      -0.714269       -19.4363
 160   2.0000      -0.712330       -19.3835
 161   2.0000      -0.701275       -19.0827
 162   2.0000      -0.700066       -19.0498
 163   2.0000      -0.694158       -18.8890
 164   2.0000      -0.690701       -18.7949
 165   2.0000      -0.686040       -18.6681
 166   2.0000      -0.683219       -18.5913
 167   2.0000      -0.676853       -18.4181
 168   2.0000      -0.674219       -18.3464
 169   2.0000      -0.673154       -18.3175
 170   2.0000      -0.670385       -18.2421
 171   2.0000      -0.667509       -18.1638
 172   2.0000      -0.666762       -18.1435
 173   2.0000      -0.664459       -18.0808
 174   2.0000      -0.656561       -17.8659
 175   2.0000      -0.652523       -17.7561
 176   2.0000      -0.645139       -17.5551
 177   2.0000      -0.641477       -17.4555
 178   2.0000      -0.639683       -17.4067
 179   2.0000      -0.637120       -17.3369
 180   2.0000      -0.634429       -17.2637
 181   2.0000      -0.631618       -17.1872
 182   2.0000      -0.628096       -17.0914
 183   2.0000      -0.626705       -17.0535
 184   2.0000      -0.625582       -17.0229
 185   2.0000      -0.623908       -16.9774
 186   2.0000      -0.619954       -16.8698
 187   2.0000      -0.619086       -16.8462
 188   2.0000      -0.616694       -16.7811
 189   2.0000      -0.608188       -16.5496
 190   2.0000      -0.600345       -16.3362
 191   2.0000      -0.594836       -16.1863
 192   2.0000      -0.589188       -16.0326
 193   2.0000      -0.585525       -15.9330
 194   2.0000      -0.579952       -15.7813
 195   2.0000      -0.579310       -15.7638
 196   2.0000      -0.578872       -15.7519
 197   2.0000      -0.578192       -15.7334
 198   2.0000      -0.577815       -15.7232
 199   2.0000      -0.575834       -15.6692
 200   2.0000      -0.574137       -15.6231
 201   2.0000      -0.573323       -15.6009
 202   2.0000      -0.568497       -15.4696
 203   2.0000      -0.568382       -15.4665
 204   2.0000      -0.565822       -15.3968
 205   2.0000      -0.561890       -15.2898
 206   2.0000      -0.558466       -15.1966
 207   2.0000      -0.557915       -15.1816
 208   2.0000      -0.554211       -15.0809
 209   2.0000      -0.552403       -15.0317
 210   2.0000      -0.551367       -15.0035
 211   2.0000      -0.546486       -14.8706
 212   2.0000      -0.541250       -14.7282
 213   2.0000      -0.538956       -14.6657
 214   2.0000      -0.536614       -14.6020
 215   2.0000      -0.529117       -14.3980
 216   2.0000      -0.529026       -14.3955
 217   2.0000      -0.523465       -14.2442
 218   2.0000      -0.521511       -14.1910
 219   2.0000      -0.513171       -13.9641
 220   2.0000      -0.510037       -13.8788
 221   2.0000      -0.508565       -13.8388
 222   2.0000      -0.503502       -13.7010
 223   2.0000      -0.503004       -13.6874
 224   2.0000      -0.501857       -13.6562
 225   2.0000      -0.499275       -13.5860
 226   2.0000      -0.499259       -13.5855
 227   2.0000      -0.488954       -13.3051
 228   2.0000      -0.480977       -13.0881
 229   2.0000      -0.477957       -13.0059
 230   2.0000      -0.475891       -12.9497
 231   2.0000      -0.474099       -12.9009
 232   2.0000      -0.468731       -12.7548
 233   2.0000      -0.454125       -12.3574
 234   2.0000      -0.449847       -12.2410
 235   2.0000      -0.431157       -11.7324
 236   2.0000      -0.424382       -11.5480
 237   2.0000      -0.419442       -11.4136
 238   2.0000      -0.398412       -10.8414
 239   2.0000      -0.394232       -10.7276
 240   2.0000      -0.386586       -10.5195
 241   2.0000      -0.371287       -10.1032
 242   2.0000      -0.358498        -9.7552
 243   2.0000      -0.357251        -9.7213
 244   2.0000      -0.352160        -9.5828
 245   2.0000      -0.340632        -9.2691
 246   2.0000      -0.324183        -8.8215
 247   2.0000      -0.300816        -8.1856
 248   2.0000      -0.257475        -7.0062
 249   0.0000      -0.035069        -0.9543
 250   0.0000      -0.017670        -0.4808
 251   0.0000       0.011164         0.3038
 252   0.0000       0.018226         0.4959
 253   0.0000       0.054054         1.4709

MULLIKEN ATOMIC CHARGES
-----------------------
   0 C :    0.249406
   1 C :   -0.045198
   2 C :    0.172900
   3 C :    0.321303
   4 C :   -0.099280
   5 C :    0.289182
   6 O :   -0.599971
   7 C :    0.219272
   8 O :   -0.608652
   9 C :    0.205371
  10 O :   -0.477986
  11 C :    0.122891
  12 C :    0.231939
  13 O :   -0.507197
  14 C :    0.126607
  15 C :    0.215095
  16 C :   -0.018943
  17 C :    0.183559
  18 N :   -0.557575
  19 S :    0.207745
  20 C :   -0.235111
  21 C :    0.034705
  22 C :   -0.023881
  23 C :    0.197304
  24 N :   -0.557994
  25 S :    0.218824
  26 C :   -0.226311
  27 C :    0.031582
  28 C :    0.147855
  29 C :   -0.300953
  30 C :    0.217171
  31 C :   -0.341253
  32 C :    0.520805
  33 C :   -0.171520
  34 C :   -0.027986
  35 C :    0.253886
  36 C :    0.468641
  37 C :   -0.157041
  38 C :   -0.051570
  39 C :    0.244965
  40 C :   -0.034519
  41 C :    0.346091
  42 C :    0.354633
  43 C :   -0.051734
  44 C :   -0.028947
  45 C :    0.342470
  46 C :    0.352431
  47 C :   -0.056849
  48 F :   -0.312497
  49 F :   -0.308856
  50 O :   -0.392495
  51 C :   -0.376942
  52 C :    0.027269
  53 C :    0.029079
  54 C :    0.114298
  55 C :   -0.036010
  56 C :    0.138016
  57 C :   -0.034084
  58 C :   -0.075139
  59 C :   -0.050925
  60 O :   -0.351896
  61 C :   -0.383075
  62 F :   -0.310024
  63 F :   -0.312383
  64 N :   -0.065778
  65 N :   -0.061528
  66 C :    0.030984
  67 C :    0.040110
  68 N :   -0.066489
  69 N :   -0.048075
  70 H :    0.041397
  71 H :    0.066607
  72 H :    0.046072
  73 H :    0.030363
  74 H :    0.106414
  75 H :    0.064630
  76 H :    0.086256
  77 H :    0.085243
  78 H :    0.076132
  79 H :    0.097599
  80 H :    0.079724
  81 H :    0.092258
  82 H :    0.054839
  83 H :    0.097118
  84 H :    0.044890
  85 H :    0.045462
  86 H :    0.044375
  87 H :    0.050362
  88 H :    0.086943
  89 H :    0.035329
  90 H :    0.041523
  91 H :    0.042637
  92 H :    0.041009
  93 H :    0.047616
  94 H :    0.051527
  95 H :    0.061772
  96 H :    0.042397
  97 H :    0.049790
Sum of atomic charges:   -0.0000000

LOEWDIN ATOMIC CHARGES
----------------------
   0 C :    0.055191
   1 C :   -0.057607
   2 C :    0.041362
   3 C :    0.089966
   4 C :   -0.075345
   5 C :    0.076791
   6 O :   -0.177314
   7 C :    0.129782
   8 O :   -0.204318
   9 C :    0.128404
  10 O :   -0.086361
  11 C :    0.015333
  12 C :    0.032458
  13 O :   -0.104358
  14 C :    0.013681
  15 C :    0.029127
  16 C :   -0.184717
  17 C :   -0.014175
  18 N :   -0.015956
  19 S :    0.409885
  20 C :   -0.206903
  21 C :    0.028299
  22 C :   -0.184595
  23 C :   -0.003541
  24 N :   -0.010699
  25 S :    0.415644
  26 C :   -0.209748
  27 C :    0.018878
  28 C :    0.110221
  29 C :   -0.163924
  30 C :    0.114393
  31 C :   -0.164312
  32 C :    0.173485
  33 C :   -0.052198
  34 C :   -0.022728
  35 C :    0.119067
  36 C :    0.164275
  37 C :   -0.053848
  38 C :   -0.021384
  39 C :    0.108693
  40 C :    0.008709
  41 C :    0.123044
  42 C :    0.125085
  43 C :   -0.001415
  44 C :    0.011488
  45 C :    0.121246
  46 C :    0.125081
  47 C :   -0.007140
  48 F :   -0.110732
  49 F :   -0.108380
  50 O :   -0.241568
  51 C :   -0.176242
  52 C :    0.007510
  53 C :    0.012319
  54 C :    0.076255
  55 C :   -0.032768
  56 C :    0.078488
  57 C :   -0.035530
  58 C :   -0.044715
  59 C :   -0.044319
  60 O :   -0.231217
  61 C :   -0.180716
  62 F :   -0.109170
  63 F :   -0.110656
  64 N :   -0.092699
  65 N :   -0.089796
  66 C :    0.009243
  67 C :    0.009073
  68 N :   -0.094787
  69 N :   -0.081157
  70 H :    0.017317
  71 H :    0.014924
  72 H :    0.016760
  73 H :    0.003508
  74 H :    0.043497
  75 H :    0.035913
  76 H :    0.045843
  77 H :    0.052930
  78 H :    0.054635
  79 H :    0.055128
  80 H :    0.056206
  81 H :    0.053559
  82 H :    0.021011
  83 H :    0.030833
  84 H :    0.019276
  85 H :    0.025186
  86 H :    0.023558
  87 H :    0.020451
  88 H :    0.029695
  89 H :    0.017450
  90 H :    0.022510
  91 H :    0.020095
  92 H :    0.020027
  93 H :    0.028659
  94 H :    0.021235
  95 H :    0.027304
  96 H :    0.025966
  97 H :    0.021088

  Mayer bond orders larger than 0.100000
B(  0-C ,  1-C ) :   1.2692 B(  0-C ,  5-C ) :   1.4044 B(  0-C , 13-O ) :   0.9432
B(  1-C ,  2-C ) :   1.2848 B(  1-C , 15-C ) :   1.1663 B(  2-C ,  3-C ) :   1.4174
B(  2-C ,  8-O ) :   1.0479 B(  3-C ,  4-C ) :   1.3000 B(  3-C , 10-O ) :   0.9945
B(  4-C ,  5-C ) :   1.2981 B(  4-C , 12-C ) :   1.1555 B(  5-C ,  6-O ) :   1.0721
B(  6-O ,  7-C ) :   0.8012 B(  7-C , 58-C ) :   1.0518 B(  7-C , 70-H ) :   0.9808
B(  7-C , 71-H ) :   0.9778 B(  8-O ,  9-C ) :   0.7990 B(  9-C , 59-C ) :   1.0656
B(  9-C , 72-H ) :   0.9777 B(  9-C , 73-H ) :   0.9758 B( 10-O , 11-C ) :   0.9773
B( 11-C , 12-C ) :   1.4271 B( 11-C , 22-C ) :   1.5228 B( 12-C , 24-N ) :   1.1372
B( 13-O , 14-C ) :   0.9737 B( 14-C , 15-C ) :   1.4303 B( 14-C , 16-C ) :   1.5160
B( 15-C , 18-N ) :   1.1379 B( 16-C , 17-C ) :   1.3340 B( 16-C , 19-S ) :   0.9959
B( 17-C , 18-N ) :   1.0739 B( 17-C , 21-C ) :   1.3091 B( 18-N , 54-C ) :   0.8378
B( 19-S , 20-C ) :   1.0471 B( 20-C , 21-C ) :   1.4435 B( 20-C , 28-C ) :   1.2905
B( 21-C , 74-H ) :   0.9867 B( 22-C , 23-C ) :   1.3410 B( 22-C , 25-S ) :   0.9912
B( 23-C , 24-N ) :   1.0796 B( 23-C , 27-C ) :   1.3427 B( 24-N , 56-C ) :   0.8456
B( 25-S , 26-C ) :   1.0524 B( 26-C , 27-C ) :   1.4521 B( 26-C , 30-C ) :   1.2173
B( 27-C , 75-H ) :   0.9965 B( 28-C , 29-C ) :   1.6135 B( 28-C , 76-H ) :   0.9394
B( 29-C , 32-C ) :   0.9843 B( 29-C , 35-C ) :   1.1193 B( 30-C , 31-C ) :   1.6474
B( 30-C , 77-H ) :   0.9476 B( 31-C , 36-C ) :   1.0068 B( 31-C , 39-C ) :   1.1018
B( 32-C , 33-C ) :   0.9832 B( 32-C , 50-O ) :   2.0045 B( 33-C , 34-C ) :   1.3732
B( 33-C , 40-C ) :   1.3881 B( 34-C , 35-C ) :   1.0374 B( 34-C , 43-C ) :   1.3734
B( 35-C , 51-C ) :   1.6704 B( 36-C , 37-C ) :   0.9446 B( 36-C , 60-O ) :   2.1011
B( 37-C , 38-C ) :   1.3671 B( 37-C , 44-C ) :   1.3910 B( 38-C , 39-C ) :   1.0426
B( 38-C , 47-C ) :   1.3830 B( 39-C , 61-C ) :   1.6700 B( 40-C , 41-C ) :   1.3802
B( 40-C , 78-H ) :   1.0141 B( 41-C , 42-C ) :   1.3377 B( 41-C , 48-F ) :   0.9349
B( 42-C , 43-C ) :   1.4046 B( 42-C , 49-F ) :   0.9447 B( 43-C , 79-H ) :   0.9902
B( 44-C , 45-C ) :   1.3798 B( 44-C , 80-H ) :   1.0133 B( 45-C , 46-C ) :   1.3411
B( 45-C , 63-F ) :   0.9349 B( 46-C , 47-C ) :   1.4021 B( 46-C , 62-F ) :   0.9417
B( 47-C , 81-H ) :   0.9927 B( 51-C , 52-C ) :   1.0664 B( 51-C , 53-C ) :   1.0661
B( 52-C , 65-N ) :   2.9825 B( 53-C , 64-N ) :   2.9851 B( 54-C , 55-C ) :   1.0505
B( 54-C , 82-H ) :   0.9755 B( 54-C , 83-H ) :   0.9693 B( 55-C , 84-H ) :   0.9834
B( 55-C , 85-H ) :   0.9848 B( 55-C , 86-H ) :   0.9800 B( 56-C , 57-C ) :   1.0402
B( 56-C , 87-H ) :   0.9800 B( 56-C , 88-H ) :   0.9713 B( 57-C , 89-H ) :   0.9817
B( 57-C , 90-H ) :   0.9866 B( 57-C , 91-H ) :   0.9812 B( 58-C , 92-H ) :   0.9802
B( 58-C , 93-H ) :   0.9812 B( 58-C , 94-H ) :   0.9820 B( 59-C , 95-H ) :   0.9755
B( 59-C , 96-H ) :   0.9788 B( 59-C , 97-H ) :   0.9811 B( 61-C , 66-C ) :   1.0840
B( 61-C , 67-C ) :   1.0516 B( 66-C , 69-N ) :   3.0039 B( 67-C , 68-N ) :   2.9956

-----------------------------------------------------------------------------
         ABSORPTION SPECTRUM VIA TRANSITION ELECTRIC DIPOLE MOMENTS
-----------------------------------------------------------------------------
State   Energy    Wavelength  fosc         T2        TX        TY        TZ
        (cm-1)      (nm)                 (au**2)    (au)      (au)      (au)
-----------------------------------------------------------------------------
   1   20776.0    481.3   2.885213135  45.71838   5.66335  -3.42488   1.38386
   2   25661.8    389.7   0.520685379   6.67981   1.08279  -1.97513   1.26739
   3   34553.6    289.4   0.209117667   1.99238   0.81810  -1.02809   0.51587

FINAL SINGLE POINT ENERGY     -3951.126197730659

DIPOLE MOMENT
-------------
                                X             Y             Z
Electronic contribution:      8.78117      15.35570      -2.25926
Nuclear contribution   :     -9.96716     -16.67571       4.05533
                        -----------------------------------------
Total Dipole Moment    :     -1.18599      -1.32001       1.79607
                        -----------------------------------------
Magnitude (a.u.)       :      2.52485
Magnitude (Debye)      :      6.41766

Rotational constants in cm-1:     0.003323     0.000238     0.000228
Rotational constants in MHz :    99.635507     7.128280     6.828486

                             ****ORCA TERMINATED NORMALLY****
TOTAL RUN TIME: 0 days 13 hours 3 minutes 25 seconds 877 msec
