                         Program Version 4.2.0 -  RELEASE  -
|  1> # ORCA input file
|  2> # N3.out: Geometry 122
|  3> ! Engrad Keepdens
|  4> %maxcore 1000
|  5> %tddft
|  6>   nroots 3
|  7>   # nroots is the number of states to be computed
|  8>   Iroot 1
|  9>   end
| 10> * xyz 0 1
| 11>    C        4.16064         0.57998         0.19647
| 12>    O        3.95169         1.47636         0.99298
| 13>    C        5.00419         0.68465        -1.02740
| 14>    C        5.63591         1.81641        -1.53311
| 15>    C        6.39826         1.66902        -2.68852
| 16>    F        7.02127         2.70913        -3.23802
| 17>    C        6.52402         0.40991        -3.30386
| 18>    F        7.26970         0.31301        -4.40120
| 19>    C        5.89180        -0.72087        -2.79567
| 20>    C        5.11226        -0.57869        -1.64017
| 21>    C        4.30805        -1.55342        -0.86575
| 22>    C        4.08867        -2.87005        -1.23450
| 23>    C        3.24642        -3.77032        -0.50743
| 24>    N        2.57440        -4.52637         0.06606
| 25>    C        4.66603        -3.45334        -2.40533
| 26>    N        5.12307        -3.94745        -3.35272
| 27>    C        3.74420        -0.84479         0.28586
| 28>    C        3.11830        -1.45674         1.35501
| 29>    C        2.36273        -0.99906         2.46806
| 30>    S        2.32673        -2.20326         3.78823
| 31>    C        1.25908        -1.22643         4.71775
| 32>    C        0.92025        -0.04452         4.02114
| 33>    C        1.51824         0.10368         2.74984
| 34>    C        1.13340         1.21767         1.81627
| 35>    C        0.53809         0.73653         0.48607
| 36>    S       -0.23566         0.95990         4.91104
| 37>    C       -0.25452        -0.22109         6.19866
| 38>    C        0.59760        -1.31056         5.96040
| 39>    N        0.46334        -2.24255         6.97435
| 40>    C        0.91174        -3.61827         6.76983
| 41>    C        2.41880        -3.79280         6.90562
| 42>    C       -0.47363        -1.75209         7.88408
| 43>    C       -0.94769        -0.48895         7.40172
| 44>    C       -2.01718         0.19687         8.06419
| 45>    N       -2.57888         1.34286         7.70376
| 46>    S       -3.80965         1.63288         8.77244
| 47>    N       -3.64855         0.28544         9.72124
| 48>    C       -2.63683        -0.41449         9.22759
| 49>    C       -2.11480        -1.64841         9.73330
| 50>    C       -1.01462        -2.29976         9.09893
| 51>    N       -0.69241        -3.44746         9.83566
| 52>    C        0.63159        -4.06374         9.97014
| 53>    C        0.64480        -5.56267         9.70267
| 54>    C       -1.59646        -3.53595        10.88801
| 55>    C       -2.47114        -2.43957        10.85068
| 56>    S       -3.60806        -2.41437        12.17072
| 57>    C       -2.89794        -3.90748        12.79609
| 58>    C       -1.85110        -4.39609        11.98448
| 59>    S       -1.29145        -5.92708        12.56489
| 60>    C       -2.42712        -5.87584        13.93283
| 61>    C       -3.23214        -4.72357        13.90586
| 62>    C       -4.40755        -4.43745        14.79872
| 63>    C       -4.31845        -3.08883        15.52727
| 64>    C       -2.45509        -7.06404        14.72893
| 65>    C       -2.64792        -7.22800        16.08163
| 66>    C       -2.73327        -8.50490        16.79753
| 67>    C       -3.02975        -9.74384        16.26127
| 68>    C       -3.11269       -10.93126        17.05511
| 69>    N       -3.18340       -11.90267        17.68922
| 70>    C       -3.30551        -9.95330        14.87280
| 71>    N       -3.52867       -10.16275        13.75175
| 72>    C       -2.49092        -8.22739        18.23224
| 73>    C       -2.39639        -9.07514        19.34461
| 74>    C       -2.13129        -8.50036        20.58423
| 75>    F       -2.02184        -9.26886        21.66330
| 76>    C       -1.96806        -7.11123        20.74016
| 77>    F       -1.71885        -6.63360        21.95580
| 78>    C       -2.06425        -6.26274        19.64351
| 79>    C       -2.32476        -6.83965        18.40447
| 80>    C       -2.45608        -6.14727        17.09530
| 81>    O       -2.33874        -4.95378        16.90644
| 82>    H        5.53875         2.78750        -1.04484
| 83>    H        6.03247        -1.66375        -3.31961
| 84>    H        3.24668        -2.54110         1.38153
| 85>    H        2.02424         1.83129         1.61820
| 86>    H        0.40164         1.85688         2.33529
| 87>    H        1.26998         0.16628        -0.10405
| 88>    H        0.21629         1.59744        -0.11922
| 89>    H       -0.33617         0.08804         0.65018
| 90>    H        0.58937        -3.92485         5.76081
| 91>    H        0.36180        -4.25727         7.46469
| 92>    H        2.77608        -3.50478         7.90561
| 93>    H        2.96146        -3.17453         6.17754
| 94>    H        2.69656        -4.84182         6.72098
| 95>    H        0.98698        -3.86253        10.99517
| 96>    H        1.31887        -3.53087         9.30649
| 97>    H       -0.03788        -6.10102        10.37243
| 98>    H        1.65519        -5.96548         9.87205
| 99>    H        0.33813        -5.80307         8.67408
|100>    H       -4.53266        -5.24953        15.52568
|101>    H       -5.30759        -4.45037        14.15614
|102>    H       -5.20921        -2.93479        16.15578
|103>    H       -4.26115        -2.24693        14.81985
|104>    H       -3.43112        -3.06147        16.17127
|105>    H       -2.21742        -7.96948        14.16290
|106>    H       -2.51503       -10.15579        19.29278
|107>    H       -1.93149        -5.18497        19.75360
|108> *
|109>
|110>                          ****END OF INPUT****

CARTESIAN COORDINATES (ANGSTROEM)
---------------------------------
  C      4.160640    0.579980    0.196470
  O      3.951690    1.476360    0.992980
  C      5.004190    0.684650   -1.027400
  C      5.635910    1.816410   -1.533110
  C      6.398260    1.669020   -2.688520
  F      7.021270    2.709130   -3.238020
  C      6.524020    0.409910   -3.303860
  F      7.269700    0.313010   -4.401200
  C      5.891800   -0.720870   -2.795670
  C      5.112260   -0.578690   -1.640170
  C      4.308050   -1.553420   -0.865750
  C      4.088670   -2.870050   -1.234500
  C      3.246420   -3.770320   -0.507430
  N      2.574400   -4.526370    0.066060
  C      4.666030   -3.453340   -2.405330
  N      5.123070   -3.947450   -3.352720
  C      3.744200   -0.844790    0.285860
  C      3.118300   -1.456740    1.355010
  C      2.362730   -0.999060    2.468060
  S      2.326730   -2.203260    3.788230
  C      1.259080   -1.226430    4.717750
  C      0.920250   -0.044520    4.021140
  C      1.518240    0.103680    2.749840
  C      1.133400    1.217670    1.816270
  C      0.538090    0.736530    0.486070
  S     -0.235660    0.959900    4.911040
  C     -0.254520   -0.221090    6.198660
  C      0.597600   -1.310560    5.960400
  N      0.463340   -2.242550    6.974350
  C      0.911740   -3.618270    6.769830
  C      2.418800   -3.792800    6.905620
  C     -0.473630   -1.752090    7.884080
  C     -0.947690   -0.488950    7.401720
  C     -2.017180    0.196870    8.064190
  N     -2.578880    1.342860    7.703760
  S     -3.809650    1.632880    8.772440
  N     -3.648550    0.285440    9.721240
  C     -2.636830   -0.414490    9.227590
  C     -2.114800   -1.648410    9.733300
  C     -1.014620   -2.299760    9.098930
  N     -0.692410   -3.447460    9.835660
  C      0.631590   -4.063740    9.970140
  C      0.644800   -5.562670    9.702670
  C     -1.596460   -3.535950   10.888010
  C     -2.471140   -2.439570   10.850680
  S     -3.608060   -2.414370   12.170720
  C     -2.897940   -3.907480   12.796090
  C     -1.851100   -4.396090   11.984480
  S     -1.291450   -5.927080   12.564890
  C     -2.427120   -5.875840   13.932830
  C     -3.232140   -4.723570   13.905860
  C     -4.407550   -4.437450   14.798720
  C     -4.318450   -3.088830   15.527270
  C     -2.455090   -7.064040   14.728930
  C     -2.647920   -7.228000   16.081630
  C     -2.733270   -8.504900   16.797530
  C     -3.029750   -9.743840   16.261270
  C     -3.112690  -10.931260   17.055110
  N     -3.183400  -11.902670   17.689220
  C     -3.305510   -9.953300   14.872800
  N     -3.528670  -10.162750   13.751750
  C     -2.490920   -8.227390   18.232240
  C     -2.396390   -9.075140   19.344610
  C     -2.131290   -8.500360   20.584230
  F     -2.021840   -9.268860   21.663300
  C     -1.968060   -7.111230   20.740160
  F     -1.718850   -6.633600   21.955800
  C     -2.064250   -6.262740   19.643510
  C     -2.324760   -6.839650   18.404470
  C     -2.456080   -6.147270   17.095300
  O     -2.338740   -4.953780   16.906440
  H      5.538750    2.787500   -1.044840
  H      6.032470   -1.663750   -3.319610
  H      3.246680   -2.541100    1.381530
  H      2.024240    1.831290    1.618200
  H      0.401640    1.856880    2.335290
  H      1.269980    0.166280   -0.104050
  H      0.216290    1.597440   -0.119220
  H     -0.336170    0.088040    0.650180
  H      0.589370   -3.924850    5.760810
  H      0.361800   -4.257270    7.464690
  H      2.776080   -3.504780    7.905610
  H      2.961460   -3.174530    6.177540
  H      2.696560   -4.841820    6.720980
  H      0.986980   -3.862530   10.995170
  H      1.318870   -3.530870    9.306490
  H     -0.037880   -6.101020   10.372430
  H      1.655190   -5.965480    9.872050
  H      0.338130   -5.803070    8.674080
  H     -4.532660   -5.249530   15.525680
  H     -5.307590   -4.450370   14.156140
  H     -5.209210   -2.934790   16.155780
  H     -4.261150   -2.246930   14.819850
  H     -3.431120   -3.061470   16.171270
  H     -2.217420   -7.969480   14.162900
  H     -2.515030  -10.155790   19.292780
  H     -1.931490   -5.184970   19.753600

 Total Charge           Charge          ....    0
 Multiplicity           Mult            ....    1
 Number of Electrons    NEL             ....  526
 Basis Dimension        Dim             .... 1144

ORBITAL ENERGIES
----------------

  NO   OCC          E(Eh)            E(eV)
   0   2.0000     -92.022258     -2504.0530
   1   2.0000     -91.988636     -2503.1380
   2   2.0000     -91.987913     -2503.1184
   3   2.0000     -91.981439     -2502.9422
   4   2.0000     -91.981045     -2502.9315
   5   2.0000     -26.343375      -716.8397
   6   2.0000     -26.340743      -716.7681
   7   2.0000     -26.339608      -716.7372
   8   2.0000     -26.336881      -716.6630
   9   2.0000     -20.578341      -559.9651
  10   2.0000     -20.574121      -559.8503
  11   2.0000     -15.661441      -426.1695
  12   2.0000     -15.658001      -426.0759
  13   2.0000     -15.623404      -425.1344
  14   2.0000     -15.622416      -425.1075
  15   2.0000     -15.604110      -424.6094
  16   2.0000     -15.603318      -424.5879
  17   2.0000     -15.600826      -424.5201
  18   2.0000     -15.597674      -424.4343
  19   2.0000     -11.386104      -309.8316
  20   2.0000     -11.384350      -309.7839
  21   2.0000     -11.382272      -309.7274
  22   2.0000     -11.379925      -309.6635
  23   2.0000     -11.378643      -309.6286
  24   2.0000     -11.374629      -309.5194
  25   2.0000     -11.357215      -309.0455
  26   2.0000     -11.352966      -308.9299
  27   2.0000     -11.343184      -308.6637
  28   2.0000     -11.339743      -308.5701
  29   2.0000     -11.339065      -308.5516
  30   2.0000     -11.335301      -308.4492
  31   2.0000     -11.332186      -308.3645
  32   2.0000     -11.332000      -308.3594
  33   2.0000     -11.325732      -308.1888
  34   2.0000     -11.322396      -308.0981
  35   2.0000     -11.321465      -308.0727
  36   2.0000     -11.321068      -308.0619
  37   2.0000     -11.319788      -308.0271
  38   2.0000     -11.318856      -308.0017
  39   2.0000     -11.317519      -307.9653
  40   2.0000     -11.316499      -307.9376
  41   2.0000     -11.315666      -307.9149
  42   2.0000     -11.314964      -307.8958
  43   2.0000     -11.314749      -307.8900
  44   2.0000     -11.314525      -307.8839
  45   2.0000     -11.312887      -307.8393
  46   2.0000     -11.310673      -307.7791
  47   2.0000     -11.309924      -307.7587
  48   2.0000     -11.309154      -307.7377
  49   2.0000     -11.308343      -307.7157
  50   2.0000     -11.307170      -307.6837
  51   2.0000     -11.304676      -307.6159
  52   2.0000     -11.304514      -307.6115
  53   2.0000     -11.304440      -307.6095
  54   2.0000     -11.302429      -307.5547
  55   2.0000     -11.301329      -307.5248
  56   2.0000     -11.300944      -307.5143
  57   2.0000     -11.300917      -307.5136
  58   2.0000     -11.300046      -307.4899
  59   2.0000     -11.299281      -307.4691
  60   2.0000     -11.295067      -307.3544
  61   2.0000     -11.293110      -307.3011
  62   2.0000     -11.286788      -307.1291
  63   2.0000     -11.285595      -307.0967
  64   2.0000     -11.285338      -307.0897
  65   2.0000     -11.268683      -306.6365
  66   2.0000     -11.268403      -306.6288
  67   2.0000     -11.262148      -306.4586
  68   2.0000     -11.256392      -306.3020
  69   2.0000     -11.245954      -306.0180
  70   2.0000     -11.235915      -305.7448
  71   2.0000      -9.053392      -246.3553
  72   2.0000      -9.023447      -245.5405
  73   2.0000      -9.022491      -245.5145
  74   2.0000      -9.015082      -245.3128
  75   2.0000      -9.014695      -245.3023
  76   2.0000      -6.740556      -183.4198
  77   2.0000      -6.738845      -183.3733
  78   2.0000      -6.737047      -183.3244
  79   2.0000      -6.711033      -182.6165
  80   2.0000      -6.710099      -182.5911
  81   2.0000      -6.709850      -182.5843
  82   2.0000      -6.708996      -182.5611
  83   2.0000      -6.707857      -182.5301
  84   2.0000      -6.706923      -182.5047
  85   2.0000      -6.702560      -182.3859
  86   2.0000      -6.702176      -182.3755
  87   2.0000      -6.701737      -182.3635
  88   2.0000      -6.701338      -182.3527
  89   2.0000      -6.699420      -182.3005
  90   2.0000      -6.699059      -182.2907
  91   2.0000      -1.656157       -45.0663
  92   2.0000      -1.651710       -44.9453
  93   2.0000      -1.640030       -44.6275
  94   2.0000      -1.635801       -44.5124
  95   2.0000      -1.408241       -38.3202
  96   2.0000      -1.402636       -38.1677
  97   2.0000      -1.354967       -36.8705
  98   2.0000      -1.341418       -36.5018
  99   2.0000      -1.336059       -36.3560
 100   2.0000      -1.253067       -34.0977
 101   2.0000      -1.248901       -33.9843
 102   2.0000      -1.232325       -33.5333
 103   2.0000      -1.230662       -33.4880
 104   2.0000      -1.228961       -33.4417
 105   2.0000      -1.227886       -33.4125
 106   2.0000      -1.226970       -33.3875
 107   2.0000      -1.224063       -33.3085
 108   2.0000      -1.197873       -32.5958
 109   2.0000      -1.176540       -32.0153
 110   2.0000      -1.173040       -31.9200
 111   2.0000      -1.168052       -31.7843
 112   2.0000      -1.154620       -31.4188
 113   2.0000      -1.145892       -31.1813
 114   2.0000      -1.110629       -30.2217
 115   2.0000      -1.103346       -30.0236
 116   2.0000      -1.097796       -29.8726
 117   2.0000      -1.088517       -29.6201
 118   2.0000      -1.086633       -29.5688
 119   2.0000      -1.081908       -29.4402
 120   2.0000      -1.075082       -29.2545
 121   2.0000      -1.073025       -29.1985
 122   2.0000      -1.070913       -29.1410
 123   2.0000      -1.068915       -29.0867
 124   2.0000      -1.036671       -28.2092
 125   2.0000      -1.034541       -28.1513
 126   2.0000      -1.014608       -27.6089
 127   2.0000      -1.011458       -27.5232
 128   2.0000      -1.002211       -27.2715
 129   2.0000      -0.994673       -27.0664
 130   2.0000      -0.973122       -26.4800
 131   2.0000      -0.963605       -26.2210
 132   2.0000      -0.958392       -26.0792
 133   2.0000      -0.944851       -25.7107
 134   2.0000      -0.940723       -25.5984
 135   2.0000      -0.936549       -25.4848
 136   2.0000      -0.907554       -24.6958
 137   2.0000      -0.906537       -24.6681
 138   2.0000      -0.898482       -24.4489
 139   2.0000      -0.891451       -24.2576
 140   2.0000      -0.872421       -23.7398
 141   2.0000      -0.870408       -23.6850
 142   2.0000      -0.865919       -23.5629
 143   2.0000      -0.863948       -23.5092
 144   2.0000      -0.860672       -23.4201
 145   2.0000      -0.854017       -23.2390
 146   2.0000      -0.845247       -23.0003
 147   2.0000      -0.831990       -22.6396
 148   2.0000      -0.818762       -22.2796
 149   2.0000      -0.807966       -21.9859
 150   2.0000      -0.804447       -21.8901
 151   2.0000      -0.801693       -21.8152
 152   2.0000      -0.793163       -21.5831
 153   2.0000      -0.792271       -21.5588
 154   2.0000      -0.788011       -21.4429
 155   2.0000      -0.779574       -21.2133
 156   2.0000      -0.774962       -21.0878
 157   2.0000      -0.774033       -21.0625
 158   2.0000      -0.759982       -20.6801
 159   2.0000      -0.755193       -20.5499
 160   2.0000      -0.751395       -20.4465
 161   2.0000      -0.750460       -20.4211
 162   2.0000      -0.746364       -20.3096
 163   2.0000      -0.737846       -20.0778
 164   2.0000      -0.731930       -19.9168
 165   2.0000      -0.729751       -19.8575
 166   2.0000      -0.727494       -19.7961
 167   2.0000      -0.722002       -19.6467
 168   2.0000      -0.718119       -19.5410
 169   2.0000      -0.715835       -19.4789
 170   2.0000      -0.706844       -19.2342
 171   2.0000      -0.705787       -19.2054
 172   2.0000      -0.698161       -18.9979
 173   2.0000      -0.695119       -18.9151
 174   2.0000      -0.689844       -18.7716
 175   2.0000      -0.682181       -18.5631
 176   2.0000      -0.680814       -18.5259
 177   2.0000      -0.675137       -18.3714
 178   2.0000      -0.672156       -18.2903
 179   2.0000      -0.669280       -18.2120
 180   2.0000      -0.665196       -18.1009
 181   2.0000      -0.657001       -17.8779
 182   2.0000      -0.652424       -17.7534
 183   2.0000      -0.648493       -17.6464
 184   2.0000      -0.647018       -17.6063
 185   2.0000      -0.644769       -17.5450
 186   2.0000      -0.643354       -17.5065
 187   2.0000      -0.639699       -17.4071
 188   2.0000      -0.633931       -17.2501
 189   2.0000      -0.632699       -17.2166
 190   2.0000      -0.630813       -17.1653
 191   2.0000      -0.629330       -17.1250
 192   2.0000      -0.627995       -17.0886
 193   2.0000      -0.626010       -17.0346
 194   2.0000      -0.624589       -16.9959
 195   2.0000      -0.621097       -16.9009
 196   2.0000      -0.617648       -16.8071
 197   2.0000      -0.614272       -16.7152
 198   2.0000      -0.609786       -16.5931
 199   2.0000      -0.603684       -16.4271
 200   2.0000      -0.598732       -16.2923
 201   2.0000      -0.588390       -16.0109
 202   2.0000      -0.588162       -16.0047
 203   2.0000      -0.586133       -15.9495
 204   2.0000      -0.585024       -15.9193
 205   2.0000      -0.582902       -15.8616
 206   2.0000      -0.580933       -15.8080
 207   2.0000      -0.578446       -15.7403
 208   2.0000      -0.577290       -15.7089
 209   2.0000      -0.576368       -15.6838
 210   2.0000      -0.574029       -15.6201
 211   2.0000      -0.571902       -15.5622
 212   2.0000      -0.568281       -15.4637
 213   2.0000      -0.565901       -15.3989
 214   2.0000      -0.564698       -15.3662
 215   2.0000      -0.560629       -15.2555
 216   2.0000      -0.559542       -15.2259
 217   2.0000      -0.554973       -15.1016
 218   2.0000      -0.550770       -14.9872
 219   2.0000      -0.548134       -14.9155
 220   2.0000      -0.542540       -14.7633
 221   2.0000      -0.540181       -14.6991
 222   2.0000      -0.537787       -14.6339
 223   2.0000      -0.537157       -14.6168
 224   2.0000      -0.533558       -14.5189
 225   2.0000      -0.531656       -14.4671
 226   2.0000      -0.525992       -14.3130
 227   2.0000      -0.513432       -13.9712
 228   2.0000      -0.511423       -13.9165
 229   2.0000      -0.508508       -13.8372
 230   2.0000      -0.507345       -13.8056
 231   2.0000      -0.504787       -13.7359
 232   2.0000      -0.503283       -13.6950
 233   2.0000      -0.500043       -13.6068
 234   2.0000      -0.499638       -13.5958
 235   2.0000      -0.498398       -13.5621
 236   2.0000      -0.493471       -13.4280
 237   2.0000      -0.490447       -13.3457
 238   2.0000      -0.487633       -13.2692
 239   2.0000      -0.486926       -13.2499
 240   2.0000      -0.482418       -13.1273
 241   2.0000      -0.481019       -13.0892
 242   2.0000      -0.475994       -12.9525
 243   2.0000      -0.474050       -12.8996
 244   2.0000      -0.470112       -12.7924
 245   2.0000      -0.461640       -12.5619
 246   2.0000      -0.457298       -12.4437
 247   2.0000      -0.454182       -12.3589
 248   2.0000      -0.451928       -12.2976
 249   2.0000      -0.418342       -11.3837
 250   2.0000      -0.415699       -11.3117
 251   2.0000      -0.398525       -10.8444
 252   2.0000      -0.395245       -10.7552
 253   2.0000      -0.388463       -10.5706
 254   2.0000      -0.386863       -10.5271
 255   2.0000      -0.366021        -9.9599
 256   2.0000      -0.361261        -9.8304
 257   2.0000      -0.358733        -9.7616
 258   2.0000      -0.348941        -9.4952
 259   2.0000      -0.336764        -9.1638
 260   2.0000      -0.320519        -8.7218
 261   2.0000      -0.314149        -8.5484
 262   2.0000      -0.266371        -7.2483
 263   0.0000      -0.035539        -0.9671
 264   0.0000      -0.022364        -0.6086
 265   0.0000       0.004254         0.1158
 266   0.0000       0.011888         0.3235
 267   0.0000       0.025109         0.6832

MULLIKEN ATOMIC CHARGES
-----------------------
   0 C :    0.511440
   1 O :   -0.374839
   2 C :   -0.188682
   3 C :   -0.037655
   4 C :    0.342894
   5 F :   -0.304122
   6 C :    0.344708
   7 F :   -0.301711
   8 C :   -0.055935
   9 C :   -0.025873
  10 C :    0.236947
  11 C :   -0.342015
  12 C :    0.034172
  13 N :   -0.081553
  14 C :    0.041645
  15 N :   -0.083114
  16 C :   -0.311755
  17 C :    0.141061
  18 C :   -0.244463
  19 S :    0.169947
  20 C :   -0.013423
  21 C :   -0.164191
  22 C :   -0.016624
  23 C :    0.012959
  24 C :   -0.056557
  25 S :    0.241317
  26 C :    0.020536
  27 C :    0.138088
  28 N :   -0.601846
  29 C :    0.110428
  30 C :   -0.047689
  31 C :    0.248728
  32 C :   -0.221223
  33 C :    0.162013
  34 N :   -0.468161
  35 S :    0.546162
  36 N :   -0.465564
  37 C :    0.154248
  38 C :   -0.213269
  39 C :    0.247217
  40 N :   -0.603246
  41 C :    0.107436
  42 C :   -0.043368
  43 C :    0.138333
  44 C :    0.009431
  45 S :    0.236807
  46 C :   -0.131532
  47 C :   -0.016290
  48 S :    0.158520
  49 C :   -0.241185
  50 C :   -0.025316
  51 C :    0.030254
  52 C :   -0.064585
  53 C :    0.135266
  54 C :   -0.269507
  55 C :    0.213771
  56 C :   -0.329332
  57 C :    0.043568
  58 N :   -0.077793
  59 C :    0.030003
  60 N :   -0.071007
  61 C :   -0.022854
  62 C :   -0.056530
  63 C :    0.346024
  64 F :   -0.300054
  65 C :    0.344154
  66 F :   -0.302077
  67 C :   -0.035053
  68 C :   -0.187153
  69 C :    0.486068
  70 O :   -0.360365
  71 H :    0.087619
  72 H :    0.106270
  73 H :    0.101650
  74 H :    0.119378
  75 H :    0.045986
  76 H :    0.050079
  77 H :    0.049589
  78 H :    0.046779
  79 H :    0.072946
  80 H :    0.058088
  81 H :    0.045322
  82 H :    0.060654
  83 H :    0.058640
  84 H :    0.069572
  85 H :    0.054946
  86 H :    0.061800
  87 H :    0.056322
  88 H :    0.046932
  89 H :    0.045647
  90 H :    0.065859
  91 H :    0.042079
  92 H :    0.044437
  93 H :    0.080737
  94 H :    0.105977
  95 H :    0.107180
  96 H :    0.088880
Sum of atomic charges:   -0.0000000

LOEWDIN ATOMIC CHARGES
----------------------
   0 C :    0.170077
   1 O :   -0.231235
   2 C :   -0.052506
   3 C :    0.002106
   4 C :    0.121759
   5 F :   -0.103030
   6 C :    0.120436
   7 F :   -0.101717
   8 C :   -0.006729
   9 C :   -0.024874
  10 C :    0.122994
  11 C :   -0.176127
  12 C :    0.013619
  13 N :   -0.098792
  14 C :    0.017307
  15 N :   -0.097169
  16 C :   -0.166594
  17 C :    0.108919
  18 C :   -0.209829
  19 S :    0.414339
  20 C :   -0.166817
  21 C :   -0.203331
  22 C :    0.036702
  23 C :   -0.020696
  24 C :   -0.028110
  25 S :    0.405774
  26 C :   -0.149514
  27 C :   -0.026990
  28 N :   -0.036904
  29 C :    0.073424
  30 C :   -0.041736
  31 C :    0.052594
  32 C :   -0.092969
  33 C :   -0.020351
  34 N :   -0.312382
  35 S :    0.587467
  36 N :   -0.309667
  37 C :   -0.023243
  38 C :   -0.083415
  39 C :    0.043340
  40 N :   -0.050287
  41 C :    0.075502
  42 C :   -0.041137
  43 C :   -0.018100
  44 C :   -0.160474
  45 S :    0.415543
  46 C :   -0.195819
  47 C :   -0.174732
  48 S :    0.402982
  49 C :   -0.206816
  50 C :    0.023768
  51 C :   -0.013070
  52 C :   -0.033099
  53 C :    0.110637
  54 C :   -0.150413
  55 C :    0.118259
  56 C :   -0.165880
  57 C :    0.017434
  58 N :   -0.091644
  59 C :    0.010921
  60 N :   -0.090456
  61 C :   -0.024321
  62 C :   -0.006902
  63 C :    0.121751
  64 F :   -0.100055
  65 C :    0.122072
  66 F :   -0.100876
  67 C :    0.003477
  68 C :   -0.053445
  69 C :    0.167005
  70 O :   -0.221411
  71 H :    0.058569
  72 H :    0.057412
  73 H :    0.045491
  74 H :    0.045389
  75 H :    0.020007
  76 H :    0.016883
  77 H :    0.025256
  78 H :    0.022049
  79 H :    0.027015
  80 H :    0.021683
  81 H :    0.020120
  82 H :    0.015452
  83 H :    0.031831
  84 H :    0.026998
  85 H :    0.020657
  86 H :    0.012235
  87 H :    0.031489
  88 H :    0.021226
  89 H :    0.024482
  90 H :    0.032632
  91 H :    0.022228
  92 H :    0.008822
  93 H :    0.029520
  94 H :    0.048883
  95 H :    0.057778
  96 H :    0.059349

  Mayer bond orders larger than 0.100000
B(  0-C ,  1-O ) :   2.0352 B(  0-C ,  2-C ) :   0.9633 B(  0-C , 16-C ) :   0.9942
B(  2-C ,  3-C ) :   1.3817 B(  2-C ,  9-C ) :   1.3861 B(  3-C ,  4-C ) :   1.3947
B(  3-C , 71-H ) :   1.0057 B(  4-C ,  5-F ) :   0.9424 B(  4-C ,  6-C ) :   1.3237
B(  6-C ,  7-F ) :   0.9492 B(  6-C ,  8-C ) :   1.4238 B(  8-C ,  9-C ) :   1.3605
B(  8-C , 72-H ) :   0.9845 B(  9-C , 10-C ) :   1.0395 B( 10-C , 11-C ) :   1.6766
B( 10-C , 16-C ) :   1.1038 B( 11-C , 12-C ) :   1.0588 B( 11-C , 14-C ) :   1.0559
B( 12-C , 13-N ) :   2.9859 B( 14-C , 15-N ) :   2.9814 B( 16-C , 17-C ) :   1.6403
B( 17-C , 18-C ) :   1.2401 B( 17-C , 73-H ) :   0.9379 B( 18-C , 19-S ) :   1.0758
B( 18-C , 22-C ) :   1.4819 B( 19-S , 20-C ) :   1.0641 B( 20-C , 21-C ) :   1.4791
B( 20-C , 27-C ) :   1.3278 B( 21-C , 22-C ) :   1.4390 B( 21-C , 25-S ) :   1.0012
B( 22-C , 23-C ) :   0.9611 B( 23-C , 24-C ) :   1.0454 B( 23-C , 74-H ) :   0.9337
B( 23-C , 75-H ) :   0.9691 B( 24-C , 76-H ) :   0.9852 B( 24-C , 77-H ) :   0.9860
B( 24-C , 78-H ) :   0.9823 B( 25-S , 26-C ) :   0.9936 B( 26-C , 27-C ) :   1.4700
B( 26-C , 32-C ) :   1.4232 B( 27-C , 28-N ) :   1.0700 B( 28-N , 29-C ) :   0.8270
B( 28-N , 31-C ) :   1.1117 B( 29-C , 30-C ) :   1.0352 B( 29-C , 79-H ) :   0.9776
B( 29-C , 80-H ) :   0.9838 B( 30-C , 81-H ) :   0.9795 B( 30-C , 82-H ) :   0.9761
B( 30-C , 83-H ) :   0.9819 B( 31-C , 32-C ) :   1.4607 B( 31-C , 39-C ) :   1.1497
B( 32-C , 33-C ) :   1.1145 B( 33-C , 34-N ) :   1.6187 B( 33-C , 37-C ) :   1.0994
B( 34-N , 35-S ) :   1.1608 B( 34-N , 36-N ) :   0.1043 B( 35-S , 36-N ) :   1.1622
B( 36-N , 37-C ) :   1.6206 B( 37-C , 38-C ) :   1.1114 B( 38-C , 39-C ) :   1.4857
B( 38-C , 44-C ) :   1.4027 B( 39-C , 40-N ) :   1.0893 B( 40-N , 41-C ) :   0.8293
B( 40-N , 43-C ) :   1.0682 B( 41-C , 42-C ) :   1.0362 B( 41-C , 84-H ) :   0.9774
B( 41-C , 85-H ) :   0.9842 B( 42-C , 86-H ) :   0.9775 B( 42-C , 87-H ) :   0.9813
B( 42-C , 88-H ) :   0.9799 B( 43-C , 44-C ) :   1.4879 B( 43-C , 47-C ) :   1.3330
B( 44-C , 45-S ) :   0.9948 B( 45-S , 46-C ) :   1.0099 B( 46-C , 47-C ) :   1.5135
B( 46-C , 50-C ) :   1.3727 B( 47-C , 48-S ) :   1.0443 B( 48-S , 49-C ) :   1.0705
B( 49-C , 50-C ) :   1.5791 B( 49-C , 53-C ) :   1.1664 B( 50-C , 51-C ) :   0.9725
B( 51-C , 52-C ) :   1.0341 B( 51-C , 89-H ) :   0.9638 B( 51-C , 90-H ) :   0.9663
B( 52-C , 91-H ) :   0.9854 B( 52-C , 92-H ) :   0.9818 B( 52-C , 93-H ) :   0.9792
B( 53-C , 54-C ) :   1.6981 B( 53-C , 94-H ) :   0.9454 B( 54-C , 55-C ) :   1.0802
B( 54-C , 69-C ) :   0.9847 B( 55-C , 56-C ) :   1.7045 B( 55-C , 61-C ) :   1.0433
B( 56-C , 57-C ) :   1.0509 B( 56-C , 59-C ) :   1.0576 B( 57-C , 58-N ) :   2.9839
B( 59-C , 60-N ) :   2.9939 B( 61-C , 62-C ) :   1.3557 B( 61-C , 68-C ) :   1.3833
B( 62-C , 63-C ) :   1.4280 B( 62-C , 95-H ) :   0.9846 B( 63-C , 64-F ) :   0.9505
B( 63-C , 65-C ) :   1.3189 B( 65-C , 66-F ) :   0.9446 B( 65-C , 67-C ) :   1.3987
B( 67-C , 68-C ) :   1.3774 B( 67-C , 96-H ) :   1.0058 B( 68-C , 69-C ) :   0.9696
B( 69-C , 70-O ) :   2.0482

-----------------------------------------------------------------------------
         ABSORPTION SPECTRUM VIA TRANSITION ELECTRIC DIPOLE MOMENTS
-----------------------------------------------------------------------------
State   Energy    Wavelength  fosc         T2        TX        TY        TZ
        (cm-1)      (nm)                 (au**2)    (au)      (au)      (au)
-----------------------------------------------------------------------------
   1   22222.0    450.0   2.762114667  40.91978   2.37272   1.90777  -5.62587
   2   26980.0    370.6   0.691305949   8.43538  -1.20160   2.64211   0.10394
   3   32946.9    303.5   0.003507767   0.03505  -0.11440  -0.07193  -0.12957

FINAL SINGLE POINT ENERGY     -4951.785326861273

DIPOLE MOMENT
-------------
                                X             Y             Z
Electronic contribution:      8.08322       3.60789       6.23827
Nuclear contribution   :     -8.09527      -1.04482      -4.40904
                        -----------------------------------------
Total Dipole Moment    :     -0.01205       2.56307       1.82924
                        -----------------------------------------
Magnitude (a.u.)       :      3.14890
Magnitude (Debye)      :      8.00387

Rotational constants in cm-1:     0.002092     0.000227     0.000213
Rotational constants in MHz :    62.703803     6.816366     6.397506

                             ****ORCA TERMINATED NORMALLY****
TOTAL RUN TIME: 0 days 9 hours 51 minutes 11 seconds 866 msec
