                         Program Version 4.2.0 -  RELEASE  -
|  1> # ORCA input file
|  2> # N3.out
|  3> ! Engrad Keepdens
|  4> %maxcore 1000
|  5> %tddft
|  6>   nroots 3
|  7>   # nroots is the number of states to be computed
|  8>   Iroot 1
|  9>   end
| 10> * xyz 0 1
| 11>    C        2.95748         4.00128         0.96639
| 12>    O        4.06750         4.15209         0.48542
| 13>    C        2.06117         5.08219         1.42870
| 14>    C        2.28155         6.44451         1.41448
| 15>    C        1.27828         7.26203         1.90967
| 16>    F        1.44860         8.59038         1.91565
| 17>    C        0.09409         6.71418         2.40147
| 18>    F       -0.85793         7.52682         2.87420
| 19>    C       -0.12592         5.34423         2.41525
| 20>    C        0.87249         4.51965         1.92211
| 21>    C        0.95522         3.06243         1.79646
| 22>    C       -0.03554         2.18678         2.16267
| 23>    C        0.01316         0.78315         2.03519
| 24>    N       -0.02849        -0.36296         1.96157
| 25>    C       -1.26909         2.57915         2.72406
| 26>    N       -2.29039         2.82897         3.18447
| 27>    C        2.24394         2.75134         1.21625
| 28>    C        2.71721         1.48033         0.96970
| 29>    C        3.91558         1.04110         0.41020
| 30>    S        5.20648         2.09491        -0.17723
| 31>    C        6.13378         0.72072        -0.64594
| 32>    C        5.47387        -0.48631        -0.34605
| 33>    C        4.23024        -0.32253         0.24292
| 34>    C        3.33909        -1.47092         0.58428
| 35>    C        2.33746        -1.73333        -0.54414
| 36>    S        6.39707        -1.91583        -0.77279
| 37>    C        7.65994        -0.88595        -1.34775
| 38>    C        7.38014         0.48098        -1.22798
| 39>    N        8.43136         1.21925        -1.70907
| 40>    C        8.54106         2.60585        -1.31689
| 41>    C        9.43307         2.80610        -0.08498
| 42>    C        9.40281         0.33671        -2.14549
| 43>    C        8.94589        -0.99199        -1.89299
| 44>    C        9.76935        -2.11944        -2.09683
| 45>    N        9.49234        -3.39351        -1.86716
| 46>    S       10.81182        -4.27081        -2.19673
| 47>    N       11.78360        -3.06023        -2.64748
| 48>    C       11.11217        -1.92198        -2.55839
| 49>    C       11.52081        -0.62053        -2.92293
| 50>    C       10.65953         0.50116        -2.79217
| 51>    N       11.27120         1.59131        -3.40665
| 52>    C       10.70754         2.84043        -3.86873
| 53>    C       11.09761         4.05565        -3.01516
| 54>    C       12.47223         1.15776        -3.87540
| 55>    C       12.68829        -0.18490        -3.59254
| 56>    S       13.70711         1.85235        -4.85096
| 57>    C       14.59157         0.33467        -4.81096
| 58>    C       13.91610        -0.65312        -4.12993
| 59>    S       14.51494        -2.28238        -3.91107
| 60>    C       16.67105        -0.76141        -5.22645
| 61>    C       15.84985         0.21711        -5.51448
| 62>    C       16.17834         1.26861        -6.54624
| 63>    C       17.47991         0.98755        -7.28238
| 64>    C       17.41396        -1.82579        -5.08918
| 65>    C       17.02006        -3.04276        -5.78173
| 66>    C       17.87847        -4.01474        -6.41760
| 67>    C       19.23441        -3.91901        -6.57160
| 68>    C       20.01903        -4.87920        -7.24411
| 69>    N       20.69907        -5.63493        -7.77566
| 70>    C       19.99612        -2.82899        -6.09765
| 71>    N       20.65501        -1.95789        -5.74617
| 72>    C       17.00715        -5.06594        -6.95186
| 73>    C       17.27796        -6.24898        -7.60719
| 74>    C       16.19983        -7.04370        -7.98663
| 75>    F       16.44014        -8.19756        -8.62497
| 76>    C       14.88942        -6.66823        -7.71397
| 77>    F       13.87665        -7.45919        -8.09436
| 78>    C       14.60740        -5.48080        -7.04874
| 79>    C       15.67420        -4.69132        -6.67661
| 80>    C       15.70771        -3.42474        -5.95221
| 81>    O       14.58377        -2.84835        -5.52228
| 82>    C       12.50534         4.61803        -3.25965
| 83>    C       12.62293         5.24286        -4.64633
| 84>    C        8.84351         2.22613         1.21462
| 85>    C        9.42640         0.84470         1.50893
| 86>    C        9.09118         3.19023         2.38243
| 87>    C        8.37608         2.77921         3.66384
| 88>    C       12.81751         5.64556        -2.16271
| 89>    C       14.26275         6.12918        -2.17490
| 90>    H        3.19916         6.86327         1.03341
| 91>    H       -1.05858         4.97345         2.80700
| 92>    H        2.05748         0.67237         1.25437
| 93>    H        2.79752        -1.28741         1.51322
| 94>    H        3.96218        -2.35709         0.72015
| 95>    H        1.69690        -0.86871        -0.70049
| 96>    H        1.71041        -2.58214        -0.28792
| 97>    H        2.86142        -1.95155        -1.47175
| 98>    H        7.52880         2.94637        -1.08498
| 99>    H        8.90899         3.20978        -2.14151
|100>    H        9.57087         3.88290         0.03136
|101>    H       10.41290         2.35856        -0.26781
|102>    H        9.62257         2.72646        -3.91300
|103>    H       11.05874         2.99023        -4.89455
|104>    H       11.02756         3.78055        -1.96314
|105>    H       10.37431         4.85198        -3.20626
|106>    H       16.23740         2.23753        -6.04013
|107>    H       15.35022         1.32253        -7.25913
|108>    H       18.31304         0.93993        -6.58515
|109>    H       17.67707         1.77323        -8.00730
|110>    H       17.42266         0.03722        -7.80885
|111>    H       18.27671        -1.84689        -4.43937
|112>    H       18.27774        -6.58441        -7.83031
|113>    H       13.58776        -5.20190        -6.83886
|114>    H       13.23220         3.80535        -3.17265
|115>    H       11.92016         6.06675        -4.75063
|116>    H       12.42200         4.51526        -5.42824
|117>    H       13.62684         5.62178        -4.80870
|118>    H        7.75981         2.13293         1.09450
|119>    H       10.47936         0.92793         1.77260
|120>    H        9.34397         0.18779         0.64728
|121>    H        8.90206         0.37276         2.33489
|122>    H        8.73368         4.18171         2.09420
|123>    H       10.16503         3.26338         2.57017
|124>    H        7.31146         2.65263         3.47836
|125>    H        8.50138         3.54717         4.42351
|126>    H        8.77293         1.84805         4.05841
|127>    H       12.61564         5.18988        -1.18987
|128>    H       12.14684         6.50085        -2.27082
|129>    H       14.94761         5.28465        -2.14222
|130>    H       14.45204         6.75640        -1.30705
|131>    H       14.47783         6.71471        -3.06413
|132> *
|133>
|134>                          ****END OF INPUT****

CARTESIAN COORDINATES (ANGSTROEM)
---------------------------------
  C      2.957480    4.001280    0.966390
  O      4.067500    4.152090    0.485420
  C      2.061170    5.082190    1.428700
  C      2.281550    6.444510    1.414480
  C      1.278280    7.262030    1.909670
  F      1.448600    8.590380    1.915650
  C      0.094090    6.714180    2.401470
  F     -0.857930    7.526820    2.874200
  C     -0.125920    5.344230    2.415250
  C      0.872490    4.519650    1.922110
  C      0.955220    3.062430    1.796460
  C     -0.035540    2.186780    2.162670
  C      0.013160    0.783150    2.035190
  N     -0.028490   -0.362960    1.961570
  C     -1.269090    2.579150    2.724060
  N     -2.290390    2.828970    3.184470
  C      2.243940    2.751340    1.216250
  C      2.717210    1.480330    0.969700
  C      3.915580    1.041100    0.410200
  S      5.206480    2.094910   -0.177230
  C      6.133780    0.720720   -0.645940
  C      5.473870   -0.486310   -0.346050
  C      4.230240   -0.322530    0.242920
  C      3.339090   -1.470920    0.584280
  C      2.337460   -1.733330   -0.544140
  S      6.397070   -1.915830   -0.772790
  C      7.659940   -0.885950   -1.347750
  C      7.380140    0.480980   -1.227980
  N      8.431360    1.219250   -1.709070
  C      8.541060    2.605850   -1.316890
  C      9.433070    2.806100   -0.084980
  C      9.402810    0.336710   -2.145490
  C      8.945890   -0.991990   -1.892990
  C      9.769350   -2.119440   -2.096830
  N      9.492340   -3.393510   -1.867160
  S     10.811820   -4.270810   -2.196730
  N     11.783600   -3.060230   -2.647480
  C     11.112170   -1.921980   -2.558390
  C     11.520810   -0.620530   -2.922930
  C     10.659530    0.501160   -2.792170
  N     11.271200    1.591310   -3.406650
  C     10.707540    2.840430   -3.868730
  C     11.097610    4.055650   -3.015160
  C     12.472230    1.157760   -3.875400
  C     12.688290   -0.184900   -3.592540
  S     13.707110    1.852350   -4.850960
  C     14.591570    0.334670   -4.810960
  C     13.916100   -0.653120   -4.129930
  S     14.514940   -2.282380   -3.911070
  C     16.671050   -0.761410   -5.226450
  C     15.849850    0.217110   -5.514480
  C     16.178340    1.268610   -6.546240
  C     17.479910    0.987550   -7.282380
  C     17.413960   -1.825790   -5.089180
  C     17.020060   -3.042760   -5.781730
  C     17.878470   -4.014740   -6.417600
  C     19.234410   -3.919010   -6.571600
  C     20.019030   -4.879200   -7.244110
  N     20.699070   -5.634930   -7.775660
  C     19.996120   -2.828990   -6.097650
  N     20.655010   -1.957890   -5.746170
  C     17.007150   -5.065940   -6.951860
  C     17.277960   -6.248980   -7.607190
  C     16.199830   -7.043700   -7.986630
  F     16.440140   -8.197560   -8.624970
  C     14.889420   -6.668230   -7.713970
  F     13.876650   -7.459190   -8.094360
  C     14.607400   -5.480800   -7.048740
  C     15.674200   -4.691320   -6.676610
  C     15.707710   -3.424740   -5.952210
  O     14.583770   -2.848350   -5.522280
  C     12.505340    4.618030   -3.259650
  C     12.622930    5.242860   -4.646330
  C      8.843510    2.226130    1.214620
  C      9.426400    0.844700    1.508930
  C      9.091180    3.190230    2.382430
  C      8.376080    2.779210    3.663840
  C     12.817510    5.645560   -2.162710
  C     14.262750    6.129180   -2.174900
  H      3.199160    6.863270    1.033410
  H     -1.058580    4.973450    2.807000
  H      2.057480    0.672370    1.254370
  H      2.797520   -1.287410    1.513220
  H      3.962180   -2.357090    0.720150
  H      1.696900   -0.868710   -0.700490
  H      1.710410   -2.582140   -0.287920
  H      2.861420   -1.951550   -1.471750
  H      7.528800    2.946370   -1.084980
  H      8.908990    3.209780   -2.141510
  H      9.570870    3.882900    0.031360
  H     10.412900    2.358560   -0.267810
  H      9.622570    2.726460   -3.913000
  H     11.058740    2.990230   -4.894550
  H     11.027560    3.780550   -1.963140
  H     10.374310    4.851980   -3.206260
  H     16.237400    2.237530   -6.040130
  H     15.350220    1.322530   -7.259130
  H     18.313040    0.939930   -6.585150
  H     17.677070    1.773230   -8.007300
  H     17.422660    0.037220   -7.808850
  H     18.276710   -1.846890   -4.439370
  H     18.277740   -6.584410   -7.830310
  H     13.587760   -5.201900   -6.838860
  H     13.232200    3.805350   -3.172650
  H     11.920160    6.066750   -4.750630
  H     12.422000    4.515260   -5.428240
  H     13.626840    5.621780   -4.808700
  H      7.759810    2.132930    1.094500
  H     10.479360    0.927930    1.772600
  H      9.343970    0.187790    0.647280
  H      8.902060    0.372760    2.334890
  H      8.733680    4.181710    2.094200
  H     10.165030    3.263380    2.570170
  H      7.311460    2.652630    3.478360
  H      8.501380    3.547170    4.423510
  H      8.772930    1.848050    4.058410
  H     12.615640    5.189880   -1.189870
  H     12.146840    6.500850   -2.270820
  H     14.947610    5.284650   -2.142220
  H     14.452040    6.756400   -1.307050
  H     14.477830    6.714710   -3.064130

 Total Charge           Charge          ....    0
 Multiplicity           Mult            ....    1
 Number of Electrons    NEL             ....  590
 Basis Dimension        Dim             .... 1336

ORBITAL ENERGIES
----------------

  NO   OCC          E(Eh)            E(eV)
   0   2.0000     -92.023262     -2504.0803
   1   2.0000     -91.996875     -2503.3622
   2   2.0000     -91.993785     -2503.2782
   3   2.0000     -91.976931     -2502.8195
   4   2.0000     -91.976218     -2502.8001
   5   2.0000     -26.336796      -716.6607
   6   2.0000     -26.334107      -716.5875
   7   2.0000     -26.331512      -716.5169
   8   2.0000     -26.327244      -716.4007
   9   2.0000     -20.639727      -561.6355
  10   2.0000     -20.571444      -559.7774
  11   2.0000     -15.661607      -426.1740
  12   2.0000     -15.655308      -426.0026
  13   2.0000     -15.610764      -424.7905
  14   2.0000     -15.609592      -424.7586
  15   2.0000     -15.597875      -424.4398
  16   2.0000     -15.595435      -424.3734
  17   2.0000     -15.594894      -424.3586
  18   2.0000     -15.587593      -424.1600
  19   2.0000     -11.379084      -309.6406
  20   2.0000     -11.377515      -309.5979
  21   2.0000     -11.373308      -309.4835
  22   2.0000     -11.370039      -309.3945
  23   2.0000     -11.368428      -309.3507
  24   2.0000     -11.368025      -309.3397
  25   2.0000     -11.344113      -308.6890
  26   2.0000     -11.341724      -308.6240
  27   2.0000     -11.337154      -308.4996
  28   2.0000     -11.334495      -308.4273
  29   2.0000     -11.328520      -308.2647
  30   2.0000     -11.327601      -308.2397
  31   2.0000     -11.321905      -308.0847
  32   2.0000     -11.318928      -308.0037
  33   2.0000     -11.316911      -307.9488
  34   2.0000     -11.315249      -307.9036
  35   2.0000     -11.311809      -307.8100
  36   2.0000     -11.308747      -307.7267
  37   2.0000     -11.308180      -307.7112
  38   2.0000     -11.307428      -307.6908
  39   2.0000     -11.307055      -307.6806
  40   2.0000     -11.306273      -307.6593
  41   2.0000     -11.306101      -307.6547
  42   2.0000     -11.305619      -307.6415
  43   2.0000     -11.304086      -307.5998
  44   2.0000     -11.303739      -307.5904
  45   2.0000     -11.299571      -307.4770
  46   2.0000     -11.299306      -307.4697
  47   2.0000     -11.297138      -307.4108
  48   2.0000     -11.296869      -307.4034
  49   2.0000     -11.296764      -307.4006
  50   2.0000     -11.295910      -307.3773
  51   2.0000     -11.295605      -307.3690
  52   2.0000     -11.295424      -307.3641
  53   2.0000     -11.294782      -307.3467
  54   2.0000     -11.291919      -307.2687
  55   2.0000     -11.289620      -307.2062
  56   2.0000     -11.289554      -307.2044
  57   2.0000     -11.282364      -307.0087
  58   2.0000     -11.280193      -306.9497
  59   2.0000     -11.278864      -306.9135
  60   2.0000     -11.277061      -306.8644
  61   2.0000     -11.274426      -306.7927
  62   2.0000     -11.273875      -306.7777
  63   2.0000     -11.271788      -306.7210
  64   2.0000     -11.268530      -306.6323
  65   2.0000     -11.263843      -306.5048
  66   2.0000     -11.259958      -306.3990
  67   2.0000     -11.259587      -306.3889
  68   2.0000     -11.252085      -306.1848
  69   2.0000     -11.251822      -306.1777
  70   2.0000     -11.242474      -305.9233
  71   2.0000     -11.241757      -305.9038
  72   2.0000     -11.241579      -305.8989
  73   2.0000     -11.240868      -305.8796
  74   2.0000     -11.234124      -305.6961
  75   2.0000     -11.233988      -305.6923
  76   2.0000     -11.233349      -305.6750
  77   2.0000     -11.227155      -305.5064
  78   2.0000     -11.225573      -305.4634
  79   2.0000      -9.055083      -246.4013
  80   2.0000      -9.028957      -245.6904
  81   2.0000      -9.027568      -245.6526
  82   2.0000      -9.010685      -245.1932
  83   2.0000      -9.010311      -245.1830
  84   2.0000      -6.742408      -183.4703
  85   2.0000      -6.740561      -183.4200
  86   2.0000      -6.738953      -183.3762
  87   2.0000      -6.716485      -182.7649
  88   2.0000      -6.715559      -182.7397
  89   2.0000      -6.715530      -182.7389
  90   2.0000      -6.713420      -182.6814
  91   2.0000      -6.712893      -182.6671
  92   2.0000      -6.710168      -182.5929
  93   2.0000      -6.698239      -182.2683
  94   2.0000      -6.697550      -182.2496
  95   2.0000      -6.697424      -182.2462
  96   2.0000      -6.696163      -182.2119
  97   2.0000      -6.695078      -182.1823
  98   2.0000      -6.694082      -182.1552
  99   2.0000      -1.645488       -44.7760
 100   2.0000      -1.638991       -44.5992
 101   2.0000      -1.630536       -44.3692
 102   2.0000      -1.623771       -44.1850
 103   2.0000      -1.444527       -39.3076
 104   2.0000      -1.405299       -38.2401
 105   2.0000      -1.363927       -37.1143
 106   2.0000      -1.351821       -36.7849
 107   2.0000      -1.346452       -36.6388
 108   2.0000      -1.258524       -34.2462
 109   2.0000      -1.255015       -34.1507
 110   2.0000      -1.237689       -33.6792
 111   2.0000      -1.235135       -33.6097
 112   2.0000      -1.232851       -33.5476
 113   2.0000      -1.231574       -33.5128
 114   2.0000      -1.227092       -33.3909
 115   2.0000      -1.213364       -33.0173
 116   2.0000      -1.194148       -32.4944
 117   2.0000      -1.177791       -32.0493
 118   2.0000      -1.174120       -31.9494
 119   2.0000      -1.172541       -31.9065
 120   2.0000      -1.155984       -31.4559
 121   2.0000      -1.139662       -31.0118
 122   2.0000      -1.126550       -30.6550
 123   2.0000      -1.117519       -30.4092
 124   2.0000      -1.116023       -30.3685
 125   2.0000      -1.105149       -30.0726
 126   2.0000      -1.097571       -29.8664
 127   2.0000      -1.091128       -29.6911
 128   2.0000      -1.080584       -29.4042
 129   2.0000      -1.075623       -29.2692
 130   2.0000      -1.073914       -29.2227
 131   2.0000      -1.071369       -29.1534
 132   2.0000      -1.066473       -29.0202
 133   2.0000      -1.060825       -28.8665
 134   2.0000      -1.041637       -28.3444
 135   2.0000      -1.025667       -27.9098
 136   2.0000      -1.021033       -27.7837
 137   2.0000      -1.010182       -27.4885
 138   2.0000      -1.009051       -27.4577
 139   2.0000      -0.997316       -27.1383
 140   2.0000      -0.988145       -26.8888
 141   2.0000      -0.982742       -26.7418
 142   2.0000      -0.980070       -26.6690
 143   2.0000      -0.962873       -26.2011
 144   2.0000      -0.959316       -26.1043
 145   2.0000      -0.945801       -25.7366
 146   2.0000      -0.938068       -25.5261
 147   2.0000      -0.929810       -25.3014
 148   2.0000      -0.924135       -25.1470
 149   2.0000      -0.913601       -24.8604
 150   2.0000      -0.906341       -24.6628
 151   2.0000      -0.896133       -24.3850
 152   2.0000      -0.878988       -23.9185
 153   2.0000      -0.874523       -23.7970
 154   2.0000      -0.869455       -23.6591
 155   2.0000      -0.866105       -23.5679
 156   2.0000      -0.865352       -23.5474
 157   2.0000      -0.864116       -23.5138
 158   2.0000      -0.856257       -23.2999
 159   2.0000      -0.850922       -23.1548
 160   2.0000      -0.834030       -22.6951
 161   2.0000      -0.832734       -22.6598
 162   2.0000      -0.820322       -22.3221
 163   2.0000      -0.808881       -22.0108
 164   2.0000      -0.804729       -21.8978
 165   2.0000      -0.799524       -21.7562
 166   2.0000      -0.796839       -21.6831
 167   2.0000      -0.793398       -21.5894
 168   2.0000      -0.792309       -21.5598
 169   2.0000      -0.789239       -21.4763
 170   2.0000      -0.780663       -21.2429
 171   2.0000      -0.775088       -21.0912
 172   2.0000      -0.765425       -20.8283
 173   2.0000      -0.760693       -20.6995
 174   2.0000      -0.757199       -20.6044
 175   2.0000      -0.755854       -20.5678
 176   2.0000      -0.746489       -20.3130
 177   2.0000      -0.742899       -20.2153
 178   2.0000      -0.742789       -20.2123
 179   2.0000      -0.737104       -20.0576
 180   2.0000      -0.732375       -19.9289
 181   2.0000      -0.731251       -19.8983
 182   2.0000      -0.725935       -19.7537
 183   2.0000      -0.721889       -19.6436
 184   2.0000      -0.714657       -19.4468
 185   2.0000      -0.714181       -19.4339
 186   2.0000      -0.708717       -19.2852
 187   2.0000      -0.707888       -19.2626
 188   2.0000      -0.704616       -19.1736
 189   2.0000      -0.694549       -18.8996
 190   2.0000      -0.693506       -18.8713
 191   2.0000      -0.690444       -18.7879
 192   2.0000      -0.687738       -18.7143
 193   2.0000      -0.677185       -18.4272
 194   2.0000      -0.672698       -18.3050
 195   2.0000      -0.669738       -18.2245
 196   2.0000      -0.665759       -18.1162
 197   2.0000      -0.665163       -18.1000
 198   2.0000      -0.662512       -18.0279
 199   2.0000      -0.658650       -17.9228
 200   2.0000      -0.657616       -17.8947
 201   2.0000      -0.653593       -17.7852
 202   2.0000      -0.648389       -17.6436
 203   2.0000      -0.644917       -17.5491
 204   2.0000      -0.642771       -17.4907
 205   2.0000      -0.640597       -17.4315
 206   2.0000      -0.639031       -17.3889
 207   2.0000      -0.637050       -17.3350
 208   2.0000      -0.632708       -17.2169
 209   2.0000      -0.629330       -17.1249
 210   2.0000      -0.628727       -17.1085
 211   2.0000      -0.626212       -17.0401
 212   2.0000      -0.623764       -16.9735
 213   2.0000      -0.621608       -16.9148
 214   2.0000      -0.621042       -16.8994
 215   2.0000      -0.616930       -16.7875
 216   2.0000      -0.615144       -16.7389
 217   2.0000      -0.612946       -16.6791
 218   2.0000      -0.609372       -16.5818
 219   2.0000      -0.605929       -16.4882
 220   2.0000      -0.604722       -16.4553
 221   2.0000      -0.600799       -16.3486
 222   2.0000      -0.598129       -16.2759
 223   2.0000      -0.591223       -16.0880
 224   2.0000      -0.586169       -15.9505
 225   2.0000      -0.585411       -15.9299
 226   2.0000      -0.582620       -15.8539
 227   2.0000      -0.582034       -15.8379
 228   2.0000      -0.580927       -15.8078
 229   2.0000      -0.579158       -15.7597
 230   2.0000      -0.578924       -15.7533
 231   2.0000      -0.573423       -15.6036
 232   2.0000      -0.571918       -15.5627
 233   2.0000      -0.571378       -15.5480
 234   2.0000      -0.567737       -15.4489
 235   2.0000      -0.565757       -15.3950
 236   2.0000      -0.563688       -15.3387
 237   2.0000      -0.559325       -15.2200
 238   2.0000      -0.556242       -15.1361
 239   2.0000      -0.555450       -15.1146
 240   2.0000      -0.550946       -14.9920
 241   2.0000      -0.545451       -14.8425
 242   2.0000      -0.543030       -14.7766
 243   2.0000      -0.541693       -14.7402
 244   2.0000      -0.540675       -14.7125
 245   2.0000      -0.539096       -14.6695
 246   2.0000      -0.537492       -14.6259
 247   2.0000      -0.533819       -14.5259
 248   2.0000      -0.530768       -14.4429
 249   2.0000      -0.527031       -14.3412
 250   2.0000      -0.522649       -14.2220
 251   2.0000      -0.520999       -14.1771
 252   2.0000      -0.519592       -14.1388
 253   2.0000      -0.517886       -14.0924
 254   2.0000      -0.515689       -14.0326
 255   2.0000      -0.512391       -13.9429
 256   2.0000      -0.511186       -13.9101
 257   2.0000      -0.508977       -13.8500
 258   2.0000      -0.506176       -13.7737
 259   2.0000      -0.503445       -13.6994
 260   2.0000      -0.502002       -13.6602
 261   2.0000      -0.500719       -13.6253
 262   2.0000      -0.496354       -13.5065
 263   2.0000      -0.491959       -13.3869
 264   2.0000      -0.490349       -13.3431
 265   2.0000      -0.489135       -13.3100
 266   2.0000      -0.486711       -13.2441
 267   2.0000      -0.483105       -13.1460
 268   2.0000      -0.480343       -13.0708
 269   2.0000      -0.480294       -13.0695
 270   2.0000      -0.478140       -13.0108
 271   2.0000      -0.478012       -13.0074
 272   2.0000      -0.475243       -12.9320
 273   2.0000      -0.471115       -12.8197
 274   2.0000      -0.469294       -12.7701
 275   2.0000      -0.463061       -12.6005
 276   2.0000      -0.462197       -12.5770
 277   2.0000      -0.455013       -12.3815
 278   2.0000      -0.436233       -11.8705
 279   2.0000      -0.433867       -11.8061
 280   2.0000      -0.419310       -11.4100
 281   2.0000      -0.416687       -11.3386
 282   2.0000      -0.405361       -11.0304
 283   2.0000      -0.404212       -10.9992
 284   2.0000      -0.393790       -10.7156
 285   2.0000      -0.384749       -10.4695
 286   2.0000      -0.371198       -10.1008
 287   2.0000      -0.361568        -9.8388
 288   2.0000      -0.358619        -9.7585
 289   2.0000      -0.351733        -9.5711
 290   2.0000      -0.328413        -8.9366
 291   2.0000      -0.322825        -8.7845
 292   2.0000      -0.319425        -8.6920
 293   2.0000      -0.305501        -8.3131
 294   2.0000      -0.266389        -7.2488
 295   0.0000      -0.026313        -0.7160
 296   0.0000      -0.019630        -0.5342
 297   0.0000       0.010883         0.2962
 298   0.0000       0.025939         0.7058
 299   0.0000       0.053266         1.4494

MULLIKEN ATOMIC CHARGES
-----------------------
   0 C :    0.533674
   1 O :   -0.407049
   2 C :   -0.171999
   3 C :   -0.033895
   4 C :    0.345332
   5 F :   -0.313621
   6 C :    0.353935
   7 F :   -0.309588
   8 C :   -0.052267
   9 C :   -0.029872
  10 C :    0.268759
  11 C :   -0.388701
  12 C :    0.037065
  13 N :   -0.081688
  14 C :    0.030764
  15 N :   -0.068094
  16 C :   -0.335391
  17 C :    0.086813
  18 C :   -0.167338
  19 S :    0.223668
  20 C :    0.013561
  21 C :   -0.108392
  22 C :   -0.097701
  23 C :   -0.011620
  24 C :    0.001048
  25 S :    0.236328
  26 C :    0.035359
  27 C :    0.098912
  28 N :   -0.590034
  29 C :    0.187160
  30 C :   -0.028627
  31 C :    0.258049
  32 C :   -0.253656
  33 C :    0.162445
  34 N :   -0.483300
  35 S :    0.577545
  36 N :   -0.469199
  37 C :    0.162590
  38 C :   -0.132906
  39 C :    0.223954
  40 N :   -0.580351
  41 C :    0.204075
  42 C :   -0.043460
  43 C :    0.133654
  44 C :   -0.003019
  45 S :    0.116701
  46 C :   -0.040111
  47 C :   -0.082327
  48 S :    0.430116
  49 C :    0.035001
  50 C :   -0.204072
  51 C :   -0.011401
  52 C :    0.000642
  53 C :    0.007263
  54 C :   -0.207138
  55 C :    0.202341
  56 C :   -0.341856
  57 C :    0.033985
  58 N :   -0.051034
  59 C :    0.030635
  60 N :   -0.048821
  61 C :   -0.044794
  62 C :   -0.041790
  63 C :    0.336191
  64 F :   -0.315546
  65 C :    0.347790
  66 F :   -0.315896
  67 C :   -0.049804
  68 C :   -0.090711
  69 C :    0.466718
  70 O :   -0.611010
  71 C :   -0.270240
  72 C :    0.033381
  73 C :   -0.263982
  74 C :    0.029781
  75 C :   -0.048899
  76 C :   -0.011800
  77 C :   -0.060048
  78 C :   -0.000846
  79 H :    0.074747
  80 H :    0.097028
  81 H :    0.079492
  82 H :    0.070156
  83 H :    0.056652
  84 H :    0.036549
  85 H :    0.057947
  86 H :    0.038245
  87 H :    0.073162
  88 H :    0.041170
  89 H :    0.042102
  90 H :    0.045260
  91 H :    0.062348
  92 H :    0.052966
  93 H :    0.053409
  94 H :    0.037218
  95 H :    0.056092
  96 H :    0.052269
  97 H :    0.052460
  98 H :    0.038110
  99 H :    0.038149
 100 H :    0.095767
 101 H :    0.091231
 102 H :    0.073266
 103 H :    0.054291
 104 H :    0.027207
 105 H :    0.025618
 106 H :    0.040061
 107 H :    0.057955
 108 H :    0.024071
 109 H :    0.055429
 110 H :    0.036278
 111 H :    0.027567
 112 H :    0.023547
 113 H :    0.028478
 114 H :    0.032667
 115 H :    0.031221
 116 H :    0.028306
 117 H :    0.025085
 118 H :    0.027978
 119 H :    0.036066
 120 H :    0.031041
Sum of atomic charges:    0.0000000

LOEWDIN ATOMIC CHARGES
----------------------
   0 C :    0.168814
   1 O :   -0.263542
   2 C :   -0.050969
   3 C :    0.008207
   4 C :    0.122492
   5 F :   -0.111742
   6 C :    0.123866
   7 F :   -0.109083
   8 C :   -0.000773
   9 C :   -0.022495
  10 C :    0.124072
  11 C :   -0.186437
  12 C :    0.016356
  13 N :   -0.102871
  14 C :    0.011558
  15 N :   -0.096286
  16 C :   -0.185576
  17 C :    0.118658
  18 C :   -0.226027
  19 S :    0.466952
  20 C :   -0.156827
  21 C :   -0.217573
  22 C :    0.028899
  23 C :   -0.013724
  24 C :   -0.014984
  25 S :    0.407517
  26 C :   -0.147576
  27 C :   -0.040096
  28 N :   -0.021333
  29 C :    0.082516
  30 C :   -0.017750
  31 C :    0.053131
  32 C :   -0.099960
  33 C :   -0.024450
  34 N :   -0.327911
  35 S :    0.614424
  36 N :   -0.318938
  37 C :   -0.028656
  38 C :   -0.063292
  39 C :    0.022567
  40 N :   -0.028134
  41 C :    0.080082
  42 C :   -0.024185
  43 C :   -0.115279
  44 C :   -0.092896
  45 S :    0.428038
  46 C :   -0.130379
  47 C :   -0.218168
  48 S :    0.519043
  49 C :    0.031808
  50 C :   -0.087727
  51 C :   -0.013099
  52 C :   -0.024325
  53 C :   -0.046781
  54 C :   -0.112732
  55 C :    0.116490
  56 C :   -0.142264
  57 C :    0.011666
  58 N :   -0.078157
  59 C :    0.011378
  60 N :   -0.078606
  61 C :   -0.034292
  62 C :    0.008917
  63 C :    0.107955
  64 F :   -0.114898
  65 C :    0.123935
  66 F :   -0.113600
  67 C :   -0.009448
  68 C :   -0.027288
  69 C :    0.135032
  70 O :   -0.304218
  71 C :   -0.040238
  72 C :   -0.027170
  73 C :   -0.036060
  74 C :   -0.025121
  75 C :   -0.016821
  76 C :   -0.032157
  77 C :   -0.016081
  78 C :   -0.031025
  79 H :    0.054257
  80 H :    0.055066
  81 H :    0.047622
  82 H :    0.032134
  83 H :    0.026645
  84 H :    0.017723
  85 H :    0.027587
  86 H :    0.019135
  87 H :    0.021399
  88 H :    0.015676
  89 H :    0.018911
  90 H :    0.014020
  91 H :    0.023881
  92 H :    0.019421
  93 H :    0.018593
  94 H :    0.018221
  95 H :    0.021006
  96 H :    0.022288
  97 H :    0.024984
  98 H :    0.020142
  99 H :    0.020493
 100 H :    0.046956
 101 H :    0.053999
 102 H :    0.052610
 103 H :    0.000902
 104 H :    0.016117
 105 H :    0.005205
 106 H :    0.019665
 107 H :    0.004077
 108 H :    0.013518
 109 H :    0.016223
 110 H :    0.017542
 111 H :    0.010356
 112 H :    0.009857
 113 H :    0.016192
 114 H :    0.017294
 115 H :    0.013980
 116 H :    0.011929
 117 H :    0.011185
 118 H :    0.015990
 119 H :    0.019108
 120 H :    0.013736

  Mayer bond orders larger than 0.100000
B(  0-C ,  1-O ) :   1.9889 B(  0-C ,  2-C ) :   0.9865 B(  0-C , 16-C ) :   1.0059
B(  2-C ,  3-C ) :   1.3928 B(  2-C ,  9-C ) :   1.3714 B(  3-C ,  4-C ) :   1.3742
B(  3-C , 79-H ) :   1.0144 B(  4-C ,  5-F ) :   0.9333 B(  4-C ,  6-C ) :   1.3436
B(  6-C ,  7-F ) :   0.9438 B(  6-C ,  8-C ) :   1.3982 B(  8-C ,  9-C ) :   1.3803
B(  8-C , 80-H ) :   0.9902 B(  9-C , 10-C ) :   1.0362 B( 10-C , 11-C ) :   1.6482
B( 10-C , 16-C ) :   1.1440 B( 11-C , 12-C ) :   1.0757 B( 11-C , 14-C ) :   1.0674
B( 12-C , 13-N ) :   2.9717 B( 14-C , 15-N ) :   2.9833 B( 16-C , 17-C ) :   1.5215
B( 17-C , 18-C ) :   1.3744 B( 17-C , 81-H ) :   0.9585 B( 18-C , 19-S ) :   1.0160
B( 18-C , 22-C ) :   1.4259 B( 19-S , 20-C ) :   1.0339 B( 20-C , 21-C ) :   1.4448
B( 20-C , 27-C ) :   1.3713 B( 21-C , 22-C ) :   1.5280 B( 21-C , 25-S ) :   0.9725
B( 22-C , 23-C ) :   0.9818 B( 23-C , 24-C ) :   1.0399 B( 23-C , 82-H ) :   0.9577
B( 23-C , 83-H ) :   0.9671 B( 24-C , 84-H ) :   0.9852 B( 24-C , 85-H ) :   0.9859
B( 24-C , 86-H ) :   0.9813 B( 25-S , 26-C ) :   0.9893 B( 26-C , 27-C ) :   1.4610
B( 26-C , 32-C ) :   1.4374 B( 27-C , 28-N ) :   1.0714 B( 28-N , 29-C ) :   0.8520
B( 28-N , 31-C ) :   1.1161 B( 29-C , 30-C ) :   1.0420 B( 29-C , 87-H ) :   0.9764
B( 29-C , 88-H ) :   0.9843 B( 30-C , 73-C ) :   0.9627 B( 30-C , 89-H ) :   0.9762
B( 30-C , 90-H ) :   0.9600 B( 31-C , 32-C ) :   1.4567 B( 31-C , 39-C ) :   1.1486
B( 32-C , 33-C ) :   1.1250 B( 33-C , 34-N ) :   1.5846 B( 33-C , 37-C ) :   1.1341
B( 34-N , 35-S ) :   1.1898 B( 34-N , 36-N ) :   0.1036 B( 35-S , 36-N ) :   1.2006
B( 36-N , 37-C ) :   1.5730 B( 37-C , 38-C ) :   1.1388 B( 38-C , 39-C ) :   1.4752
B( 38-C , 44-C ) :   1.2818 B( 39-C , 40-N ) :   1.0844 B( 40-N , 41-C ) :   0.8400
B( 40-N , 43-C ) :   1.1264 B( 41-C , 42-C ) :   1.0174 B( 41-C , 91-H ) :   0.9865
B( 41-C , 92-H ) :   0.9779 B( 42-C , 71-C ) :   1.0140 B( 42-C , 93-H ) :   0.9680
B( 42-C , 94-H ) :   0.9648 B( 43-C , 44-C ) :   1.4796 B( 43-C , 45-S ) :   1.0667
B( 44-C , 47-C ) :   1.1969 B( 45-S , 46-C ) :   1.1014 B( 46-C , 47-C ) :   1.6664
B( 46-C , 50-C ) :   1.0571 B( 47-C , 48-S ) :   1.0446 B( 48-S , 70-O ) :   0.7523
B( 49-C , 50-C ) :   1.9434 B( 49-C , 53-C ) :   1.9366 B( 50-C , 51-C ) :   0.9426
B( 51-C , 52-C ) :   1.0790 B( 51-C , 95-H ) :   0.9583 B( 51-C , 96-H ) :   0.9639
B( 52-C , 97-H ) :   0.9771 B( 52-C , 98-H ) :   0.9829 B( 52-C , 99-H ) :   0.9821
B( 53-C , 54-C ) :   1.0201 B( 53-C ,100-H ) :   0.9310 B( 54-C , 55-C ) :   1.1072
B( 54-C , 69-C ) :   1.6701 B( 55-C , 56-C ) :   1.7235 B( 55-C , 61-C ) :   1.0178
B( 56-C , 57-C ) :   1.0591 B( 56-C , 59-C ) :   1.0651 B( 57-C , 58-N ) :   2.9945
B( 59-C , 60-N ) :   2.9974 B( 61-C , 62-C ) :   1.4391 B( 61-C , 68-C ) :   1.3404
B( 62-C , 63-C ) :   1.3471 B( 62-C ,101-H ) :   0.9941 B( 63-C , 64-F ) :   0.9352
B( 63-C , 65-C ) :   1.3921 B( 65-C , 66-F ) :   0.9294 B( 65-C , 67-C ) :   1.3315
B( 67-C , 68-C ) :   1.4158 B( 67-C ,102-H ) :   1.0149 B( 68-C , 69-C ) :   1.0464
B( 69-C , 70-O ) :   1.0481 B( 71-C , 72-C ) :   0.9992 B( 71-C , 77-C ) :   1.0201
B( 71-C ,103-H ) :   0.9569 B( 72-C ,104-H ) :   0.9804 B( 72-C ,105-H ) :   0.9851
B( 72-C ,106-H ) :   0.9868 B( 73-C , 74-C ) :   1.0080 B( 73-C , 75-C ) :   1.0190
B( 73-C ,107-H ) :   0.9691 B( 74-C ,108-H ) :   0.9780 B( 74-C ,109-H ) :   0.9912
B( 74-C ,110-H ) :   0.9852 B( 75-C , 76-C ) :   1.0475 B( 75-C ,111-H ) :   0.9755
B( 75-C ,112-H ) :   0.9692 B( 76-C ,113-H ) :   0.9842 B( 76-C ,114-H ) :   0.9875
B( 76-C ,115-H ) :   0.9843 B( 77-C , 78-C ) :   1.0464 B( 77-C ,116-H ) :   0.9770
B( 77-C ,117-H ) :   0.9698 B( 78-C ,118-H ) :   0.9844 B( 78-C ,119-H ) :   0.9871
B( 78-C ,120-H ) :   0.9839

-----------------------------------------------------------------------------
         ABSORPTION SPECTRUM VIA TRANSITION ELECTRIC DIPOLE MOMENTS
-----------------------------------------------------------------------------
State   Energy    Wavelength  fosc         T2        TX        TY        TZ
        (cm-1)      (nm)                 (au**2)    (au)      (au)      (au)
-----------------------------------------------------------------------------
   1   23618.7    423.4   2.326258560  32.42485   4.89993  -1.83869  -2.24381
   2   25632.2    390.1   0.054114400   0.69503   0.73623   0.38008   0.09236
   3   30358.3    329.4   0.039718736   0.43072  -0.54685  -0.24741   0.26545

FINAL SINGLE POINT ENERGY     -5263.719876121980

DIPOLE MOMENT
-------------
                                X             Y             Z
Electronic contribution:    -26.11877     -77.08612     -25.66206
Nuclear contribution   :     28.56829      79.34874      24.39601
                        -----------------------------------------
Total Dipole Moment    :      2.44952       2.26262      -1.26605
                        -----------------------------------------
Magnitude (a.u.)       :      3.56686
Magnitude (Debye)      :      9.06623

Rotational constants in cm-1:     0.001587     0.000264     0.000236
Rotational constants in MHz :    47.588505     7.915173     7.071037

                             ****ORCA TERMINATED NORMALLY****
TOTAL RUN TIME: 1 days 0 hours 25 minutes 12 seconds 957 msec
