                         Program Version 4.2.0 -  RELEASE  -
|  1> # ORCA input file
|  2> # NITV.out
|  3> ! Engrad Keepdens
|  4> %maxcore 1000
|  5> %tddft
|  6>   nroots 3
|  7>   # nroots is the number of states to be computed
|  8>   Iroot 1
|  9>   end
| 10> * xyz 0 1
| 11>    C       -0.50410        -1.84186        -0.17293
| 12>    C        5.04718         4.45477        -0.71344
| 13>    C       -0.99553        -3.16148        -0.08256
| 14>    C       -0.43812        -4.40205        -0.08943
| 15>    C        5.44481         5.80537        -0.69346
| 16>    C        4.70135         6.94346        -0.56808
| 17>    C        0.90449        -4.95147        -0.17206
| 18>    C        0.75897        -6.36301        -0.15348
| 19>    C       -0.57413        -6.79013        -0.05776
| 20>    C       -1.39751        -5.55716        -0.00240
| 21>    C        5.24756         8.29224        -0.56635
| 22>    C        4.15161         9.17183        -0.42400
| 23>    C        2.92162         8.50453        -0.33234
| 24>    C        3.22949         7.05060        -0.41812
| 25>    C        2.19461        -4.46212        -0.24959
| 26>    C        3.27915        -5.34945        -0.31559
| 27>    C        3.12326        -6.72538        -0.30685
| 28>    C        1.82317        -7.25486        -0.22117
| 29>    C        1.53054        -8.63013        -0.20228
| 30>    C        0.21339        -9.04968        -0.11023
| 31>    C       -0.85192        -8.13870        -0.03434
| 32>    C        4.25181        -7.66151        -0.37708
| 33>    N        3.92531        -9.01540        -0.34798
| 34>    C        2.65582        -9.57947        -0.28596
| 35>    C        5.05418        -9.93801        -0.39987
| 36>    C        5.76826       -10.06883         0.95164
| 37>    C        4.80401       -10.53322         2.03973
| 38>    C        6.92591       -11.05194         0.80399
| 39>    C        1.76996         9.24736        -0.19614
| 40>    C        1.87012        10.64843        -0.15459
| 41>    C        3.08779        11.30344        -0.24531
| 42>    C        4.26909        10.55419        -0.38363
| 43>    C        5.55883        11.10547        -0.49094
| 44>    C        6.64152        10.25053        -0.62963
| 45>    C        6.50456         8.85372        -0.66881
| 46>    C        5.69055        12.56789        -0.45419
| 47>    N        4.50048        13.28068        -0.29665
| 48>    C        3.21116        12.77229        -0.20466
| 49>    C        4.60844        14.73459        -0.23429
| 50>    C        4.46268        15.27508         1.19406
| 51>    C        5.51058        14.66514         2.12097
| 52>    C        4.59295        16.79501         1.16089
| 53>    O        5.40991        -7.30636        -0.46128
| 54>    O        2.49865       -10.78251        -0.30804
| 55>    O       -2.60167        -5.47115         0.09099
| 56>    O        2.42284         6.14102        -0.37100
| 57>    O        6.75481        13.14117        -0.55988
| 58>    O        2.25563        13.51344        -0.10212
| 59>    C       -1.32419        -0.72314        -0.13029
| 60>    C       -0.66483         0.49859        -0.24919
| 61>    C        0.71190         0.33921        -0.38788
| 62>    S        1.15164        -1.34533        -0.37096
| 63>    C        5.93427         3.39092        -0.85341
| 64>    C        5.34404         2.13304        -0.84890
| 65>    C        3.95825         2.21723        -0.70048
| 66>    S        3.41800         3.86476        -0.57411
| 67>    C        1.68800         1.35522        -0.51030
| 68>    C        3.02256         1.15402        -0.63295
| 69>    C        6.13406         0.86864        -0.95934
| 70>    C        6.77280         0.46942         0.38439
| 71>    C        5.70802         0.09615         1.41115
| 72>    C        7.73843        -0.69353         0.17392
| 73>    C       -1.37883         1.81020        -0.19772
| 74>    C       -1.67054         2.25568         1.24798
| 75>    C       -0.38194         2.55335         2.00849
| 76>    C       -2.56964         3.48865         1.23166
| 77>    H       -2.08038        -3.19348         0.00755
| 78>    H        6.51660         5.94493        -0.79625
| 79>    H        2.39867        -3.40550        -0.25901
| 80>    H        4.28289        -4.95472        -0.37686
| 81>    H        0.01722       -10.11175        -0.09686
| 82>    H       -1.86775        -8.49543         0.03992
| 83>    H        5.75663        -9.56173        -1.14733
| 84>    H        4.66382       -10.90834        -0.71096
| 85>    H        6.16980        -9.08708         1.22276
| 86>    H        4.32901       -11.46822         1.75108
| 87>    H        4.02397        -9.79418         2.21449
| 88>    H        5.33788       -10.68772         2.97461
| 89>    H        6.55275       -12.03762         0.53412
| 90>    H        7.47189       -11.13558         1.74038
| 91>    H        7.61643       -10.71935         0.03266
| 92>    H        0.80393         8.77145        -0.12371
| 93>    H        0.97744        11.24758        -0.04967
| 94>    H        7.62491        10.69031        -0.71074
| 95>    H        7.38903         8.24444        -0.77968
| 96>    H        3.82013        15.15423        -0.86391
| 97>    H        5.58711        15.00203        -0.63596
| 98>    H        3.46446        15.01366         1.55940
| 99>    H        6.51054        14.84446         1.73220
|100>    H        5.37006        13.58997         2.21830
|101>    H        5.43801        15.10603         3.11253
|102>    H        5.57820        17.08255         0.80021
|103>    H        4.45781        17.20723         2.15766
|104>    H        3.84283        17.23042         0.50519
|105>    H       -2.39123        -0.80717        -0.01721
|106>    H        6.99473         3.54461        -0.96116
|107>    H        1.32328         2.37254        -0.48623
|108>    H        3.40555         0.14318        -0.66784
|109>    H        6.93175         1.02078        -1.69018
|110>    H        5.50505         0.05183        -1.31425
|111>    H        7.33541         1.33024         0.76311
|112>    H        5.14641        -0.77448         1.07852
|113>    H        5.01274         0.91759         1.56792
|114>    H        6.17269        -0.14459         2.36445
|115>    H        7.21104        -1.55931        -0.22081
|116>    H        8.20177        -0.97653         1.11600
|117>    H        8.52566        -0.42272        -0.52614
|118>    H       -2.32959         1.70475        -0.72528
|119>    H       -0.79954         2.58553        -0.69948
|120>    H       -2.19745         1.44047         1.75701
|121>    H        0.15827         3.37309         1.53945
|122>    H        0.26705         1.68103         2.03605
|123>    H       -0.60976         2.83918         3.03280
|124>    H       -2.07366         4.31027         0.71939
|125>    H       -2.79619         3.80552         2.24690
|126>    H       -3.50739         3.27981         0.72160
|127> *
|128>
|129>                          ****END OF INPUT****

CARTESIAN COORDINATES (ANGSTROEM)
---------------------------------
  C     -0.504100   -1.841860   -0.172930
  C      5.047180    4.454770   -0.713440
  C     -0.995530   -3.161480   -0.082560
  C     -0.438120   -4.402050   -0.089430
  C      5.444810    5.805370   -0.693460
  C      4.701350    6.943460   -0.568080
  C      0.904490   -4.951470   -0.172060
  C      0.758970   -6.363010   -0.153480
  C     -0.574130   -6.790130   -0.057760
  C     -1.397510   -5.557160   -0.002400
  C      5.247560    8.292240   -0.566350
  C      4.151610    9.171830   -0.424000
  C      2.921620    8.504530   -0.332340
  C      3.229490    7.050600   -0.418120
  C      2.194610   -4.462120   -0.249590
  C      3.279150   -5.349450   -0.315590
  C      3.123260   -6.725380   -0.306850
  C      1.823170   -7.254860   -0.221170
  C      1.530540   -8.630130   -0.202280
  C      0.213390   -9.049680   -0.110230
  C     -0.851920   -8.138700   -0.034340
  C      4.251810   -7.661510   -0.377080
  N      3.925310   -9.015400   -0.347980
  C      2.655820   -9.579470   -0.285960
  C      5.054180   -9.938010   -0.399870
  C      5.768260  -10.068830    0.951640
  C      4.804010  -10.533220    2.039730
  C      6.925910  -11.051940    0.803990
  C      1.769960    9.247360   -0.196140
  C      1.870120   10.648430   -0.154590
  C      3.087790   11.303440   -0.245310
  C      4.269090   10.554190   -0.383630
  C      5.558830   11.105470   -0.490940
  C      6.641520   10.250530   -0.629630
  C      6.504560    8.853720   -0.668810
  C      5.690550   12.567890   -0.454190
  N      4.500480   13.280680   -0.296650
  C      3.211160   12.772290   -0.204660
  C      4.608440   14.734590   -0.234290
  C      4.462680   15.275080    1.194060
  C      5.510580   14.665140    2.120970
  C      4.592950   16.795010    1.160890
  O      5.409910   -7.306360   -0.461280
  O      2.498650  -10.782510   -0.308040
  O     -2.601670   -5.471150    0.090990
  O      2.422840    6.141020   -0.371000
  O      6.754810   13.141170   -0.559880
  O      2.255630   13.513440   -0.102120
  C     -1.324190   -0.723140   -0.130290
  C     -0.664830    0.498590   -0.249190
  C      0.711900    0.339210   -0.387880
  S      1.151640   -1.345330   -0.370960
  C      5.934270    3.390920   -0.853410
  C      5.344040    2.133040   -0.848900
  C      3.958250    2.217230   -0.700480
  S      3.418000    3.864760   -0.574110
  C      1.688000    1.355220   -0.510300
  C      3.022560    1.154020   -0.632950
  C      6.134060    0.868640   -0.959340
  C      6.772800    0.469420    0.384390
  C      5.708020    0.096150    1.411150
  C      7.738430   -0.693530    0.173920
  C     -1.378830    1.810200   -0.197720
  C     -1.670540    2.255680    1.247980
  C     -0.381940    2.553350    2.008490
  C     -2.569640    3.488650    1.231660
  H     -2.080380   -3.193480    0.007550
  H      6.516600    5.944930   -0.796250
  H      2.398670   -3.405500   -0.259010
  H      4.282890   -4.954720   -0.376860
  H      0.017220  -10.111750   -0.096860
  H     -1.867750   -8.495430    0.039920
  H      5.756630   -9.561730   -1.147330
  H      4.663820  -10.908340   -0.710960
  H      6.169800   -9.087080    1.222760
  H      4.329010  -11.468220    1.751080
  H      4.023970   -9.794180    2.214490
  H      5.337880  -10.687720    2.974610
  H      6.552750  -12.037620    0.534120
  H      7.471890  -11.135580    1.740380
  H      7.616430  -10.719350    0.032660
  H      0.803930    8.771450   -0.123710
  H      0.977440   11.247580   -0.049670
  H      7.624910   10.690310   -0.710740
  H      7.389030    8.244440   -0.779680
  H      3.820130   15.154230   -0.863910
  H      5.587110   15.002030   -0.635960
  H      3.464460   15.013660    1.559400
  H      6.510540   14.844460    1.732200
  H      5.370060   13.589970    2.218300
  H      5.438010   15.106030    3.112530
  H      5.578200   17.082550    0.800210
  H      4.457810   17.207230    2.157660
  H      3.842830   17.230420    0.505190
  H     -2.391230   -0.807170   -0.017210
  H      6.994730    3.544610   -0.961160
  H      1.323280    2.372540   -0.486230
  H      3.405550    0.143180   -0.667840
  H      6.931750    1.020780   -1.690180
  H      5.505050    0.051830   -1.314250
  H      7.335410    1.330240    0.763110
  H      5.146410   -0.774480    1.078520
  H      5.012740    0.917590    1.567920
  H      6.172690   -0.144590    2.364450
  H      7.211040   -1.559310   -0.220810
  H      8.201770   -0.976530    1.116000
  H      8.525660   -0.422720   -0.526140
  H     -2.329590    1.704750   -0.725280
  H     -0.799540    2.585530   -0.699480
  H     -2.197450    1.440470    1.757010
  H      0.158270    3.373090    1.539450
  H      0.267050    1.681030    2.036050
  H     -0.609760    2.839180    3.032800
  H     -2.073660    4.310270    0.719390
  H     -2.796190    3.805520    2.246900
  H     -3.507390    3.279810    0.721600

 Total Charge           Charge          ....    0
 Multiplicity           Mult            ....    1
 Number of Electrons    NEL             ....  480
 Basis Dimension        Dim             .... 1182

ORBITAL ENERGIES
----------------

  NO   OCC          E(Eh)            E(eV)
   0   2.0000     -91.972453     -2502.6977
   1   2.0000     -91.960342     -2502.3681
   2   2.0000     -20.567865      -559.6801
   3   2.0000     -20.557443      -559.3965
   4   2.0000     -20.542761      -558.9969
   5   2.0000     -20.540642      -558.9393
   6   2.0000     -20.538784      -558.8887
   7   2.0000     -20.538331      -558.8764
   8   2.0000     -15.617001      -424.9602
   9   2.0000     -15.615995      -424.9328
  10   2.0000     -11.383052      -309.7486
  11   2.0000     -11.382136      -309.7237
  12   2.0000     -11.381144      -309.6967
  13   2.0000     -11.379361      -309.6482
  14   2.0000     -11.365171      -309.2620
  15   2.0000     -11.353512      -308.9448
  16   2.0000     -11.308078      -307.7084
  17   2.0000     -11.297504      -307.4207
  18   2.0000     -11.295969      -307.3790
  19   2.0000     -11.293912      -307.3230
  20   2.0000     -11.290319      -307.2252
  21   2.0000     -11.289288      -307.1971
  22   2.0000     -11.288320      -307.1708
  23   2.0000     -11.287094      -307.1374
  24   2.0000     -11.284419      -307.0646
  25   2.0000     -11.284014      -307.0536
  26   2.0000     -11.280806      -306.9663
  27   2.0000     -11.280745      -306.9647
  28   2.0000     -11.280535      -306.9590
  29   2.0000     -11.280043      -306.9456
  30   2.0000     -11.278207      -306.8956
  31   2.0000     -11.277944      -306.8885
  32   2.0000     -11.276932      -306.8609
  33   2.0000     -11.276040      -306.8366
  34   2.0000     -11.274746      -306.8014
  35   2.0000     -11.274513      -306.7951
  36   2.0000     -11.273036      -306.7549
  37   2.0000     -11.272886      -306.7508
  38   2.0000     -11.272212      -306.7325
  39   2.0000     -11.271471      -306.7123
  40   2.0000     -11.271259      -306.7065
  41   2.0000     -11.270974      -306.6988
  42   2.0000     -11.267355      -306.6003
  43   2.0000     -11.266740      -306.5836
  44   2.0000     -11.266657      -306.5813
  45   2.0000     -11.266337      -306.5726
  46   2.0000     -11.265723      -306.5559
  47   2.0000     -11.265454      -306.5486
  48   2.0000     -11.265339      -306.5455
  49   2.0000     -11.260111      -306.4032
  50   2.0000     -11.257310      -306.3270
  51   2.0000     -11.256637      -306.3087
  52   2.0000     -11.248775      -306.0947
  53   2.0000     -11.248508      -306.0875
  54   2.0000     -11.243701      -305.9566
  55   2.0000     -11.242413      -305.9216
  56   2.0000     -11.228637      -305.5467
  57   2.0000     -11.227649      -305.5199
  58   2.0000     -11.226945      -305.5007
  59   2.0000     -11.224026      -305.4213
  60   2.0000     -11.220765      -305.3325
  61   2.0000     -11.220282      -305.3194
  62   2.0000     -11.213280      -305.1289
  63   2.0000     -11.212909      -305.1188
  64   2.0000     -11.209871      -305.0361
  65   2.0000     -11.209095      -305.0150
  66   2.0000      -9.008120      -245.1234
  67   2.0000      -8.995078      -244.7685
  68   2.0000      -6.695636      -182.1975
  69   2.0000      -6.694670      -182.1712
  70   2.0000      -6.692774      -182.1196
  71   2.0000      -6.682112      -181.8295
  72   2.0000      -6.680984      -181.7988
  73   2.0000      -6.679083      -181.7471
  74   2.0000      -1.409643       -38.3583
  75   2.0000      -1.408358       -38.3234
  76   2.0000      -1.399227       -38.0749
  77   2.0000      -1.388128       -37.7729
  78   2.0000      -1.386625       -37.7320
  79   2.0000      -1.385305       -37.6961
  80   2.0000      -1.257981       -34.2314
  81   2.0000      -1.256829       -34.2000
  82   2.0000      -1.233292       -33.5596
  83   2.0000      -1.228939       -33.4411
  84   2.0000      -1.212477       -32.9932
  85   2.0000      -1.204417       -32.7738
  86   2.0000      -1.157952       -31.5095
  87   2.0000      -1.152055       -31.3490
  88   2.0000      -1.143492       -31.1160
  89   2.0000      -1.140735       -31.0410
  90   2.0000      -1.121276       -30.5115
  91   2.0000      -1.111264       -30.2390
  92   2.0000      -1.107021       -30.1236
  93   2.0000      -1.087112       -29.5818
  94   2.0000      -1.078569       -29.3494
  95   2.0000      -1.071196       -29.1487
  96   2.0000      -1.065246       -28.9868
  97   2.0000      -1.046680       -28.4816
  98   2.0000      -1.044159       -28.4130
  99   2.0000      -1.036923       -28.2161
 100   2.0000      -1.031459       -28.0674
 101   2.0000      -1.025506       -27.9054
 102   2.0000      -1.017888       -27.6981
 103   2.0000      -1.014129       -27.5959
 104   2.0000      -0.985485       -26.8164
 105   2.0000      -0.966416       -26.2975
 106   2.0000      -0.957026       -26.0420
 107   2.0000      -0.937170       -25.5017
 108   2.0000      -0.935308       -25.4510
 109   2.0000      -0.934162       -25.4198
 110   2.0000      -0.932073       -25.3630
 111   2.0000      -0.931654       -25.3516
 112   2.0000      -0.930933       -25.3320
 113   2.0000      -0.926861       -25.2212
 114   2.0000      -0.918971       -25.0065
 115   2.0000      -0.918452       -24.9924
 116   2.0000      -0.903223       -24.5779
 117   2.0000      -0.880983       -23.9728
 118   2.0000      -0.872876       -23.7522
 119   2.0000      -0.870311       -23.6824
 120   2.0000      -0.864344       -23.5200
 121   2.0000      -0.858119       -23.3506
 122   2.0000      -0.841602       -22.9012
 123   2.0000      -0.823654       -22.4128
 124   2.0000      -0.807977       -21.9862
 125   2.0000      -0.796945       -21.6860
 126   2.0000      -0.788472       -21.4554
 127   2.0000      -0.785928       -21.3862
 128   2.0000      -0.781549       -21.2670
 129   2.0000      -0.777268       -21.1505
 130   2.0000      -0.772237       -21.0136
 131   2.0000      -0.767751       -20.8916
 132   2.0000      -0.764649       -20.8071
 133   2.0000      -0.761713       -20.7273
 134   2.0000      -0.744698       -20.2643
 135   2.0000      -0.740664       -20.1545
 136   2.0000      -0.734514       -19.9872
 137   2.0000      -0.728954       -19.8359
 138   2.0000      -0.724004       -19.7012
 139   2.0000      -0.717716       -19.5301
 140   2.0000      -0.709549       -19.3078
 141   2.0000      -0.703356       -19.1393
 142   2.0000      -0.701063       -19.0769
 143   2.0000      -0.687463       -18.7068
 144   2.0000      -0.677294       -18.4301
 145   2.0000      -0.674559       -18.3557
 146   2.0000      -0.669996       -18.2315
 147   2.0000      -0.665542       -18.1103
 148   2.0000      -0.661460       -17.9992
 149   2.0000      -0.661032       -17.9876
 150   2.0000      -0.658469       -17.9179
 151   2.0000      -0.653749       -17.7894
 152   2.0000      -0.648705       -17.6522
 153   2.0000      -0.647144       -17.6097
 154   2.0000      -0.643306       -17.5052
 155   2.0000      -0.641937       -17.4680
 156   2.0000      -0.640259       -17.4223
 157   2.0000      -0.638272       -17.3683
 158   2.0000      -0.635087       -17.2816
 159   2.0000      -0.633660       -17.2428
 160   2.0000      -0.628662       -17.1067
 161   2.0000      -0.625930       -17.0324
 162   2.0000      -0.622807       -16.9474
 163   2.0000      -0.620659       -16.8890
 164   2.0000      -0.618147       -16.8206
 165   2.0000      -0.616854       -16.7854
 166   2.0000      -0.615606       -16.7515
 167   2.0000      -0.613336       -16.6897
 168   2.0000      -0.611401       -16.6371
 169   2.0000      -0.607040       -16.5184
 170   2.0000      -0.606252       -16.4970
 171   2.0000      -0.603210       -16.4142
 172   2.0000      -0.594661       -16.1815
 173   2.0000      -0.590042       -16.0559
 174   2.0000      -0.585340       -15.9279
 175   2.0000      -0.583519       -15.8784
 176   2.0000      -0.581607       -15.8263
 177   2.0000      -0.580965       -15.8089
 178   2.0000      -0.578123       -15.7315
 179   2.0000      -0.568559       -15.4713
 180   2.0000      -0.566781       -15.4229
 181   2.0000      -0.563777       -15.3411
 182   2.0000      -0.563198       -15.3254
 183   2.0000      -0.561636       -15.2829
 184   2.0000      -0.558322       -15.1927
 185   2.0000      -0.555049       -15.1036
 186   2.0000      -0.552325       -15.0295
 187   2.0000      -0.551629       -15.0106
 188   2.0000      -0.551191       -14.9987
 189   2.0000      -0.550618       -14.9831
 190   2.0000      -0.547783       -14.9059
 191   2.0000      -0.544337       -14.8122
 192   2.0000      -0.542484       -14.7618
 193   2.0000      -0.539670       -14.6852
 194   2.0000      -0.536291       -14.5932
 195   2.0000      -0.535550       -14.5731
 196   2.0000      -0.533663       -14.5217
 197   2.0000      -0.530690       -14.4408
 198   2.0000      -0.527115       -14.3435
 199   2.0000      -0.526984       -14.3400
 200   2.0000      -0.525345       -14.2954
 201   2.0000      -0.519259       -14.1298
 202   2.0000      -0.515559       -14.0291
 203   2.0000      -0.498836       -13.5740
 204   2.0000      -0.496701       -13.5159
 205   2.0000      -0.494124       -13.4458
 206   2.0000      -0.492490       -13.4013
 207   2.0000      -0.486524       -13.2390
 208   2.0000      -0.485229       -13.2037
 209   2.0000      -0.484154       -13.1745
 210   2.0000      -0.483857       -13.1664
 211   2.0000      -0.482626       -13.1329
 212   2.0000      -0.480855       -13.0847
 213   2.0000      -0.480661       -13.0795
 214   2.0000      -0.478720       -13.0266
 215   2.0000      -0.476317       -12.9612
 216   2.0000      -0.473690       -12.8897
 217   2.0000      -0.470157       -12.7936
 218   2.0000      -0.465703       -12.6724
 219   2.0000      -0.465541       -12.6680
 220   2.0000      -0.452306       -12.3079
 221   2.0000      -0.450904       -12.2697
 222   2.0000      -0.450224       -12.2512
 223   2.0000      -0.446521       -12.1504
 224   2.0000      -0.446113       -12.1393
 225   2.0000      -0.437905       -11.9160
 226   2.0000      -0.434733       -11.8297
 227   2.0000      -0.424210       -11.5434
 228   2.0000      -0.415618       -11.3095
 229   2.0000      -0.402801       -10.9608
 230   2.0000      -0.400239       -10.8911
 231   2.0000      -0.386047       -10.5049
 232   2.0000      -0.369408       -10.0521
 233   2.0000      -0.360628        -9.8132
 234   2.0000      -0.360322        -9.8049
 235   2.0000      -0.356641        -9.7047
 236   2.0000      -0.346508        -9.4290
 237   2.0000      -0.325317        -8.8523
 238   2.0000      -0.303218        -8.2510
 239   2.0000      -0.261999        -7.1293
 240   0.0000      -0.018841        -0.5127
 241   0.0000       0.002820         0.0767
 242   0.0000       0.006538         0.1779
 243   0.0000       0.021580         0.5872
 244   0.0000       0.072995         1.9863

MULLIKEN ATOMIC CHARGES
-----------------------
   0 C :   -0.089618
   1 C :   -0.140567
   2 C :    0.044307
   3 C :   -0.235103
   4 C :    0.084823
   5 C :   -0.264021
   6 C :    0.136583
   7 C :   -0.116102
   8 C :   -0.088225
   9 C :    0.456180
  10 C :    0.136724
  11 C :   -0.102812
  12 C :   -0.111901
  13 C :    0.525037
  14 C :   -0.080922
  15 C :    0.078714
  16 C :   -0.263913
  17 C :    0.109168
  18 C :   -0.244747
  19 C :    0.050854
  20 C :    0.003590
  21 C :    0.630897
  22 N :   -0.713708
  23 C :    0.625480
  24 C :    0.258323
  25 C :   -0.286600
  26 C :    0.022948
  27 C :    0.015722
  28 C :    0.001995
  29 C :    0.050126
  30 C :   -0.241072
  31 C :    0.119675
  32 C :   -0.276129
  33 C :    0.083535
  34 C :   -0.076164
  35 C :    0.628633
  36 N :   -0.715463
  37 C :    0.629465
  38 C :    0.258108
  39 C :   -0.288068
  40 C :    0.023440
  41 C :    0.015896
  42 O :   -0.408634
  43 O :   -0.403902
  44 O :   -0.353681
  45 O :   -0.379534
  46 O :   -0.407593
  47 O :   -0.402645
  48 C :    0.026758
  49 C :   -0.132983
  50 C :   -0.078049
  51 S :    0.079470
  52 C :    0.027927
  53 C :   -0.139780
  54 C :   -0.089922
  55 S :    0.170745
  56 C :   -0.030502
  57 C :   -0.032354
  58 C :    0.130104
  59 C :   -0.270613
  60 C :    0.012916
  61 C :    0.042238
  62 C :    0.121723
  63 C :   -0.269815
  64 C :    0.005218
  65 C :    0.040478
  66 H :    0.075990
  67 H :    0.046537
  68 H :    0.057246
  69 H :    0.061257
  70 H :    0.070054
  71 H :    0.056708
  72 H :    0.052931
  73 H :    0.068783
  74 H :    0.056541
  75 H :    0.038773
  76 H :    0.020571
  77 H :    0.026777
  78 H :    0.021659
  79 H :    0.030191
  80 H :    0.030412
  81 H :    0.054689
  82 H :    0.069892
  83 H :    0.066442
  84 H :    0.032763
  85 H :    0.052290
  86 H :    0.069908
  87 H :    0.057641
  88 H :    0.038046
  89 H :    0.019976
  90 H :    0.026936
  91 H :    0.021416
  92 H :    0.030435
  93 H :    0.030807
  94 H :    0.044308
  95 H :    0.033217
  96 H :    0.076681
  97 H :    0.051277
  98 H :    0.034845
  99 H :    0.029594
 100 H :    0.032567
 101 H :    0.016310
 102 H :    0.052224
 103 H :    0.035219
 104 H :    0.022254
 105 H :    0.034496
 106 H :    0.026716
 107 H :    0.036831
 108 H :    0.039462
 109 H :    0.034081
 110 H :    0.033208
 111 H :    0.049194
 112 H :    0.033803
 113 H :    0.025627
 114 H :    0.033502
 115 H :    0.026257
Sum of atomic charges:   -0.0000000

LOEWDIN ATOMIC CHARGES
----------------------
   0 C :   -0.188764
   1 C :   -0.198879
   2 C :    0.062469
   3 C :   -0.118460
   4 C :    0.075955
   5 C :   -0.130003
   6 C :    0.024424
   7 C :   -0.014620
   8 C :   -0.038366
   9 C :    0.168810
  10 C :    0.034902
  11 C :   -0.022497
  12 C :   -0.035802
  13 C :    0.170116
  14 C :   -0.042494
  15 C :    0.066612
  16 C :   -0.099153
  17 C :    0.004370
  18 C :   -0.072126
  19 C :    0.053229
  20 C :    0.014936
  21 C :    0.197273
  22 N :   -0.105017
  23 C :    0.196298
  24 C :    0.086447
  25 C :   -0.039426
  26 C :   -0.029369
  27 C :   -0.023699
  28 C :    0.014557
  29 C :    0.052748
  30 C :   -0.069641
  31 C :    0.007180
  32 C :   -0.105386
  33 C :    0.073186
  34 C :   -0.044342
  35 C :    0.197371
  36 N :   -0.106097
  37 C :    0.196033
  38 C :    0.086419
  39 C :   -0.039753
  40 C :   -0.029318
  41 C :   -0.023545
  42 O :   -0.271260
  43 O :   -0.266212
  44 O :   -0.227802
  45 O :   -0.241950
  46 O :   -0.271132
  47 O :   -0.264474
  48 C :   -0.003926
  49 C :   -0.055875
  50 C :   -0.151527
  51 S :    0.426017
  52 C :   -0.007943
  53 C :   -0.068959
  54 C :   -0.155071
  55 S :    0.477605
  56 C :   -0.026253
  57 C :   -0.032315
  58 C :   -0.001945
  59 C :   -0.029867
  60 C :   -0.027251
  61 C :   -0.024282
  62 C :   -0.001484
  63 C :   -0.028807
  64 C :   -0.028320
  65 C :   -0.024353
  66 H :    0.053062
  67 H :    0.042518
  68 H :    0.009176
  69 H :    0.043423
  70 H :    0.045630
  71 H :    0.041186
  72 H :    0.021417
  73 H :    0.025184
  74 H :    0.017036
  75 H :    0.019059
  76 H :    0.008227
  77 H :    0.013992
  78 H :    0.013725
  79 H :    0.015992
  80 H :    0.015485
  81 H :    0.040139
  82 H :    0.045649
  83 H :    0.045301
  84 H :    0.027208
  85 H :    0.021051
  86 H :    0.025568
  87 H :    0.017114
  88 H :    0.018884
  89 H :    0.008096
  90 H :    0.014040
  91 H :    0.013609
  92 H :    0.016114
  93 H :    0.015661
  94 H :    0.032970
  95 H :    0.027560
  96 H :    0.026943
  97 H :    0.022056
  98 H :    0.022800
  99 H :    0.017905
 100 H :    0.010803
 101 H :    0.009864
 102 H :    0.018300
 103 H :    0.018231
 104 H :    0.014507
 105 H :    0.017443
 106 H :    0.013852
 107 H :    0.024099
 108 H :    0.021782
 109 H :    0.011222
 110 H :    0.015717
 111 H :    0.016761
 112 H :    0.017923
 113 H :    0.015940
 114 H :    0.017083
 115 H :    0.013500

  Mayer bond orders larger than 0.100000
B(  0-C ,  2-C ) :   1.1665 B(  0-C , 48-C ) :   1.5312 B(  0-C , 51-S ) :   1.0585
B(  1-C ,  4-C ) :   1.2049 B(  1-C , 52-C ) :   1.4822 B(  1-C , 55-S ) :   1.0933
B(  2-C ,  3-C ) :   1.7871 B(  2-C , 66-H ) :   0.9581 B(  3-C ,  6-C ) :   0.9769
B(  3-C ,  9-C ) :   1.0129 B(  4-C ,  5-C ) :   1.7183 B(  4-C , 67-H ) :   0.9809
B(  5-C , 10-C ) :   1.0271 B(  5-C , 13-C ) :   0.9730 B(  6-C ,  7-C ) :   1.2226
B(  6-C , 14-C ) :   1.5132 B(  7-C ,  8-C ) :   1.2656 B(  7-C , 17-C ) :   1.3746
B(  8-C ,  9-C ) :   0.9414 B(  8-C , 20-C ) :   1.5271 B(  9-C , 44-O ) :   2.0787
B( 10-C , 11-C ) :   1.2249 B( 10-C , 34-C ) :   1.5128 B( 11-C , 12-C ) :   1.2743
B( 11-C , 31-C ) :   1.3721 B( 12-C , 13-C ) :   0.9662 B( 12-C , 28-C ) :   1.5269
B( 13-C , 45-O ) :   2.0193 B( 14-C , 15-C ) :   1.2914 B( 14-C , 68-H ) :   0.9992
B( 15-C , 16-C ) :   1.5555 B( 15-C , 69-H ) :   0.9937 B( 16-C , 17-C ) :   1.2153
B( 16-C , 21-C ) :   0.9746 B( 17-C , 18-C ) :   1.2438 B( 18-C , 19-C ) :   1.5486
B( 18-C , 23-C ) :   0.9600 B( 19-C , 20-C ) :   1.2854 B( 19-C , 70-H ) :   0.9958
B( 20-C , 71-H ) :   1.0098 B( 21-C , 22-N ) :   0.9977 B( 21-C , 42-O ) :   2.0122
B( 22-N , 23-C ) :   1.0084 B( 22-N , 24-C ) :   0.8347 B( 23-C , 43-O ) :   2.0101
B( 24-C , 25-C ) :   1.0099 B( 24-C , 72-H ) :   0.9714 B( 24-C , 73-H ) :   0.9622
B( 25-C , 26-C ) :   1.0083 B( 25-C , 27-C ) :   1.0363 B( 25-C , 74-H ) :   0.9635
B( 26-C , 75-H ) :   0.9798 B( 26-C , 76-H ) :   0.9817 B( 26-C , 77-H ) :   0.9869
B( 27-C , 78-H ) :   0.9803 B( 27-C , 79-H ) :   0.9871 B( 27-C , 80-H ) :   0.9860
B( 28-C , 29-C ) :   1.2855 B( 28-C , 81-H ) :   1.0093 B( 29-C , 30-C ) :   1.5505
B( 29-C , 82-H ) :   0.9954 B( 30-C , 31-C ) :   1.2420 B( 30-C , 37-C ) :   0.9601
B( 31-C , 32-C ) :   1.2146 B( 32-C , 33-C ) :   1.5498 B( 32-C , 35-C ) :   0.9761
B( 33-C , 34-C ) :   1.2922 B( 33-C , 83-H ) :   0.9930 B( 34-C , 84-H ) :   1.0059
B( 35-C , 36-N ) :   0.9912 B( 35-C , 46-O ) :   2.0096 B( 36-N , 37-C ) :   1.0126
B( 36-N , 38-C ) :   0.8346 B( 37-C , 47-O ) :   2.0147 B( 38-C , 39-C ) :   1.0095
B( 38-C , 85-H ) :   0.9721 B( 38-C , 86-H ) :   0.9618 B( 39-C , 40-C ) :   1.0077
B( 39-C , 41-C ) :   1.0365 B( 39-C , 87-H ) :   0.9635 B( 40-C , 88-H ) :   0.9799
B( 40-C , 89-H ) :   0.9820 B( 40-C , 90-H ) :   0.9870 B( 41-C , 91-H ) :   0.9803
B( 41-C , 92-H ) :   0.9871 B( 41-C , 93-H ) :   0.9860 B( 48-C , 49-C ) :   1.3044
B( 48-C , 94-H ) :   1.0054 B( 49-C , 50-C ) :   1.5610 B( 49-C , 62-C ) :   1.0040
B( 50-C , 51-S ) :   1.1196 B( 50-C , 56-C ) :   1.1535 B( 52-C , 53-C ) :   1.3418
B( 52-C , 95-H ) :   1.0048 B( 53-C , 54-C ) :   1.5282 B( 53-C , 58-C ) :   1.0041
B( 54-C , 55-S ) :   1.1166 B( 54-C , 57-C ) :   1.1573 B( 56-C , 57-C ) :   1.7589
B( 56-C , 96-H ) :   0.9763 B( 57-C , 97-H ) :   0.9821 B( 58-C , 59-C ) :   1.0003
B( 58-C , 98-H ) :   0.9652 B( 58-C , 99-H ) :   0.9628 B( 59-C , 60-C ) :   1.0045
B( 59-C , 61-C ) :   1.0271 B( 59-C ,100-H ) :   0.9660 B( 60-C ,101-H ) :   0.9809
B( 60-C ,102-H ) :   0.9873 B( 60-C ,103-H ) :   0.9854 B( 61-C ,104-H ) :   0.9798
B( 61-C ,105-H ) :   0.9879 B( 61-C ,106-H ) :   0.9851 B( 62-C , 63-C ) :   0.9993
B( 62-C ,107-H ) :   0.9641 B( 62-C ,108-H ) :   0.9631 B( 63-C , 64-C ) :   1.0046
B( 63-C , 65-C ) :   1.0278 B( 63-C ,109-H ) :   0.9660 B( 64-C ,110-H ) :   0.9811
B( 64-C ,111-H ) :   0.9869 B( 64-C ,112-H ) :   0.9850 B( 65-C ,113-H ) :   0.9799
B( 65-C ,114-H ) :   0.9877 B( 65-C ,115-H ) :   0.9850

-----------------------------------------------------------------------------
         ABSORPTION SPECTRUM VIA TRANSITION ELECTRIC DIPOLE MOMENTS
-----------------------------------------------------------------------------
State   Energy    Wavelength  fosc         T2        TX        TY        TZ
        (cm-1)      (nm)                 (au**2)    (au)      (au)      (au)
-----------------------------------------------------------------------------
   1   22150.7    451.5   2.133245289  31.70515  -1.57479  -5.40436   0.13469
   2   30825.3    324.4   0.048034747   0.51301  -0.67618  -0.20814  -0.11165
   3   33326.6    300.1   0.263430272   2.60226  -0.69322   1.45387   0.08918

FINAL SINGLE POINT ENERGY     -3500.585687818767

DIPOLE MOMENT
-------------
                                X             Y             Z
Electronic contribution:    -26.91249      -9.04171     -28.66803
Nuclear contribution   :     27.28845       9.46158      28.81036
                        -----------------------------------------
Total Dipole Moment    :      0.37596       0.41987       0.14233
                        -----------------------------------------
Magnitude (a.u.)       :      0.58129
Magnitude (Debye)      :      1.47752

Rotational constants in cm-1:     0.002597     0.000284     0.000260
Rotational constants in MHz :    77.857798     8.528710     7.801993

                             ****ORCA TERMINATED NORMALLY****
TOTAL RUN TIME: 0 days 13 hours 14 minutes 7 seconds 897 msec
