                         Program Version 4.2.0 -  RELEASE  -
|  1> # ORCA input file
|  2> # NITV.out: Geometry 179
|  3> ! Engrad Keepdens
|  4> %maxcore 1000
|  5> %tddft
|  6>   nroots 3
|  7>   # nroots is the number of states to be computed
|  8>   Iroot 1
|  9>   end
| 10> * xyz 0 1
| 11>    C       -0.46756        -1.96794        -0.02366
| 12>    C        5.00748         4.57405        -0.02868
| 13>    C       -0.96698        -3.30325        -0.03489
| 14>    C       -0.41830        -4.54903        -0.11183
| 15>    C        5.40157         5.94811        -0.03005
| 16>    C        4.69935         7.12218        -0.05316
| 17>    C        0.93275        -5.12255        -0.17111
| 18>    C        0.76407        -6.53176        -0.33938
| 19>    C       -0.57862        -6.94534        -0.37557
| 20>    C       -1.40415        -5.70826        -0.21113
| 21>    C        5.28670         8.46885        -0.13839
| 22>    C        4.20422         9.38911        -0.18122
| 23>    C        2.94614         8.76990        -0.11676
| 24>    C        3.20000         7.29479        -0.03683
| 25>    C        2.24484        -4.65875        -0.09499
| 26>    C        3.32927        -5.56996        -0.19530
| 27>    C        3.14368        -6.93520        -0.38752
| 28>    C        1.82313        -7.43506        -0.46463
| 29>    C        1.50929        -8.79765        -0.66661
| 30>    C        0.17649        -9.20919        -0.70126
| 31>    C       -0.88630        -8.28481        -0.54955
| 32>    C        4.27117        -7.88494        -0.51191
| 33>    N        3.92748        -9.23011        -0.76631
| 34>    C        2.62421        -9.75689        -0.86942
| 35>    C        5.04886       -10.16368        -0.94028
| 36>    C        5.66587       -10.66430         0.37637
| 37>    C        4.63102       -11.33385         1.28394
| 38>    C        6.82550       -11.60682         0.04348
| 39>    C        1.79774         9.54379        -0.16090
| 40>    C        1.93539        10.95005        -0.28233
| 41>    C        3.18872        11.55817        -0.36375
| 42>    C        4.35961        10.77000        -0.31062
| 43>    C        5.67168        11.28760        -0.40498
| 44>    C        6.74683        10.40100        -0.34836
| 45>    C        6.57178         8.99709        -0.21420
| 46>    C        5.84529        12.74442        -0.60116
| 47>    N        4.65480        13.51320        -0.63395
| 48>    C        3.33881        13.02419        -0.53778
| 49>    C        4.77844        14.96203        -0.85352
| 50>    C        4.51787        15.81376         0.39835
| 51>    C        5.54505        15.54732         1.49881
| 52>    C        4.48921        17.29102        -0.00383
| 53>    O        5.43836        -7.55047        -0.41772
| 54>    O        2.43276       -10.93218        -1.11774
| 55>    O       -2.61365        -5.62325        -0.17906
| 56>    O        2.35422         6.42204         0.02067
| 57>    O        6.93536        13.26573        -0.74084
| 58>    O        2.38419        13.77674        -0.60833
| 59>    C       -1.29649        -0.84957         0.04957
| 60>    C       -0.63136         0.39201        -0.00127
| 61>    C        0.75714         0.23270        -0.11496
| 62>    S        1.20124        -1.45728        -0.16661
| 63>    C        5.94009         3.53147        -0.04105
| 64>    C        5.38960         2.23673        -0.10282
| 65>    C        3.98729         2.28392        -0.13403
| 66>    S        3.38179         3.92117        -0.08359
| 67>    C        1.72505         1.28553        -0.15325
| 68>    C        3.08127         1.17037        -0.17392
| 69>    C        6.22647         0.98669        -0.10841
| 70>    C        6.63266         0.47012         1.29179
| 71>    C        5.42435        -0.00217         2.10386
| 72>    C        7.68387        -0.63364         1.15103
| 73>    C       -1.35320         1.70796         0.08752
| 74>    C       -1.63910         2.19473         1.52734
| 75>    C       -0.35525         2.52036         2.29328
| 76>    C       -2.58148         3.39968         1.48397
| 77>    H       -2.06414        -3.34288         0.00101
| 78>    H        6.49287         6.05712        -0.03480
| 79>    H        2.47184        -3.60531         0.05447
| 80>    H        4.35440        -5.20008        -0.12444
| 81>    H       -0.02645       -10.26993        -0.86039
| 82>    H       -1.92506        -8.62015        -0.57748
| 83>    H        5.81754        -9.64186        -1.52450
| 84>    H        4.66240       -11.01212        -1.51797
| 85>    H        6.07972        -9.78564         0.90006
| 86>    H        4.14024       -12.17843         0.77473
| 87>    H        3.84252       -10.62741         1.58630
| 88>    H        5.10440       -11.71295         2.20346
| 89>    H        6.46863       -12.48607        -0.51928
| 90>    H        7.31613       -11.97241         0.95915
| 91>    H        7.58964       -11.10216        -0.57013
| 92>    H        0.80950         9.08217        -0.11128
| 93>    H        1.05377        11.59202        -0.32825
| 94>    H        7.75333        10.81758        -0.42403
| 95>    H        7.45544         8.35563        -0.18531
| 96>    H        4.05366        15.23408        -1.63187
| 97>    H        5.79364        15.13895        -1.22925
| 98>    H        3.51699        15.54520         0.77370
| 99>    H        6.56555        15.78325         1.15404
|100>    H        5.53714        14.49298         1.81671
|101>    H        5.33214        16.16079         2.38855
|102>    H        5.46535        17.61236        -0.40677
|103>    H        4.25532        17.93155         0.86049
|104>    H        3.72880        17.48297        -0.77738
|105>    H       -2.38068        -0.94744         0.13187
|106>    H        7.01523         3.72388        -0.02044
|107>    H        1.29739         2.28981        -0.12843
|108>    H        3.53699         0.17776        -0.19277
|109>    H        7.14320         1.19209        -0.68450
|110>    H        5.70626         0.17638        -0.64587
|111>    H        7.09476         1.31595         1.83343
|112>    H        4.90905        -0.83576         1.59641
|113>    H        4.69071         0.80431         2.25566
|114>    H        5.73548        -0.36593         3.09556
|115>    H        7.28307        -1.48886         0.58107
|116>    H        8.00898        -1.01093         2.13329
|117>    H        8.57567        -0.26708         0.61727
|118>    H       -2.31307         1.60529        -0.44305
|119>    H       -0.79429         2.49273        -0.44743
|120>    H       -2.15394         1.37187         2.05695
|121>    H        0.20138         3.33666         1.80212
|122>    H        0.31334         1.64850         2.36323
|123>    H       -0.58498         2.85150         3.31847
|124>    H       -2.11770         4.23876         0.93828
|125>    H       -2.82728         3.75581         2.49650
|126>    H       -3.52591         3.14844         0.97481
|127> *
|128>
|129>                          ****END OF INPUT****

CARTESIAN COORDINATES (ANGSTROEM)
---------------------------------
  C     -0.467560   -1.967940   -0.023660
  C      5.007480    4.574050   -0.028680
  C     -0.966980   -3.303250   -0.034890
  C     -0.418300   -4.549030   -0.111830
  C      5.401570    5.948110   -0.030050
  C      4.699350    7.122180   -0.053160
  C      0.932750   -5.122550   -0.171110
  C      0.764070   -6.531760   -0.339380
  C     -0.578620   -6.945340   -0.375570
  C     -1.404150   -5.708260   -0.211130
  C      5.286700    8.468850   -0.138390
  C      4.204220    9.389110   -0.181220
  C      2.946140    8.769900   -0.116760
  C      3.200000    7.294790   -0.036830
  C      2.244840   -4.658750   -0.094990
  C      3.329270   -5.569960   -0.195300
  C      3.143680   -6.935200   -0.387520
  C      1.823130   -7.435060   -0.464630
  C      1.509290   -8.797650   -0.666610
  C      0.176490   -9.209190   -0.701260
  C     -0.886300   -8.284810   -0.549550
  C      4.271170   -7.884940   -0.511910
  N      3.927480   -9.230110   -0.766310
  C      2.624210   -9.756890   -0.869420
  C      5.048860  -10.163680   -0.940280
  C      5.665870  -10.664300    0.376370
  C      4.631020  -11.333850    1.283940
  C      6.825500  -11.606820    0.043480
  C      1.797740    9.543790   -0.160900
  C      1.935390   10.950050   -0.282330
  C      3.188720   11.558170   -0.363750
  C      4.359610   10.770000   -0.310620
  C      5.671680   11.287600   -0.404980
  C      6.746830   10.401000   -0.348360
  C      6.571780    8.997090   -0.214200
  C      5.845290   12.744420   -0.601160
  N      4.654800   13.513200   -0.633950
  C      3.338810   13.024190   -0.537780
  C      4.778440   14.962030   -0.853520
  C      4.517870   15.813760    0.398350
  C      5.545050   15.547320    1.498810
  C      4.489210   17.291020   -0.003830
  O      5.438360   -7.550470   -0.417720
  O      2.432760  -10.932180   -1.117740
  O     -2.613650   -5.623250   -0.179060
  O      2.354220    6.422040    0.020670
  O      6.935360   13.265730   -0.740840
  O      2.384190   13.776740   -0.608330
  C     -1.296490   -0.849570    0.049570
  C     -0.631360    0.392010   -0.001270
  C      0.757140    0.232700   -0.114960
  S      1.201240   -1.457280   -0.166610
  C      5.940090    3.531470   -0.041050
  C      5.389600    2.236730   -0.102820
  C      3.987290    2.283920   -0.134030
  S      3.381790    3.921170   -0.083590
  C      1.725050    1.285530   -0.153250
  C      3.081270    1.170370   -0.173920
  C      6.226470    0.986690   -0.108410
  C      6.632660    0.470120    1.291790
  C      5.424350   -0.002170    2.103860
  C      7.683870   -0.633640    1.151030
  C     -1.353200    1.707960    0.087520
  C     -1.639100    2.194730    1.527340
  C     -0.355250    2.520360    2.293280
  C     -2.581480    3.399680    1.483970
  H     -2.064140   -3.342880    0.001010
  H      6.492870    6.057120   -0.034800
  H      2.471840   -3.605310    0.054470
  H      4.354400   -5.200080   -0.124440
  H     -0.026450  -10.269930   -0.860390
  H     -1.925060   -8.620150   -0.577480
  H      5.817540   -9.641860   -1.524500
  H      4.662400  -11.012120   -1.517970
  H      6.079720   -9.785640    0.900060
  H      4.140240  -12.178430    0.774730
  H      3.842520  -10.627410    1.586300
  H      5.104400  -11.712950    2.203460
  H      6.468630  -12.486070   -0.519280
  H      7.316130  -11.972410    0.959150
  H      7.589640  -11.102160   -0.570130
  H      0.809500    9.082170   -0.111280
  H      1.053770   11.592020   -0.328250
  H      7.753330   10.817580   -0.424030
  H      7.455440    8.355630   -0.185310
  H      4.053660   15.234080   -1.631870
  H      5.793640   15.138950   -1.229250
  H      3.516990   15.545200    0.773700
  H      6.565550   15.783250    1.154040
  H      5.537140   14.492980    1.816710
  H      5.332140   16.160790    2.388550
  H      5.465350   17.612360   -0.406770
  H      4.255320   17.931550    0.860490
  H      3.728800   17.482970   -0.777380
  H     -2.380680   -0.947440    0.131870
  H      7.015230    3.723880   -0.020440
  H      1.297390    2.289810   -0.128430
  H      3.536990    0.177760   -0.192770
  H      7.143200    1.192090   -0.684500
  H      5.706260    0.176380   -0.645870
  H      7.094760    1.315950    1.833430
  H      4.909050   -0.835760    1.596410
  H      4.690710    0.804310    2.255660
  H      5.735480   -0.365930    3.095560
  H      7.283070   -1.488860    0.581070
  H      8.008980   -1.010930    2.133290
  H      8.575670   -0.267080    0.617270
  H     -2.313070    1.605290   -0.443050
  H     -0.794290    2.492730   -0.447430
  H     -2.153940    1.371870    2.056950
  H      0.201380    3.336660    1.802120
  H      0.313340    1.648500    2.363230
  H     -0.584980    2.851500    3.318470
  H     -2.117700    4.238760    0.938280
  H     -2.827280    3.755810    2.496500
  H     -3.525910    3.148440    0.974810

 Total Charge           Charge          ....    0
 Multiplicity           Mult            ....    1
 Number of Electrons    NEL             ....  480
 Basis Dimension        Dim             .... 1182

ORBITAL ENERGIES
----------------

  NO   OCC          E(Eh)            E(eV)
   0   2.0000     -91.974802     -2502.7616
   1   2.0000     -91.964975     -2502.4942
   2   2.0000     -20.568742      -559.7039
   3   2.0000     -20.560624      -559.4830
   4   2.0000     -20.544627      -559.0477
   5   2.0000     -20.543505      -559.0172
   6   2.0000     -20.542114      -558.9794
   7   2.0000     -20.541493      -558.9624
   8   2.0000     -15.619230      -425.0209
   9   2.0000     -15.618325      -424.9962
  10   2.0000     -11.386192      -309.8340
  11   2.0000     -11.386062      -309.8305
  12   2.0000     -11.385859      -309.8250
  13   2.0000     -11.383992      -309.7742
  14   2.0000     -11.366967      -309.3109
  15   2.0000     -11.358575      -309.0826
  16   2.0000     -11.311106      -307.7909
  17   2.0000     -11.302377      -307.5533
  18   2.0000     -11.300324      -307.4975
  19   2.0000     -11.298119      -307.4374
  20   2.0000     -11.296629      -307.3969
  21   2.0000     -11.295251      -307.3594
  22   2.0000     -11.294549      -307.3403
  23   2.0000     -11.294011      -307.3257
  24   2.0000     -11.289508      -307.2031
  25   2.0000     -11.287845      -307.1579
  26   2.0000     -11.286156      -307.1119
  27   2.0000     -11.284797      -307.0750
  28   2.0000     -11.284260      -307.0603
  29   2.0000     -11.284051      -307.0546
  30   2.0000     -11.282463      -307.0114
  31   2.0000     -11.280944      -306.9701
  32   2.0000     -11.280848      -306.9675
  33   2.0000     -11.279454      -306.9296
  34   2.0000     -11.279233      -306.9235
  35   2.0000     -11.278963      -306.9162
  36   2.0000     -11.278045      -306.8912
  37   2.0000     -11.277880      -306.8867
  38   2.0000     -11.277719      -306.8823
  39   2.0000     -11.277436      -306.8746
  40   2.0000     -11.276645      -306.8531
  41   2.0000     -11.275904      -306.8329
  42   2.0000     -11.273752      -306.7744
  43   2.0000     -11.273481      -306.7670
  44   2.0000     -11.272209      -306.7324
  45   2.0000     -11.271270      -306.7069
  46   2.0000     -11.270795      -306.6939
  47   2.0000     -11.269813      -306.6672
  48   2.0000     -11.269329      -306.6540
  49   2.0000     -11.266860      -306.5869
  50   2.0000     -11.261728      -306.4472
  51   2.0000     -11.261448      -306.4396
  52   2.0000     -11.254235      -306.2433
  53   2.0000     -11.253307      -306.2181
  54   2.0000     -11.248904      -306.0982
  55   2.0000     -11.246618      -306.0360
  56   2.0000     -11.235628      -305.7370
  57   2.0000     -11.234509      -305.7065
  58   2.0000     -11.232671      -305.6565
  59   2.0000     -11.229764      -305.5774
  60   2.0000     -11.225303      -305.4560
  61   2.0000     -11.224452      -305.4329
  62   2.0000     -11.219481      -305.2976
  63   2.0000     -11.219140      -305.2883
  64   2.0000     -11.215771      -305.1966
  65   2.0000     -11.214577      -305.1642
  66   2.0000      -9.009913      -245.1722
  67   2.0000      -8.999264      -244.8824
  68   2.0000      -6.697427      -182.2462
  69   2.0000      -6.696453      -182.2198
  70   2.0000      -6.694589      -182.1690
  71   2.0000      -6.686411      -181.9465
  72   2.0000      -6.685344      -181.9175
  73   2.0000      -6.683522      -181.8679
  74   2.0000      -1.404471       -38.2176
  75   2.0000      -1.403929       -38.2028
  76   2.0000      -1.395433       -37.9717
  77   2.0000      -1.388273       -37.7768
  78   2.0000      -1.384788       -37.6820
  79   2.0000      -1.383948       -37.6591
  80   2.0000      -1.249488       -34.0003
  81   2.0000      -1.249126       -33.9905
  82   2.0000      -1.226408       -33.3723
  83   2.0000      -1.222917       -33.2773
  84   2.0000      -1.205622       -32.8066
  85   2.0000      -1.197995       -32.5991
  86   2.0000      -1.150780       -31.3143
  87   2.0000      -1.146199       -31.1896
  88   2.0000      -1.137414       -30.9506
  89   2.0000      -1.135613       -30.9016
  90   2.0000      -1.114857       -30.3368
  91   2.0000      -1.105654       -30.0864
  92   2.0000      -1.100755       -29.9531
  93   2.0000      -1.082504       -29.4564
  94   2.0000      -1.073950       -29.2237
  95   2.0000      -1.066910       -29.0321
  96   2.0000      -1.061227       -28.8775
  97   2.0000      -1.041380       -28.3374
  98   2.0000      -1.039506       -28.2864
  99   2.0000      -1.033067       -28.1112
 100   2.0000      -1.027779       -27.9673
 101   2.0000      -1.021464       -27.7955
 102   2.0000      -1.015081       -27.6218
 103   2.0000      -1.010942       -27.5091
 104   2.0000      -0.982708       -26.7409
 105   2.0000      -0.961207       -26.1558
 106   2.0000      -0.953054       -25.9339
 107   2.0000      -0.934689       -25.4342
 108   2.0000      -0.931689       -25.3525
 109   2.0000      -0.928481       -25.2653
 110   2.0000      -0.927112       -25.2280
 111   2.0000      -0.926957       -25.2238
 112   2.0000      -0.925868       -25.1942
 113   2.0000      -0.922965       -25.1152
 114   2.0000      -0.914822       -24.8936
 115   2.0000      -0.914736       -24.8912
 116   2.0000      -0.900345       -24.4996
 117   2.0000      -0.876019       -23.8377
 118   2.0000      -0.865271       -23.5452
 119   2.0000      -0.864437       -23.5225
 120   2.0000      -0.861990       -23.4559
 121   2.0000      -0.855308       -23.2741
 122   2.0000      -0.837781       -22.7972
 123   2.0000      -0.819544       -22.3009
 124   2.0000      -0.803924       -21.8759
 125   2.0000      -0.792954       -21.5774
 126   2.0000      -0.783766       -21.3274
 127   2.0000      -0.783630       -21.3236
 128   2.0000      -0.777568       -21.1587
 129   2.0000      -0.774279       -21.0692
 130   2.0000      -0.767313       -20.8797
 131   2.0000      -0.763294       -20.7703
 132   2.0000      -0.761950       -20.7337
 133   2.0000      -0.758916       -20.6511
 134   2.0000      -0.741078       -20.1658
 135   2.0000      -0.736708       -20.0468
 136   2.0000      -0.730277       -19.8719
 137   2.0000      -0.724903       -19.7256
 138   2.0000      -0.718934       -19.5632
 139   2.0000      -0.714425       -19.4405
 140   2.0000      -0.706304       -19.2195
 141   2.0000      -0.701558       -19.0904
 142   2.0000      -0.697428       -18.9780
 143   2.0000      -0.685672       -18.6581
 144   2.0000      -0.673649       -18.3309
 145   2.0000      -0.672085       -18.2884
 146   2.0000      -0.666606       -18.1393
 147   2.0000      -0.661147       -17.9907
 148   2.0000      -0.657470       -17.8907
 149   2.0000      -0.656244       -17.8573
 150   2.0000      -0.653248       -17.7758
 151   2.0000      -0.651532       -17.7291
 152   2.0000      -0.645903       -17.5759
 153   2.0000      -0.644025       -17.5248
 154   2.0000      -0.640253       -17.4222
 155   2.0000      -0.638938       -17.3864
 156   2.0000      -0.636978       -17.3330
 157   2.0000      -0.635491       -17.2926
 158   2.0000      -0.631607       -17.1869
 159   2.0000      -0.629905       -17.1406
 160   2.0000      -0.626216       -17.0402
 161   2.0000      -0.624455       -16.9923
 162   2.0000      -0.618378       -16.8269
 163   2.0000      -0.615804       -16.7569
 164   2.0000      -0.614160       -16.7121
 165   2.0000      -0.612848       -16.6764
 166   2.0000      -0.610763       -16.6197
 167   2.0000      -0.610153       -16.6031
 168   2.0000      -0.606813       -16.5122
 169   2.0000      -0.603768       -16.4294
 170   2.0000      -0.602988       -16.4081
 171   2.0000      -0.600755       -16.3474
 172   2.0000      -0.592052       -16.1106
 173   2.0000      -0.588750       -16.0207
 174   2.0000      -0.582289       -15.8449
 175   2.0000      -0.580609       -15.7992
 176   2.0000      -0.579146       -15.7594
 177   2.0000      -0.578283       -15.7359
 178   2.0000      -0.576221       -15.6798
 179   2.0000      -0.566170       -15.4063
 180   2.0000      -0.565819       -15.3967
 181   2.0000      -0.561763       -15.2864
 182   2.0000      -0.561119       -15.2688
 183   2.0000      -0.559626       -15.2282
 184   2.0000      -0.554495       -15.0886
 185   2.0000      -0.553377       -15.0582
 186   2.0000      -0.551260       -15.0006
 187   2.0000      -0.548939       -14.9374
 188   2.0000      -0.548706       -14.9311
 189   2.0000      -0.547931       -14.9100
 190   2.0000      -0.543388       -14.7863
 191   2.0000      -0.541631       -14.7385
 192   2.0000      -0.539396       -14.6777
 193   2.0000      -0.537901       -14.6370
 194   2.0000      -0.531813       -14.4714
 195   2.0000      -0.531483       -14.4624
 196   2.0000      -0.528698       -14.3866
 197   2.0000      -0.528175       -14.3724
 198   2.0000      -0.524692       -14.2776
 199   2.0000      -0.523175       -14.2363
 200   2.0000      -0.522486       -14.2176
 201   2.0000      -0.517472       -14.0811
 202   2.0000      -0.514488       -13.9999
 203   2.0000      -0.497637       -13.5414
 204   2.0000      -0.495289       -13.4775
 205   2.0000      -0.494759       -13.4631
 206   2.0000      -0.491824       -13.3832
 207   2.0000      -0.487296       -13.2600
 208   2.0000      -0.485859       -13.2209
 209   2.0000      -0.484096       -13.1729
 210   2.0000      -0.481863       -13.1121
 211   2.0000      -0.479327       -13.0431
 212   2.0000      -0.478053       -13.0085
 213   2.0000      -0.477822       -13.0022
 214   2.0000      -0.476772       -12.9736
 215   2.0000      -0.475156       -12.9296
 216   2.0000      -0.472953       -12.8697
 217   2.0000      -0.468178       -12.7398
 218   2.0000      -0.466939       -12.7061
 219   2.0000      -0.465943       -12.6789
 220   2.0000      -0.451368       -12.2823
 221   2.0000      -0.449789       -12.2394
 222   2.0000      -0.448968       -12.2171
 223   2.0000      -0.447462       -12.1761
 224   2.0000      -0.446774       -12.1573
 225   2.0000      -0.436822       -11.8865
 226   2.0000      -0.434660       -11.8277
 227   2.0000      -0.431752       -11.7486
 228   2.0000      -0.414550       -11.2805
 229   2.0000      -0.402952       -10.9649
 230   2.0000      -0.400350       -10.8941
 231   2.0000      -0.386223       -10.5097
 232   2.0000      -0.368690       -10.0326
 233   2.0000      -0.361464        -9.8359
 234   2.0000      -0.357900        -9.7390
 235   2.0000      -0.355141        -9.6639
 236   2.0000      -0.346563        -9.4305
 237   2.0000      -0.324963        -8.8427
 238   2.0000      -0.304183        -8.2773
 239   2.0000      -0.265563        -7.2263
 240   0.0000      -0.017612        -0.4792
 241   0.0000       0.003233         0.0880
 242   0.0000       0.006327         0.1722
 243   0.0000       0.021260         0.5785
 244   0.0000       0.070649         1.9225

MULLIKEN ATOMIC CHARGES
-----------------------
   0 C :   -0.105480
   1 C :   -0.146564
   2 C :    0.043115
   3 C :   -0.236385
   4 C :    0.067808
   5 C :   -0.255269
   6 C :    0.133641
   7 C :   -0.116734
   8 C :   -0.097833
   9 C :    0.454834
  10 C :    0.133816
  11 C :   -0.100733
  12 C :   -0.128664
  13 C :    0.515892
  14 C :   -0.079637
  15 C :    0.067723
  16 C :   -0.265751
  17 C :    0.108368
  18 C :   -0.250598
  19 C :    0.046477
  20 C :    0.002316
  21 C :    0.642554
  22 N :   -0.736336
  23 C :    0.637934
  24 C :    0.256438
  25 C :   -0.268698
  26 C :    0.005258
  27 C :   -0.011069
  28 C :    0.001167
  29 C :    0.047274
  30 C :   -0.249549
  31 C :    0.119457
  32 C :   -0.280079
  33 C :    0.074631
  34 C :   -0.078765
  35 C :    0.644872
  36 N :   -0.739418
  37 C :    0.640442
  38 C :    0.254979
  39 C :   -0.267180
  40 C :    0.006426
  41 C :   -0.012875
  42 O :   -0.408597
  43 O :   -0.404362
  44 O :   -0.353648
  45 O :   -0.364264
  46 O :   -0.405520
  47 O :   -0.406035
  48 C :    0.022119
  49 C :   -0.124565
  50 C :   -0.090064
  51 S :    0.101581
  52 C :    0.018912
  53 C :   -0.130937
  54 C :   -0.108909
  55 S :    0.183036
  56 C :   -0.034961
  57 C :   -0.027254
  58 C :    0.101453
  59 C :   -0.248989
  60 C :   -0.007713
  61 C :    0.013845
  62 C :    0.093261
  63 C :   -0.249002
  64 C :   -0.015222
  65 C :    0.012768
  66 H :    0.083270
  67 H :    0.052822
  68 H :    0.063009
  69 H :    0.072362
  70 H :    0.080083
  71 H :    0.066874
  72 H :    0.055754
  73 H :    0.066272
  74 H :    0.056370
  75 H :    0.043945
  76 H :    0.025901
  77 H :    0.031161
  78 H :    0.027099
  79 H :    0.035643
  80 H :    0.035849
  81 H :    0.065257
  82 H :    0.080044
  83 H :    0.076445
  84 H :    0.042980
  85 H :    0.051553
  86 H :    0.070424
  87 H :    0.061930
  88 H :    0.036191
  89 H :    0.027688
  90 H :    0.031617
  91 H :    0.025661
  92 H :    0.035465
  93 H :    0.037779
  94 H :    0.055854
  95 H :    0.044789
  96 H :    0.077734
  97 H :    0.055706
  98 H :    0.037076
  99 H :    0.036856
 100 H :    0.035846
 101 H :    0.020033
 102 H :    0.057287
 103 H :    0.040186
 104 H :    0.027130
 105 H :    0.040890
 106 H :    0.032509
 107 H :    0.039672
 108 H :    0.044994
 109 H :    0.036413
 110 H :    0.037916
 111 H :    0.052898
 112 H :    0.038939
 113 H :    0.031862
 114 H :    0.039612
 115 H :    0.031608
Sum of atomic charges:   -0.0000000

LOEWDIN ATOMIC CHARGES
----------------------
   0 C :   -0.188178
   1 C :   -0.196113
   2 C :    0.058228
   3 C :   -0.116656
   4 C :    0.068636
   5 C :   -0.124068
   6 C :    0.023330
   7 C :   -0.015566
   8 C :   -0.041570
   9 C :    0.174957
  10 C :    0.033634
  11 C :   -0.022807
  12 C :   -0.039170
  13 C :    0.173014
  14 C :   -0.041954
  15 C :    0.064200
  16 C :   -0.099506
  17 C :    0.004448
  18 C :   -0.073574
  19 C :    0.050949
  20 C :    0.012695
  21 C :    0.206988
  22 N :   -0.122734
  23 C :    0.205176
  24 C :    0.087891
  25 C :   -0.041330
  26 C :   -0.033650
  27 C :   -0.029334
  28 C :    0.011601
  29 C :    0.051652
  30 C :   -0.072548
  31 C :    0.007411
  32 C :   -0.105584
  33 C :    0.070431
  34 C :   -0.045442
  35 C :    0.207387
  36 N :   -0.124947
  37 C :    0.205347
  38 C :    0.088731
  39 C :   -0.042883
  40 C :   -0.032129
  41 C :   -0.028920
  42 O :   -0.273146
  43 O :   -0.266791
  44 O :   -0.228092
  45 O :   -0.235117
  46 O :   -0.271329
  47 O :   -0.267577
  48 C :   -0.006940
  49 C :   -0.055210
  50 C :   -0.152246
  51 S :    0.414753
  52 C :   -0.010503
  53 C :   -0.069299
  54 C :   -0.151476
  55 S :    0.456643
  56 C :   -0.028330
  57 C :   -0.033645
  58 C :   -0.006189
  59 C :   -0.031847
  60 C :   -0.032791
  61 C :   -0.029711
  62 C :   -0.006206
  63 C :   -0.030904
  64 C :   -0.034075
  65 C :   -0.029579
  66 H :    0.055302
  67 H :    0.044290
  68 H :    0.015260
  69 H :    0.046970
  70 H :    0.048829
  71 H :    0.044578
  72 H :    0.023203
  73 H :    0.025188
  74 H :    0.018986
  75 H :    0.020961
  76 H :    0.010912
  77 H :    0.015636
  78 H :    0.015290
  79 H :    0.017950
  80 H :    0.017716
  81 H :    0.043690
  82 H :    0.048812
  83 H :    0.048370
  84 H :    0.030084
  85 H :    0.021221
  86 H :    0.026529
  87 H :    0.019592
  88 H :    0.018884
  89 H :    0.012118
  90 H :    0.015786
  91 H :    0.014467
  92 H :    0.018101
  93 H :    0.018250
  94 H :    0.036738
  95 H :    0.031013
  96 H :    0.029313
  97 H :    0.026018
  98 H :    0.024113
  99 H :    0.020263
 100 H :    0.013165
 101 H :    0.010516
 102 H :    0.020934
 103 H :    0.020252
 104 H :    0.016012
 105 H :    0.019560
 106 H :    0.016291
 107 H :    0.025473
 108 H :    0.023456
 109 H :    0.012982
 110 H :    0.016841
 111 H :    0.018829
 112 H :    0.019972
 113 H :    0.017980
 114 H :    0.019194
 115 H :    0.015675

  Mayer bond orders larger than 0.100000
B(  0-C ,  2-C ) :   1.1561 B(  0-C , 48-C ) :   1.5429 B(  0-C , 51-S ) :   1.0634
B(  1-C ,  4-C ) :   1.1853 B(  1-C , 52-C ) :   1.5077 B(  1-C , 55-S ) :   1.0936
B(  2-C ,  3-C ) :   1.8093 B(  2-C , 66-H ) :   0.9533 B(  3-C ,  6-C ) :   0.9732
B(  3-C ,  9-C ) :   1.0074 B(  4-C ,  5-C ) :   1.7644 B(  4-C , 67-H ) :   0.9760
B(  5-C , 10-C ) :   1.0224 B(  5-C , 13-C ) :   0.9555 B(  6-C ,  7-C ) :   1.2166
B(  6-C , 14-C ) :   1.5246 B(  7-C ,  8-C ) :   1.2700 B(  7-C , 17-C ) :   1.3732
B(  8-C ,  9-C ) :   0.9386 B(  8-C , 20-C ) :   1.5285 B(  9-C , 44-O ) :   2.0744
B( 10-C , 11-C ) :   1.2211 B( 10-C , 34-C ) :   1.5218 B( 11-C , 12-C ) :   1.2785
B( 11-C , 31-C ) :   1.3679 B( 12-C , 13-C ) :   0.9565 B( 12-C , 28-C ) :   1.5290
B( 13-C , 45-O ) :   2.0588 B( 14-C , 15-C ) :   1.2843 B( 14-C , 68-H ) :   0.9957
B( 15-C , 16-C ) :   1.5645 B( 15-C , 69-H ) :   0.9889 B( 16-C , 17-C ) :   1.2098
B( 16-C , 21-C ) :   0.9737 B( 17-C , 18-C ) :   1.2460 B( 18-C , 19-C ) :   1.5481
B( 18-C , 23-C ) :   0.9629 B( 19-C , 20-C ) :   1.2867 B( 19-C , 70-H ) :   0.9907
B( 20-C , 71-H ) :   1.0038 B( 21-C , 22-N ) :   0.9861 B( 21-C , 42-O ) :   2.0084
B( 22-N , 23-C ) :   0.9941 B( 22-N , 24-C ) :   0.8307 B( 23-C , 43-O ) :   2.0035
B( 24-C , 25-C ) :   1.0079 B( 24-C , 72-H ) :   0.9723 B( 24-C , 73-H ) :   0.9635
B( 25-C , 26-C ) :   1.0113 B( 25-C , 27-C ) :   1.0324 B( 25-C , 74-H ) :   0.9636
B( 26-C , 75-H ) :   0.9792 B( 26-C , 76-H ) :   0.9818 B( 26-C , 77-H ) :   0.9864
B( 27-C , 78-H ) :   0.9803 B( 27-C , 79-H ) :   0.9869 B( 27-C , 80-H ) :   0.9859
B( 28-C , 29-C ) :   1.2861 B( 28-C , 81-H ) :   1.0033 B( 29-C , 30-C ) :   1.5496
B( 29-C , 82-H ) :   0.9903 B( 30-C , 31-C ) :   1.2437 B( 30-C , 37-C ) :   0.9640
B( 31-C , 32-C ) :   1.2119 B( 32-C , 33-C ) :   1.5568 B( 32-C , 35-C ) :   0.9751
B( 33-C , 34-C ) :   1.2889 B( 33-C , 83-H ) :   0.9882 B( 34-C , 84-H ) :   1.0011
B( 35-C , 36-N ) :   0.9767 B( 35-C , 46-O ) :   2.0102 B( 36-N , 37-C ) :   1.0015
B( 36-N , 38-C ) :   0.8288 B( 37-C , 47-O ) :   2.0036 B( 38-C , 39-C ) :   1.0064
B( 38-C , 85-H ) :   0.9761 B( 38-C , 86-H ) :   0.9627 B( 39-C , 40-C ) :   1.0056
B( 39-C , 41-C ) :   1.0329 B( 39-C , 87-H ) :   0.9649 B( 40-C , 88-H ) :   0.9805
B( 40-C , 89-H ) :   0.9844 B( 40-C , 90-H ) :   0.9868 B( 41-C , 91-H ) :   0.9805
B( 41-C , 92-H ) :   0.9870 B( 41-C , 93-H ) :   0.9859 B( 48-C , 49-C ) :   1.2976
B( 48-C , 94-H ) :   0.9998 B( 49-C , 50-C ) :   1.5672 B( 49-C , 62-C ) :   1.0034
B( 50-C , 51-S ) :   1.1169 B( 50-C , 56-C ) :   1.1484 B( 52-C , 53-C ) :   1.3226
B( 52-C , 95-H ) :   0.9989 B( 53-C , 54-C ) :   1.5462 B( 53-C , 58-C ) :   1.0041
B( 54-C , 55-S ) :   1.1134 B( 54-C , 57-C ) :   1.1448 B( 56-C , 57-C ) :   1.7761
B( 56-C , 96-H ) :   0.9718 B( 57-C , 97-H ) :   0.9780 B( 58-C , 59-C ) :   0.9981
B( 58-C , 98-H ) :   0.9681 B( 58-C , 99-H ) :   0.9629 B( 59-C , 60-C ) :   1.0060
B( 59-C , 61-C ) :   1.0247 B( 59-C ,100-H ) :   0.9651 B( 60-C ,101-H ) :   0.9799
B( 60-C ,102-H ) :   0.9857 B( 60-C ,103-H ) :   0.9853 B( 61-C ,104-H ) :   0.9800
B( 61-C ,105-H ) :   0.9875 B( 61-C ,106-H ) :   0.9854 B( 62-C , 63-C ) :   0.9973
B( 62-C ,107-H ) :   0.9669 B( 62-C ,108-H ) :   0.9629 B( 63-C , 64-C ) :   1.0055
B( 63-C , 65-C ) :   1.0253 B( 63-C ,109-H ) :   0.9655 B( 64-C ,110-H ) :   0.9799
B( 64-C ,111-H ) :   0.9856 B( 64-C ,112-H ) :   0.9850 B( 65-C ,113-H ) :   0.9801
B( 65-C ,114-H ) :   0.9874 B( 65-C ,115-H ) :   0.9853

-----------------------------------------------------------------------------
         ABSORPTION SPECTRUM VIA TRANSITION ELECTRIC DIPOLE MOMENTS
-----------------------------------------------------------------------------
State   Energy    Wavelength  fosc         T2        TX        TY        TZ
        (cm-1)      (nm)                 (au**2)    (au)      (au)      (au)
-----------------------------------------------------------------------------
   1   22915.2    436.4   2.210095532  31.75136   1.54865   5.41783   0.01134
   2   31072.8    321.8   0.063955042   0.67759  -0.71986  -0.30043   0.26293
   3   33995.8    294.2   0.390012470   3.77684  -1.00153   1.66513  -0.03328

FINAL SINGLE POINT ENERGY     -3500.587624747605

DIPOLE MOMENT
-------------
                                X             Y             Z
Electronic contribution:    -25.22024      -8.66532     -25.66164
Nuclear contribution   :     25.59472       8.98178      26.28551
                        -----------------------------------------
Total Dipole Moment    :      0.37447       0.31646       0.62387
                        -----------------------------------------
Magnitude (a.u.)       :      0.79347
Magnitude (Debye)      :      2.01683

Rotational constants in cm-1:     0.002627     0.000269     0.000247
Rotational constants in MHz :    78.769009     8.062842     7.415491

                             ****ORCA TERMINATED NORMALLY****
TOTAL RUN TIME: 0 days 11 hours 20 minutes 48 seconds 566 msec
