                         Program Version 4.2.0 -  RELEASE  -
|  1> # ORCA input file
|  2> # O-IDTBR.out
|  3> ! Engrad Keepdens
|  4> %maxcore 1000
|  5> %tddft
|  6>   nroots 3
|  7>   # nroots is the number of states to be computed
|  8>   Iroot 1
|  9>   end
| 10> * xyz 0 1
| 11>    S        0.59402        -2.16021        -0.28280
| 12>    C        2.17822        -1.54834        -0.75208
| 13>    S        3.39585        -2.50266        -1.27372
| 14>    N        2.23583        -0.19839        -0.63438
| 15>    C        3.43254         0.56200        -0.93727
| 16>    C        4.39340         0.57033         0.24490
| 17>    C        1.09751         0.43038        -0.17297
| 18>    O        1.00766         1.62922        -0.01988
| 19>    C        0.03402        -0.55273         0.09014
| 20>    C       -1.15571        -0.11252         0.56801
| 21>    C       -2.35308        -0.79387         0.92646
| 22>    C       -2.57173        -2.19059         0.79800
| 23>    N       -1.72259        -3.09068         0.31674
| 24>    S       -2.40126        -4.54740         0.35639
| 25>    N       -3.81336        -4.11133         0.98754
| 26>    C       -3.81752        -2.79611         1.19689
| 27>    C       -4.87205        -2.00954         1.73835
| 28>    C       -4.61831        -0.64390         1.83988
| 29>    C       -3.42103        -0.06505         1.45138
| 30>    C       -6.11004        -2.58343         2.15512
| 31>    C       -6.50295        -3.91057         2.10750
| 32>    C       -7.78716        -4.09968         2.60509
| 33>    C       -8.37889        -2.92579         3.04397
| 34>    S       -7.36518        -1.56068         2.83978
| 35>    C       -9.69751        -3.17111         3.53076
| 36>    C       -9.93515        -4.56071         3.39735
| 37>    C       -8.71039        -5.26732         2.84269
| 38>    C       -9.02161        -6.03257         1.54801
| 39>    C       -9.54266        -5.12017         0.44344
| 40>    C       -8.03087        -6.17483         3.89496
| 41>    C       -8.85873        -7.34997         4.39717
| 42>    C      -11.15900        -5.08382         3.74552
| 43>    C      -12.11689        -4.20598         4.24966
| 44>    C      -11.87885        -2.81565         4.37574
| 45>    C      -10.65631        -2.29134         4.02731
| 46>    C      -13.09881        -2.10500         4.93195
| 47>    C      -12.77738        -1.30202         6.20037
| 48>    C      -12.22087        -2.17748         7.31733
| 49>    C      -13.79607        -1.23192         3.86163
| 50>    C      -12.97331        -0.07774         3.30549
| 51>    C      -14.00680        -3.27553         5.20769
| 52>    C      -13.42625        -4.45576         4.76333
| 53>    S      -14.42828        -5.82392         5.01817
| 54>    C      -15.65290        -4.80006         5.73668
| 55>    C      -15.26771        -3.46555         5.75273
| 56>    C      -16.86417        -5.36660         6.23073
| 57>    C      -17.10809        -6.76315         6.13588
| 58>    N      -16.30148        -7.67341         5.59789
| 59>    S      -16.99315        -9.12092         5.71797
| 60>    N      -18.34620        -8.66306         6.45786
| 61>    C      -18.31688        -7.34570         6.64463
| 62>    C      -19.32020        -6.54484         7.26487
| 63>    C      -19.04478        -5.17994         7.32973
| 64>    C      -17.87380        -4.62052         6.83648
| 65>    C      -20.47501        -7.22313         7.75055
| 66>    C      -21.60748        -6.80824         8.38171
| 67>    S      -22.79645        -8.03431         8.82476
| 68>    C      -23.87240        -6.84435         9.52745
| 69>    S      -25.31467        -7.18965        10.21023
| 70>    N      -23.33170        -5.60660         9.40698
| 71>    C      -23.99906        -4.42693         9.92386
| 72>    C      -23.71704        -4.23976        11.40906
| 73>    C      -22.09147        -5.49331         8.79780
| 74>    O      -21.55192        -4.41419         8.65787
| 75>    H        3.10435         1.57747        -1.17027
| 76>    H        3.90754         0.10953        -1.81081
| 77>    H        3.91605         1.01418         1.11513
| 78>    H        5.27465         1.15233        -0.00668
| 79>    H        4.70201        -0.44379         0.48620
| 80>    H       -1.18542         0.96474         0.70635
| 81>    H       -5.39367        -0.00819         2.24218
| 82>    H       -3.30420         1.00269         1.56425
| 83>    H       -5.85903        -4.67579         1.71605
| 84>    H       -9.76979        -6.79743         1.75855
| 85>    H       -8.11061        -6.53029         1.20939
| 86>    H      -10.44462        -4.60428         0.76631
| 87>    H       -9.77850        -5.70372        -0.44331
| 88>    H       -8.79787        -4.37449         0.17446
| 89>    H       -7.75577        -5.55014         4.74897
| 90>    H       -7.10657        -6.55142         3.45074
| 91>    H       -9.73687        -7.00599         4.93626
| 92>    H       -8.25637        -7.94491         5.08040
| 93>    H       -9.17302        -7.99334         3.57987
| 94>    H      -11.39522        -6.13071         3.63758
| 95>    H      -10.42127        -1.24391         4.13486
| 96>    H      -13.68969        -0.80937         6.54331
| 97>    H      -12.04688        -0.52974         5.95746
| 98>    H      -12.94371        -2.93497         7.61159
| 99>    H      -11.98703        -1.56954         8.18814
|100>    H      -11.31182        -2.67927         6.99281
|101>    H      -14.71194        -0.83678         4.30724
|102>    H      -14.08652        -1.88511         3.03460
|103>    H      -12.64987         0.59654         4.09385
|104>    H      -13.58193         0.49093         2.60569
|105>    H      -12.10100        -0.44414         2.77166
|106>    H      -15.88294        -2.68120         6.15387
|107>    H      -19.77133        -4.52808         7.78524
|108>    H      -17.74585        -3.55424         6.93463
|109>    H      -20.42247        -8.29312         7.57616
|110>    H      -25.07125        -4.54364         9.75074
|111>    H      -23.61566        -3.57806         9.35284
|112>    H      -24.08527        -5.09311        11.97352
|113>    H      -24.21924        -3.34456        11.76357
|114>    H      -22.64818        -4.13344        11.57968
|115> *
|116>
|117>                          ****END OF INPUT****

CARTESIAN COORDINATES (ANGSTROEM)
---------------------------------
  S      0.594020   -2.160210   -0.282800
  C      2.178220   -1.548340   -0.752080
  S      3.395850   -2.502660   -1.273720
  N      2.235830   -0.198390   -0.634380
  C      3.432540    0.562000   -0.937270
  C      4.393400    0.570330    0.244900
  C      1.097510    0.430380   -0.172970
  O      1.007660    1.629220   -0.019880
  C      0.034020   -0.552730    0.090140
  C     -1.155710   -0.112520    0.568010
  C     -2.353080   -0.793870    0.926460
  C     -2.571730   -2.190590    0.798000
  N     -1.722590   -3.090680    0.316740
  S     -2.401260   -4.547400    0.356390
  N     -3.813360   -4.111330    0.987540
  C     -3.817520   -2.796110    1.196890
  C     -4.872050   -2.009540    1.738350
  C     -4.618310   -0.643900    1.839880
  C     -3.421030   -0.065050    1.451380
  C     -6.110040   -2.583430    2.155120
  C     -6.502950   -3.910570    2.107500
  C     -7.787160   -4.099680    2.605090
  C     -8.378890   -2.925790    3.043970
  S     -7.365180   -1.560680    2.839780
  C     -9.697510   -3.171110    3.530760
  C     -9.935150   -4.560710    3.397350
  C     -8.710390   -5.267320    2.842690
  C     -9.021610   -6.032570    1.548010
  C     -9.542660   -5.120170    0.443440
  C     -8.030870   -6.174830    3.894960
  C     -8.858730   -7.349970    4.397170
  C    -11.159000   -5.083820    3.745520
  C    -12.116890   -4.205980    4.249660
  C    -11.878850   -2.815650    4.375740
  C    -10.656310   -2.291340    4.027310
  C    -13.098810   -2.105000    4.931950
  C    -12.777380   -1.302020    6.200370
  C    -12.220870   -2.177480    7.317330
  C    -13.796070   -1.231920    3.861630
  C    -12.973310   -0.077740    3.305490
  C    -14.006800   -3.275530    5.207690
  C    -13.426250   -4.455760    4.763330
  S    -14.428280   -5.823920    5.018170
  C    -15.652900   -4.800060    5.736680
  C    -15.267710   -3.465550    5.752730
  C    -16.864170   -5.366600    6.230730
  C    -17.108090   -6.763150    6.135880
  N    -16.301480   -7.673410    5.597890
  S    -16.993150   -9.120920    5.717970
  N    -18.346200   -8.663060    6.457860
  C    -18.316880   -7.345700    6.644630
  C    -19.320200   -6.544840    7.264870
  C    -19.044780   -5.179940    7.329730
  C    -17.873800   -4.620520    6.836480
  C    -20.475010   -7.223130    7.750550
  C    -21.607480   -6.808240    8.381710
  S    -22.796450   -8.034310    8.824760
  C    -23.872400   -6.844350    9.527450
  S    -25.314670   -7.189650   10.210230
  N    -23.331700   -5.606600    9.406980
  C    -23.999060   -4.426930    9.923860
  C    -23.717040   -4.239760   11.409060
  C    -22.091470   -5.493310    8.797800
  O    -21.551920   -4.414190    8.657870
  H      3.104350    1.577470   -1.170270
  H      3.907540    0.109530   -1.810810
  H      3.916050    1.014180    1.115130
  H      5.274650    1.152330   -0.006680
  H      4.702010   -0.443790    0.486200
  H     -1.185420    0.964740    0.706350
  H     -5.393670   -0.008190    2.242180
  H     -3.304200    1.002690    1.564250
  H     -5.859030   -4.675790    1.716050
  H     -9.769790   -6.797430    1.758550
  H     -8.110610   -6.530290    1.209390
  H    -10.444620   -4.604280    0.766310
  H     -9.778500   -5.703720   -0.443310
  H     -8.797870   -4.374490    0.174460
  H     -7.755770   -5.550140    4.748970
  H     -7.106570   -6.551420    3.450740
  H     -9.736870   -7.005990    4.936260
  H     -8.256370   -7.944910    5.080400
  H     -9.173020   -7.993340    3.579870
  H    -11.395220   -6.130710    3.637580
  H    -10.421270   -1.243910    4.134860
  H    -13.689690   -0.809370    6.543310
  H    -12.046880   -0.529740    5.957460
  H    -12.943710   -2.934970    7.611590
  H    -11.987030   -1.569540    8.188140
  H    -11.311820   -2.679270    6.992810
  H    -14.711940   -0.836780    4.307240
  H    -14.086520   -1.885110    3.034600
  H    -12.649870    0.596540    4.093850
  H    -13.581930    0.490930    2.605690
  H    -12.101000   -0.444140    2.771660
  H    -15.882940   -2.681200    6.153870
  H    -19.771330   -4.528080    7.785240
  H    -17.745850   -3.554240    6.934630
  H    -20.422470   -8.293120    7.576160
  H    -25.071250   -4.543640    9.750740
  H    -23.615660   -3.578060    9.352840
  H    -24.085270   -5.093110   11.973520
  H    -24.219240   -3.344560   11.763570
  H    -22.648180   -4.133440   11.579680

 Total Charge           Charge          ....    0
 Multiplicity           Mult            ....    1
 Number of Electrons    NEL             ....  514
 Basis Dimension        Dim             .... 1128

ORBITAL ENERGIES
----------------

  NO   OCC          E(Eh)            E(eV)
   0   2.0000     -92.048530     -2504.7679
   1   2.0000     -92.043508     -2504.6312
   2   2.0000     -91.968508     -2502.5903
   3   2.0000     -91.964723     -2502.4873
   4   2.0000     -91.964090     -2502.4701
   5   2.0000     -91.956345     -2502.2594
   6   2.0000     -91.880176     -2500.1867
   7   2.0000     -91.872556     -2499.9793
   8   2.0000     -20.558218      -559.4175
   9   2.0000     -20.544548      -559.0456
  10   2.0000     -15.640151      -425.5901
  11   2.0000     -15.630441      -425.3259
  12   2.0000     -15.628362      -425.2693
  13   2.0000     -15.625035      -425.1788
  14   2.0000     -15.622819      -425.1185
  15   2.0000     -15.617773      -424.9812
  16   2.0000     -11.397599      -310.1444
  17   2.0000     -11.382847      -309.7430
  18   2.0000     -11.379460      -309.6509
  19   2.0000     -11.364023      -309.2308
  20   2.0000     -11.320058      -308.0344
  21   2.0000     -11.318404      -307.9894
  22   2.0000     -11.313848      -307.8655
  23   2.0000     -11.311988      -307.8148
  24   2.0000     -11.300066      -307.4904
  25   2.0000     -11.299193      -307.4667
  26   2.0000     -11.298010      -307.4345
  27   2.0000     -11.294928      -307.3506
  28   2.0000     -11.289230      -307.1956
  29   2.0000     -11.287976      -307.1614
  30   2.0000     -11.287658      -307.1528
  31   2.0000     -11.287130      -307.1384
  32   2.0000     -11.286778      -307.1288
  33   2.0000     -11.280453      -306.9567
  34   2.0000     -11.279447      -306.9294
  35   2.0000     -11.277318      -306.8714
  36   2.0000     -11.274125      -306.7845
  37   2.0000     -11.272995      -306.7538
  38   2.0000     -11.272763      -306.7475
  39   2.0000     -11.272147      -306.7307
  40   2.0000     -11.271202      -306.7050
  41   2.0000     -11.267153      -306.5948
  42   2.0000     -11.265666      -306.5544
  43   2.0000     -11.263193      -306.4871
  44   2.0000     -11.262472      -306.4674
  45   2.0000     -11.260589      -306.4162
  46   2.0000     -11.260497      -306.4137
  47   2.0000     -11.260174      -306.4049
  48   2.0000     -11.257138      -306.3223
  49   2.0000     -11.256846      -306.3143
  50   2.0000     -11.255596      -306.2803
  51   2.0000     -11.255546      -306.2790
  52   2.0000     -11.246671      -306.0375
  53   2.0000     -11.245610      -306.0086
  54   2.0000     -11.242030      -305.9112
  55   2.0000     -11.241640      -305.9006
  56   2.0000     -11.240856      -305.8792
  57   2.0000     -11.240266      -305.8632
  58   2.0000     -11.229162      -305.5610
  59   2.0000     -11.227945      -305.5279
  60   2.0000     -11.226442      -305.4870
  61   2.0000     -11.223742      -305.4136
  62   2.0000     -11.222659      -305.3841
  63   2.0000     -11.220598      -305.3280
  64   2.0000      -9.079527      -247.0665
  65   2.0000      -9.074603      -246.9325
  66   2.0000      -9.003928      -245.0093
  67   2.0000      -9.002125      -244.9603
  68   2.0000      -8.998567      -244.8635
  69   2.0000      -8.992290      -244.6927
  70   2.0000      -8.917753      -242.6644
  71   2.0000      -8.910133      -242.4570
  72   2.0000      -6.766763      -184.1330
  73   2.0000      -6.764897      -184.0822
  74   2.0000      -6.763544      -184.0454
  75   2.0000      -6.761834      -183.9989
  76   2.0000      -6.760002      -183.9490
  77   2.0000      -6.758631      -183.9117
  78   2.0000      -6.691545      -182.0862
  79   2.0000      -6.690587      -182.0601
  80   2.0000      -6.689501      -182.0306
  81   2.0000      -6.688678      -182.0082
  82   2.0000      -6.688286      -181.9975
  83   2.0000      -6.685915      -181.9330
  84   2.0000      -6.685882      -181.9321
  85   2.0000      -6.684779      -181.9021
  86   2.0000      -6.682977      -181.8531
  87   2.0000      -6.679271      -181.7522
  88   2.0000      -6.678008      -181.7178
  89   2.0000      -6.675525      -181.6503
  90   2.0000      -6.606100      -179.7611
  91   2.0000      -6.603293      -179.6847
  92   2.0000      -6.601894      -179.6467
  93   2.0000      -6.598493      -179.5541
  94   2.0000      -6.595743      -179.4793
  95   2.0000      -6.594315      -179.4404
  96   2.0000      -1.418977       -38.6123
  97   2.0000      -1.405950       -38.2579
  98   2.0000      -1.372898       -37.3585
  99   2.0000      -1.368233       -37.2315
 100   2.0000      -1.318133       -35.8682
 101   2.0000      -1.308515       -35.6065
 102   2.0000      -1.231347       -33.5067
 103   2.0000      -1.220813       -33.2200
 104   2.0000      -1.211726       -32.9727
 105   2.0000      -1.206877       -32.8408
 106   2.0000      -1.192270       -32.4433
 107   2.0000      -1.185664       -32.2636
 108   2.0000      -1.161102       -31.5952
 109   2.0000      -1.145026       -31.1577
 110   2.0000      -1.137336       -30.9485
 111   2.0000      -1.131352       -30.7857
 112   2.0000      -1.105583       -30.0844
 113   2.0000      -1.091326       -29.6965
 114   2.0000      -1.086660       -29.5695
 115   2.0000      -1.072450       -29.1829
 116   2.0000      -1.055662       -28.7260
 117   2.0000      -1.053258       -28.6606
 118   2.0000      -1.047126       -28.4937
 119   2.0000      -1.046873       -28.4869
 120   2.0000      -1.029835       -28.0232
 121   2.0000      -1.025654       -27.9095
 122   2.0000      -1.024871       -27.8882
 123   2.0000      -1.023707       -27.8565
 124   2.0000      -1.021771       -27.8038
 125   2.0000      -1.011135       -27.5144
 126   2.0000      -1.005634       -27.3647
 127   2.0000      -1.004061       -27.3219
 128   2.0000      -0.983286       -26.7566
 129   2.0000      -0.971529       -26.4367
 130   2.0000      -0.939730       -25.5713
 131   2.0000      -0.935756       -25.4632
 132   2.0000      -0.921813       -25.0838
 133   2.0000      -0.915814       -24.9206
 134   2.0000      -0.903724       -24.5916
 135   2.0000      -0.895230       -24.3604
 136   2.0000      -0.889203       -24.1964
 137   2.0000      -0.875575       -23.8256
 138   2.0000      -0.868364       -23.6294
 139   2.0000      -0.862963       -23.4824
 140   2.0000      -0.859519       -23.3887
 141   2.0000      -0.858781       -23.3686
 142   2.0000      -0.849860       -23.1259
 143   2.0000      -0.847732       -23.0680
 144   2.0000      -0.844284       -22.9741
 145   2.0000      -0.841650       -22.9024
 146   2.0000      -0.830931       -22.6108
 147   2.0000      -0.810384       -22.0517
 148   2.0000      -0.798230       -21.7209
 149   2.0000      -0.793741       -21.5988
 150   2.0000      -0.778452       -21.1827
 151   2.0000      -0.771820       -21.0023
 152   2.0000      -0.759892       -20.6777
 153   2.0000      -0.752926       -20.4882
 154   2.0000      -0.746254       -20.3066
 155   2.0000      -0.734367       -19.9831
 156   2.0000      -0.726585       -19.7714
 157   2.0000      -0.720880       -19.6161
 158   2.0000      -0.711723       -19.3670
 159   2.0000      -0.709421       -19.3043
 160   2.0000      -0.702990       -19.1293
 161   2.0000      -0.693912       -18.8823
 162   2.0000      -0.688199       -18.7268
 163   2.0000      -0.687780       -18.7155
 164   2.0000      -0.685706       -18.6590
 165   2.0000      -0.676960       -18.4210
 166   2.0000      -0.668532       -18.1917
 167   2.0000      -0.665429       -18.1072
 168   2.0000      -0.659824       -17.9547
 169   2.0000      -0.656862       -17.8741
 170   2.0000      -0.650135       -17.6911
 171   2.0000      -0.647779       -17.6270
 172   2.0000      -0.646531       -17.5930
 173   2.0000      -0.644231       -17.5304
 174   2.0000      -0.643006       -17.4971
 175   2.0000      -0.642550       -17.4847
 176   2.0000      -0.640821       -17.4376
 177   2.0000      -0.633002       -17.2248
 178   2.0000      -0.631918       -17.1954
 179   2.0000      -0.626844       -17.0573
 180   2.0000      -0.624733       -16.9998
 181   2.0000      -0.618846       -16.8397
 182   2.0000      -0.614771       -16.7288
 183   2.0000      -0.613819       -16.7029
 184   2.0000      -0.606919       -16.5151
 185   2.0000      -0.604481       -16.4488
 186   2.0000      -0.599204       -16.3052
 187   2.0000      -0.594115       -16.1667
 188   2.0000      -0.591686       -16.1006
 189   2.0000      -0.583237       -15.8707
 190   2.0000      -0.582043       -15.8382
 191   2.0000      -0.573103       -15.5949
 192   2.0000      -0.569177       -15.4881
 193   2.0000      -0.566962       -15.4278
 194   2.0000      -0.565777       -15.3956
 195   2.0000      -0.560209       -15.2441
 196   2.0000      -0.558493       -15.1974
 197   2.0000      -0.557878       -15.1806
 198   2.0000      -0.555724       -15.1220
 199   2.0000      -0.552867       -15.0443
 200   2.0000      -0.551385       -15.0039
 201   2.0000      -0.550113       -14.9693
 202   2.0000      -0.546191       -14.8626
 203   2.0000      -0.541401       -14.7323
 204   2.0000      -0.540158       -14.6984
 205   2.0000      -0.537791       -14.6340
 206   2.0000      -0.536045       -14.5865
 207   2.0000      -0.534220       -14.5369
 208   2.0000      -0.532151       -14.4806
 209   2.0000      -0.528429       -14.3793
 210   2.0000      -0.526541       -14.3279
 211   2.0000      -0.525056       -14.2875
 212   2.0000      -0.523206       -14.2372
 213   2.0000      -0.522528       -14.2187
 214   2.0000      -0.521271       -14.1845
 215   2.0000      -0.519902       -14.1473
 216   2.0000      -0.515763       -14.0346
 217   2.0000      -0.514933       -14.0121
 218   2.0000      -0.511928       -13.9303
 219   2.0000      -0.509644       -13.8681
 220   2.0000      -0.508708       -13.8427
 221   2.0000      -0.503636       -13.7046
 222   2.0000      -0.501908       -13.6576
 223   2.0000      -0.501394       -13.6436
 224   2.0000      -0.497685       -13.5427
 225   2.0000      -0.495571       -13.4852
 226   2.0000      -0.491916       -13.3857
 227   2.0000      -0.489463       -13.3190
 228   2.0000      -0.485086       -13.1999
 229   2.0000      -0.480034       -13.0624
 230   2.0000      -0.477826       -13.0023
 231   2.0000      -0.473397       -12.8818
 232   2.0000      -0.468670       -12.7532
 233   2.0000      -0.464999       -12.6533
 234   2.0000      -0.461249       -12.5512
 235   2.0000      -0.455663       -12.3992
 236   2.0000      -0.455108       -12.3841
 237   2.0000      -0.452198       -12.3049
 238   2.0000      -0.446281       -12.1439
 239   2.0000      -0.446234       -12.1427
 240   2.0000      -0.443654       -12.0724
 241   2.0000      -0.421094       -11.4586
 242   2.0000      -0.397139       -10.8067
 243   2.0000      -0.385706       -10.4956
 244   2.0000      -0.376494       -10.2449
 245   2.0000      -0.372159       -10.1270
 246   2.0000      -0.367455        -9.9989
 247   2.0000      -0.365013        -9.9325
 248   2.0000      -0.358477        -9.7547
 249   2.0000      -0.352767        -9.5993
 250   2.0000      -0.350424        -9.5355
 251   2.0000      -0.340537        -9.2665
 252   2.0000      -0.332206        -9.0398
 253   2.0000      -0.330789        -9.0012
 254   2.0000      -0.307343        -8.3632
 255   2.0000      -0.278080        -7.5669
 256   2.0000      -0.245318        -6.6755
 257   0.0000      -0.026928        -0.7328
 258   0.0000      -0.015084        -0.4104
 259   0.0000       0.048866         1.3297
 260   0.0000       0.051387         1.3983
 261   0.0000       0.059192         1.6107

MULLIKEN ATOMIC CHARGES
-----------------------
   0 S :    0.167149
   1 C :    0.178712
   2 S :   -0.249725
   3 N :   -0.564605
   4 C :    0.150753
   5 C :   -0.041609
   6 C :    0.599498
   7 O :   -0.407899
   8 C :   -0.259592
   9 C :    0.054184
  10 C :   -0.118308
  11 C :    0.226357
  12 N :   -0.544377
  13 S :    0.656405
  14 N :   -0.503437
  15 C :    0.131594
  16 C :    0.001742
  17 C :   -0.055056
  18 C :    0.036140
  19 C :   -0.117072
  20 C :    0.029365
  21 C :   -0.035396
  22 C :    0.000350
  23 S :    0.126607
  24 C :   -0.063034
  25 C :   -0.000229
  26 C :   -0.328615
  27 C :    0.029648
  28 C :   -0.011132
  29 C :    0.041254
  30 C :   -0.005817
  31 C :   -0.018676
  32 C :   -0.067363
  33 C :   -0.003580
  34 C :   -0.021219
  35 C :   -0.325472
  36 C :    0.029172
  37 C :   -0.010197
  38 C :    0.044264
  39 C :   -0.006109
  40 C :   -0.043641
  41 C :    0.002948
  42 S :    0.212131
  43 C :   -0.100157
  44 C :    0.010002
  45 C :    0.022939
  46 C :    0.119072
  47 N :   -0.514103
  48 S :    0.637614
  49 N :   -0.502080
  50 C :    0.182554
  51 C :   -0.193453
  52 C :    0.048285
  53 C :   -0.052816
  54 C :    0.171675
  55 C :   -0.367281
  56 S :    0.132581
  57 C :    0.169295
  58 S :   -0.235428
  59 N :   -0.567763
  60 C :    0.146574
  61 C :   -0.039228
  62 C :    0.660625
  63 O :   -0.428882
  64 H :    0.070633
  65 H :    0.065077
  66 H :    0.038022
  67 H :    0.037825
  68 H :    0.049700
  69 H :    0.074885
  70 H :    0.057939
  71 H :    0.050039
  72 H :    0.070012
  73 H :    0.037193
  74 H :    0.030702
  75 H :    0.042169
  76 H :    0.032157
  77 H :    0.043356
  78 H :    0.037864
  79 H :    0.029973
  80 H :    0.039750
  81 H :    0.037189
  82 H :    0.024557
  83 H :    0.025147
  84 H :    0.022449
  85 H :    0.027117
  86 H :    0.036118
  87 H :    0.043154
  88 H :    0.031910
  89 H :    0.042874
  90 H :    0.026017
  91 H :    0.038859
  92 H :    0.023642
  93 H :    0.037241
  94 H :    0.040054
  95 H :    0.032869
  96 H :    0.103106
  97 H :    0.036747
  98 H :    0.079516
  99 H :    0.067895
 100 H :    0.072085
 101 H :    0.051241
 102 H :    0.039564
 103 H :    0.037213
Sum of atomic charges:   -0.0000000

LOEWDIN ATOMIC CHARGES
----------------------
   0 S :    0.399626
   1 C :   -0.178393
   2 S :   -0.107817
   3 N :   -0.089227
   4 C :    0.076116
   5 C :   -0.035405
   6 C :    0.172819
   7 O :   -0.272732
   8 C :   -0.230336
   9 C :    0.039013
  10 C :   -0.075484
  11 C :   -0.004262
  12 N :   -0.334062
  13 S :    0.671239
  14 N :   -0.311603
  15 C :   -0.019961
  16 C :   -0.010051
  17 C :   -0.041049
  18 C :    0.035284
  19 C :   -0.176211
  20 C :   -0.008986
  21 C :   -0.052483
  22 C :   -0.157849
  23 S :    0.405154
  24 C :   -0.035429
  25 C :    0.005917
  26 C :   -0.034285
  27 C :    0.000423
  28 C :   -0.031618
  29 C :    0.006073
  30 C :   -0.034749
  31 C :   -0.017759
  32 C :   -0.033362
  33 C :    0.005022
  34 C :   -0.019620
  35 C :   -0.035246
  36 C :   -0.000502
  37 C :   -0.031574
  38 C :    0.006252
  39 C :   -0.034976
  40 C :   -0.053568
  41 C :   -0.166564
  42 S :    0.456462
  43 C :   -0.179378
  44 C :   -0.018088
  45 C :   -0.002906
  46 C :   -0.037242
  47 N :   -0.325387
  48 S :    0.662480
  49 N :   -0.337680
  50 C :   -0.005268
  51 C :   -0.096645
  52 C :    0.060644
  53 C :   -0.034215
  54 C :    0.067777
  55 C :   -0.243001
  56 S :    0.365355
  57 C :   -0.173315
  58 S :   -0.098786
  59 N :   -0.088084
  60 C :    0.075159
  61 C :   -0.035014
  62 C :    0.179929
  63 O :   -0.267641
  64 H :    0.028290
  65 H :    0.019501
  66 H :    0.018950
  67 H :    0.021958
  68 H :    0.018317
  69 H :    0.050605
  70 H :    0.026240
  71 H :    0.038185
  72 H :    0.033040
  73 H :    0.012716
  74 H :    0.014573
  75 H :    0.018771
  76 H :    0.016713
  77 H :    0.018167
  78 H :    0.020100
  79 H :    0.013611
  80 H :    0.016588
  81 H :    0.020669
  82 H :    0.012883
  83 H :    0.026089
  84 H :    0.024966
  85 H :    0.013041
  86 H :    0.012419
  87 H :    0.018166
  88 H :    0.016498
  89 H :    0.019142
  90 H :    0.011959
  91 H :    0.020524
  92 H :    0.012427
  93 H :    0.020590
  94 H :    0.016652
  95 H :    0.027004
  96 H :    0.042707
  97 H :    0.030601
  98 H :    0.045727
  99 H :    0.020020
 100 H :    0.028236
 101 H :    0.018871
 102 H :    0.022840
 103 H :    0.018708

  Mayer bond orders larger than 0.100000
B(  0-S ,  1-C ) :   1.0360 B(  0-S ,  8-C ) :   0.9608 B(  1-C ,  2-S ) :   1.6392
B(  1-C ,  3-N ) :   1.0966 B(  3-N ,  4-C ) :   0.8142 B(  3-N ,  6-C ) :   1.0265
B(  4-C ,  5-C ) :   1.0517 B(  4-C , 64-H ) :   0.9708 B(  4-C , 65-H ) :   0.9687
B(  5-C , 66-H ) :   0.9823 B(  5-C , 67-H ) :   0.9889 B(  5-C , 68-H ) :   0.9799
B(  6-C ,  7-O ) :   1.9801 B(  6-C ,  8-C ) :   0.9828 B(  8-C ,  9-C ) :   1.8715
B(  9-C , 10-C ) :   1.1016 B(  9-C , 69-H ) :   0.9703 B( 10-C , 11-C ) :   1.1523
B( 10-C , 18-C ) :   1.5362 B( 11-C , 12-N ) :   1.4445 B( 11-C , 15-C ) :   1.1675
B( 12-N , 13-S ) :   1.2302 B( 12-N , 14-N ) :   0.1149 B( 13-S , 14-N ) :   1.2459
B( 14-N , 15-C ) :   1.4970 B( 15-C , 16-C ) :   1.1656 B( 16-C , 17-C ) :   1.5393
B( 16-C , 19-C ) :   1.1438 B( 17-C , 18-C ) :   1.2723 B( 17-C , 70-H ) :   0.9952
B( 18-C , 71-H ) :   1.0025 B( 19-C , 20-C ) :   1.5611 B( 19-C , 23-S ) :   1.0730
B( 20-C , 21-C ) :   1.3001 B( 20-C , 72-H ) :   0.9999 B( 21-C , 22-C ) :   1.5994
B( 21-C , 26-C ) :   0.9485 B( 22-C , 23-S ) :   1.0904 B( 22-C , 24-C ) :   1.1252
B( 24-C , 25-C ) :   1.3985 B( 24-C , 34-C ) :   1.3540 B( 25-C , 26-C ) :   0.9178
B( 25-C , 31-C ) :   1.4847 B( 26-C , 27-C ) :   1.0165 B( 26-C , 29-C ) :   0.9989
B( 27-C , 28-C ) :   1.0403 B( 27-C , 73-H ) :   0.9722 B( 27-C , 74-H ) :   0.9723
B( 28-C , 75-H ) :   0.9826 B( 28-C , 76-H ) :   0.9872 B( 28-C , 77-H ) :   0.9805
B( 29-C , 30-C ) :   1.0506 B( 29-C , 78-H ) :   0.9706 B( 29-C , 79-H ) :   0.9698
B( 30-C , 80-H ) :   0.9796 B( 30-C , 81-H ) :   0.9848 B( 30-C , 82-H ) :   0.9825
B( 31-C , 32-C ) :   1.3552 B( 31-C , 83-H ) :   1.0070 B( 32-C , 33-C ) :   1.3997
B( 32-C , 41-C ) :   1.1298 B( 33-C , 34-C ) :   1.4853 B( 33-C , 35-C ) :   0.9184
B( 34-C , 84-H ) :   1.0066 B( 35-C , 36-C ) :   1.0193 B( 35-C , 38-C ) :   0.9975
B( 35-C , 40-C ) :   0.9472 B( 36-C , 37-C ) :   1.0403 B( 36-C , 85-H ) :   0.9723
B( 36-C , 86-H ) :   0.9718 B( 37-C , 87-H ) :   0.9808 B( 37-C , 88-H ) :   0.9871
B( 37-C , 89-H ) :   0.9823 B( 38-C , 39-C ) :   1.0507 B( 38-C , 90-H ) :   0.9698
B( 38-C , 91-H ) :   0.9705 B( 39-C , 92-H ) :   0.9824 B( 39-C , 93-H ) :   0.9848
B( 39-C , 94-H ) :   0.9795 B( 40-C , 41-C ) :   1.5699 B( 40-C , 44-C ) :   1.3608
B( 41-C , 42-S ) :   1.0825 B( 42-S , 43-C ) :   1.1036 B( 43-C , 44-C ) :   1.5319
B( 43-C , 45-C ) :   1.1366 B( 44-C , 95-H ) :   1.0007 B( 45-C , 46-C ) :   1.1512
B( 45-C , 53-C ) :   1.5327 B( 46-C , 47-N ) :   1.4751 B( 46-C , 50-C ) :   1.1604
B( 47-N , 48-S ) :   1.2439 B( 47-N , 49-N ) :   0.1170 B( 48-S , 49-N ) :   1.2257
B( 49-N , 50-C ) :   1.5201 B( 50-C , 51-C ) :   1.1664 B( 51-C , 52-C ) :   1.5052
B( 51-C , 54-C ) :   1.1616 B( 52-C , 53-C ) :   1.2705 B( 52-C , 96-H ) :   0.9810
B( 53-C , 97-H ) :   1.0063 B( 54-C , 55-C ) :   1.7909 B( 54-C , 98-H ) :   0.9645
B( 55-C , 56-S ) :   1.0260 B( 55-C , 62-C ) :   0.9436 B( 56-S , 57-C ) :   1.0621
B( 57-C , 58-S ) :   1.6369 B( 57-C , 59-N ) :   1.0985 B( 59-N , 60-C ) :   0.8151
B( 59-N , 62-C ) :   1.0300 B( 60-C , 61-C ) :   1.0531 B( 60-C , 99-H ) :   0.9680
B( 60-C ,100-H ) :   0.9688 B( 61-C ,101-H ) :   0.9798 B( 61-C ,102-H ) :   0.9890
B( 61-C ,103-H ) :   0.9817 B( 62-C , 63-O ) :   1.9129

-----------------------------------------------------------------------------
         ABSORPTION SPECTRUM VIA TRANSITION ELECTRIC DIPOLE MOMENTS
-----------------------------------------------------------------------------
State   Energy    Wavelength  fosc         T2        TX        TY        TZ
        (cm-1)      (nm)                 (au**2)    (au)      (au)      (au)
-----------------------------------------------------------------------------
   1   20530.6    487.1   3.465657483  55.57245   6.75403   1.75159  -2.62440
   2   24564.4    407.1   0.009558522   0.12810   0.31412  -0.05762   0.16160
   3   32567.9    307.1   0.000205246   0.00207  -0.01220   0.01210   0.04218

FINAL SINGLE POINT ENERGY     -5494.690850234424

DIPOLE MOMENT
-------------
                                X             Y             Z
Electronic contribution:      0.35244     -35.02533     -10.66777
Nuclear contribution   :     -0.73347      36.06713      10.78484
                        -----------------------------------------
Total Dipole Moment    :     -0.38104       1.04180       0.11707
                        -----------------------------------------
Magnitude (a.u.)       :      1.11545
Magnitude (Debye)      :      2.83526

Rotational constants in cm-1:     0.004213     0.000194     0.000188
Rotational constants in MHz :   126.288321     5.811883     5.622025

                             ****ORCA TERMINATED NORMALLY****
TOTAL RUN TIME: 0 days 15 hours 54 minutes 43 seconds 706 msec
