                         Program Version 4.2.0 -  RELEASE  -
|  1> # ORCA input file
|  2> # O-IDTBR.out: Geometry 41
|  3> ! Engrad Keepdens
|  4> %maxcore 1000
|  5> %tddft
|  6>   nroots 3
|  7>   # nroots is the number of states to be computed
|  8>   Iroot 1
|  9>   end
| 10> * xyz 0 1
| 11>    S        0.64327        -1.96333        -1.07928
| 12>    C        2.03444        -1.09341        -1.75345
| 13>    S        3.32589        -1.87560        -2.40179
| 14>    N        1.85514         0.26525        -1.65399
| 15>    C        2.82060         1.24596        -2.15400
| 16>    C        3.73869         1.76928        -1.05598
| 17>    C        0.69912         0.70123        -1.00068
| 18>    O        0.43306         1.87295        -0.82837
| 19>    C       -0.12027        -0.46491        -0.55577
| 20>    C       -1.22823        -0.18959         0.18297
| 21>    C       -2.27557        -0.97467         0.77871
| 22>    C       -2.48848        -2.38748         0.61052
| 23>    N       -1.71922        -3.20992        -0.09827
| 24>    S       -2.37200        -4.71228        -0.00675
| 25>    N       -3.66858        -4.36584         0.93670
| 26>    C       -3.63581        -3.06161         1.21586
| 27>    C       -4.59961        -2.32484         2.00560
| 28>    C       -4.31991        -0.96713         2.16698
| 29>    C       -3.21739        -0.32425         1.57665
| 30>    C       -5.79245        -2.92808         2.55621
| 31>    C       -6.22337        -4.25574         2.51379
| 32>    C       -7.48299        -4.43160         3.12108
| 33>    C       -8.01534        -3.25400         3.62782
| 34>    S       -6.98446        -1.90028         3.37527
| 35>    C       -9.32919        -3.47042         4.18720
| 36>    C       -9.61501        -4.85755         4.02941
| 37>    C       -8.43016        -5.59322         3.38441
| 38>    C       -8.84776        -6.31758         2.08316
| 39>    C       -9.45385        -5.40349         1.02150
| 40>    C       -7.72801        -6.56795         4.37420
| 41>    C       -8.55926        -7.72766         4.91851
| 42>    C      -10.86122        -5.35129         4.39047
| 43>    C      -11.80410        -4.45110         4.91580
| 44>    C      -11.51540        -3.06543         5.08070
| 45>    C      -10.26395        -2.57409         4.73259
| 46>    C      -12.72091        -2.31875         5.67558
| 47>    C      -12.35712        -1.65399         7.02536
| 48>    C      -11.83021        -2.62149         8.08182
| 49>    C      -13.33802        -1.28745         4.68746
| 50>    C      -12.45253        -0.13088         4.22747
| 51>    C      -13.71094        -3.46535         5.83933
| 52>    C      -13.15587        -4.65493         5.38219
| 53>    S      -14.23691        -5.98848         5.47771
| 54>    C      -15.50184        -4.93909         6.13801
| 55>    C      -15.04018        -3.62221         6.26710
| 56>    C      -16.82333        -5.43723         6.45029
| 57>    C      -17.17324        -6.82740         6.30178
| 58>    N      -16.34838        -7.78923         5.89119
| 59>    S      -17.19331        -9.19376         5.88405
| 60>    N      -18.64177        -8.62143         6.40314
| 61>    C      -18.51190        -7.30935         6.59881
| 62>    C      -19.55361        -6.41194         7.05026
| 63>    C      -19.16495        -5.07618         7.18755
| 64>    C      -17.86050        -4.61737         6.90210
| 65>    C      -20.85152        -6.99786         7.28958
| 66>    C      -22.06814        -6.52094         7.69218
| 67>    S      -23.44971        -7.62875         7.84074
| 68>    C      -24.56043        -6.33621         8.28546
| 69>    S      -26.16365        -6.57692         8.56273
| 70>    N      -23.87851        -5.14279         8.34660
| 71>    C      -24.53189        -3.88824         8.72746
| 72>    C      -24.68081        -3.75341        10.23708
| 73>    C      -22.50804        -5.15055         8.03445
| 74>    O      -21.84179        -4.13088         8.04974
| 75>    H        2.23613         2.06629        -2.59360
| 76>    H        3.39386         0.74155        -2.94225
| 77>    H        3.15916         2.28653        -0.27690
| 78>    H        4.45854         2.48475        -1.48383
| 79>    H        4.30500         0.94502        -0.59658
| 80>    H       -1.33394         0.88812         0.35476
| 81>    H       -4.99746        -0.35601         2.76722
| 82>    H       -3.09461         0.74788         1.74781
| 83>    H       -5.62595        -5.03016         2.03699
| 84>    H       -9.56745        -7.11104         2.34082
| 85>    H       -7.95917        -6.83246         1.67705
| 86>    H      -10.31273        -4.84357         1.42353
| 87>    H       -9.80925        -5.98669         0.15813
| 88>    H       -8.72185        -4.66808         0.65589
| 89>    H       -7.34551        -5.97055         5.21785
| 90>    H       -6.83842        -6.96349         3.85419
| 91>    H       -9.37737        -7.37360         5.56211
| 92>    H       -7.92508        -8.38987         5.52941
| 93>    H       -8.99798        -8.34546         4.11962
| 94>    H      -11.12179        -6.40243         4.25485
| 95>    H      -10.00356        -1.52276         4.86474
| 96>    H      -13.25271        -1.13079         7.40455
| 97>    H      -11.60519        -0.87093         6.83619
| 98>    H      -12.59226        -3.36282         8.36425
| 99>    H      -11.52676        -2.08065         8.99156
|100>    H      -10.95234        -3.17432         7.71201
|101>    H      -14.24123        -0.88258         5.17659
|102>    H      -13.69522        -1.84096         3.80378
|103>    H      -12.02708         0.43791         5.06858
|104>    H      -13.04465         0.57593         3.62453
|105>    H      -11.62202        -0.47882         3.59720
|106>    H      -15.66299        -2.81824         6.65855
|107>    H      -19.90881        -4.35779         7.52768
|108>    H      -17.66857        -3.55261         7.04172
|109>    H      -20.84077        -8.07377         7.08319
|110>    H      -25.51378        -3.87274         8.23495
|111>    H      -23.90549        -3.08632         8.31660
|112>    H      -25.31014        -4.56037        10.63768
|113>    H      -25.16105        -2.79317        10.48130
|114>    H      -23.69902        -3.78513        10.73269
|115> *
|116>
|117>                          ****END OF INPUT****

CARTESIAN COORDINATES (ANGSTROEM)
---------------------------------
  S      0.643270   -1.963330   -1.079280
  C      2.034440   -1.093410   -1.753450
  S      3.325890   -1.875600   -2.401790
  N      1.855140    0.265250   -1.653990
  C      2.820600    1.245960   -2.154000
  C      3.738690    1.769280   -1.055980
  C      0.699120    0.701230   -1.000680
  O      0.433060    1.872950   -0.828370
  C     -0.120270   -0.464910   -0.555770
  C     -1.228230   -0.189590    0.182970
  C     -2.275570   -0.974670    0.778710
  C     -2.488480   -2.387480    0.610520
  N     -1.719220   -3.209920   -0.098270
  S     -2.372000   -4.712280   -0.006750
  N     -3.668580   -4.365840    0.936700
  C     -3.635810   -3.061610    1.215860
  C     -4.599610   -2.324840    2.005600
  C     -4.319910   -0.967130    2.166980
  C     -3.217390   -0.324250    1.576650
  C     -5.792450   -2.928080    2.556210
  C     -6.223370   -4.255740    2.513790
  C     -7.482990   -4.431600    3.121080
  C     -8.015340   -3.254000    3.627820
  S     -6.984460   -1.900280    3.375270
  C     -9.329190   -3.470420    4.187200
  C     -9.615010   -4.857550    4.029410
  C     -8.430160   -5.593220    3.384410
  C     -8.847760   -6.317580    2.083160
  C     -9.453850   -5.403490    1.021500
  C     -7.728010   -6.567950    4.374200
  C     -8.559260   -7.727660    4.918510
  C    -10.861220   -5.351290    4.390470
  C    -11.804100   -4.451100    4.915800
  C    -11.515400   -3.065430    5.080700
  C    -10.263950   -2.574090    4.732590
  C    -12.720910   -2.318750    5.675580
  C    -12.357120   -1.653990    7.025360
  C    -11.830210   -2.621490    8.081820
  C    -13.338020   -1.287450    4.687460
  C    -12.452530   -0.130880    4.227470
  C    -13.710940   -3.465350    5.839330
  C    -13.155870   -4.654930    5.382190
  S    -14.236910   -5.988480    5.477710
  C    -15.501840   -4.939090    6.138010
  C    -15.040180   -3.622210    6.267100
  C    -16.823330   -5.437230    6.450290
  C    -17.173240   -6.827400    6.301780
  N    -16.348380   -7.789230    5.891190
  S    -17.193310   -9.193760    5.884050
  N    -18.641770   -8.621430    6.403140
  C    -18.511900   -7.309350    6.598810
  C    -19.553610   -6.411940    7.050260
  C    -19.164950   -5.076180    7.187550
  C    -17.860500   -4.617370    6.902100
  C    -20.851520   -6.997860    7.289580
  C    -22.068140   -6.520940    7.692180
  S    -23.449710   -7.628750    7.840740
  C    -24.560430   -6.336210    8.285460
  S    -26.163650   -6.576920    8.562730
  N    -23.878510   -5.142790    8.346600
  C    -24.531890   -3.888240    8.727460
  C    -24.680810   -3.753410   10.237080
  C    -22.508040   -5.150550    8.034450
  O    -21.841790   -4.130880    8.049740
  H      2.236130    2.066290   -2.593600
  H      3.393860    0.741550   -2.942250
  H      3.159160    2.286530   -0.276900
  H      4.458540    2.484750   -1.483830
  H      4.305000    0.945020   -0.596580
  H     -1.333940    0.888120    0.354760
  H     -4.997460   -0.356010    2.767220
  H     -3.094610    0.747880    1.747810
  H     -5.625950   -5.030160    2.036990
  H     -9.567450   -7.111040    2.340820
  H     -7.959170   -6.832460    1.677050
  H    -10.312730   -4.843570    1.423530
  H     -9.809250   -5.986690    0.158130
  H     -8.721850   -4.668080    0.655890
  H     -7.345510   -5.970550    5.217850
  H     -6.838420   -6.963490    3.854190
  H     -9.377370   -7.373600    5.562110
  H     -7.925080   -8.389870    5.529410
  H     -8.997980   -8.345460    4.119620
  H    -11.121790   -6.402430    4.254850
  H    -10.003560   -1.522760    4.864740
  H    -13.252710   -1.130790    7.404550
  H    -11.605190   -0.870930    6.836190
  H    -12.592260   -3.362820    8.364250
  H    -11.526760   -2.080650    8.991560
  H    -10.952340   -3.174320    7.712010
  H    -14.241230   -0.882580    5.176590
  H    -13.695220   -1.840960    3.803780
  H    -12.027080    0.437910    5.068580
  H    -13.044650    0.575930    3.624530
  H    -11.622020   -0.478820    3.597200
  H    -15.662990   -2.818240    6.658550
  H    -19.908810   -4.357790    7.527680
  H    -17.668570   -3.552610    7.041720
  H    -20.840770   -8.073770    7.083190
  H    -25.513780   -3.872740    8.234950
  H    -23.905490   -3.086320    8.316600
  H    -25.310140   -4.560370   10.637680
  H    -25.161050   -2.793170   10.481300
  H    -23.699020   -3.785130   10.732690

 Total Charge           Charge          ....    0
 Multiplicity           Mult            ....    1
 Number of Electrons    NEL             ....  514
 Basis Dimension        Dim             .... 1128

ORBITAL ENERGIES
----------------

  NO   OCC          E(Eh)            E(eV)
   0   2.0000     -92.041333     -2504.5720
   1   2.0000     -92.037779     -2504.4753
   2   2.0000     -91.968779     -2502.5977
   3   2.0000     -91.968119     -2502.5797
   4   2.0000     -91.966202     -2502.5276
   5   2.0000     -91.962544     -2502.4280
   6   2.0000     -91.885157     -2500.3222
   7   2.0000     -91.879069     -2500.1566
   8   2.0000     -20.562848      -559.5436
   9   2.0000     -20.550649      -559.2116
  10   2.0000     -15.643291      -425.6756
  11   2.0000     -15.635539      -425.4646
  12   2.0000     -15.634616      -425.4395
  13   2.0000     -15.631700      -425.3602
  14   2.0000     -15.629752      -425.3072
  15   2.0000     -15.624439      -425.1626
  16   2.0000     -11.403208      -310.2971
  17   2.0000     -11.389278      -309.9180
  18   2.0000     -11.386159      -309.8331
  19   2.0000     -11.376436      -309.5686
  20   2.0000     -11.325922      -308.1940
  21   2.0000     -11.324806      -308.1636
  22   2.0000     -11.320544      -308.0477
  23   2.0000     -11.319207      -308.0113
  24   2.0000     -11.306172      -307.6566
  25   2.0000     -11.304777      -307.6186
  26   2.0000     -11.304320      -307.6062
  27   2.0000     -11.301473      -307.5287
  28   2.0000     -11.295418      -307.3639
  29   2.0000     -11.294573      -307.3410
  30   2.0000     -11.294477      -307.3384
  31   2.0000     -11.292347      -307.2804
  32   2.0000     -11.292155      -307.2752
  33   2.0000     -11.286071      -307.1096
  34   2.0000     -11.283952      -307.0520
  35   2.0000     -11.282579      -307.0146
  36   2.0000     -11.281613      -306.9883
  37   2.0000     -11.280059      -306.9460
  38   2.0000     -11.278487      -306.9032
  39   2.0000     -11.278157      -306.8943
  40   2.0000     -11.278039      -306.8911
  41   2.0000     -11.273742      -306.7741
  42   2.0000     -11.272318      -306.7354
  43   2.0000     -11.268880      -306.6418
  44   2.0000     -11.268795      -306.6395
  45   2.0000     -11.268197      -306.6232
  46   2.0000     -11.267885      -306.6147
  47   2.0000     -11.267253      -306.5975
  48   2.0000     -11.262438      -306.4665
  49   2.0000     -11.261700      -306.4464
  50   2.0000     -11.260912      -306.4250
  51   2.0000     -11.260500      -306.4138
  52   2.0000     -11.252178      -306.1873
  53   2.0000     -11.251342      -306.1646
  54   2.0000     -11.247129      -306.0500
  55   2.0000     -11.245867      -306.0156
  56   2.0000     -11.245216      -305.9979
  57   2.0000     -11.244206      -305.9704
  58   2.0000     -11.236130      -305.7506
  59   2.0000     -11.233880      -305.6894
  60   2.0000     -11.232733      -305.6582
  61   2.0000     -11.229091      -305.5591
  62   2.0000     -11.228754      -305.5499
  63   2.0000     -11.227683      -305.5208
  64   2.0000      -9.071964      -246.8607
  65   2.0000      -9.068456      -246.7652
  66   2.0000      -9.004854      -245.0345
  67   2.0000      -9.003728      -245.0039
  68   2.0000      -9.000164      -244.9069
  69   2.0000      -8.997986      -244.8477
  70   2.0000      -8.922005      -242.7801
  71   2.0000      -8.916027      -242.6174
  72   2.0000      -6.759081      -183.9239
  73   2.0000      -6.757323      -183.8761
  74   2.0000      -6.755807      -183.8349
  75   2.0000      -6.755587      -183.8289
  76   2.0000      -6.753854      -183.7817
  77   2.0000      -6.752319      -183.7399
  78   2.0000      -6.692200      -182.1040
  79   2.0000      -6.691330      -182.0803
  80   2.0000      -6.690992      -182.0711
  81   2.0000      -6.690347      -182.0536
  82   2.0000      -6.688648      -182.0074
  83   2.0000      -6.688455      -182.0021
  84   2.0000      -6.687489      -181.9758
  85   2.0000      -6.686438      -181.9472
  86   2.0000      -6.685054      -181.9096
  87   2.0000      -6.684649      -181.8985
  88   2.0000      -6.683888      -181.8778
  89   2.0000      -6.681502      -181.8129
  90   2.0000      -6.610280      -179.8749
  91   2.0000      -6.607543      -179.8004
  92   2.0000      -6.606126      -179.7618
  93   2.0000      -6.604305      -179.7123
  94   2.0000      -6.601598      -179.6386
  95   2.0000      -6.600180      -179.6000
  96   2.0000      -1.415421       -38.5156
  97   2.0000      -1.405611       -38.2486
  98   2.0000      -1.357073       -36.9278
  99   2.0000      -1.354737       -36.8643
 100   2.0000      -1.308506       -35.6063
 101   2.0000      -1.301387       -35.4125
 102   2.0000      -1.222810       -33.2743
 103   2.0000      -1.213472       -33.0202
 104   2.0000      -1.207543       -32.8589
 105   2.0000      -1.203474       -32.7482
 106   2.0000      -1.183183       -32.1961
 107   2.0000      -1.176355       -32.0102
 108   2.0000      -1.154023       -31.4026
 109   2.0000      -1.138519       -30.9807
 110   2.0000      -1.131276       -30.7836
 111   2.0000      -1.124743       -30.6058
 112   2.0000      -1.098710       -29.8974
 113   2.0000      -1.086210       -29.5573
 114   2.0000      -1.082572       -29.4583
 115   2.0000      -1.067787       -29.0560
 116   2.0000      -1.052373       -28.6365
 117   2.0000      -1.043987       -28.4083
 118   2.0000      -1.042164       -28.3587
 119   2.0000      -1.037158       -28.2225
 120   2.0000      -1.025076       -27.8937
 121   2.0000      -1.020773       -27.7766
 122   2.0000      -1.019538       -27.7430
 123   2.0000      -1.018067       -27.7030
 124   2.0000      -1.017482       -27.6871
 125   2.0000      -1.007526       -27.4162
 126   2.0000      -1.000645       -27.2289
 127   2.0000      -0.999367       -27.1942
 128   2.0000      -0.980109       -26.6701
 129   2.0000      -0.968800       -26.3624
 130   2.0000      -0.938492       -25.5377
 131   2.0000      -0.931855       -25.3571
 132   2.0000      -0.918389       -24.9906
 133   2.0000      -0.911470       -24.8024
 134   2.0000      -0.899997       -24.4902
 135   2.0000      -0.889905       -24.2155
 136   2.0000      -0.884384       -24.0653
 137   2.0000      -0.871523       -23.7153
 138   2.0000      -0.865521       -23.5520
 139   2.0000      -0.857683       -23.3387
 140   2.0000      -0.853774       -23.2324
 141   2.0000      -0.852560       -23.1993
 142   2.0000      -0.845344       -23.0030
 143   2.0000      -0.844087       -22.9688
 144   2.0000      -0.840983       -22.8843
 145   2.0000      -0.839027       -22.8311
 146   2.0000      -0.827791       -22.5253
 147   2.0000      -0.805325       -21.9140
 148   2.0000      -0.794735       -21.6259
 149   2.0000      -0.790488       -21.5103
 150   2.0000      -0.773194       -21.0397
 151   2.0000      -0.766248       -20.8507
 152   2.0000      -0.755898       -20.5690
 153   2.0000      -0.748496       -20.3676
 154   2.0000      -0.742540       -20.2055
 155   2.0000      -0.731153       -19.8957
 156   2.0000      -0.722058       -19.6482
 157   2.0000      -0.713560       -19.4169
 158   2.0000      -0.706795       -19.2329
 159   2.0000      -0.704216       -19.1627
 160   2.0000      -0.698763       -19.0143
 161   2.0000      -0.690534       -18.7904
 162   2.0000      -0.687417       -18.7056
 163   2.0000      -0.683641       -18.6028
 164   2.0000      -0.682929       -18.5834
 165   2.0000      -0.674559       -18.3557
 166   2.0000      -0.665097       -18.0982
 167   2.0000      -0.662644       -18.0315
 168   2.0000      -0.657033       -17.8788
 169   2.0000      -0.653344       -17.7784
 170   2.0000      -0.644403       -17.5351
 171   2.0000      -0.641484       -17.4557
 172   2.0000      -0.640144       -17.4192
 173   2.0000      -0.639380       -17.3984
 174   2.0000      -0.638237       -17.3673
 175   2.0000      -0.635482       -17.2923
 176   2.0000      -0.633988       -17.2517
 177   2.0000      -0.628728       -17.1085
 178   2.0000      -0.625714       -17.0265
 179   2.0000      -0.620646       -16.8886
 180   2.0000      -0.620089       -16.8735
 181   2.0000      -0.614111       -16.7108
 182   2.0000      -0.610601       -16.6153
 183   2.0000      -0.609841       -16.5946
 184   2.0000      -0.602580       -16.3970
 185   2.0000      -0.599946       -16.3254
 186   2.0000      -0.596049       -16.2193
 187   2.0000      -0.592020       -16.1097
 188   2.0000      -0.588114       -16.0034
 189   2.0000      -0.581010       -15.8101
 190   2.0000      -0.579174       -15.7601
 191   2.0000      -0.570764       -15.5313
 192   2.0000      -0.567175       -15.4336
 193   2.0000      -0.565613       -15.3911
 194   2.0000      -0.564026       -15.3479
 195   2.0000      -0.555714       -15.1217
 196   2.0000      -0.554796       -15.0968
 197   2.0000      -0.553195       -15.0532
 198   2.0000      -0.552292       -15.0286
 199   2.0000      -0.552006       -15.0209
 200   2.0000      -0.547754       -14.9052
 201   2.0000      -0.546949       -14.8833
 202   2.0000      -0.544001       -14.8030
 203   2.0000      -0.539324       -14.6758
 204   2.0000      -0.538379       -14.6500
 205   2.0000      -0.536703       -14.6044
 206   2.0000      -0.535105       -14.5609
 207   2.0000      -0.532931       -14.5018
 208   2.0000      -0.530742       -14.4422
 209   2.0000      -0.527299       -14.3485
 210   2.0000      -0.522574       -14.2200
 211   2.0000      -0.521620       -14.1940
 212   2.0000      -0.520442       -14.1619
 213   2.0000      -0.518924       -14.1207
 214   2.0000      -0.517831       -14.0909
 215   2.0000      -0.515903       -14.0384
 216   2.0000      -0.513355       -13.9691
 217   2.0000      -0.512819       -13.9545
 218   2.0000      -0.510018       -13.8783
 219   2.0000      -0.507872       -13.8199
 220   2.0000      -0.506673       -13.7873
 221   2.0000      -0.500654       -13.6235
 222   2.0000      -0.499952       -13.6044
 223   2.0000      -0.498992       -13.5783
 224   2.0000      -0.497189       -13.5292
 225   2.0000      -0.494678       -13.4609
 226   2.0000      -0.492247       -13.3947
 227   2.0000      -0.487597       -13.2682
 228   2.0000      -0.483639       -13.1605
 229   2.0000      -0.478154       -13.0112
 230   2.0000      -0.476620       -12.9695
 231   2.0000      -0.472670       -12.8620
 232   2.0000      -0.469956       -12.7882
 233   2.0000      -0.468792       -12.7565
 234   2.0000      -0.462677       -12.5901
 235   2.0000      -0.458552       -12.4778
 236   2.0000      -0.456300       -12.4165
 237   2.0000      -0.451755       -12.2929
 238   2.0000      -0.451646       -12.2899
 239   2.0000      -0.451149       -12.2764
 240   2.0000      -0.444986       -12.1087
 241   2.0000      -0.418261       -11.3815
 242   2.0000      -0.396363       -10.7856
 243   2.0000      -0.385951       -10.5022
 244   2.0000      -0.373522       -10.1640
 245   2.0000      -0.371404       -10.1064
 246   2.0000      -0.366605        -9.9758
 247   2.0000      -0.363657        -9.8956
 248   2.0000      -0.358470        -9.7545
 249   2.0000      -0.352792        -9.6000
 250   2.0000      -0.349339        -9.5060
 251   2.0000      -0.343172        -9.3382
 252   2.0000      -0.336670        -9.1612
 253   2.0000      -0.331950        -9.0328
 254   2.0000      -0.310086        -8.4379
 255   2.0000      -0.282135        -7.6773
 256   2.0000      -0.249661        -6.7936
 257   0.0000      -0.025572        -0.6958
 258   0.0000      -0.015033        -0.4091
 259   0.0000       0.046206         1.2573
 260   0.0000       0.049033         1.3342
 261   0.0000       0.055929         1.5219

MULLIKEN ATOMIC CHARGES
-----------------------
   0 S :    0.176621
   1 C :    0.173090
   2 S :   -0.233549
   3 N :   -0.591494
   4 C :    0.160281
   5 C :   -0.067025
   6 C :    0.606173
   7 O :   -0.407955
   8 C :   -0.255132
   9 C :    0.038534
  10 C :   -0.096436
  11 C :    0.186288
  12 N :   -0.502206
  13 S :    0.610142
  14 N :   -0.488866
  15 C :    0.137359
  16 C :    0.013879
  17 C :   -0.069133
  18 C :    0.019464
  19 C :   -0.126426
  20 C :    0.044533
  21 C :   -0.045150
  22 C :   -0.007696
  23 S :    0.122019
  24 C :   -0.060022
  25 C :   -0.011563
  26 C :   -0.316342
  27 C :    0.015625
  28 C :   -0.025682
  29 C :    0.034456
  30 C :   -0.027815
  31 C :   -0.013201
  32 C :   -0.065041
  33 C :   -0.012171
  34 C :   -0.014584
  35 C :   -0.316207
  36 C :    0.020991
  37 C :   -0.027326
  38 C :    0.031089
  39 C :   -0.028873
  40 C :   -0.041238
  41 C :   -0.013235
  42 S :    0.214541
  43 C :   -0.110214
  44 C :    0.016458
  45 C :    0.025111
  46 C :    0.116148
  47 N :   -0.492784
  48 S :    0.600401
  49 N :   -0.495179
  50 C :    0.172975
  51 C :   -0.181761
  52 C :    0.039077
  53 C :   -0.065403
  54 C :    0.162163
  55 C :   -0.364015
  56 S :    0.138214
  57 C :    0.176759
  58 S :   -0.224112
  59 N :   -0.598068
  60 C :    0.150475
  61 C :   -0.057667
  62 C :    0.670416
  63 O :   -0.426469
  64 H :    0.065393
  65 H :    0.070711
  66 H :    0.056310
  67 H :    0.043852
  68 H :    0.048279
  69 H :    0.085875
  70 H :    0.067873
  71 H :    0.060189
  72 H :    0.079010
  73 H :    0.039265
  74 H :    0.034067
  75 H :    0.047197
  76 H :    0.037227
  77 H :    0.045392
  78 H :    0.042003
  79 H :    0.033889
  80 H :    0.044700
  81 H :    0.042243
  82 H :    0.029527
  83 H :    0.034022
  84 H :    0.031591
  85 H :    0.030325
  86 H :    0.038447
  87 H :    0.046204
  88 H :    0.036806
  89 H :    0.048229
  90 H :    0.029625
  91 H :    0.044144
  92 H :    0.029108
  93 H :    0.042114
  94 H :    0.044715
  95 H :    0.044040
  96 H :    0.112442
  97 H :    0.047083
  98 H :    0.087939
  99 H :    0.067371
 100 H :    0.076520
 101 H :    0.057497
 102 H :    0.044375
 103 H :    0.041161
Sum of atomic charges:   -0.0000000

LOEWDIN ATOMIC CHARGES
----------------------
   0 S :    0.384926
   1 C :   -0.163477
   2 S :   -0.106591
   3 N :   -0.106338
   4 C :    0.079752
   5 C :   -0.040343
   6 C :    0.184815
   7 O :   -0.271005
   8 C :   -0.230836
   9 C :    0.036638
  10 C :   -0.072871
  11 C :   -0.006961
  12 N :   -0.320202
  13 S :    0.634479
  14 N :   -0.303970
  15 C :   -0.017137
  16 C :   -0.008892
  17 C :   -0.043371
  18 C :    0.034860
  19 C :   -0.172933
  20 C :   -0.009788
  21 C :   -0.054705
  22 C :   -0.156680
  23 S :    0.395291
  24 C :   -0.034856
  25 C :    0.005427
  26 C :   -0.029707
  27 C :   -0.004888
  28 C :   -0.037303
  29 C :    0.001348
  30 C :   -0.040253
  31 C :   -0.020586
  32 C :   -0.033238
  33 C :    0.004153
  34 C :   -0.022010
  35 C :   -0.029307
  36 C :   -0.004471
  37 C :   -0.037470
  38 C :    0.000094
  39 C :   -0.040214
  40 C :   -0.056468
  41 C :   -0.164526
  42 S :    0.442297
  43 C :   -0.177022
  44 C :   -0.019440
  45 C :   -0.003106
  46 C :   -0.032272
  47 N :   -0.312266
  48 S :    0.629031
  49 N :   -0.327981
  50 C :   -0.003667
  51 C :   -0.093301
  52 C :    0.058248
  53 C :   -0.035686
  54 C :    0.063553
  55 C :   -0.240807
  56 S :    0.359619
  57 C :   -0.161662
  58 S :   -0.100598
  59 N :   -0.107000
  60 C :    0.078135
  61 C :   -0.040759
  62 C :    0.192683
  63 O :   -0.268205
  64 H :    0.027893
  65 H :    0.020630
  66 H :    0.024504
  67 H :    0.025285
  68 H :    0.022388
  69 H :    0.053479
  70 H :    0.029284
  71 H :    0.041071
  72 H :    0.037883
  73 H :    0.013835
  74 H :    0.016146
  75 H :    0.020897
  76 H :    0.019383
  77 H :    0.019700
  78 H :    0.021765
  79 H :    0.015301
  80 H :    0.018619
  81 H :    0.023050
  82 H :    0.014451
  83 H :    0.028789
  84 H :    0.027599
  85 H :    0.014380
  86 H :    0.013547
  87 H :    0.019953
  88 H :    0.019099
  89 H :    0.021305
  90 H :    0.013520
  91 H :    0.022408
  92 H :    0.014176
  93 H :    0.023109
  94 H :    0.018361
  95 H :    0.029796
  96 H :    0.046296
  97 H :    0.032953
  98 H :    0.048940
  99 H :    0.022348
 100 H :    0.029913
 101 H :    0.021501
 102 H :    0.025515
 103 H :    0.020749

  Mayer bond orders larger than 0.100000
B(  0-S ,  1-C ) :   1.0374 B(  0-S ,  8-C ) :   0.9535 B(  1-C ,  2-S ) :   1.6459
B(  1-C ,  3-N ) :   1.0882 B(  3-N ,  4-C ) :   0.8060 B(  3-N ,  6-C ) :   1.0064
B(  4-C ,  5-C ) :   1.0474 B(  4-C , 64-H ) :   0.9738 B(  4-C , 65-H ) :   0.9679
B(  5-C , 66-H ) :   0.9824 B(  5-C , 67-H ) :   0.9873 B(  5-C , 68-H ) :   0.9807
B(  6-C ,  7-O ) :   1.9665 B(  6-C ,  8-C ) :   0.9792 B(  8-C ,  9-C ) :   1.9002
B(  9-C , 10-C ) :   1.0939 B(  9-C , 69-H ) :   0.9623 B( 10-C , 11-C ) :   1.1316
B( 10-C , 18-C ) :   1.5749 B( 11-C , 12-N ) :   1.5237 B( 11-C , 15-C ) :   1.1349
B( 12-N , 13-S ) :   1.1994 B( 12-N , 14-N ) :   0.1150 B( 13-S , 14-N ) :   1.2087
B( 14-N , 15-C ) :   1.5370 B( 15-C , 16-C ) :   1.1383 B( 16-C , 17-C ) :   1.5779
B( 16-C , 19-C ) :   1.1311 B( 17-C , 18-C ) :   1.2456 B( 17-C , 70-H ) :   0.9899
B( 18-C , 71-H ) :   0.9969 B( 19-C , 20-C ) :   1.5746 B( 19-C , 23-S ) :   1.0790
B( 20-C , 21-C ) :   1.2857 B( 20-C , 72-H ) :   0.9949 B( 21-C , 22-C ) :   1.6114
B( 21-C , 26-C ) :   0.9507 B( 22-C , 23-S ) :   1.0913 B( 22-C , 24-C ) :   1.1135
B( 24-C , 25-C ) :   1.4012 B( 24-C , 34-C ) :   1.3613 B( 25-C , 26-C ) :   0.9203
B( 25-C , 31-C ) :   1.4864 B( 26-C , 27-C ) :   1.0092 B( 26-C , 29-C ) :   0.9967
B( 27-C , 28-C ) :   1.0368 B( 27-C , 73-H ) :   0.9720 B( 27-C , 74-H ) :   0.9721
B( 28-C , 75-H ) :   0.9824 B( 28-C , 76-H ) :   0.9871 B( 28-C , 77-H ) :   0.9809
B( 29-C , 30-C ) :   1.0455 B( 29-C , 78-H ) :   0.9709 B( 29-C , 79-H ) :   0.9707
B( 30-C , 80-H ) :   0.9795 B( 30-C , 81-H ) :   0.9848 B( 30-C , 82-H ) :   0.9831
B( 31-C , 32-C ) :   1.3609 B( 31-C , 83-H ) :   1.0015 B( 32-C , 33-C ) :   1.4041
B( 32-C , 41-C ) :   1.1182 B( 33-C , 34-C ) :   1.4856 B( 33-C , 35-C ) :   0.9199
B( 34-C , 84-H ) :   1.0007 B( 35-C , 36-C ) :   1.0060 B( 35-C , 38-C ) :   1.0007
B( 35-C , 40-C ) :   0.9482 B( 36-C , 37-C ) :   1.0363 B( 36-C , 85-H ) :   0.9726
B( 36-C , 86-H ) :   0.9722 B( 37-C , 87-H ) :   0.9813 B( 37-C , 88-H ) :   0.9872
B( 37-C , 89-H ) :   0.9821 B( 38-C , 39-C ) :   1.0462 B( 38-C , 90-H ) :   0.9701
B( 38-C , 91-H ) :   0.9716 B( 39-C , 92-H ) :   0.9830 B( 39-C , 93-H ) :   0.9845
B( 39-C , 94-H ) :   0.9794 B( 40-C , 41-C ) :   1.5859 B( 40-C , 44-C ) :   1.3439
B( 41-C , 42-S ) :   1.0833 B( 42-S , 43-C ) :   1.1028 B( 43-C , 44-C ) :   1.5533
B( 43-C , 45-C ) :   1.1246 B( 44-C , 95-H ) :   0.9944 B( 45-C , 46-C ) :   1.1323
B( 45-C , 53-C ) :   1.5751 B( 46-C , 47-N ) :   1.5244 B( 46-C , 50-C ) :   1.1348
B( 47-N , 48-S ) :   1.2103 B( 47-N , 49-N ) :   0.1170 B( 48-S , 49-N ) :   1.1923
B( 49-N , 50-C ) :   1.5527 B( 50-C , 51-C ) :   1.1436 B( 51-C , 52-C ) :   1.5483
B( 51-C , 54-C ) :   1.1440 B( 52-C , 53-C ) :   1.2373 B( 52-C , 96-H ) :   0.9755
B( 53-C , 97-H ) :   0.9998 B( 54-C , 55-C ) :   1.8200 B( 54-C , 98-H ) :   0.9614
B( 55-C , 56-S ) :   1.0195 B( 55-C , 62-C ) :   0.9383 B( 56-S , 57-C ) :   1.0602
B( 57-C , 58-S ) :   1.6413 B( 57-C , 59-N ) :   1.0864 B( 59-N , 60-C ) :   0.8070
B( 59-N , 62-C ) :   1.0125 B( 60-C , 61-C ) :   1.0495 B( 60-C , 99-H ) :   0.9703
B( 60-C ,100-H ) :   0.9698 B( 61-C ,101-H ) :   0.9792 B( 61-C ,102-H ) :   0.9876
B( 61-C ,103-H ) :   0.9812 B( 62-C , 63-O ) :   1.9179

-----------------------------------------------------------------------------
         ABSORPTION SPECTRUM VIA TRANSITION ELECTRIC DIPOLE MOMENTS
-----------------------------------------------------------------------------
State   Energy    Wavelength  fosc         T2        TX        TY        TZ
        (cm-1)      (nm)                 (au**2)    (au)      (au)      (au)
-----------------------------------------------------------------------------
   1   21306.2    469.3   3.396257870  52.47704  -6.62355  -1.62227   2.44415
   2   25045.1    399.3   0.045955000   0.60407  -0.04967   0.32398  -0.70473
   3   32474.3    307.9   0.000984329   0.00998  -0.09728   0.02170  -0.00669

FINAL SINGLE POINT ENERGY     -5494.695599476335

DIPOLE MOMENT
-------------
                                X             Y             Z
Electronic contribution:     -0.93822     -35.10009     -17.28405
Nuclear contribution   :      0.94943      36.10451      18.30522
                        -----------------------------------------
Total Dipole Moment    :      0.01121       1.00442       1.02117
                        -----------------------------------------
Magnitude (a.u.)       :      1.43240
Magnitude (Debye)      :      3.64087

Rotational constants in cm-1:     0.003809     0.000189     0.000183
Rotational constants in MHz :   114.199738     5.670333     5.488924

                             ****ORCA TERMINATED NORMALLY****
TOTAL RUN TIME: 0 days 12 hours 28 minutes 54 seconds 775 msec
