                         Program Version 4.2.0 -  RELEASE  -
|  1> # ORCA input file
|  2> # o-IO1.out
|  3> ! Engrad Keepdens
|  4> %maxcore 1000
|  5> %tddft
|  6>   nroots 3
|  7>   # nroots is the number of states to be computed
|  8>   Iroot 1
|  9>   end
| 10> * xyz 0 1
| 11>    C        0.85861        -1.85130         2.01853
| 12>    O        0.89421        -2.11535         0.83127
| 13>    C       -0.32679        -1.31607         2.72423
| 14>    C       -1.55099        -0.97172         2.18704
| 15>    C       -2.51242        -0.47110         3.04986
| 16>    C       -2.23896        -0.32762         4.40968
| 17>    C       -1.00990        -0.67971         4.94860
| 18>    C       -0.04291        -1.18096         4.09137
| 19>    C        1.32937        -1.63264         4.32735
| 20>    C        1.90955        -1.73252         5.56653
| 21>    C        3.20083        -2.22327         5.85450
| 22>    N        4.22478        -2.61720         6.19476
| 23>    C        1.26380        -1.37615         6.76977
| 24>    N        0.80228        -1.10349         7.78516
| 25>    C        1.90879        -1.97958         3.04290
| 26>    F       -3.71356        -0.11904         2.57274
| 27>    F       -3.18341         0.16449         5.22030
| 28>    C       21.27188         3.54071        -7.51555
| 29>    O       21.11791         4.23450        -6.53757
| 30>    C       22.06557         3.84998        -8.72872
| 31>    C       22.74124         5.01139        -9.04492
| 32>    C       23.38707         5.06655       -10.27026
| 33>    C       23.35151         3.98013       -11.14451
| 34>    C       22.68249         2.80803       -10.82261
| 35>    C       22.03319         2.74791        -9.60089
| 36>    C       21.27779         1.66818        -8.96275
| 37>    C       21.36925         0.33922        -9.29301
| 38>    C       20.88091        -0.68917        -8.46426
| 39>    N       20.53226        -1.55669        -7.79777
| 40>    C       22.02530        -0.14803       -10.44037
| 41>    N       22.51327        -0.59334       -11.37933
| 42>    C       20.65765         2.21684        -7.78380
| 43>    F       24.04927         6.17604       -10.62061
| 44>    F       23.97275         4.06768       -12.32624
| 45>    C        3.24380        -2.28275         2.87998
| 46>    C        3.99457        -2.59007         1.74101
| 47>    C        3.64990        -2.78639         0.40904
| 48>    C        4.73756        -3.02154        -0.42107
| 49>    C        5.96821        -3.00798         0.26354
| 50>    S        5.73371        -2.73909         1.95247
| 51>    C        7.24199        -3.10700        -0.32560
| 52>    S        7.39300        -3.21694        -2.06663
| 53>    C        9.09675        -3.09629        -1.92184
| 54>    C        9.52403        -3.01037        -0.60158
| 55>    C        8.47804        -3.02739         0.30677
| 56>    C       10.19487        -2.92126        -2.81555
| 57>    C       11.35204        -2.73351        -2.02146
| 58>    C       11.02542        -2.89227        -0.54758
| 59>    C       10.21593        -2.81555        -4.20495
| 60>    C       11.39989        -2.43996        -4.79474
| 61>    C       12.55337        -2.23646        -3.99867
| 62>    C       12.54510        -2.39167        -2.61437
| 63>    C       11.69195        -2.15473        -6.25729
| 64>    C       13.15450        -1.79688        -6.19122
| 65>    C       13.60311        -1.83990        -4.88188
| 66>    C       14.12167        -1.35200        -7.08772
| 67>    C       15.32066        -1.05621        -6.46117
| 68>    S       15.23614        -1.34280        -4.73094
| 69>    C       16.50859        -0.48115        -6.99789
| 70>    S       17.48941         0.48931        -5.94778
| 71>    C       18.59403         0.87744        -7.24004
| 72>    C       18.18350         0.25504        -8.40976
| 73>    C       17.03017        -0.51893        -8.29050
| 74>    C       19.61739         1.80811        -6.99309
| 75>    O        4.74742        -3.25323        -1.74732
| 76>    C        3.51235        -3.16518        -2.44318
| 77>    C        3.02704        -1.72011        -2.65026
| 78>    C        3.59639        -1.11153        -3.93661
| 79>    C        1.49994        -1.68216        -2.67311
| 80>    C        5.11707        -1.01753        -3.93662
| 81>    C       11.48541        -1.69120         0.28977
| 82>    C       10.86024        -0.38131        -0.17622
| 83>    C       11.57059        -4.22647         0.01604
| 84>    C       13.08494        -4.38074        -0.01515
| 85>    C       11.43227        -3.38085        -7.14584
| 86>    C       12.28835        -4.57841        -6.74970
| 87>    C       10.94542        -0.90237        -6.77481
| 88>    C        9.42437        -0.97578        -6.77975
| 89>    C       16.49573        -1.31144        -9.44165
| 90>    C       17.52721        -2.30239       -10.02180
| 91>    C       17.46369        -3.66357        -9.32132
| 92>    C       17.76579        -3.60402        -7.82893
| 93>    C       17.28557        -2.48247       -11.51993
| 94>    H       -1.75605        -1.08385         1.13433
| 95>    H       -0.85143        -0.54635         6.00579
| 96>    H       22.76888         5.84996        -8.36757
| 97>    H       22.68119         1.99466       -11.53009
| 98>    H        3.84439        -2.24056         3.78030
| 99>    H        2.62706        -2.73693         0.08904
|100>    H        8.56709        -2.95625         1.37610
|101>    H        9.31769        -3.00412        -4.77093
|102>    H       13.44391        -2.20943        -2.04608
|103>    H       13.94752        -1.19147        -8.13523
|104>    H       18.68167         0.40407        -9.35143
|105>    H       19.51707         2.37441        -6.07147
|106>    H        2.75319        -3.74876        -1.91093
|107>    H        3.70534        -3.64578        -3.40522
|108>    H        3.37815        -1.12199        -1.80170
|109>    H        3.17823        -0.10981        -4.05810
|110>    H        3.26718        -1.71087        -4.78901
|111>    H        1.11566        -2.33487        -3.45410
|112>    H        1.15375        -0.67091        -2.87128
|113>    H        1.08749        -1.99790        -1.71803
|114>    H        5.46271        -0.42466        -3.09218
|115>    H        5.46459        -0.54392        -4.85211
|116>    H        5.56838        -2.00315        -3.86674
|117>    H       12.57060        -1.60809         0.22769
|118>    H       11.21889        -1.87142         1.33313
|119>    H       11.11390        -0.18396        -1.21563
|120>    H       11.22621         0.44348         0.43032
|121>    H        9.77676        -0.41669        -0.08840
|122>    H       11.12313        -5.04115        -0.55934
|123>    H       11.21969        -4.31738         1.04643
|124>    H       13.45658        -4.35794        -1.03593
|125>    H       13.35655        -5.33900         0.42203
|126>    H       13.57607        -3.59944         0.55829
|127>    H       11.63948        -3.11136        -8.18380
|128>    H       10.37991        -3.65636        -7.07059
|129>    H       13.34688        -4.34877        -6.84888
|130>    H       12.06089        -5.42827        -7.38875
|131>    H       12.09490        -4.86213        -5.71750
|132>    H       11.29475        -0.71552        -7.79309
|133>    H       11.25220        -0.05207        -6.16006
|134>    H        9.06878        -1.83476        -7.34216
|135>    H        9.02727        -0.07866        -7.24994
|136>    H        9.03183        -1.02470        -5.76826
|137>    H       16.20487        -0.60766       -10.22712
|138>    H       15.61121        -1.87105        -9.14599
|139>    H       18.53367        -1.89822        -9.87839
|140>    H       18.19411        -4.32014        -9.79905
|141>    H       16.47466        -4.10316        -9.47920
|142>    H       18.68929        -3.05879        -7.65025
|143>    H       17.87897        -4.61044        -7.43216
|144>    H       16.96162        -3.11732        -7.28311
|145>    H       16.28312        -2.86577       -11.70085
|146>    H       18.00087        -3.18712       -11.93674
|147>    H       17.39415        -1.53749       -12.04837
|148> *
|149>
|150>                          ****END OF INPUT****

CARTESIAN COORDINATES (ANGSTROEM)
---------------------------------
  C      0.858610   -1.851300    2.018530
  O      0.894210   -2.115350    0.831270
  C     -0.326790   -1.316070    2.724230
  C     -1.550990   -0.971720    2.187040
  C     -2.512420   -0.471100    3.049860
  C     -2.238960   -0.327620    4.409680
  C     -1.009900   -0.679710    4.948600
  C     -0.042910   -1.180960    4.091370
  C      1.329370   -1.632640    4.327350
  C      1.909550   -1.732520    5.566530
  C      3.200830   -2.223270    5.854500
  N      4.224780   -2.617200    6.194760
  C      1.263800   -1.376150    6.769770
  N      0.802280   -1.103490    7.785160
  C      1.908790   -1.979580    3.042900
  F     -3.713560   -0.119040    2.572740
  F     -3.183410    0.164490    5.220300
  C     21.271880    3.540710   -7.515550
  O     21.117910    4.234500   -6.537570
  C     22.065570    3.849980   -8.728720
  C     22.741240    5.011390   -9.044920
  C     23.387070    5.066550  -10.270260
  C     23.351510    3.980130  -11.144510
  C     22.682490    2.808030  -10.822610
  C     22.033190    2.747910   -9.600890
  C     21.277790    1.668180   -8.962750
  C     21.369250    0.339220   -9.293010
  C     20.880910   -0.689170   -8.464260
  N     20.532260   -1.556690   -7.797770
  C     22.025300   -0.148030  -10.440370
  N     22.513270   -0.593340  -11.379330
  C     20.657650    2.216840   -7.783800
  F     24.049270    6.176040  -10.620610
  F     23.972750    4.067680  -12.326240
  C      3.243800   -2.282750    2.879980
  C      3.994570   -2.590070    1.741010
  C      3.649900   -2.786390    0.409040
  C      4.737560   -3.021540   -0.421070
  C      5.968210   -3.007980    0.263540
  S      5.733710   -2.739090    1.952470
  C      7.241990   -3.107000   -0.325600
  S      7.393000   -3.216940   -2.066630
  C      9.096750   -3.096290   -1.921840
  C      9.524030   -3.010370   -0.601580
  C      8.478040   -3.027390    0.306770
  C     10.194870   -2.921260   -2.815550
  C     11.352040   -2.733510   -2.021460
  C     11.025420   -2.892270   -0.547580
  C     10.215930   -2.815550   -4.204950
  C     11.399890   -2.439960   -4.794740
  C     12.553370   -2.236460   -3.998670
  C     12.545100   -2.391670   -2.614370
  C     11.691950   -2.154730   -6.257290
  C     13.154500   -1.796880   -6.191220
  C     13.603110   -1.839900   -4.881880
  C     14.121670   -1.352000   -7.087720
  C     15.320660   -1.056210   -6.461170
  S     15.236140   -1.342800   -4.730940
  C     16.508590   -0.481150   -6.997890
  S     17.489410    0.489310   -5.947780
  C     18.594030    0.877440   -7.240040
  C     18.183500    0.255040   -8.409760
  C     17.030170   -0.518930   -8.290500
  C     19.617390    1.808110   -6.993090
  O      4.747420   -3.253230   -1.747320
  C      3.512350   -3.165180   -2.443180
  C      3.027040   -1.720110   -2.650260
  C      3.596390   -1.111530   -3.936610
  C      1.499940   -1.682160   -2.673110
  C      5.117070   -1.017530   -3.936620
  C     11.485410   -1.691200    0.289770
  C     10.860240   -0.381310   -0.176220
  C     11.570590   -4.226470    0.016040
  C     13.084940   -4.380740   -0.015150
  C     11.432270   -3.380850   -7.145840
  C     12.288350   -4.578410   -6.749700
  C     10.945420   -0.902370   -6.774810
  C      9.424370   -0.975780   -6.779750
  C     16.495730   -1.311440   -9.441650
  C     17.527210   -2.302390  -10.021800
  C     17.463690   -3.663570   -9.321320
  C     17.765790   -3.604020   -7.828930
  C     17.285570   -2.482470  -11.519930
  H     -1.756050   -1.083850    1.134330
  H     -0.851430   -0.546350    6.005790
  H     22.768880    5.849960   -8.367570
  H     22.681190    1.994660  -11.530090
  H      3.844390   -2.240560    3.780300
  H      2.627060   -2.736930    0.089040
  H      8.567090   -2.956250    1.376100
  H      9.317690   -3.004120   -4.770930
  H     13.443910   -2.209430   -2.046080
  H     13.947520   -1.191470   -8.135230
  H     18.681670    0.404070   -9.351430
  H     19.517070    2.374410   -6.071470
  H      2.753190   -3.748760   -1.910930
  H      3.705340   -3.645780   -3.405220
  H      3.378150   -1.121990   -1.801700
  H      3.178230   -0.109810   -4.058100
  H      3.267180   -1.710870   -4.789010
  H      1.115660   -2.334870   -3.454100
  H      1.153750   -0.670910   -2.871280
  H      1.087490   -1.997900   -1.718030
  H      5.462710   -0.424660   -3.092180
  H      5.464590   -0.543920   -4.852110
  H      5.568380   -2.003150   -3.866740
  H     12.570600   -1.608090    0.227690
  H     11.218890   -1.871420    1.333130
  H     11.113900   -0.183960   -1.215630
  H     11.226210    0.443480    0.430320
  H      9.776760   -0.416690   -0.088400
  H     11.123130   -5.041150   -0.559340
  H     11.219690   -4.317380    1.046430
  H     13.456580   -4.357940   -1.035930
  H     13.356550   -5.339000    0.422030
  H     13.576070   -3.599440    0.558290
  H     11.639480   -3.111360   -8.183800
  H     10.379910   -3.656360   -7.070590
  H     13.346880   -4.348770   -6.848880
  H     12.060890   -5.428270   -7.388750
  H     12.094900   -4.862130   -5.717500
  H     11.294750   -0.715520   -7.793090
  H     11.252200   -0.052070   -6.160060
  H      9.068780   -1.834760   -7.342160
  H      9.027270   -0.078660   -7.249940
  H      9.031830   -1.024700   -5.768260
  H     16.204870   -0.607660  -10.227120
  H     15.611210   -1.871050   -9.145990
  H     18.533670   -1.898220   -9.878390
  H     18.194110   -4.320140   -9.799050
  H     16.474660   -4.103160   -9.479200
  H     18.689290   -3.058790   -7.650250
  H     17.878970   -4.610440   -7.432160
  H     16.961620   -3.117320   -7.283110
  H     16.283120   -2.865770  -11.700850
  H     18.000870   -3.187120  -11.936740
  H     17.394150   -1.537490  -12.048370

 Total Charge           Charge          ....    0
 Multiplicity           Mult            ....    1
 Number of Electrons    NEL             ....  614
 Basis Dimension        Dim             .... 1448

ORBITAL ENERGIES
----------------

  NO   OCC          E(Eh)            E(eV)
   0   2.0000     -91.982892     -2502.9817
   1   2.0000     -91.976198     -2502.7996
   2   2.0000     -91.975925     -2502.7922
   3   2.0000     -91.971803     -2502.6800
   4   2.0000     -26.336146      -716.6430
   5   2.0000     -26.335867      -716.6354
   6   2.0000     -26.335524      -716.6261
   7   2.0000     -26.333392      -716.5680
   8   2.0000     -20.606813      -560.7399
   9   2.0000     -20.574649      -559.8646
  10   2.0000     -20.567612      -559.6732
  11   2.0000     -15.595165      -424.3660
  12   2.0000     -15.594545      -424.3491
  13   2.0000     -15.591965      -424.2789
  14   2.0000     -15.587294      -424.1518
  15   2.0000     -11.379792      -309.6599
  16   2.0000     -11.378526      -309.6254
  17   2.0000     -11.378448      -309.6233
  18   2.0000     -11.377030      -309.5847
  19   2.0000     -11.373671      -309.4933
  20   2.0000     -11.366211      -309.2903
  21   2.0000     -11.346559      -308.7556
  22   2.0000     -11.343134      -308.6624
  23   2.0000     -11.331587      -308.3482
  24   2.0000     -11.325694      -308.1878
  25   2.0000     -11.324015      -308.1421
  26   2.0000     -11.322095      -308.0899
  27   2.0000     -11.319492      -308.0190
  28   2.0000     -11.318425      -307.9900
  29   2.0000     -11.314921      -307.8946
  30   2.0000     -11.307900      -307.7036
  31   2.0000     -11.306311      -307.6604
  32   2.0000     -11.305412      -307.6359
  33   2.0000     -11.303731      -307.5901
  34   2.0000     -11.303578      -307.5860
  35   2.0000     -11.302605      -307.5595
  36   2.0000     -11.300474      -307.5015
  37   2.0000     -11.299239      -307.4679
  38   2.0000     -11.298710      -307.4535
  39   2.0000     -11.297794      -307.4286
  40   2.0000     -11.297341      -307.4163
  41   2.0000     -11.296401      -307.3907
  42   2.0000     -11.296313      -307.3883
  43   2.0000     -11.295150      -307.3567
  44   2.0000     -11.293833      -307.3208
  45   2.0000     -11.290661      -307.2345
  46   2.0000     -11.289114      -307.1924
  47   2.0000     -11.285315      -307.0890
  48   2.0000     -11.283371      -307.0361
  49   2.0000     -11.280916      -306.9693
  50   2.0000     -11.279360      -306.9270
  51   2.0000     -11.277411      -306.8739
  52   2.0000     -11.275555      -306.8235
  53   2.0000     -11.273032      -306.7548
  54   2.0000     -11.271902      -306.7240
  55   2.0000     -11.269467      -306.6578
  56   2.0000     -11.267993      -306.6177
  57   2.0000     -11.266611      -306.5801
  58   2.0000     -11.266126      -306.5669
  59   2.0000     -11.263773      -306.5028
  60   2.0000     -11.261288      -306.4352
  61   2.0000     -11.260776      -306.4213
  62   2.0000     -11.259988      -306.3999
  63   2.0000     -11.259477      -306.3859
  64   2.0000     -11.254397      -306.2477
  65   2.0000     -11.252091      -306.1850
  66   2.0000     -11.248535      -306.0882
  67   2.0000     -11.247364      -306.0563
  68   2.0000     -11.246193      -306.0245
  69   2.0000     -11.243349      -305.9471
  70   2.0000     -11.243306      -305.9459
  71   2.0000     -11.243068      -305.9394
  72   2.0000     -11.235750      -305.7403
  73   2.0000     -11.233927      -305.6907
  74   2.0000     -11.233208      -305.6711
  75   2.0000     -11.229307      -305.5650
  76   2.0000     -11.228134      -305.5331
  77   2.0000     -11.227310      -305.5106
  78   2.0000     -11.225881      -305.4718
  79   2.0000     -11.224621      -305.4375
  80   2.0000     -11.222994      -305.3932
  81   2.0000     -11.220634      -305.3290
  82   2.0000     -11.203854      -304.8724
  83   2.0000      -9.018506      -245.4060
  84   2.0000      -9.012422      -245.2405
  85   2.0000      -9.011411      -245.2130
  86   2.0000      -9.006238      -245.0722
  87   2.0000      -6.705946      -182.4781
  88   2.0000      -6.704889      -182.4493
  89   2.0000      -6.702995      -182.3978
  90   2.0000      -6.699866      -182.3126
  91   2.0000      -6.698943      -182.2875
  92   2.0000      -6.698702      -182.2809
  93   2.0000      -6.697927      -182.2599
  94   2.0000      -6.696870      -182.2311
  95   2.0000      -6.696029      -182.2082
  96   2.0000      -6.693563      -182.1411
  97   2.0000      -6.692509      -182.1124
  98   2.0000      -6.690675      -182.0625
  99   2.0000      -1.645936       -44.7882
 100   2.0000      -1.644491       -44.7489
 101   2.0000      -1.631042       -44.3829
 102   2.0000      -1.629563       -44.3427
 103   2.0000      -1.432544       -38.9815
 104   2.0000      -1.406111       -38.2622
 105   2.0000      -1.400533       -38.1104
 106   2.0000      -1.257387       -34.2152
 107   2.0000      -1.253610       -34.1125
 108   2.0000      -1.237612       -33.6771
 109   2.0000      -1.234651       -33.5966
 110   2.0000      -1.233178       -33.5565
 111   2.0000      -1.231921       -33.5223
 112   2.0000      -1.227960       -33.4145
 113   2.0000      -1.225607       -33.3505
 114   2.0000      -1.215447       -33.0740
 115   2.0000      -1.209133       -32.9022
 116   2.0000      -1.176669       -32.0188
 117   2.0000      -1.173750       -31.9394
 118   2.0000      -1.167961       -31.7818
 119   2.0000      -1.146388       -31.1948
 120   2.0000      -1.117810       -30.4171
 121   2.0000      -1.112989       -30.2860
 122   2.0000      -1.108010       -30.1505
 123   2.0000      -1.104852       -30.0646
 124   2.0000      -1.102941       -30.0125
 125   2.0000      -1.094871       -29.7930
 126   2.0000      -1.091334       -29.6967
 127   2.0000      -1.080474       -29.4012
 128   2.0000      -1.075332       -29.2613
 129   2.0000      -1.072999       -29.1978
 130   2.0000      -1.054162       -28.6852
 131   2.0000      -1.038225       -28.2515
 132   2.0000      -1.031681       -28.0735
 133   2.0000      -1.029765       -28.0213
 134   2.0000      -1.029150       -28.0046
 135   2.0000      -1.027769       -27.9670
 136   2.0000      -1.026253       -27.9258
 137   2.0000      -1.012039       -27.5390
 138   2.0000      -1.010335       -27.4926
 139   2.0000      -1.003652       -27.3108
 140   2.0000      -0.999131       -27.1877
 141   2.0000      -0.985931       -26.8286
 142   2.0000      -0.973434       -26.4885
 143   2.0000      -0.967991       -26.3404
 144   2.0000      -0.948597       -25.8126
 145   2.0000      -0.944902       -25.7121
 146   2.0000      -0.943834       -25.6830
 147   2.0000      -0.940948       -25.6045
 148   2.0000      -0.929578       -25.2951
 149   2.0000      -0.926971       -25.2242
 150   2.0000      -0.918278       -24.9876
 151   2.0000      -0.899329       -24.4720
 152   2.0000      -0.885954       -24.1080
 153   2.0000      -0.874077       -23.7848
 154   2.0000      -0.863043       -23.4846
 155   2.0000      -0.861671       -23.4473
 156   2.0000      -0.860189       -23.4069
 157   2.0000      -0.853916       -23.2362
 158   2.0000      -0.850922       -23.1548
 159   2.0000      -0.849045       -23.1037
 160   2.0000      -0.846332       -23.0299
 161   2.0000      -0.837857       -22.7993
 162   2.0000      -0.830173       -22.5902
 163   2.0000      -0.825306       -22.4577
 164   2.0000      -0.811485       -22.0816
 165   2.0000      -0.807922       -21.9847
 166   2.0000      -0.801540       -21.8110
 167   2.0000      -0.797969       -21.7138
 168   2.0000      -0.794627       -21.6229
 169   2.0000      -0.790530       -21.5114
 170   2.0000      -0.787813       -21.4375
 171   2.0000      -0.787418       -21.4267
 172   2.0000      -0.783996       -21.3336
 173   2.0000      -0.771064       -20.9817
 174   2.0000      -0.768874       -20.9221
 175   2.0000      -0.762532       -20.7495
 176   2.0000      -0.757961       -20.6252
 177   2.0000      -0.756754       -20.5923
 178   2.0000      -0.751201       -20.4412
 179   2.0000      -0.746866       -20.3233
 180   2.0000      -0.743148       -20.2221
 181   2.0000      -0.741850       -20.1868
 182   2.0000      -0.736578       -20.0433
 183   2.0000      -0.731707       -19.9108
 184   2.0000      -0.730211       -19.8700
 185   2.0000      -0.726573       -19.7711
 186   2.0000      -0.721084       -19.6217
 187   2.0000      -0.715031       -19.4570
 188   2.0000      -0.713729       -19.4215
 189   2.0000      -0.711978       -19.3739
 190   2.0000      -0.702104       -19.1052
 191   2.0000      -0.697856       -18.9896
 192   2.0000      -0.694535       -18.8992
 193   2.0000      -0.679835       -18.4993
 194   2.0000      -0.678899       -18.4738
 195   2.0000      -0.677981       -18.4488
 196   2.0000      -0.673376       -18.3235
 197   2.0000      -0.667675       -18.1684
 198   2.0000      -0.667342       -18.1593
 199   2.0000      -0.666200       -18.1282
 200   2.0000      -0.663980       -18.0678
 201   2.0000      -0.657535       -17.8924
 202   2.0000      -0.653234       -17.7754
 203   2.0000      -0.649076       -17.6622
 204   2.0000      -0.647922       -17.6309
 205   2.0000      -0.642541       -17.4844
 206   2.0000      -0.641627       -17.4596
 207   2.0000      -0.637769       -17.3546
 208   2.0000      -0.637328       -17.3426
 209   2.0000      -0.634386       -17.2625
 210   2.0000      -0.631105       -17.1732
 211   2.0000      -0.629905       -17.1406
 212   2.0000      -0.628329       -17.0977
 213   2.0000      -0.628062       -17.0904
 214   2.0000      -0.627045       -17.0628
 215   2.0000      -0.626120       -17.0376
 216   2.0000      -0.623268       -16.9600
 217   2.0000      -0.621820       -16.9206
 218   2.0000      -0.617971       -16.8159
 219   2.0000      -0.611819       -16.6484
 220   2.0000      -0.608809       -16.5665
 221   2.0000      -0.606190       -16.4953
 222   2.0000      -0.603406       -16.4195
 223   2.0000      -0.598445       -16.2845
 224   2.0000      -0.595946       -16.2165
 225   2.0000      -0.593993       -16.1634
 226   2.0000      -0.591314       -16.0905
 227   2.0000      -0.589624       -16.0445
 228   2.0000      -0.586317       -15.9545
 229   2.0000      -0.584276       -15.8990
 230   2.0000      -0.580696       -15.8015
 231   2.0000      -0.579853       -15.7786
 232   2.0000      -0.578519       -15.7423
 233   2.0000      -0.577926       -15.7262
 234   2.0000      -0.577635       -15.7183
 235   2.0000      -0.575886       -15.6707
 236   2.0000      -0.573957       -15.6182
 237   2.0000      -0.571459       -15.5502
 238   2.0000      -0.570956       -15.5365
 239   2.0000      -0.569561       -15.4985
 240   2.0000      -0.566183       -15.4066
 241   2.0000      -0.564340       -15.3565
 242   2.0000      -0.563445       -15.3321
 243   2.0000      -0.558226       -15.1901
 244   2.0000      -0.555909       -15.1270
 245   2.0000      -0.554328       -15.0840
 246   2.0000      -0.552879       -15.0446
 247   2.0000      -0.549512       -14.9530
 248   2.0000      -0.545267       -14.8375
 249   2.0000      -0.541975       -14.7479
 250   2.0000      -0.540862       -14.7176
 251   2.0000      -0.538117       -14.6429
 252   2.0000      -0.537688       -14.6312
 253   2.0000      -0.537089       -14.6149
 254   2.0000      -0.535772       -14.5791
 255   2.0000      -0.528172       -14.3723
 256   2.0000      -0.526636       -14.3305
 257   2.0000      -0.523231       -14.2378
 258   2.0000      -0.522873       -14.2281
 259   2.0000      -0.522068       -14.2062
 260   2.0000      -0.517823       -14.0907
 261   2.0000      -0.515363       -14.0237
 262   2.0000      -0.512416       -13.9435
 263   2.0000      -0.507828       -13.8187
 264   2.0000      -0.506541       -13.7837
 265   2.0000      -0.505500       -13.7554
 266   2.0000      -0.504214       -13.7204
 267   2.0000      -0.503593       -13.7035
 268   2.0000      -0.501310       -13.6413
 269   2.0000      -0.498557       -13.5664
 270   2.0000      -0.498152       -13.5554
 271   2.0000      -0.496130       -13.5004
 272   2.0000      -0.492531       -13.4025
 273   2.0000      -0.490731       -13.3535
 274   2.0000      -0.487919       -13.2770
 275   2.0000      -0.485016       -13.1980
 276   2.0000      -0.483440       -13.1551
 277   2.0000      -0.481236       -13.0951
 278   2.0000      -0.478656       -13.0249
 279   2.0000      -0.475987       -12.9523
 280   2.0000      -0.472939       -12.8693
 281   2.0000      -0.471460       -12.8291
 282   2.0000      -0.470239       -12.7959
 283   2.0000      -0.467947       -12.7335
 284   2.0000      -0.466259       -12.6875
 285   2.0000      -0.463335       -12.6080
 286   2.0000      -0.463027       -12.5996
 287   2.0000      -0.460527       -12.5316
 288   2.0000      -0.456752       -12.4289
 289   2.0000      -0.452621       -12.3164
 290   2.0000      -0.451216       -12.2782
 291   2.0000      -0.440030       -11.9738
 292   2.0000      -0.421726       -11.4757
 293   2.0000      -0.403803       -10.9880
 294   2.0000      -0.394876       -10.7451
 295   2.0000      -0.392246       -10.6736
 296   2.0000      -0.375754       -10.2248
 297   2.0000      -0.370670       -10.0864
 298   2.0000      -0.367907       -10.0113
 299   2.0000      -0.366902        -9.9839
 300   2.0000      -0.364037        -9.9060
 301   2.0000      -0.358948        -9.7675
 302   2.0000      -0.355931        -9.6854
 303   2.0000      -0.351798        -9.5729
 304   2.0000      -0.326996        -8.8980
 305   2.0000      -0.287270        -7.8170
 306   2.0000      -0.248398        -6.7592
 307   0.0000      -0.033050        -0.8993
 308   0.0000      -0.023477        -0.6388
 309   0.0000       0.010181         0.2770
 310   0.0000       0.014890         0.4052
 311   0.0000       0.039146         1.0652

MULLIKEN ATOMIC CHARGES
-----------------------
   0 C :    0.525046
   1 O :   -0.397717
   2 C :   -0.170721
   3 C :   -0.035568
   4 C :    0.345790
   5 C :    0.354473
   6 C :   -0.052123
   7 C :   -0.027131
   8 C :    0.256808
   9 C :   -0.380860
  10 C :    0.030332
  11 N :   -0.066095
  12 C :    0.029509
  13 N :   -0.068160
  14 C :   -0.306877
  15 F :   -0.313374
  16 F :   -0.309632
  17 C :    0.471634
  18 O :   -0.350000
  19 C :   -0.159610
  20 C :   -0.027888
  21 C :    0.342852
  22 C :    0.352883
  23 C :   -0.055289
  24 C :   -0.049310
  25 C :    0.247488
  26 C :   -0.384730
  27 C :    0.039624
  28 N :   -0.048351
  29 C :    0.043391
  30 N :   -0.061550
  31 C :   -0.337434
  32 F :   -0.312188
  33 F :   -0.309594
  34 C :    0.168220
  35 C :   -0.228621
  36 C :   -0.018991
  37 C :    0.327215
  38 C :   -0.114411
  39 S :    0.178545
  40 C :   -0.123455
  41 S :    0.209468
  42 C :   -0.003597
  43 C :   -0.046636
  44 C :    0.007983
  45 C :   -0.058675
  46 C :   -0.005137
  47 C :   -0.325114
  48 C :   -0.018577
  49 C :   -0.001539
  50 C :   -0.059570
  51 C :   -0.020173
  52 C :   -0.335332
  53 C :   -0.046770
  54 C :   -0.015957
  55 C :    0.037976
  56 C :   -0.165161
  57 S :    0.176063
  58 C :   -0.084890
  59 S :    0.172591
  60 C :   -0.232001
  61 C :    0.079626
  62 C :   -0.173628
  63 C :    0.237970
  64 O :   -0.585129
  65 C :    0.320537
  66 C :   -0.299708
  67 C :   -0.061545
  68 C :    0.017875
  69 C :   -0.007564
  70 C :    0.023444
  71 C :   -0.008570
  72 C :    0.048599
  73 C :   -0.006384
  74 C :    0.034131
  75 C :   -0.013146
  76 C :    0.036620
  77 C :   -0.007016
  78 C :    0.160169
  79 C :   -0.275730
  80 C :   -0.045321
  81 C :   -0.023347
  82 C :    0.044438
  83 H :    0.075868
  84 H :    0.097584
  85 H :    0.080342
  86 H :    0.092606
  87 H :    0.081714
  88 H :    0.111555
  89 H :    0.047218
  90 H :    0.024490
  91 H :    0.024583
  92 H :    0.045272
  93 H :    0.060313
  94 H :    0.085319
  95 H :    0.039641
  96 H :    0.045006
  97 H :    0.055182
  98 H :    0.031035
  99 H :    0.022199
 100 H :    0.021810
 101 H :    0.031379
 102 H :    0.061646
 103 H :    0.025479
 104 H :    0.027483
 105 H :    0.042660
 106 H :    0.037982
 107 H :    0.030862
 108 H :    0.041828
 109 H :    0.034193
 110 H :    0.041228
 111 H :    0.037678
 112 H :    0.029479
 113 H :    0.039941
 114 H :    0.039213
 115 H :    0.025622
 116 H :    0.027227
 117 H :    0.037936
 118 H :    0.043975
 119 H :    0.033657
 120 H :    0.044042
 121 H :    0.026719
 122 H :    0.040697
 123 H :    0.024492
 124 H :    0.037478
 125 H :    0.042497
 126 H :    0.040246
 127 H :    0.031897
 128 H :    0.049165
 129 H :    0.030574
 130 H :    0.014405
 131 H :    0.067556
 132 H :    0.026156
 133 H :    0.030384
 134 H :    0.019401
 135 H :    0.035320
 136 H :    0.022360
Sum of atomic charges:   -0.0000000

LOEWDIN ATOMIC CHARGES
----------------------
   0 C :    0.176191
   1 O :   -0.243616
   2 C :   -0.052052
   3 C :    0.008603
   4 C :    0.122861
   5 C :    0.124999
   6 C :   -0.001353
   7 C :   -0.022381
   8 C :    0.120070
   9 C :   -0.179703
  10 C :    0.008540
  11 N :   -0.092900
  12 C :    0.012618
  13 N :   -0.094908
  14 C :   -0.168364
  15 F :   -0.111635
  16 F :   -0.109188
  17 C :    0.165353
  18 O :   -0.229342
  19 C :   -0.053715
  20 C :    0.012163
  21 C :    0.121965
  22 C :    0.125859
  23 C :   -0.006165
  24 C :   -0.021365
  25 C :    0.110891
  26 C :   -0.177574
  27 C :    0.017807
  28 N :   -0.074053
  29 C :    0.008202
  30 N :   -0.090232
  31 C :   -0.158852
  32 F :   -0.110579
  33 F :   -0.108787
  34 C :    0.109698
  35 C :   -0.212840
  36 C :    0.000654
  37 C :    0.025071
  38 C :   -0.153027
  39 S :    0.438124
  40 C :   -0.198063
  41 S :    0.468832
  42 C :   -0.165075
  43 C :   -0.049551
  44 C :   -0.021575
  45 C :   -0.035660
  46 C :    0.007321
  47 C :   -0.035304
  48 C :   -0.016813
  49 C :    0.003943
  50 C :   -0.033109
  51 C :   -0.019222
  52 C :   -0.034496
  53 C :   -0.048949
  54 C :   -0.164906
  55 C :   -0.023585
  56 C :   -0.193533
  57 S :    0.416106
  58 C :   -0.139100
  59 S :    0.429698
  60 C :   -0.218585
  61 C :    0.035156
  62 C :   -0.066586
  63 C :    0.117357
  64 O :   -0.181722
  65 C :    0.142119
  66 C :   -0.049449
  67 C :   -0.016771
  68 C :   -0.025100
  69 C :   -0.036376
  70 C :   -0.000990
  71 C :   -0.031632
  72 C :    0.007298
  73 C :   -0.034611
  74 C :    0.000763
  75 C :   -0.031503
  76 C :    0.005404
  77 C :   -0.034405
  78 C :   -0.001104
  79 C :   -0.028625
  80 C :   -0.013967
  81 C :   -0.041681
  82 C :   -0.023224
  83 H :    0.054427
  84 H :    0.055080
  85 H :    0.056473
  86 H :    0.053996
  87 H :    0.045807
  88 H :    0.039704
  89 H :    0.028331
  90 H :    0.025623
  91 H :    0.026098
  92 H :    0.029658
  93 H :    0.031417
  94 H :    0.052909
  95 H :    0.009872
  96 H :    0.019918
  97 H :    0.016333
  98 H :    0.013437
  99 H :    0.009033
 100 H :    0.013016
 101 H :    0.018238
 102 H :    0.020315
 103 H :    0.014580
 104 H :    0.013928
 105 H :    0.005489
 106 H :    0.013315
 107 H :    0.014669
 108 H :    0.018562
 109 H :    0.017580
 110 H :    0.017421
 111 H :    0.020056
 112 H :    0.013510
 113 H :    0.016800
 114 H :    0.021432
 115 H :    0.013096
 116 H :    0.012951
 117 H :    0.013194
 118 H :    0.018117
 119 H :    0.017326
 120 H :    0.019682
 121 H :    0.011943
 122 H :    0.020973
 123 H :    0.012933
 124 H :    0.020977
 125 H :    0.016970
 126 H :    0.024293
 127 H :    0.019260
 128 H :    0.010559
 129 H :    0.014130
 130 H :    0.005476
 131 H :    0.020831
 132 H :    0.014740
 133 H :    0.008362
 134 H :    0.012444
 135 H :    0.018442
 136 H :    0.010509

  Mayer bond orders larger than 0.100000
B(  0-C ,  1-O ) :   1.9873 B(  0-C ,  2-C ) :   0.9848 B(  0-C , 14-C ) :   0.9902
B(  2-C ,  3-C ) :   1.3901 B(  2-C ,  7-C ) :   1.3722 B(  3-C ,  4-C ) :   1.3779
B(  3-C , 83-H ) :   1.0142 B(  4-C ,  5-C ) :   1.3403 B(  4-C , 15-F ) :   0.9341
B(  5-C ,  6-C ) :   1.4019 B(  5-C , 16-F ) :   0.9441 B(  6-C ,  7-C ) :   1.3761
B(  6-C , 84-H ) :   0.9902 B(  7-C ,  8-C ) :   1.0355 B(  8-C ,  9-C ) :   1.6600
B(  8-C , 14-C ) :   1.1300 B(  9-C , 10-C ) :   1.0683 B(  9-C , 12-C ) :   1.0677
B( 10-C , 11-N ) :   2.9775 B( 12-C , 13-N ) :   2.9834 B( 14-C , 34-C ) :   1.5826
B( 17-C , 18-O ) :   2.1023 B( 17-C , 19-C ) :   0.9441 B( 17-C , 31-C ) :   1.0042
B( 19-C , 20-C ) :   1.3915 B( 19-C , 24-C ) :   1.3651 B( 20-C , 21-C ) :   1.3800
B( 20-C , 85-H ) :   1.0130 B( 21-C , 22-C ) :   1.3409 B( 21-C , 32-F ) :   0.9352
B( 22-C , 23-C ) :   1.4012 B( 22-C , 33-F ) :   0.9418 B( 23-C , 24-C ) :   1.3829
B( 23-C , 86-H ) :   0.9934 B( 24-C , 25-C ) :   1.0432 B( 25-C , 26-C ) :   1.6727
B( 25-C , 31-C ) :   1.0960 B( 26-C , 27-C ) :   1.0886 B( 26-C , 29-C ) :   1.0501
B( 27-C , 28-N ) :   2.9773 B( 29-C , 30-N ) :   2.9970 B( 31-C , 63-C ) :   1.6685
B( 34-C , 35-C ) :   1.3062 B( 34-C , 87-H ) :   0.9409 B( 35-C , 36-C ) :   1.3971
B( 35-C , 39-S ) :   1.0805 B( 36-C , 37-C ) :   1.3368 B( 36-C , 88-H ) :   0.9861
B( 37-C , 38-C ) :   1.4180 B( 37-C , 64-O ) :   0.9921 B( 38-C , 39-S ) :   1.1667
B( 38-C , 40-C ) :   1.2310 B( 40-C , 41-S ) :   1.1050 B( 40-C , 44-C ) :   1.5023
B( 41-S , 42-C ) :   1.0859 B( 42-C , 43-C ) :   1.5640 B( 42-C , 45-C ) :   1.1289
B( 43-C , 44-C ) :   1.3779 B( 43-C , 47-C ) :   0.9440 B( 44-C , 89-H ) :   1.0012
B( 45-C , 46-C ) :   1.3988 B( 45-C , 48-C ) :   1.3538 B( 46-C , 47-C ) :   0.9180
B( 46-C , 51-C ) :   1.4860 B( 47-C , 70-C ) :   1.0231 B( 47-C , 72-C ) :   0.9936
B( 48-C , 49-C ) :   1.4886 B( 48-C , 90-H ) :   1.0064 B( 49-C , 50-C ) :   1.3995
B( 49-C , 52-C ) :   0.9187 B( 50-C , 51-C ) :   1.3567 B( 50-C , 54-C ) :   1.1262
B( 51-C , 91-H ) :   1.0074 B( 52-C , 53-C ) :   0.9482 B( 52-C , 74-C ) :   1.0120
B( 52-C , 76-C ) :   1.0024 B( 53-C , 54-C ) :   1.6020 B( 53-C , 55-C ) :   1.3210
B( 54-C , 57-S ) :   1.0829 B( 55-C , 56-C ) :   1.5632 B( 55-C , 92-H ) :   1.0009
B( 56-C , 57-S ) :   1.1082 B( 56-C , 58-C ) :   1.1198 B( 58-C , 59-S ) :   1.1830
B( 58-C , 62-C ) :   1.5616 B( 59-S , 60-C ) :   1.0894 B( 60-C , 61-C ) :   1.4665
B( 60-C , 63-C ) :   1.1854 B( 61-C , 62-C ) :   1.3639 B( 61-C , 93-H ) :   0.9929
B( 62-C , 78-C ) :   0.9932 B( 63-C , 94-H ) :   0.9484 B( 64-O , 65-C ) :   0.8133
B( 65-C , 66-C ) :   0.9568 B( 65-C , 95-H ) :   0.9923 B( 65-C , 96-H ) :   0.9757
B( 66-C , 67-C ) :   1.0093 B( 66-C , 68-C ) :   1.0289 B( 66-C , 97-H ) :   0.9666
B( 67-C , 69-C ) :   1.0428 B( 67-C , 98-H ) :   0.9798 B( 67-C , 99-H ) :   0.9702
B( 68-C ,100-H ) :   0.9783 B( 68-C ,101-H ) :   0.9839 B( 68-C ,102-H ) :   0.9837
B( 69-C ,103-H ) :   0.9833 B( 69-C ,104-H ) :   0.9865 B( 69-C ,105-H ) :   0.9825
B( 70-C , 71-C ) :   1.0412 B( 70-C ,106-H ) :   0.9713 B( 70-C ,107-H ) :   0.9719
B( 71-C ,108-H ) :   0.9819 B( 71-C ,109-H ) :   0.9870 B( 71-C ,110-H ) :   0.9810
B( 72-C , 73-C ) :   1.0499 B( 72-C ,111-H ) :   0.9700 B( 72-C ,112-H ) :   0.9701
B( 73-C ,113-H ) :   0.9798 B( 73-C ,114-H ) :   0.9850 B( 73-C ,115-H ) :   0.9825
B( 74-C , 75-C ) :   1.0394 B( 74-C ,116-H ) :   0.9726 B( 74-C ,117-H ) :   0.9722
B( 75-C ,118-H ) :   0.9806 B( 75-C ,119-H ) :   0.9871 B( 75-C ,120-H ) :   0.9826
B( 76-C , 77-C ) :   1.0518 B( 76-C ,121-H ) :   0.9692 B( 76-C ,122-H ) :   0.9712
B( 77-C ,123-H ) :   0.9824 B( 77-C ,124-H ) :   0.9844 B( 77-C ,125-H ) :   0.9796
B( 78-C , 79-C ) :   0.9693 B( 78-C ,126-H ) :   0.9641 B( 78-C ,127-H ) :   0.9582
B( 79-C , 80-C ) :   1.0040 B( 79-C , 82-C ) :   1.0342 B( 79-C ,128-H ) :   0.9710
B( 80-C , 81-C ) :   1.0499 B( 80-C ,129-H ) :   0.9759 B( 80-C ,130-H ) :   0.9696
B( 81-C ,131-H ) :   0.9738 B( 81-C ,132-H ) :   0.9842 B( 81-C ,133-H ) :   0.9820
B( 82-C ,134-H ) :   0.9802 B( 82-C ,135-H ) :   0.9868 B( 82-C ,136-H ) :   0.9861

-----------------------------------------------------------------------------
         ABSORPTION SPECTRUM VIA TRANSITION ELECTRIC DIPOLE MOMENTS
-----------------------------------------------------------------------------
State   Energy    Wavelength  fosc         T2        TX        TY        TZ
        (cm-1)      (nm)                 (au**2)    (au)      (au)      (au)
-----------------------------------------------------------------------------
   1   19922.5    501.9   3.211355690  53.06659   6.04075   0.44849  -4.04657
   2   23968.4    417.2   0.272109400   3.73750   1.19557   1.51720   0.07880
   3   31554.8    316.9   0.082234188   0.85795   0.31709   0.87018   0.01362

FINAL SINGLE POINT ENERGY     -5033.344315873445

DIPOLE MOMENT
-------------
                                X             Y             Z
Electronic contribution:      4.96522      62.02831      56.87032
Nuclear contribution   :     -5.09494     -62.37728     -60.84653
                        -----------------------------------------
Total Dipole Moment    :     -0.12972      -0.34897      -3.97620
                        -----------------------------------------
Magnitude (a.u.)       :      3.99360
Magnitude (Debye)      :     10.15091

Rotational constants in cm-1:     0.001734     0.000154     0.000152
Rotational constants in MHz :    51.970813     4.615705     4.562649

                             ****ORCA TERMINATED NORMALLY****
TOTAL RUN TIME: 0 days 21 hours 17 minutes 22 seconds 492 msec
