                         Program Version 4.2.0 -  RELEASE  -
|  1> # ORCA input file
|  2> # o-IO2.out
|  3> ! Engrad Keepdens
|  4> %maxcore 1000
|  5> %tddft
|  6>   nroots 3
|  7>   # nroots is the number of states to be computed
|  8>   Iroot 1
|  9>   end
| 10> * xyz 0 1
| 11>    C        5.29102         2.08471         3.41045
| 12>    O        6.47109         1.81946         3.52963
| 13>    C        4.35132         2.27932         4.53777
| 14>    C        4.60818         2.15563         5.88855
| 15>    C        3.55734         2.37337         6.76443
| 16>    C        2.29146         2.70656         6.28396
| 17>    C        2.03641         2.83601         4.92655
| 18>    C        3.08282         2.61847         4.04404
| 19>    C        3.15117         2.67062         2.58302
| 20>    C        2.11962         3.06855         1.77111
| 21>    C        2.16151         3.20760         0.36736
| 22>    N        2.09778         3.36786        -0.76833
| 23>    C        0.84092         3.43372         2.24322
| 24>    N       -0.22065         3.73874         2.55562
| 25>    C        4.49046         2.27619         2.18787
| 26>    F        3.75844         2.25880         8.08368
| 27>    F        1.29232         2.90612         7.15159
| 28>    C       12.46029       -11.59010       -14.32210
| 29>    O       13.08888       -12.01669       -13.38117
| 30>    C       11.89274       -12.36101       -15.45439
| 31>    C       11.88042       -13.72743       -15.64949
| 32>    C       11.23686       -14.21038       -16.77911
| 33>    C       10.63156       -13.33727       -17.68217
| 34>    C       10.65515       -11.96236       -17.49329
| 35>    C       11.29250       -11.47444       -16.36500
| 36>    C       11.50203       -10.10347       -15.89149
| 37>    C       11.42195        -8.98184       -16.68097
| 38>    C       11.89671        -7.71586       -16.28669
| 39>    N       12.28639        -6.66817       -16.02383
| 40>    C       10.91619        -8.97449       -17.99521
| 41>    N       10.47802        -8.89831       -19.05390
| 42>    C       12.04021       -10.18809       -14.56059
| 43>    F       11.19382       -15.52986       -17.00361
| 44>    F       10.00479       -13.83250       -18.75603
| 45>    C        4.85048         2.04150         0.87917
| 46>    C        6.05861         1.62702         0.30641
| 47>    C        7.33411         1.42275         0.81997
| 48>    C        8.24647         0.94749        -0.11450
| 49>    C        7.68580         0.77257        -1.39604
| 50>    S        6.02512         1.24358        -1.40471
| 51>    C        8.30724         0.22740        -2.54118
| 52>    S        7.42708         0.14176        -4.05733
| 53>    C        8.74098        -0.69201        -4.77651
| 54>    C        9.80116        -0.87884        -3.90013
| 55>    C        9.56488        -0.35515        -2.63676
| 56>    C        9.01373        -1.29817        -6.03757
| 57>    C       10.28425        -1.91728        -5.93516
| 58>    C       10.88287        -1.69892        -4.55625
| 59>    C        8.24875        -1.34535        -7.20123
| 60>    C        8.75591        -2.05208        -8.26543
| 61>    C       10.00332        -2.71365        -8.14775
| 62>    C       10.79438        -2.61661        -7.00391
| 63>    C        8.13195        -2.31183        -9.62385
| 64>    C        9.08592        -3.33480       -10.18221
| 65>    C       10.16934        -3.49741        -9.32863
| 66>    C        9.13368        -4.16086       -11.29501
| 67>    C       10.24794        -4.99084       -11.27998
| 68>    S       11.26983        -4.69041        -9.88503
| 69>    C       10.54843        -6.04302       -12.17319
| 70>    S       11.82943        -7.16133       -11.87275
| 71>    C       11.42842        -8.10792       -13.28465
| 72>    C       10.33345        -7.55238       -13.93835
| 73>    C        9.84434        -6.39688       -13.34021
| 74>    C       12.12436        -9.30003       -13.51682
| 75>    O        9.54459         0.65574         0.09233
| 76>    C       10.07686         0.90634         1.38539
| 77>    C       11.56666         0.56015         1.35703
| 78>    C       12.31168         1.49991         0.41226
| 79>    C       12.14264         0.63368         2.76748
| 80>    C       12.21994        -0.94454        -4.62846
| 81>    C       12.07778         0.43452        -5.26239
| 82>    C       11.00813        -3.00809        -3.74207
| 83>    C       11.96173        -4.05958        -4.29369
| 84>    C        6.69945        -2.85360        -9.52070
| 85>    C        6.62449        -4.15995        -8.73853
| 86>    C        8.20794        -1.06228       -10.53348
| 87>    C        7.44758         0.15857       -10.03389
| 88>    O        8.81790        -5.63859       -13.76901
| 89>    C        8.37752        -5.82541       -15.10695
| 90>    C        7.54682        -4.60485       -15.50848
| 91>    C        8.42718        -3.35812       -15.53958
| 92>    C        6.89404        -4.84650       -16.86568
| 93>    H        5.58872         1.89421         6.25353
| 94>    H        1.03965         3.09371         4.60962
| 95>    H       12.34996       -14.40147       -14.95073
| 96>    H       10.17035       -11.32711       -18.21700
| 97>    H        4.05712         2.15161         0.14956
| 98>    H        7.55602         1.60987         1.85345
| 99>    H       10.23895        -0.39557        -1.80279
|100>    H        7.28448        -0.86250        -7.23179
|101>    H       11.76098        -3.09390        -6.97825
|102>    H        8.39418        -4.21196       -12.07077
|103>    H        9.86891        -8.01870       -14.78702
|104>    H       12.75043        -9.64140       -12.69806
|105>    H        9.55507         0.28918         2.12748
|106>    H        9.93875         1.96259         1.64817
|107>    H       11.66082        -0.46506         0.98333
|108>    H       12.27002         2.52110         0.78512
|109>    H       11.86404         1.47581        -0.57808
|110>    H       13.35494         1.20596         0.32964
|111>    H       12.03220         1.63810         3.16986
|112>    H       13.20013         0.38377         2.75343
|113>    H       11.63337        -0.06063         3.43143
|114>    H       12.92714        -1.53283        -5.21401
|115>    H       12.61733        -0.84108        -3.61661
|116>    H       11.67465         0.35387        -6.26965
|117>    H       13.04847         0.92152        -5.31840
|118>    H       11.41201         1.06335        -4.67541
|119>    H       10.01096        -3.44823        -3.65930
|120>    H       11.32962        -2.73065        -2.73550
|121>    H       11.59870        -4.46237        -5.23456
|122>    H       12.03352        -4.88146        -3.58450
|123>    H       12.95949        -3.65510        -4.44048
|124>    H        6.31321        -3.01026       -10.52988
|125>    H        6.07185        -2.10948        -9.03002
|126>    H        7.20200        -4.93949        -9.23034
|127>    H        5.59192        -4.49277        -8.66568
|128>    H        7.01516        -4.02668        -7.73193
|129>    H        7.82810        -1.34722       -11.51729
|130>    H        9.26166        -0.79593       -10.65004
|131>    H        6.38940        -0.05485        -9.91055
|132>    H        7.54564         0.96373       -10.75871
|133>    H        7.85102         0.50618        -9.08679
|134>    H        7.76995        -6.73826       -15.17260
|135>    H        9.24270        -5.92445       -15.77397
|136>    H        6.76681        -4.47130       -14.75137
|137>    H        9.18952        -3.45468       -16.30952
|138>    H        8.92155        -3.21784       -14.58143
|139>    H        7.82844        -2.47672       -15.75448
|140>    H        7.65318        -5.01918       -17.62527
|141>    H        6.30702        -3.98003       -17.15784
|142>    H        6.23630        -5.71196       -16.83272
|143> *
|144>
|145>                          ****END OF INPUT****

CARTESIAN COORDINATES (ANGSTROEM)
---------------------------------
  C      5.291020    2.084710    3.410450
  O      6.471090    1.819460    3.529630
  C      4.351320    2.279320    4.537770
  C      4.608180    2.155630    5.888550
  C      3.557340    2.373370    6.764430
  C      2.291460    2.706560    6.283960
  C      2.036410    2.836010    4.926550
  C      3.082820    2.618470    4.044040
  C      3.151170    2.670620    2.583020
  C      2.119620    3.068550    1.771110
  C      2.161510    3.207600    0.367360
  N      2.097780    3.367860   -0.768330
  C      0.840920    3.433720    2.243220
  N     -0.220650    3.738740    2.555620
  C      4.490460    2.276190    2.187870
  F      3.758440    2.258800    8.083680
  F      1.292320    2.906120    7.151590
  C     12.460290  -11.590100  -14.322100
  O     13.088880  -12.016690  -13.381170
  C     11.892740  -12.361010  -15.454390
  C     11.880420  -13.727430  -15.649490
  C     11.236860  -14.210380  -16.779110
  C     10.631560  -13.337270  -17.682170
  C     10.655150  -11.962360  -17.493290
  C     11.292500  -11.474440  -16.365000
  C     11.502030  -10.103470  -15.891490
  C     11.421950   -8.981840  -16.680970
  C     11.896710   -7.715860  -16.286690
  N     12.286390   -6.668170  -16.023830
  C     10.916190   -8.974490  -17.995210
  N     10.478020   -8.898310  -19.053900
  C     12.040210  -10.188090  -14.560590
  F     11.193820  -15.529860  -17.003610
  F     10.004790  -13.832500  -18.756030
  C      4.850480    2.041500    0.879170
  C      6.058610    1.627020    0.306410
  C      7.334110    1.422750    0.819970
  C      8.246470    0.947490   -0.114500
  C      7.685800    0.772570   -1.396040
  S      6.025120    1.243580   -1.404710
  C      8.307240    0.227400   -2.541180
  S      7.427080    0.141760   -4.057330
  C      8.740980   -0.692010   -4.776510
  C      9.801160   -0.878840   -3.900130
  C      9.564880   -0.355150   -2.636760
  C      9.013730   -1.298170   -6.037570
  C     10.284250   -1.917280   -5.935160
  C     10.882870   -1.698920   -4.556250
  C      8.248750   -1.345350   -7.201230
  C      8.755910   -2.052080   -8.265430
  C     10.003320   -2.713650   -8.147750
  C     10.794380   -2.616610   -7.003910
  C      8.131950   -2.311830   -9.623850
  C      9.085920   -3.334800  -10.182210
  C     10.169340   -3.497410   -9.328630
  C      9.133680   -4.160860  -11.295010
  C     10.247940   -4.990840  -11.279980
  S     11.269830   -4.690410   -9.885030
  C     10.548430   -6.043020  -12.173190
  S     11.829430   -7.161330  -11.872750
  C     11.428420   -8.107920  -13.284650
  C     10.333450   -7.552380  -13.938350
  C      9.844340   -6.396880  -13.340210
  C     12.124360   -9.300030  -13.516820
  O      9.544590    0.655740    0.092330
  C     10.076860    0.906340    1.385390
  C     11.566660    0.560150    1.357030
  C     12.311680    1.499910    0.412260
  C     12.142640    0.633680    2.767480
  C     12.219940   -0.944540   -4.628460
  C     12.077780    0.434520   -5.262390
  C     11.008130   -3.008090   -3.742070
  C     11.961730   -4.059580   -4.293690
  C      6.699450   -2.853600   -9.520700
  C      6.624490   -4.159950   -8.738530
  C      8.207940   -1.062280  -10.533480
  C      7.447580    0.158570  -10.033890
  O      8.817900   -5.638590  -13.769010
  C      8.377520   -5.825410  -15.106950
  C      7.546820   -4.604850  -15.508480
  C      8.427180   -3.358120  -15.539580
  C      6.894040   -4.846500  -16.865680
  H      5.588720    1.894210    6.253530
  H      1.039650    3.093710    4.609620
  H     12.349960  -14.401470  -14.950730
  H     10.170350  -11.327110  -18.217000
  H      4.057120    2.151610    0.149560
  H      7.556020    1.609870    1.853450
  H     10.238950   -0.395570   -1.802790
  H      7.284480   -0.862500   -7.231790
  H     11.760980   -3.093900   -6.978250
  H      8.394180   -4.211960  -12.070770
  H      9.868910   -8.018700  -14.787020
  H     12.750430   -9.641400  -12.698060
  H      9.555070    0.289180    2.127480
  H      9.938750    1.962590    1.648170
  H     11.660820   -0.465060    0.983330
  H     12.270020    2.521100    0.785120
  H     11.864040    1.475810   -0.578080
  H     13.354940    1.205960    0.329640
  H     12.032200    1.638100    3.169860
  H     13.200130    0.383770    2.753430
  H     11.633370   -0.060630    3.431430
  H     12.927140   -1.532830   -5.214010
  H     12.617330   -0.841080   -3.616610
  H     11.674650    0.353870   -6.269650
  H     13.048470    0.921520   -5.318400
  H     11.412010    1.063350   -4.675410
  H     10.010960   -3.448230   -3.659300
  H     11.329620   -2.730650   -2.735500
  H     11.598700   -4.462370   -5.234560
  H     12.033520   -4.881460   -3.584500
  H     12.959490   -3.655100   -4.440480
  H      6.313210   -3.010260  -10.529880
  H      6.071850   -2.109480   -9.030020
  H      7.202000   -4.939490   -9.230340
  H      5.591920   -4.492770   -8.665680
  H      7.015160   -4.026680   -7.731930
  H      7.828100   -1.347220  -11.517290
  H      9.261660   -0.795930  -10.650040
  H      6.389400   -0.054850   -9.910550
  H      7.545640    0.963730  -10.758710
  H      7.851020    0.506180   -9.086790
  H      7.769950   -6.738260  -15.172600
  H      9.242700   -5.924450  -15.773970
  H      6.766810   -4.471300  -14.751370
  H      9.189520   -3.454680  -16.309520
  H      8.921550   -3.217840  -14.581430
  H      7.828440   -2.476720  -15.754480
  H      7.653180   -5.019180  -17.625270
  H      6.307020   -3.980030  -17.157840
  H      6.236300   -5.711960  -16.832720

 Total Charge           Charge          ....    0
 Multiplicity           Mult            ....    1
 Number of Electrons    NEL             ....  606
 Basis Dimension        Dim             .... 1414

ORBITAL ENERGIES
----------------

  NO   OCC          E(Eh)            E(eV)
   0   2.0000     -91.983250     -2502.9915
   1   2.0000     -91.981592     -2502.9464
   2   2.0000     -91.974689     -2502.7585
   3   2.0000     -91.974567     -2502.7552
   4   2.0000     -26.335095      -716.6144
   5   2.0000     -26.334857      -716.6079
   6   2.0000     -26.334253      -716.5915
   7   2.0000     -26.332585      -716.5461
   8   2.0000     -20.606262      -560.7249
   9   2.0000     -20.605785      -560.7119
  10   2.0000     -20.572422      -559.8041
  11   2.0000     -20.565358      -559.6118
  12   2.0000     -15.593614      -424.3238
  13   2.0000     -15.592758      -424.3005
  14   2.0000     -15.590757      -424.2461
  15   2.0000     -15.586487      -424.1299
  16   2.0000     -11.378260      -309.6182
  17   2.0000     -11.377516      -309.5980
  18   2.0000     -11.377015      -309.5843
  19   2.0000     -11.376049      -309.5580
  20   2.0000     -11.371347      -309.4301
  21   2.0000     -11.364297      -309.2382
  22   2.0000     -11.345313      -308.7217
  23   2.0000     -11.341989      -308.6312
  24   2.0000     -11.333142      -308.3905
  25   2.0000     -11.331567      -308.3476
  26   2.0000     -11.323138      -308.1183
  27   2.0000     -11.322826      -308.1098
  28   2.0000     -11.321575      -308.0757
  29   2.0000     -11.318605      -307.9949
  30   2.0000     -11.317970      -307.9776
  31   2.0000     -11.316858      -307.9474
  32   2.0000     -11.309162      -307.7379
  33   2.0000     -11.308469      -307.7191
  34   2.0000     -11.304654      -307.6153
  35   2.0000     -11.304472      -307.6103
  36   2.0000     -11.302512      -307.5570
  37   2.0000     -11.301389      -307.5264
  38   2.0000     -11.301313      -307.5244
  39   2.0000     -11.298739      -307.4543
  40   2.0000     -11.297873      -307.4308
  41   2.0000     -11.297799      -307.4287
  42   2.0000     -11.297117      -307.4102
  43   2.0000     -11.296959      -307.4059
  44   2.0000     -11.296425      -307.3914
  45   2.0000     -11.295988      -307.3795
  46   2.0000     -11.295262      -307.3597
  47   2.0000     -11.294196      -307.3307
  48   2.0000     -11.289865      -307.2128
  49   2.0000     -11.288967      -307.1884
  50   2.0000     -11.288036      -307.1631
  51   2.0000     -11.285290      -307.0884
  52   2.0000     -11.284561      -307.0685
  53   2.0000     -11.278690      -306.9088
  54   2.0000     -11.276216      -306.8414
  55   2.0000     -11.273055      -306.7554
  56   2.0000     -11.268292      -306.6258
  57   2.0000     -11.268077      -306.6200
  58   2.0000     -11.267656      -306.6085
  59   2.0000     -11.266231      -306.5697
  60   2.0000     -11.265395      -306.5470
  61   2.0000     -11.263818      -306.5041
  62   2.0000     -11.261737      -306.4474
  63   2.0000     -11.261193      -306.4327
  64   2.0000     -11.260405      -306.4112
  65   2.0000     -11.259859      -306.3963
  66   2.0000     -11.252298      -306.1906
  67   2.0000     -11.251960      -306.1814
  68   2.0000     -11.249221      -306.1069
  69   2.0000     -11.245919      -306.0170
  70   2.0000     -11.245494      -306.0055
  71   2.0000     -11.244555      -305.9799
  72   2.0000     -11.243698      -305.9566
  73   2.0000     -11.243593      -305.9537
  74   2.0000     -11.237142      -305.7782
  75   2.0000     -11.233117      -305.6687
  76   2.0000     -11.232420      -305.6497
  77   2.0000     -11.231932      -305.6364
  78   2.0000     -11.229690      -305.5754
  79   2.0000     -11.226259      -305.4820
  80   2.0000     -11.226068      -305.4769
  81   2.0000     -11.225852      -305.4710
  82   2.0000      -9.019143      -245.4234
  83   2.0000      -9.017525      -245.3793
  84   2.0000      -9.010267      -245.1818
  85   2.0000      -9.010086      -245.1769
  86   2.0000      -6.706602      -182.4959
  87   2.0000      -6.705518      -182.4664
  88   2.0000      -6.704954      -182.4511
  89   2.0000      -6.703836      -182.4207
  90   2.0000      -6.703620      -182.4148
  91   2.0000      -6.701970      -182.3699
  92   2.0000      -6.697834      -182.2573
  93   2.0000      -6.697663      -182.2527
  94   2.0000      -6.696844      -182.2304
  95   2.0000      -6.696687      -182.2261
  96   2.0000      -6.694917      -182.1779
  97   2.0000      -6.694751      -182.1734
  98   2.0000      -1.644481       -44.7486
  99   2.0000      -1.643775       -44.7294
 100   2.0000      -1.629619       -44.3442
 101   2.0000      -1.628839       -44.3230
 102   2.0000      -1.430469       -38.9250
 103   2.0000      -1.430403       -38.9232
 104   2.0000      -1.404228       -38.2110
 105   2.0000      -1.398343       -38.0508
 106   2.0000      -1.255671       -34.1686
 107   2.0000      -1.252550       -34.0836
 108   2.0000      -1.237013       -33.6608
 109   2.0000      -1.233080       -33.5538
 110   2.0000      -1.231983       -33.5240
 111   2.0000      -1.230180       -33.4749
 112   2.0000      -1.226933       -33.3866
 113   2.0000      -1.224814       -33.3289
 114   2.0000      -1.213877       -33.0313
 115   2.0000      -1.208368       -32.8814
 116   2.0000      -1.175426       -31.9850
 117   2.0000      -1.172303       -31.9000
 118   2.0000      -1.167027       -31.7564
 119   2.0000      -1.145790       -31.1785
 120   2.0000      -1.113545       -30.3011
 121   2.0000      -1.110898       -30.2291
 122   2.0000      -1.107817       -30.1452
 123   2.0000      -1.100925       -29.9577
 124   2.0000      -1.100830       -29.9551
 125   2.0000      -1.093379       -29.7524
 126   2.0000      -1.089763       -29.6540
 127   2.0000      -1.079743       -29.3813
 128   2.0000      -1.073624       -29.2148
 129   2.0000      -1.072038       -29.1716
 130   2.0000      -1.054341       -28.6901
 131   2.0000      -1.035413       -28.1750
 132   2.0000      -1.029660       -28.0185
 133   2.0000      -1.027736       -27.9661
 134   2.0000      -1.026730       -27.9387
 135   2.0000      -1.023607       -27.8538
 136   2.0000      -1.022249       -27.8168
 137   2.0000      -1.010460       -27.4960
 138   2.0000      -1.008646       -27.4466
 139   2.0000      -1.004238       -27.3267
 140   2.0000      -0.975157       -26.5354
 141   2.0000      -0.968521       -26.3548
 142   2.0000      -0.951009       -25.8783
 143   2.0000      -0.944960       -25.7137
 144   2.0000      -0.943536       -25.6749
 145   2.0000      -0.942777       -25.6543
 146   2.0000      -0.941871       -25.6296
 147   2.0000      -0.937578       -25.5128
 148   2.0000      -0.929904       -25.3040
 149   2.0000      -0.927891       -25.2492
 150   2.0000      -0.917779       -24.9740
 151   2.0000      -0.899991       -24.4900
 152   2.0000      -0.883717       -24.0472
 153   2.0000      -0.871964       -23.7273
 154   2.0000      -0.861318       -23.4377
 155   2.0000      -0.859539       -23.3892
 156   2.0000      -0.852690       -23.2029
 157   2.0000      -0.848658       -23.0932
 158   2.0000      -0.847454       -23.0604
 159   2.0000      -0.835488       -22.7348
 160   2.0000      -0.830265       -22.5927
 161   2.0000      -0.828776       -22.5522
 162   2.0000      -0.815333       -22.1863
 163   2.0000      -0.807084       -21.9619
 164   2.0000      -0.805274       -21.9126
 165   2.0000      -0.799181       -21.7468
 166   2.0000      -0.797745       -21.7078
 167   2.0000      -0.796939       -21.6858
 168   2.0000      -0.787213       -21.4212
 169   2.0000      -0.786112       -21.3912
 170   2.0000      -0.779979       -21.2243
 171   2.0000      -0.777755       -21.1638
 172   2.0000      -0.769663       -20.9436
 173   2.0000      -0.767798       -20.8928
 174   2.0000      -0.765948       -20.8425
 175   2.0000      -0.755775       -20.5657
 176   2.0000      -0.751862       -20.4592
 177   2.0000      -0.748495       -20.3676
 178   2.0000      -0.741869       -20.1873
 179   2.0000      -0.741112       -20.1667
 180   2.0000      -0.739964       -20.1354
 181   2.0000      -0.735658       -20.0183
 182   2.0000      -0.730556       -19.8794
 183   2.0000      -0.726709       -19.7747
 184   2.0000      -0.721856       -19.6427
 185   2.0000      -0.717770       -19.5315
 186   2.0000      -0.713744       -19.4220
 187   2.0000      -0.712995       -19.4016
 188   2.0000      -0.711702       -19.3664
 189   2.0000      -0.699733       -19.0407
 190   2.0000      -0.698055       -18.9950
 191   2.0000      -0.695995       -18.9390
 192   2.0000      -0.693845       -18.8805
 193   2.0000      -0.692139       -18.8340
 194   2.0000      -0.676749       -18.4153
 195   2.0000      -0.672357       -18.2958
 196   2.0000      -0.671086       -18.2612
 197   2.0000      -0.666410       -18.1339
 198   2.0000      -0.665855       -18.1188
 199   2.0000      -0.661562       -18.0020
 200   2.0000      -0.657616       -17.8946
 201   2.0000      -0.655182       -17.8284
 202   2.0000      -0.651938       -17.7401
 203   2.0000      -0.648937       -17.6585
 204   2.0000      -0.644521       -17.5383
 205   2.0000      -0.641784       -17.4638
 206   2.0000      -0.637198       -17.3390
 207   2.0000      -0.635323       -17.2880
 208   2.0000      -0.633830       -17.2474
 209   2.0000      -0.631810       -17.1924
 210   2.0000      -0.630798       -17.1649
 211   2.0000      -0.629376       -17.1262
 212   2.0000      -0.627957       -17.0876
 213   2.0000      -0.626145       -17.0383
 214   2.0000      -0.625735       -17.0271
 215   2.0000      -0.625423       -17.0186
 216   2.0000      -0.625083       -17.0094
 217   2.0000      -0.622850       -16.9486
 218   2.0000      -0.619029       -16.8446
 219   2.0000      -0.613454       -16.6929
 220   2.0000      -0.609071       -16.5737
 221   2.0000      -0.605078       -16.4650
 222   2.0000      -0.600458       -16.3393
 223   2.0000      -0.595013       -16.1911
 224   2.0000      -0.590626       -16.0717
 225   2.0000      -0.587029       -15.9739
 226   2.0000      -0.585581       -15.9345
 227   2.0000      -0.580416       -15.7939
 228   2.0000      -0.579467       -15.7681
 229   2.0000      -0.578028       -15.7289
 230   2.0000      -0.577004       -15.7011
 231   2.0000      -0.576648       -15.6914
 232   2.0000      -0.575967       -15.6729
 233   2.0000      -0.574029       -15.6201
 234   2.0000      -0.573126       -15.5955
 235   2.0000      -0.571704       -15.5568
 236   2.0000      -0.571098       -15.5404
 237   2.0000      -0.564833       -15.3699
 238   2.0000      -0.564194       -15.3525
 239   2.0000      -0.562644       -15.3103
 240   2.0000      -0.562313       -15.3013
 241   2.0000      -0.558526       -15.1983
 242   2.0000      -0.555296       -15.1104
 243   2.0000      -0.553185       -15.0529
 244   2.0000      -0.551901       -15.0180
 245   2.0000      -0.550902       -14.9908
 246   2.0000      -0.548732       -14.9317
 247   2.0000      -0.545370       -14.8403
 248   2.0000      -0.542868       -14.7722
 249   2.0000      -0.538524       -14.6540
 250   2.0000      -0.536410       -14.5965
 251   2.0000      -0.533142       -14.5075
 252   2.0000      -0.531414       -14.4605
 253   2.0000      -0.528156       -14.3719
 254   2.0000      -0.525872       -14.3097
 255   2.0000      -0.525569       -14.3015
 256   2.0000      -0.522819       -14.2266
 257   2.0000      -0.522031       -14.2052
 258   2.0000      -0.520520       -14.1641
 259   2.0000      -0.519755       -14.1433
 260   2.0000      -0.517296       -14.0763
 261   2.0000      -0.506880       -13.7929
 262   2.0000      -0.505594       -13.7579
 263   2.0000      -0.505006       -13.7419
 264   2.0000      -0.502986       -13.6869
 265   2.0000      -0.501260       -13.6400
 266   2.0000      -0.500900       -13.6302
 267   2.0000      -0.498617       -13.5681
 268   2.0000      -0.497327       -13.5330
 269   2.0000      -0.494344       -13.4518
 270   2.0000      -0.492888       -13.4122
 271   2.0000      -0.488754       -13.2997
 272   2.0000      -0.488168       -13.2837
 273   2.0000      -0.486990       -13.2517
 274   2.0000      -0.485602       -13.2139
 275   2.0000      -0.484978       -13.1969
 276   2.0000      -0.481602       -13.1051
 277   2.0000      -0.479619       -13.0511
 278   2.0000      -0.476390       -12.9632
 279   2.0000      -0.473676       -12.8894
 280   2.0000      -0.472460       -12.8563
 281   2.0000      -0.470384       -12.7998
 282   2.0000      -0.469936       -12.7876
 283   2.0000      -0.467562       -12.7230
 284   2.0000      -0.464752       -12.6465
 285   2.0000      -0.450953       -12.2710
 286   2.0000      -0.450745       -12.2654
 287   2.0000      -0.440553       -11.9880
 288   2.0000      -0.423193       -11.5157
 289   2.0000      -0.402576       -10.9546
 290   2.0000      -0.393775       -10.7152
 291   2.0000      -0.390990       -10.6394
 292   2.0000      -0.375659       -10.2222
 293   2.0000      -0.373821       -10.1722
 294   2.0000      -0.368537       -10.0284
 295   2.0000      -0.365878        -9.9560
 296   2.0000      -0.362519        -9.8647
 297   2.0000      -0.358003        -9.7417
 298   2.0000      -0.356079        -9.6894
 299   2.0000      -0.351466        -9.5639
 300   2.0000      -0.325973        -8.8702
 301   2.0000      -0.280854        -7.6424
 302   2.0000      -0.245158        -6.6711
 303   0.0000      -0.035216        -0.9583
 304   0.0000      -0.024476        -0.6660
 305   0.0000       0.011003         0.2994
 306   0.0000       0.015253         0.4150
 307   0.0000       0.041492         1.1291

MULLIKEN ATOMIC CHARGES
-----------------------
   0 C :    0.521959
   1 O :   -0.391809
   2 C :   -0.172024
   3 C :   -0.035559
   4 C :    0.345932
   5 C :    0.354229
   6 C :   -0.052302
   7 C :   -0.027590
   8 C :    0.256363
   9 C :   -0.379767
  10 C :    0.028529
  11 N :   -0.064243
  12 C :    0.029596
  13 N :   -0.068265
  14 C :   -0.304317
  15 F :   -0.313476
  16 F :   -0.309797
  17 C :    0.471284
  18 O :   -0.353063
  19 C :   -0.158898
  20 C :   -0.028905
  21 C :    0.342186
  22 C :    0.352501
  23 C :   -0.057397
  24 C :   -0.048461
  25 C :    0.248554
  26 C :   -0.397335
  27 C :    0.030198
  28 N :   -0.051050
  29 C :    0.042179
  30 N :   -0.065357
  31 C :   -0.341421
  32 F :   -0.312946
  33 F :   -0.310439
  34 C :    0.168613
  35 C :   -0.223714
  36 C :   -0.033464
  37 C :    0.332206
  38 C :   -0.113547
  39 S :    0.184337
  40 C :   -0.143022
  41 S :    0.172865
  42 C :   -0.005925
  43 C :   -0.036764
  44 C :    0.029004
  45 C :   -0.069047
  46 C :    0.004751
  47 C :   -0.334101
  48 C :   -0.017825
  49 C :   -0.006382
  50 C :   -0.058143
  51 C :   -0.019524
  52 C :   -0.325051
  53 C :   -0.039927
  54 C :   -0.009202
  55 C :    0.026564
  56 C :   -0.140038
  57 S :    0.168743
  58 C :   -0.115362
  59 S :    0.194191
  60 C :   -0.207896
  61 C :   -0.017207
  62 C :    0.328534
  63 C :    0.231734
  64 O :   -0.577183
  65 C :    0.284110
  66 C :   -0.248120
  67 C :    0.005035
  68 C :    0.006833
  69 C :    0.033432
  70 C :   -0.012924
  71 C :    0.036845
  72 C :   -0.005842
  73 C :    0.024010
  74 C :   -0.009003
  75 C :    0.046947
  76 C :   -0.006489
  77 O :   -0.578261
  78 C :    0.285290
  79 C :   -0.253231
  80 C :    0.001615
  81 C :    0.004657
  82 H :    0.075766
  83 H :    0.097226
  84 H :    0.079859
  85 H :    0.092107
  86 H :    0.082938
  87 H :    0.110674
  88 H :    0.066151
  89 H :    0.025528
  90 H :    0.025857
  91 H :    0.067126
  92 H :    0.074349
  93 H :    0.083004
  94 H :    0.044376
  95 H :    0.031895
  96 H :    0.041969
  97 H :    0.024026
  98 H :    0.043407
  99 H :    0.034314
 100 H :    0.029004
 101 H :    0.039630
 102 H :    0.034913
 103 H :    0.038550
 104 H :    0.029138
 105 H :    0.043242
 106 H :    0.033374
 107 H :    0.044195
 108 H :    0.039994
 109 H :    0.028121
 110 H :    0.038988
 111 H :    0.037970
 112 H :    0.025664
 113 H :    0.030148
 114 H :    0.038154
 115 H :    0.042949
 116 H :    0.033542
 117 H :    0.042078
 118 H :    0.029896
 119 H :    0.038563
 120 H :    0.025270
 121 H :    0.038981
 122 H :    0.040521
 123 H :    0.032504
 124 H :    0.043656
 125 H :    0.040881
 126 H :    0.032408
 127 H :    0.044050
 128 H :    0.033384
 129 H :    0.035041
 130 H :    0.040096
 131 H :    0.032310
Sum of atomic charges:   -0.0000000

LOEWDIN ATOMIC CHARGES
----------------------
   0 C :    0.173129
   1 O :   -0.242055
   2 C :   -0.051705
   3 C :    0.008313
   4 C :    0.122822
   5 C :    0.124542
   6 C :   -0.001489
   7 C :   -0.022772
   8 C :    0.119748
   9 C :   -0.179190
  10 C :    0.008069
  11 N :   -0.092111
  12 C :    0.012583
  13 N :   -0.094985
  14 C :   -0.166609
  15 F :   -0.111658
  16 F :   -0.109284
  17 C :    0.164958
  18 O :   -0.232480
  19 C :   -0.053292
  20 C :    0.011647
  21 C :    0.121431
  22 C :    0.125126
  23 C :   -0.006995
  24 C :   -0.021257
  25 C :    0.110831
  26 C :   -0.184687
  27 C :    0.009030
  28 N :   -0.083956
  29 C :    0.008223
  30 N :   -0.095070
  31 C :   -0.164893
  32 F :   -0.111318
  33 F :   -0.109634
  34 C :    0.109662
  35 C :   -0.213702
  36 C :   -0.003957
  37 C :    0.034373
  38 C :   -0.157048
  39 S :    0.438204
  40 C :   -0.197932
  41 S :    0.410026
  42 C :   -0.156075
  43 C :   -0.052005
  44 C :   -0.005880
  45 C :   -0.035691
  46 C :    0.006771
  47 C :   -0.034186
  48 C :   -0.017371
  49 C :    0.006599
  50 C :   -0.032879
  51 C :   -0.018818
  52 C :   -0.035123
  53 C :   -0.049061
  54 C :   -0.159014
  55 C :   -0.008047
  56 C :   -0.195076
  57 S :    0.407119
  58 C :   -0.158720
  59 S :    0.442683
  60 C :   -0.215091
  61 C :   -0.003496
  62 C :    0.043307
  63 C :    0.113189
  64 O :   -0.175814
  65 C :    0.138535
  66 C :   -0.041308
  67 C :   -0.025449
  68 C :   -0.023188
  69 C :    0.001275
  70 C :   -0.031609
  71 C :    0.005273
  72 C :   -0.034409
  73 C :   -0.000456
  74 C :   -0.031527
  75 C :    0.007478
  76 C :   -0.034575
  77 O :   -0.174516
  78 C :    0.136644
  79 C :   -0.041350
  80 C :   -0.025224
  81 C :   -0.023414
  82 H :    0.054475
  83 H :    0.054953
  84 H :    0.056218
  85 H :    0.053626
  86 H :    0.045911
  87 H :    0.041481
  88 H :    0.033688
  89 H :    0.026483
  90 H :    0.026046
  91 H :    0.034075
  92 H :    0.034902
  93 H :    0.052782
  94 H :    0.011084
  95 H :    0.008861
  96 H :    0.016504
  97 H :    0.014788
  98 H :    0.017224
  99 H :    0.016593
 100 H :    0.016091
 101 H :    0.020518
 102 H :    0.016534
 103 H :    0.013219
 104 H :    0.013787
 105 H :    0.019212
 106 H :    0.017246
 107 H :    0.018276
 108 H :    0.020721
 109 H :    0.012756
 110 H :    0.016141
 111 H :    0.021238
 112 H :    0.013389
 113 H :    0.014487
 114 H :    0.013280
 115 H :    0.018024
 116 H :    0.017364
 117 H :    0.018720
 118 H :    0.013542
 119 H :    0.020390
 120 H :    0.013017
 121 H :    0.021292
 122 H :    0.016920
 123 H :    0.005646
 124 H :    0.012216
 125 H :    0.015581
 126 H :    0.018147
 127 H :    0.017415
 128 H :    0.016327
 129 H :    0.018499
 130 H :    0.020928
 131 H :    0.015246

  Mayer bond orders larger than 0.100000
B(  0-C ,  1-O ) :   2.0072 B(  0-C ,  2-C ) :   0.9818 B(  0-C , 14-C ) :   0.9851
B(  2-C ,  3-C ) :   1.3903 B(  2-C ,  7-C ) :   1.3725 B(  3-C ,  4-C ) :   1.3783
B(  3-C , 82-H ) :   1.0141 B(  4-C ,  5-C ) :   1.3397 B(  4-C , 15-F ) :   0.9340
B(  5-C ,  6-C ) :   1.4029 B(  5-C , 16-F ) :   0.9438 B(  6-C ,  7-C ) :   1.3751
B(  6-C , 83-H ) :   0.9903 B(  7-C ,  8-C ) :   1.0362 B(  8-C ,  9-C ) :   1.6622
B(  8-C , 14-C ) :   1.1274 B(  9-C , 10-C ) :   1.0679 B(  9-C , 12-C ) :   1.0673
B( 10-C , 11-N ) :   2.9804 B( 12-C , 13-N ) :   2.9837 B( 14-C , 34-C ) :   1.5936
B( 17-C , 18-O ) :   2.0985 B( 17-C , 19-C ) :   0.9429 B( 17-C , 31-C ) :   1.0104
B( 19-C , 20-C ) :   1.3945 B( 19-C , 24-C ) :   1.3653 B( 20-C , 21-C ) :   1.3770
B( 20-C , 84-H ) :   1.0131 B( 21-C , 22-C ) :   1.3441 B( 21-C , 32-F ) :   0.9344
B( 22-C , 23-C ) :   1.3986 B( 22-C , 33-F ) :   0.9412 B( 23-C , 24-C ) :   1.3856
B( 23-C , 85-H ) :   0.9933 B( 24-C , 25-C ) :   1.0414 B( 25-C , 26-C ) :   1.6578
B( 25-C , 31-C ) :   1.1116 B( 26-C , 27-C ) :   1.0909 B( 26-C , 29-C ) :   1.0523
B( 27-C , 28-N ) :   2.9848 B( 29-C , 30-N ) :   2.9960 B( 31-C , 63-C ) :   1.6268
B( 34-C , 35-C ) :   1.2957 B( 34-C , 86-H ) :   0.9412 B( 35-C , 36-C ) :   1.3911
B( 35-C , 39-S ) :   1.0866 B( 36-C , 37-C ) :   1.3374 B( 36-C , 87-H ) :   0.9875
B( 37-C , 38-C ) :   1.4317 B( 37-C , 64-O ) :   1.0058 B( 38-C , 39-S ) :   1.1789
B( 38-C , 40-C ) :   1.1801 B( 40-C , 41-S ) :   1.0852 B( 40-C , 44-C ) :   1.5408
B( 41-S , 42-C ) :   1.0952 B( 42-C , 43-C ) :   1.5858 B( 42-C , 45-C ) :   1.1348
B( 43-C , 44-C ) :   1.3163 B( 43-C , 47-C ) :   0.9457 B( 44-C , 88-H ) :   1.0110
B( 45-C , 46-C ) :   1.3969 B( 45-C , 48-C ) :   1.3515 B( 46-C , 47-C ) :   0.9182
B( 46-C , 51-C ) :   1.4885 B( 47-C , 69-C ) :   1.0114 B( 47-C , 71-C ) :   1.0034
B( 48-C , 49-C ) :   1.4903 B( 48-C , 89-H ) :   1.0072 B( 49-C , 50-C ) :   1.3940
B( 49-C , 52-C ) :   0.9197 B( 50-C , 51-C ) :   1.3533 B( 50-C , 54-C ) :   1.1317
B( 51-C , 90-H ) :   1.0054 B( 52-C , 53-C ) :   0.9446 B( 52-C , 73-C ) :   1.0221
B( 52-C , 75-C ) :   0.9936 B( 53-C , 54-C ) :   1.5857 B( 53-C , 55-C ) :   1.3177
B( 54-C , 57-S ) :   1.0925 B( 55-C , 56-C ) :   1.5408 B( 55-C , 91-H ) :   1.0120
B( 56-C , 57-S ) :   1.0872 B( 56-C , 58-C ) :   1.1775 B( 58-C , 59-S ) :   1.1736
B( 58-C , 62-C ) :   1.4415 B( 59-S , 60-C ) :   1.0922 B( 60-C , 61-C ) :   1.3934
B( 60-C , 63-C ) :   1.2330 B( 61-C , 62-C ) :   1.3777 B( 61-C , 92-H ) :   0.9944
B( 62-C , 77-O ) :   1.0112 B( 63-C , 93-H ) :   0.9490 B( 64-O , 65-C ) :   0.8371
B( 65-C , 66-C ) :   0.9969 B( 65-C , 94-H ) :   0.9802 B( 65-C , 95-H ) :   0.9678
B( 66-C , 67-C ) :   1.0128 B( 66-C , 68-C ) :   1.0214 B( 66-C , 96-H ) :   0.9649
B( 67-C , 97-H ) :   0.9807 B( 67-C , 98-H ) :   0.9877 B( 67-C , 99-H ) :   0.9883
B( 68-C ,100-H ) :   0.9808 B( 68-C ,101-H ) :   0.9878 B( 68-C ,102-H ) :   0.9859
B( 69-C , 70-C ) :   1.0399 B( 69-C ,103-H ) :   0.9725 B( 69-C ,104-H ) :   0.9725
B( 70-C ,105-H ) :   0.9831 B( 70-C ,106-H ) :   0.9872 B( 70-C ,107-H ) :   0.9802
B( 71-C , 72-C ) :   1.0509 B( 71-C ,108-H ) :   0.9713 B( 71-C ,109-H ) :   0.9693
B( 72-C ,110-H ) :   0.9796 B( 72-C ,111-H ) :   0.9845 B( 72-C ,112-H ) :   0.9827
B( 73-C , 74-C ) :   1.0412 B( 73-C ,113-H ) :   0.9717 B( 73-C ,114-H ) :   0.9714
B( 74-C ,115-H ) :   0.9807 B( 74-C ,116-H ) :   0.9870 B( 74-C ,117-H ) :   0.9820
B( 75-C , 76-C ) :   1.0500 B( 75-C ,118-H ) :   0.9701 B( 75-C ,119-H ) :   0.9702
B( 76-C ,120-H ) :   0.9825 B( 76-C ,121-H ) :   0.9850 B( 76-C ,122-H ) :   0.9798
B( 77-O , 78-C ) :   0.8316 B( 78-C , 79-C ) :   1.0004 B( 78-C ,123-H ) :   0.9781
B( 78-C ,124-H ) :   0.9670 B( 79-C , 80-C ) :   1.0117 B( 79-C , 81-C ) :   1.0193
B( 79-C ,125-H ) :   0.9653 B( 80-C ,126-H ) :   0.9812 B( 80-C ,127-H ) :   0.9873
B( 80-C ,128-H ) :   0.9881 B( 81-C ,129-H ) :   0.9812 B( 81-C ,130-H ) :   0.9875
B( 81-C ,131-H ) :   0.9857

-----------------------------------------------------------------------------
         ABSORPTION SPECTRUM VIA TRANSITION ELECTRIC DIPOLE MOMENTS
-----------------------------------------------------------------------------
State   Energy    Wavelength  fosc         T2        TX        TY        TZ
        (cm-1)      (nm)                 (au**2)    (au)      (au)      (au)
-----------------------------------------------------------------------------
   1   18919.5    528.6   3.293578843  57.31033  -2.55359   4.12651   5.81046
   2   22919.9    436.3   0.261150580   3.75106  -1.66620  -0.57617   0.80179
   3   31304.0    319.4   0.177953039   1.87146   1.12755   0.57078   0.52374

FINAL SINGLE POINT ENERGY     -5030.142771898873

DIPOLE MOMENT
-------------
                                X             Y             Z
Electronic contribution:    -44.19221     -50.23097      20.59335
Nuclear contribution   :     46.48635      50.52463     -18.99884
                        -----------------------------------------
Total Dipole Moment    :      2.29414       0.29366       1.59451
                        -----------------------------------------
Magnitude (a.u.)       :      2.80923
Magnitude (Debye)      :      7.14049

Rotational constants in cm-1:     0.001526     0.000155     0.000152
Rotational constants in MHz :    45.750693     4.655652     4.554078

                             ****ORCA TERMINATED NORMALLY****
TOTAL RUN TIME: 0 days 19 hours 5 minutes 44 seconds 701 msec
