                         Program Version 4.2.0 -  RELEASE  -
|  1> # ORCA input file
|  2> # o-IO1.out: Geometry 39
|  3> ! Engrad Keepdens
|  4> %maxcore 1000
|  5> %tddft
|  6>   nroots 3
|  7>   # nroots is the number of states to be computed
|  8>   Iroot 1
|  9>   end
| 10> * xyz 0 1
| 11>    C        0.83739        -3.38753         2.35554
| 12>    O        0.84056        -3.47113         1.13727
| 13>    C       -0.26422        -3.86549         3.23279
| 14>    C       -1.42318        -4.53571         2.85351
| 15>    C       -2.29780        -4.92903         3.86117
| 16>    C       -2.01026        -4.64633         5.20750
| 17>    C       -0.85733        -3.96233         5.58226
| 18>    C        0.03290        -3.56526         4.57470
| 19>    C        1.33895        -2.86194         4.62876
| 20>    C        1.89084        -2.34577         5.79056
| 21>    C        3.14861        -1.67049         5.86517
| 22>    N        4.16709        -1.12038         5.97489
| 23>    C        1.22833        -2.41647         7.05597
| 24>    N        0.70506        -2.45688         8.09297
| 25>    C        1.87243        -2.81669         3.26228
| 26>    F       -3.41865        -5.58697         3.57894
| 27>    F       -2.87294        -5.05918         6.13409
| 28>    C       22.77531         2.08835        -8.34231
| 29>    O       22.91584         3.09584        -7.68180
| 30>    C       23.59739         1.65367        -9.50661
| 31>    C       24.65035         2.32982       -10.11380
| 32>    C       25.26033         1.72643       -11.20957
| 33>    C       24.82853         0.46636       -11.66538
| 34>    C       23.77604        -0.21105       -11.05365
| 35>    C       23.14506         0.39793        -9.96118
| 36>    C       22.04421        -0.06030        -9.07667
| 37>    C       21.60541        -1.37000        -8.96964
| 38>    C       20.80586        -1.82122        -7.87768
| 39>    N       20.18321        -2.21252        -6.97813
| 40>    C       22.00192        -2.39283        -9.88515
| 41>    N       22.29790        -3.22217       -10.64380
| 42>    C       21.69787         1.05156        -8.20382
| 43>    F       26.25983         2.33129       -11.84602
| 44>    F       25.45003        -0.08326       -12.70651
| 45>    C        3.14098        -2.37272         2.92031
| 46>    C        3.84963        -2.32001         1.69495
| 47>    C        3.52111        -2.63822         0.36980
| 48>    C        4.59387        -2.47232        -0.52134
| 49>    C        5.77987        -2.01017         0.09686
| 50>    S        5.52226        -1.76602         1.79366
| 51>    C        7.05878        -1.78113        -0.50827
| 52>    S        7.22765        -1.49358        -2.24708
| 53>    C        8.92509        -1.25004        -2.06031
| 54>    C        9.35097        -1.41839        -0.74662
| 55>    C        8.29843        -1.70655         0.13757
| 56>    C       10.04249        -0.94225        -2.92778
| 57>    C       11.21227        -0.95946        -2.11259
| 58>    C       10.86800        -1.34391        -0.66508
| 59>    C       10.10003        -0.62201        -4.29569
| 60>    C       11.33582        -0.30108        -4.84498
| 61>    C       12.50759        -0.33976        -4.03356
| 62>    C       12.44983        -0.64972        -2.66463
| 63>    C       11.68124         0.10644        -6.28716
| 64>    C       13.19857         0.16161        -6.20923
| 65>    C       13.62712        -0.05590        -4.90823
| 66>    C       14.25774         0.39309        -7.11203
| 67>    C       15.50509         0.33727        -6.49416
| 68>    S       15.34612         0.01123        -4.76333
| 69>    C       16.81906         0.43813        -7.09050
| 70>    S       18.11077         1.23617        -6.23641
| 71>    C       19.27029         0.84250        -7.48939
| 72>    C       18.63653         0.13562        -8.50934
| 73>    C       17.26252        -0.10072        -8.30887
| 74>    C       20.59512         1.35925        -7.43972
| 75>    O        4.61122        -2.73891        -1.83994
| 76>    C        3.50496        -3.43264        -2.42724
| 77>    C        2.39117        -2.50373        -2.92468
| 78>    C        2.72848        -1.82755        -4.26621
| 79>    C        1.08076        -3.29259        -3.03438
| 80>    C        4.03093        -1.02702        -4.30756
| 81>    C       11.37562        -0.31732         0.37088
| 82>    C       10.85102         1.10361         0.18694
| 83>    C       11.38132        -2.77651        -0.31685
| 84>    C       12.89228        -2.99413        -0.32860
| 85>    C       11.18206        -0.90983        -7.33896
| 86>    C       11.72367        -2.32751        -7.17697
| 87>    C       11.16556         1.54079        -6.61652
| 88>    C        9.65341         1.75209        -6.60811
| 89>    C       16.44505        -0.88778        -9.29915
| 90>    C       17.00151        -2.30180        -9.61155
| 91>    C       16.46351        -3.37960        -8.65457
| 92>    C       16.67112        -3.11623        -7.16429
| 93>    C       16.71080        -2.68519       -11.06559
| 94>    H       -1.63658        -4.76459         1.80802
| 95>    H       -0.69948        -3.76640         6.64025
| 96>    H       24.99479         3.29770        -9.74666
| 97>    H       23.48334        -1.17875       -11.45570
| 98>    H        3.74456        -2.01808         3.75663
| 99>    H        2.52486        -2.98932         0.11622
|100>    H        8.40756        -1.88385         1.20894
|101>    H        9.19153        -0.62864        -4.89992
|102>    H       13.35831        -0.64336        -2.06048
|103>    H       14.13697         0.61947        -8.17109
|104>    H       19.16418        -0.18924        -9.40525
|105>    H       20.75908         2.21917        -6.77783
|106>    H        3.11291        -4.15996        -1.69802
|107>    H        3.93380        -4.00123        -3.26701
|108>    H        2.25988        -1.71569        -2.16176
|109>    H        1.88664        -1.16524        -4.53061
|110>    H        2.74635        -2.60946        -5.04950
|111>    H        1.19409        -4.15372        -3.71458
|112>    H        0.27644        -2.65971        -3.43995
|113>    H        0.75125        -3.67570        -2.05552
|114>    H        4.07861        -0.29064        -3.48894
|115>    H        4.12051        -0.47588        -5.25725
|116>    H        4.91521        -1.67211        -4.21020
|117>    H       12.47711        -0.30830         0.33875
|118>    H       11.10299        -0.69098         1.37386
|119>    H       11.10434         1.49512        -0.81084
|120>    H       11.29444         1.78107         0.93202
|121>    H        9.75659         1.14854         0.30090
|122>    H       10.90814        -3.48286        -1.01726
|123>    H       10.98209        -3.02372         0.68174
|124>    H       13.30861        -2.92430        -1.34438
|125>    H       13.12874        -3.99925         0.05391
|126>    H       13.42850        -2.27390         0.30717
|127>    H       11.45030        -0.51758        -8.33632
|128>    H       10.08083        -0.93174        -7.30608
|129>    H       12.81782        -2.36090        -7.30106
|130>    H       11.27923        -3.00146        -7.92465
|131>    H       11.48465        -2.73247        -6.18102
|132>    H       11.56771         1.80501        -7.60973
|133>    H       11.63301         2.23847        -5.90365
|134>    H        9.12301         1.03899        -7.25683
|135>    H        9.41339         2.76199        -6.97566
|136>    H        9.23371         1.66380        -5.59517
|137>    H       16.41096        -0.30562       -10.23600
|138>    H       15.40526        -0.97550        -8.95719
|139>    H       18.09821        -2.26824        -9.48416
|140>    H       16.94472        -4.33529        -8.92578
|141>    H       15.38458        -3.51629        -8.85896
|142>    H       17.73098        -2.93567        -6.92752
|143>    H       16.33279        -3.97817        -6.56779
|144>    H       16.09823        -2.24563        -6.81552
|145>    H       15.62542        -2.69398       -11.26299
|146>    H       17.10121        -3.68843       -11.29686
|147>    H       17.17263        -1.97639       -11.77059
|148> *
|149>
|150>                          ****END OF INPUT****

CARTESIAN COORDINATES (ANGSTROEM)
---------------------------------
  C      0.837390   -3.387530    2.355540
  O      0.840560   -3.471130    1.137270
  C     -0.264220   -3.865490    3.232790
  C     -1.423180   -4.535710    2.853510
  C     -2.297800   -4.929030    3.861170
  C     -2.010260   -4.646330    5.207500
  C     -0.857330   -3.962330    5.582260
  C      0.032900   -3.565260    4.574700
  C      1.338950   -2.861940    4.628760
  C      1.890840   -2.345770    5.790560
  C      3.148610   -1.670490    5.865170
  N      4.167090   -1.120380    5.974890
  C      1.228330   -2.416470    7.055970
  N      0.705060   -2.456880    8.092970
  C      1.872430   -2.816690    3.262280
  F     -3.418650   -5.586970    3.578940
  F     -2.872940   -5.059180    6.134090
  C     22.775310    2.088350   -8.342310
  O     22.915840    3.095840   -7.681800
  C     23.597390    1.653670   -9.506610
  C     24.650350    2.329820  -10.113800
  C     25.260330    1.726430  -11.209570
  C     24.828530    0.466360  -11.665380
  C     23.776040   -0.211050  -11.053650
  C     23.145060    0.397930   -9.961180
  C     22.044210   -0.060300   -9.076670
  C     21.605410   -1.370000   -8.969640
  C     20.805860   -1.821220   -7.877680
  N     20.183210   -2.212520   -6.978130
  C     22.001920   -2.392830   -9.885150
  N     22.297900   -3.222170  -10.643800
  C     21.697870    1.051560   -8.203820
  F     26.259830    2.331290  -11.846020
  F     25.450030   -0.083260  -12.706510
  C      3.140980   -2.372720    2.920310
  C      3.849630   -2.320010    1.694950
  C      3.521110   -2.638220    0.369800
  C      4.593870   -2.472320   -0.521340
  C      5.779870   -2.010170    0.096860
  S      5.522260   -1.766020    1.793660
  C      7.058780   -1.781130   -0.508270
  S      7.227650   -1.493580   -2.247080
  C      8.925090   -1.250040   -2.060310
  C      9.350970   -1.418390   -0.746620
  C      8.298430   -1.706550    0.137570
  C     10.042490   -0.942250   -2.927780
  C     11.212270   -0.959460   -2.112590
  C     10.868000   -1.343910   -0.665080
  C     10.100030   -0.622010   -4.295690
  C     11.335820   -0.301080   -4.844980
  C     12.507590   -0.339760   -4.033560
  C     12.449830   -0.649720   -2.664630
  C     11.681240    0.106440   -6.287160
  C     13.198570    0.161610   -6.209230
  C     13.627120   -0.055900   -4.908230
  C     14.257740    0.393090   -7.112030
  C     15.505090    0.337270   -6.494160
  S     15.346120    0.011230   -4.763330
  C     16.819060    0.438130   -7.090500
  S     18.110770    1.236170   -6.236410
  C     19.270290    0.842500   -7.489390
  C     18.636530    0.135620   -8.509340
  C     17.262520   -0.100720   -8.308870
  C     20.595120    1.359250   -7.439720
  O      4.611220   -2.738910   -1.839940
  C      3.504960   -3.432640   -2.427240
  C      2.391170   -2.503730   -2.924680
  C      2.728480   -1.827550   -4.266210
  C      1.080760   -3.292590   -3.034380
  C      4.030930   -1.027020   -4.307560
  C     11.375620   -0.317320    0.370880
  C     10.851020    1.103610    0.186940
  C     11.381320   -2.776510   -0.316850
  C     12.892280   -2.994130   -0.328600
  C     11.182060   -0.909830   -7.338960
  C     11.723670   -2.327510   -7.176970
  C     11.165560    1.540790   -6.616520
  C      9.653410    1.752090   -6.608110
  C     16.445050   -0.887780   -9.299150
  C     17.001510   -2.301800   -9.611550
  C     16.463510   -3.379600   -8.654570
  C     16.671120   -3.116230   -7.164290
  C     16.710800   -2.685190  -11.065590
  H     -1.636580   -4.764590    1.808020
  H     -0.699480   -3.766400    6.640250
  H     24.994790    3.297700   -9.746660
  H     23.483340   -1.178750  -11.455700
  H      3.744560   -2.018080    3.756630
  H      2.524860   -2.989320    0.116220
  H      8.407560   -1.883850    1.208940
  H      9.191530   -0.628640   -4.899920
  H     13.358310   -0.643360   -2.060480
  H     14.136970    0.619470   -8.171090
  H     19.164180   -0.189240   -9.405250
  H     20.759080    2.219170   -6.777830
  H      3.112910   -4.159960   -1.698020
  H      3.933800   -4.001230   -3.267010
  H      2.259880   -1.715690   -2.161760
  H      1.886640   -1.165240   -4.530610
  H      2.746350   -2.609460   -5.049500
  H      1.194090   -4.153720   -3.714580
  H      0.276440   -2.659710   -3.439950
  H      0.751250   -3.675700   -2.055520
  H      4.078610   -0.290640   -3.488940
  H      4.120510   -0.475880   -5.257250
  H      4.915210   -1.672110   -4.210200
  H     12.477110   -0.308300    0.338750
  H     11.102990   -0.690980    1.373860
  H     11.104340    1.495120   -0.810840
  H     11.294440    1.781070    0.932020
  H      9.756590    1.148540    0.300900
  H     10.908140   -3.482860   -1.017260
  H     10.982090   -3.023720    0.681740
  H     13.308610   -2.924300   -1.344380
  H     13.128740   -3.999250    0.053910
  H     13.428500   -2.273900    0.307170
  H     11.450300   -0.517580   -8.336320
  H     10.080830   -0.931740   -7.306080
  H     12.817820   -2.360900   -7.301060
  H     11.279230   -3.001460   -7.924650
  H     11.484650   -2.732470   -6.181020
  H     11.567710    1.805010   -7.609730
  H     11.633010    2.238470   -5.903650
  H      9.123010    1.038990   -7.256830
  H      9.413390    2.761990   -6.975660
  H      9.233710    1.663800   -5.595170
  H     16.410960   -0.305620  -10.236000
  H     15.405260   -0.975500   -8.957190
  H     18.098210   -2.268240   -9.484160
  H     16.944720   -4.335290   -8.925780
  H     15.384580   -3.516290   -8.858960
  H     17.730980   -2.935670   -6.927520
  H     16.332790   -3.978170   -6.567790
  H     16.098230   -2.245630   -6.815520
  H     15.625420   -2.693980  -11.262990
  H     17.101210   -3.688430  -11.296860
  H     17.172630   -1.976390  -11.770590

 Total Charge           Charge          ....    0
 Multiplicity           Mult            ....    1
 Number of Electrons    NEL             ....  614
 Basis Dimension        Dim             .... 1448

ORBITAL ENERGIES
----------------

  NO   OCC          E(Eh)            E(eV)
   0   2.0000     -91.982381     -2502.9678
   1   2.0000     -91.978563     -2502.8639
   2   2.0000     -91.974018     -2502.7403
   3   2.0000     -91.970717     -2502.6504
   4   2.0000     -26.339416      -716.7319
   5   2.0000     -26.338657      -716.7113
   6   2.0000     -26.337944      -716.6919
   7   2.0000     -26.335466      -716.6245
   8   2.0000     -20.600790      -560.5760
   9   2.0000     -20.576302      -559.9096
  10   2.0000     -20.570954      -559.7641
  11   2.0000     -15.601369      -424.5348
  12   2.0000     -15.599107      -424.4733
  13   2.0000     -15.599077      -424.4725
  14   2.0000     -15.594802      -424.3561
  15   2.0000     -11.382430      -309.7317
  16   2.0000     -11.381318      -309.7014
  17   2.0000     -11.380530      -309.6800
  18   2.0000     -11.378504      -309.6248
  19   2.0000     -11.376893      -309.5810
  20   2.0000     -11.371418      -309.4320
  21   2.0000     -11.354416      -308.9694
  22   2.0000     -11.352258      -308.9107
  23   2.0000     -11.334719      -308.4334
  24   2.0000     -11.334360      -308.4236
  25   2.0000     -11.329240      -308.2843
  26   2.0000     -11.329135      -308.2814
  27   2.0000     -11.329103      -308.2806
  28   2.0000     -11.318502      -307.9921
  29   2.0000     -11.316678      -307.9425
  30   2.0000     -11.313029      -307.8432
  31   2.0000     -11.312457      -307.8276
  32   2.0000     -11.310821      -307.7831
  33   2.0000     -11.309479      -307.7466
  34   2.0000     -11.308841      -307.7292
  35   2.0000     -11.308750      -307.7267
  36   2.0000     -11.307562      -307.6944
  37   2.0000     -11.303883      -307.5943
  38   2.0000     -11.302341      -307.5523
  39   2.0000     -11.301176      -307.5206
  40   2.0000     -11.300913      -307.5135
  41   2.0000     -11.300491      -307.5020
  42   2.0000     -11.299924      -307.4866
  43   2.0000     -11.299738      -307.4815
  44   2.0000     -11.298358      -307.4440
  45   2.0000     -11.295269      -307.3599
  46   2.0000     -11.293442      -307.3102
  47   2.0000     -11.287583      -307.1508
  48   2.0000     -11.285551      -307.0955
  49   2.0000     -11.284493      -307.0667
  50   2.0000     -11.284265      -307.0605
  51   2.0000     -11.283962      -307.0522
  52   2.0000     -11.282694      -307.0177
  53   2.0000     -11.274845      -306.8041
  54   2.0000     -11.274438      -306.7931
  55   2.0000     -11.273704      -306.7731
  56   2.0000     -11.270980      -306.6989
  57   2.0000     -11.270825      -306.6947
  58   2.0000     -11.269783      -306.6664
  59   2.0000     -11.268442      -306.6299
  60   2.0000     -11.263665      -306.4999
  61   2.0000     -11.262898      -306.4790
  62   2.0000     -11.262318      -306.4633
  63   2.0000     -11.261706      -306.4466
  64   2.0000     -11.256526      -306.3057
  65   2.0000     -11.253775      -306.2308
  66   2.0000     -11.252000      -306.1825
  67   2.0000     -11.248898      -306.0981
  68   2.0000     -11.248552      -306.0887
  69   2.0000     -11.246595      -306.0354
  70   2.0000     -11.246240      -306.0257
  71   2.0000     -11.244779      -305.9860
  72   2.0000     -11.241789      -305.9046
  73   2.0000     -11.237274      -305.7818
  74   2.0000     -11.236949      -305.7729
  75   2.0000     -11.236678      -305.7656
  76   2.0000     -11.233653      -305.6832
  77   2.0000     -11.232472      -305.6511
  78   2.0000     -11.231514      -305.6250
  79   2.0000     -11.228742      -305.5496
  80   2.0000     -11.226517      -305.4891
  81   2.0000     -11.226459      -305.4875
  82   2.0000     -11.211532      -305.0813
  83   2.0000      -9.017526      -245.3794
  84   2.0000      -9.014045      -245.2846
  85   2.0000      -9.008604      -245.1366
  86   2.0000      -9.004781      -245.0325
  87   2.0000      -6.704914      -182.4500
  88   2.0000      -6.703842      -182.4208
  89   2.0000      -6.702013      -182.3710
  90   2.0000      -6.701460      -182.3560
  91   2.0000      -6.700347      -182.3257
  92   2.0000      -6.698543      -182.2766
  93   2.0000      -6.696108      -182.2104
  94   2.0000      -6.695111      -182.1832
  95   2.0000      -6.693223      -182.1318
  96   2.0000      -6.692151      -182.1027
  97   2.0000      -6.691167      -182.0759
  98   2.0000      -6.689333      -182.0260
  99   2.0000      -1.651861       -44.9494
 100   2.0000      -1.650820       -44.9211
 101   2.0000      -1.636365       -44.5277
 102   2.0000      -1.634336       -44.4725
 103   2.0000      -1.422691       -38.7134
 104   2.0000      -1.402960       -38.1765
 105   2.0000      -1.400117       -38.0991
 106   2.0000      -1.249501       -34.0006
 107   2.0000      -1.246893       -33.9297
 108   2.0000      -1.227717       -33.4079
 109   2.0000      -1.226888       -33.3853
 110   2.0000      -1.225770       -33.3549
 111   2.0000      -1.224563       -33.3221
 112   2.0000      -1.222037       -33.2533
 113   2.0000      -1.216749       -33.1094
 114   2.0000      -1.206497       -32.8304
 115   2.0000      -1.199792       -32.6480
 116   2.0000      -1.169644       -31.8276
 117   2.0000      -1.166911       -31.7533
 118   2.0000      -1.158350       -31.5203
 119   2.0000      -1.135265       -30.8921
 120   2.0000      -1.111743       -30.2521
 121   2.0000      -1.106238       -30.1023
 122   2.0000      -1.099898       -29.9297
 123   2.0000      -1.098923       -29.9032
 124   2.0000      -1.097888       -29.8751
 125   2.0000      -1.087900       -29.6033
 126   2.0000      -1.085778       -29.5455
 127   2.0000      -1.072630       -29.1878
 128   2.0000      -1.070869       -29.1398
 129   2.0000      -1.068570       -29.0773
 130   2.0000      -1.046567       -28.4785
 131   2.0000      -1.032313       -28.0907
 132   2.0000      -1.025444       -27.9038
 133   2.0000      -1.021712       -27.8022
 134   2.0000      -1.021087       -27.7852
 135   2.0000      -1.020332       -27.7647
 136   2.0000      -1.018466       -27.7139
 137   2.0000      -1.004284       -27.3279
 138   2.0000      -1.002329       -27.2747
 139   2.0000      -0.997348       -27.1392
 140   2.0000      -0.994210       -27.0538
 141   2.0000      -0.982327       -26.7305
 142   2.0000      -0.968651       -26.3583
 143   2.0000      -0.963014       -26.2050
 144   2.0000      -0.944262       -25.6947
 145   2.0000      -0.939707       -25.5707
 146   2.0000      -0.939152       -25.5556
 147   2.0000      -0.935049       -25.4440
 148   2.0000      -0.924801       -25.1651
 149   2.0000      -0.922012       -25.0892
 150   2.0000      -0.914481       -24.8843
 151   2.0000      -0.895251       -24.3610
 152   2.0000      -0.883870       -24.0513
 153   2.0000      -0.869801       -23.6685
 154   2.0000      -0.860226       -23.4080
 155   2.0000      -0.858524       -23.3616
 156   2.0000      -0.855976       -23.2923
 157   2.0000      -0.848964       -23.1015
 158   2.0000      -0.846622       -23.0378
 159   2.0000      -0.844373       -22.9766
 160   2.0000      -0.841548       -22.8997
 161   2.0000      -0.833504       -22.6808
 162   2.0000      -0.827025       -22.5045
 163   2.0000      -0.820960       -22.3395
 164   2.0000      -0.808320       -21.9955
 165   2.0000      -0.803397       -21.8615
 166   2.0000      -0.799700       -21.7609
 167   2.0000      -0.793470       -21.5914
 168   2.0000      -0.789480       -21.4828
 169   2.0000      -0.787687       -21.4341
 170   2.0000      -0.787192       -21.4206
 171   2.0000      -0.783810       -21.3285
 172   2.0000      -0.783080       -21.3087
 173   2.0000      -0.767941       -20.8967
 174   2.0000      -0.764629       -20.8066
 175   2.0000      -0.755061       -20.5462
 176   2.0000      -0.753890       -20.5144
 177   2.0000      -0.751112       -20.4388
 178   2.0000      -0.750290       -20.4164
 179   2.0000      -0.746714       -20.3191
 180   2.0000      -0.745638       -20.2898
 181   2.0000      -0.745396       -20.2833
 182   2.0000      -0.730501       -19.8779
 183   2.0000      -0.729116       -19.8402
 184   2.0000      -0.726811       -19.7775
 185   2.0000      -0.722155       -19.6508
 186   2.0000      -0.718660       -19.5557
 187   2.0000      -0.716809       -19.5054
 188   2.0000      -0.715644       -19.4737
 189   2.0000      -0.707773       -19.2595
 190   2.0000      -0.700615       -19.0647
 191   2.0000      -0.694938       -18.9102
 192   2.0000      -0.690832       -18.7985
 193   2.0000      -0.677824       -18.4445
 194   2.0000      -0.675656       -18.3855
 195   2.0000      -0.673051       -18.3146
 196   2.0000      -0.671077       -18.2609
 197   2.0000      -0.664042       -18.0695
 198   2.0000      -0.663276       -18.0487
 199   2.0000      -0.660366       -17.9695
 200   2.0000      -0.655503       -17.8371
 201   2.0000      -0.650655       -17.7052
 202   2.0000      -0.646099       -17.5813
 203   2.0000      -0.643091       -17.4994
 204   2.0000      -0.641651       -17.4602
 205   2.0000      -0.639756       -17.4086
 206   2.0000      -0.636096       -17.3091
 207   2.0000      -0.632210       -17.2033
 208   2.0000      -0.628910       -17.1135
 209   2.0000      -0.628616       -17.1055
 210   2.0000      -0.627265       -17.0688
 211   2.0000      -0.625967       -17.0334
 212   2.0000      -0.625155       -17.0113
 213   2.0000      -0.622420       -16.9369
 214   2.0000      -0.622086       -16.9278
 215   2.0000      -0.621983       -16.9250
 216   2.0000      -0.617931       -16.8148
 217   2.0000      -0.616368       -16.7722
 218   2.0000      -0.613085       -16.6829
 219   2.0000      -0.605080       -16.4651
 220   2.0000      -0.603853       -16.4317
 221   2.0000      -0.601841       -16.3769
 222   2.0000      -0.597765       -16.2660
 223   2.0000      -0.592906       -16.1338
 224   2.0000      -0.591738       -16.1020
 225   2.0000      -0.588603       -16.0167
 226   2.0000      -0.586611       -15.9625
 227   2.0000      -0.585787       -15.9401
 228   2.0000      -0.584886       -15.9155
 229   2.0000      -0.581056       -15.8113
 230   2.0000      -0.580818       -15.8048
 231   2.0000      -0.579464       -15.7680
 232   2.0000      -0.575160       -15.6509
 233   2.0000      -0.574925       -15.6445
 234   2.0000      -0.573638       -15.6095
 235   2.0000      -0.573104       -15.5949
 236   2.0000      -0.570512       -15.5244
 237   2.0000      -0.568439       -15.4680
 238   2.0000      -0.567210       -15.4346
 239   2.0000      -0.564957       -15.3733
 240   2.0000      -0.564468       -15.3600
 241   2.0000      -0.562033       -15.2937
 242   2.0000      -0.557150       -15.1608
 243   2.0000      -0.553016       -15.0483
 244   2.0000      -0.550834       -14.9890
 245   2.0000      -0.549463       -14.9517
 246   2.0000      -0.546780       -14.8786
 247   2.0000      -0.544613       -14.8197
 248   2.0000      -0.540881       -14.7181
 249   2.0000      -0.539871       -14.6906
 250   2.0000      -0.536782       -14.6066
 251   2.0000      -0.534932       -14.5562
 252   2.0000      -0.534394       -14.5416
 253   2.0000      -0.533832       -14.5263
 254   2.0000      -0.531026       -14.4499
 255   2.0000      -0.524199       -14.2642
 256   2.0000      -0.520789       -14.1714
 257   2.0000      -0.519656       -14.1405
 258   2.0000      -0.518080       -14.0977
 259   2.0000      -0.517216       -14.0742
 260   2.0000      -0.513152       -13.9636
 261   2.0000      -0.509859       -13.8740
 262   2.0000      -0.508285       -13.8311
 263   2.0000      -0.503164       -13.6918
 264   2.0000      -0.502102       -13.6629
 265   2.0000      -0.500396       -13.6165
 266   2.0000      -0.499654       -13.5963
 267   2.0000      -0.499102       -13.5813
 268   2.0000      -0.497451       -13.5363
 269   2.0000      -0.496492       -13.5102
 270   2.0000      -0.496194       -13.5021
 271   2.0000      -0.494588       -13.4584
 272   2.0000      -0.493376       -13.4255
 273   2.0000      -0.486372       -13.2349
 274   2.0000      -0.482321       -13.1246
 275   2.0000      -0.481090       -13.0911
 276   2.0000      -0.479732       -13.0542
 277   2.0000      -0.477611       -12.9964
 278   2.0000      -0.477045       -12.9810
 279   2.0000      -0.474852       -12.9214
 280   2.0000      -0.470613       -12.8060
 281   2.0000      -0.469197       -12.7675
 282   2.0000      -0.467678       -12.7262
 283   2.0000      -0.466614       -12.6972
 284   2.0000      -0.463697       -12.6178
 285   2.0000      -0.462130       -12.5752
 286   2.0000      -0.461472       -12.5573
 287   2.0000      -0.459897       -12.5144
 288   2.0000      -0.457413       -12.4468
 289   2.0000      -0.452445       -12.3117
 290   2.0000      -0.452087       -12.3019
 291   2.0000      -0.432896       -11.7797
 292   2.0000      -0.416897       -11.3443
 293   2.0000      -0.401540       -10.9265
 294   2.0000      -0.392749       -10.6872
 295   2.0000      -0.390520       -10.6266
 296   2.0000      -0.370105       -10.0711
 297   2.0000      -0.367100        -9.9893
 298   2.0000      -0.366545        -9.9742
 299   2.0000      -0.363851        -9.9009
 300   2.0000      -0.360900        -9.8206
 301   2.0000      -0.357528        -9.7288
 302   2.0000      -0.351148        -9.5552
 303   2.0000      -0.350530        -9.5384
 304   2.0000      -0.325686        -8.8624
 305   2.0000      -0.291376        -7.9287
 306   2.0000      -0.252727        -6.8770
 307   0.0000      -0.030779        -0.8375
 308   0.0000      -0.024700        -0.6721
 309   0.0000       0.009914         0.2698
 310   0.0000       0.014592         0.3971
 311   0.0000       0.039238         1.0677

MULLIKEN ATOMIC CHARGES
-----------------------
   0 C :    0.522906
   1 O :   -0.396928
   2 C :   -0.178106
   3 C :   -0.038134
   4 C :    0.341691
   5 C :    0.345599
   6 C :   -0.055201
   7 C :   -0.029142
   8 C :    0.241827
   9 C :   -0.349370
  10 C :    0.044797
  11 N :   -0.087599
  12 C :    0.042590
  13 N :   -0.086695
  14 C :   -0.303824
  15 F :   -0.303976
  16 F :   -0.302698
  17 C :    0.465746
  18 O :   -0.352282
  19 C :   -0.166819
  20 C :   -0.031949
  21 C :    0.340127
  22 C :    0.344824
  23 C :   -0.060186
  24 C :   -0.045583
  25 C :    0.232640
  26 C :   -0.360865
  27 C :    0.054197
  28 N :   -0.062180
  29 C :    0.051371
  30 N :   -0.082824
  31 C :   -0.332191
  32 F :   -0.303664
  33 F :   -0.302411
  34 C :    0.169326
  35 C :   -0.241608
  36 C :   -0.029428
  37 C :    0.338414
  38 C :   -0.146193
  39 S :    0.180197
  40 C :   -0.113582
  41 S :    0.207051
  42 C :   -0.022027
  43 C :   -0.046433
  44 C :    0.014362
  45 C :   -0.062859
  46 C :   -0.007054
  47 C :   -0.322411
  48 C :   -0.012655
  49 C :   -0.012389
  50 C :   -0.056469
  51 C :   -0.015179
  52 C :   -0.317995
  53 C :   -0.053873
  54 C :   -0.027359
  55 C :    0.053066
  56 C :   -0.194321
  57 S :    0.180541
  58 C :   -0.098168
  59 S :    0.186745
  60 C :   -0.238849
  61 C :    0.072789
  62 C :   -0.158649
  63 C :    0.231040
  64 O :   -0.577574
  65 C :    0.309998
  66 C :   -0.258261
  67 C :   -0.075176
  68 C :   -0.009261
  69 C :   -0.019986
  70 C :    0.013708
  71 C :   -0.021222
  72 C :    0.033229
  73 C :   -0.027379
  74 C :    0.012571
  75 C :   -0.025271
  76 C :    0.034572
  77 C :   -0.026784
  78 C :    0.141448
  79 C :   -0.258909
  80 C :   -0.049955
  81 C :   -0.044595
  82 C :    0.017891
  83 H :    0.085666
  84 H :    0.107651
  85 H :    0.090099
  86 H :    0.103556
  87 H :    0.089499
  88 H :    0.125067
  89 H :    0.056894
  90 H :    0.031357
  91 H :    0.033157
  92 H :    0.054271
  93 H :    0.069603
  94 H :    0.097102
  95 H :    0.041818
  96 H :    0.046866
  97 H :    0.048247
  98 H :    0.035422
  99 H :    0.025480
 100 H :    0.029145
 101 H :    0.041089
 102 H :    0.053511
 103 H :    0.030954
 104 H :    0.030543
 105 H :    0.046568
 106 H :    0.040289
 107 H :    0.032747
 108 H :    0.044361
 109 H :    0.038183
 110 H :    0.044004
 111 H :    0.043001
 112 H :    0.032510
 113 H :    0.045754
 114 H :    0.042870
 115 H :    0.030041
 116 H :    0.029155
 117 H :    0.040402
 118 H :    0.046547
 119 H :    0.036890
 120 H :    0.047435
 121 H :    0.030482
 122 H :    0.043778
 123 H :    0.028336
 124 H :    0.042280
 125 H :    0.046684
 126 H :    0.045024
 127 H :    0.037501
 128 H :    0.044296
 129 H :    0.034407
 130 H :    0.019159
 131 H :    0.068177
 132 H :    0.031522
 133 H :    0.044572
 134 H :    0.025930
 135 H :    0.041097
 136 H :    0.028237
Sum of atomic charges:   -0.0000000

LOEWDIN ATOMIC CHARGES
----------------------
   0 C :    0.180235
   1 O :   -0.247181
   2 C :   -0.053338
   3 C :    0.001954
   4 C :    0.120252
   5 C :    0.121430
   6 C :   -0.006437
   7 C :   -0.022971
   8 C :    0.124984
   9 C :   -0.177781
  10 C :    0.015736
  11 N :   -0.097706
  12 C :    0.019087
  13 N :   -0.099485
  14 C :   -0.164957
  15 F :   -0.102540
  16 F :   -0.102795
  17 C :    0.170527
  18 O :   -0.230759
  19 C :   -0.055062
  20 C :    0.005467
  21 C :    0.120075
  22 C :    0.122549
  23 C :   -0.010486
  24 C :   -0.021840
  25 C :    0.113830
  26 C :   -0.173781
  27 C :    0.016377
  28 N :   -0.079892
  29 C :    0.015173
  30 N :   -0.095954
  31 C :   -0.155116
  32 F :   -0.102532
  33 F :   -0.102463
  34 C :    0.109987
  35 C :   -0.210320
  36 C :   -0.007889
  37 C :    0.032658
  38 C :   -0.162143
  39 S :    0.439422
  40 C :   -0.192140
  41 S :    0.440850
  42 C :   -0.164052
  43 C :   -0.053261
  44 C :   -0.027732
  45 C :   -0.034894
  46 C :    0.006249
  47 C :   -0.030071
  48 C :   -0.021293
  49 C :    0.002648
  50 C :   -0.031777
  51 C :   -0.022383
  52 C :   -0.029883
  53 C :   -0.050827
  54 C :   -0.166132
  55 C :   -0.028994
  56 C :   -0.193495
  57 S :    0.411181
  58 C :   -0.147014
  59 S :    0.428311
  60 C :   -0.216124
  61 C :    0.025001
  62 C :   -0.060893
  63 C :    0.120541
  64 O :   -0.187097
  65 C :    0.144683
  66 C :   -0.049181
  67 C :   -0.021073
  68 C :   -0.028549
  69 C :   -0.040647
  70 C :   -0.006437
  71 C :   -0.036758
  72 C :    0.002699
  73 C :   -0.040047
  74 C :   -0.006251
  75 C :   -0.037147
  76 C :    0.002338
  77 C :   -0.040079
  78 C :   -0.005013
  79 C :   -0.030342
  80 C :   -0.018465
  81 C :   -0.046073
  82 C :   -0.028146
  83 H :    0.057731
  84 H :    0.057432
  85 H :    0.059770
  86 H :    0.056556
  87 H :    0.046838
  88 H :    0.044554
  89 H :    0.031471
  90 H :    0.027780
  91 H :    0.028565
  92 H :    0.032942
  93 H :    0.033600
  94 H :    0.057430
  95 H :    0.011570
  96 H :    0.020367
  97 H :    0.017048
  98 H :    0.015656
  99 H :    0.011254
 100 H :    0.015725
 101 H :    0.021620
 102 H :    0.022035
 103 H :    0.016467
 104 H :    0.016183
 105 H :    0.011696
 106 H :    0.014417
 107 H :    0.016029
 108 H :    0.020293
 109 H :    0.020059
 110 H :    0.019534
 111 H :    0.022010
 112 H :    0.014359
 113 H :    0.018995
 114 H :    0.023511
 115 H :    0.014656
 116 H :    0.014253
 117 H :    0.014467
 118 H :    0.018662
 119 H :    0.019463
 120 H :    0.021884
 121 H :    0.013542
 122 H :    0.022507
 123 H :    0.014060
 124 H :    0.023111
 125 H :    0.019479
 126 H :    0.026067
 127 H :    0.021556
 128 H :    0.010294
 129 H :    0.016132
 130 H :    0.007600
 131 H :    0.023918
 132 H :    0.017890
 133 H :    0.010317
 134 H :    0.014474
 135 H :    0.020681
 136 H :    0.012945

  Mayer bond orders larger than 0.100000
B(  0-C ,  1-O ) :   2.0013 B(  0-C ,  2-C ) :   0.9832 B(  0-C , 14-C ) :   0.9825
B(  2-C ,  3-C ) :   1.3771 B(  2-C ,  7-C ) :   1.3914 B(  3-C ,  4-C ) :   1.3961
B(  3-C , 83-H ) :   1.0066 B(  4-C ,  5-C ) :   1.3237 B(  4-C , 15-F ) :   0.9421
B(  5-C ,  6-C ) :   1.4241 B(  5-C , 16-F ) :   0.9500 B(  6-C ,  7-C ) :   1.3608
B(  6-C , 84-H ) :   0.9829 B(  7-C ,  8-C ) :   1.0390 B(  8-C ,  9-C ) :   1.6666
B(  8-C , 14-C ) :   1.1183 B(  9-C , 10-C ) :   1.0595 B(  9-C , 12-C ) :   1.0576
B( 10-C , 11-N ) :   2.9665 B( 12-C , 13-N ) :   2.9784 B( 14-C , 34-C ) :   1.6157
B( 17-C , 18-O ) :   2.0935 B( 17-C , 19-C ) :   0.9458 B( 17-C , 31-C ) :   0.9987
B( 19-C , 20-C ) :   1.3798 B( 19-C , 24-C ) :   1.3813 B( 20-C , 21-C ) :   1.3973
B( 20-C , 85-H ) :   1.0054 B( 21-C , 22-C ) :   1.3233 B( 21-C , 32-F ) :   0.9418
B( 22-C , 23-C ) :   1.4223 B( 22-C , 33-F ) :   0.9476 B( 23-C , 24-C ) :   1.3667
B( 23-C , 86-H ) :   0.9863 B( 24-C , 25-C ) :   1.0447 B( 25-C , 26-C ) :   1.6860
B( 25-C , 31-C ) :   1.0838 B( 26-C , 27-C ) :   1.0785 B( 26-C , 29-C ) :   1.0400
B( 27-C , 28-N ) :   2.9783 B( 29-C , 30-N ) :   2.9878 B( 31-C , 63-C ) :   1.7015
B( 34-C , 35-C ) :   1.2711 B( 34-C , 87-H ) :   0.9389 B( 35-C , 36-C ) :   1.4148
B( 35-C , 39-S ) :   1.0964 B( 36-C , 37-C ) :   1.3131 B( 36-C , 88-H ) :   0.9784
B( 37-C , 38-C ) :   1.4452 B( 37-C , 64-O ) :   1.0107 B( 38-C , 39-S ) :   1.1745
B( 38-C , 40-C ) :   1.1710 B( 40-C , 41-S ) :   1.0985 B( 40-C , 44-C ) :   1.5431
B( 41-S , 42-C ) :   1.0817 B( 42-C , 43-C ) :   1.5937 B( 42-C , 45-C ) :   1.1172
B( 43-C , 44-C ) :   1.3401 B( 43-C , 47-C ) :   0.9490 B( 44-C , 89-H ) :   0.9943
B( 45-C , 46-C ) :   1.4067 B( 45-C , 48-C ) :   1.3623 B( 46-C , 47-C ) :   0.9201
B( 46-C , 51-C ) :   1.4824 B( 47-C , 70-C ) :   1.0123 B( 47-C , 72-C ) :   0.9952
B( 48-C , 49-C ) :   1.4865 B( 48-C , 90-H ) :   1.0011 B( 49-C , 50-C ) :   1.4042
B( 49-C , 52-C ) :   0.9223 B( 50-C , 51-C ) :   1.3668 B( 50-C , 54-C ) :   1.1125
B( 51-C , 91-H ) :   1.0009 B( 52-C , 53-C ) :   0.9501 B( 52-C , 74-C ) :   1.0103
B( 52-C , 76-C ) :   0.9960 B( 53-C , 54-C ) :   1.6194 B( 53-C , 55-C ) :   1.2946
B( 54-C , 57-S ) :   1.0767 B( 55-C , 56-C ) :   1.5883 B( 55-C , 92-H ) :   0.9995
B( 56-C , 57-S ) :   1.1198 B( 56-C , 58-C ) :   1.0840 B( 58-C , 59-S ) :   1.1840
B( 58-C , 62-C ) :   1.5683 B( 59-S , 60-C ) :   1.0898 B( 60-C , 61-C ) :   1.4984
B( 60-C , 63-C ) :   1.1556 B( 61-C , 62-C ) :   1.3377 B( 61-C , 93-H ) :   0.9888
B( 62-C , 78-C ) :   0.9930 B( 63-C , 94-H ) :   0.9456 B( 64-O , 65-C ) :   0.8091
B( 65-C , 66-C ) :   0.9702 B( 65-C , 95-H ) :   0.9882 B( 65-C , 96-H ) :   0.9733
B( 66-C , 67-C ) :   1.0042 B( 66-C , 68-C ) :   1.0277 B( 66-C , 97-H ) :   0.9630
B( 67-C , 69-C ) :   1.0415 B( 67-C , 98-H ) :   0.9793 B( 67-C , 99-H ) :   0.9706
B( 68-C ,100-H ) :   0.9793 B( 68-C ,101-H ) :   0.9853 B( 68-C ,102-H ) :   0.9855
B( 69-C ,103-H ) :   0.9837 B( 69-C ,104-H ) :   0.9863 B( 69-C ,105-H ) :   0.9804
B( 70-C , 71-C ) :   1.0388 B( 70-C ,106-H ) :   0.9713 B( 70-C ,107-H ) :   0.9721
B( 71-C ,108-H ) :   0.9820 B( 71-C ,109-H ) :   0.9870 B( 71-C ,110-H ) :   0.9811
B( 72-C , 73-C ) :   1.0441 B( 72-C ,111-H ) :   0.9710 B( 72-C ,112-H ) :   0.9703
B( 73-C ,113-H ) :   0.9796 B( 73-C ,114-H ) :   0.9845 B( 73-C ,115-H ) :   0.9836
B( 74-C , 75-C ) :   1.0381 B( 74-C ,116-H ) :   0.9720 B( 74-C ,117-H ) :   0.9710
B( 75-C ,118-H ) :   0.9809 B( 75-C ,119-H ) :   0.9866 B( 75-C ,120-H ) :   0.9815
B( 76-C , 77-C ) :   1.0449 B( 76-C ,121-H ) :   0.9706 B( 76-C ,122-H ) :   0.9708
B( 77-C ,123-H ) :   0.9834 B( 77-C ,124-H ) :   0.9846 B( 77-C ,125-H ) :   0.9796
B( 78-C , 79-C ) :   0.9673 B( 78-C ,126-H ) :   0.9668 B( 78-C ,127-H ) :   0.9588
B( 79-C , 80-C ) :   0.9986 B( 79-C , 82-C ) :   1.0332 B( 79-C ,128-H ) :   0.9711
B( 80-C , 81-C ) :   1.0468 B( 80-C ,129-H ) :   0.9744 B( 80-C ,130-H ) :   0.9708
B( 81-C ,131-H ) :   0.9753 B( 81-C ,132-H ) :   0.9845 B( 81-C ,133-H ) :   0.9843
B( 82-C ,134-H ) :   0.9801 B( 82-C ,135-H ) :   0.9870 B( 82-C ,136-H ) :   0.9860

-----------------------------------------------------------------------------
         ABSORPTION SPECTRUM VIA TRANSITION ELECTRIC DIPOLE MOMENTS
-----------------------------------------------------------------------------
State   Energy    Wavelength  fosc         T2        TX        TY        TZ
        (cm-1)      (nm)                 (au**2)    (au)      (au)      (au)
-----------------------------------------------------------------------------
   1   21347.4    468.4   3.146482129  48.52403   5.64294   0.88064  -3.98819
   2   24851.6    402.4   0.240799760   3.18990  -1.71270   0.50635   0.01339
   3   31847.6    314.0   0.137511078   1.42147   0.78071   0.88662  -0.16083

FINAL SINGLE POINT ENERGY     -5033.348287103984

DIPOLE MOMENT
-------------
                                X             Y             Z
Electronic contribution:     28.33602       7.68148      55.90173
Nuclear contribution   :    -27.79690      -6.85838     -60.45457
                        -----------------------------------------
Total Dipole Moment    :      0.53911       0.82310      -4.55284
                        -----------------------------------------
Magnitude (a.u.)       :      4.65795
Magnitude (Debye)      :     11.83958

Rotational constants in cm-1:     0.002289     0.000145     0.000141
Rotational constants in MHz :    68.636322     4.339587     4.218613

                             ****ORCA TERMINATED NORMALLY****
TOTAL RUN TIME: 0 days 21 hours 20 minutes 9 seconds 272 msec
