                         Program Version 4.2.0 -  RELEASE  -
|  1> # ORCA input file
|  2> # o-IO2.out: Geometry 135
|  3> ! Engrad Keepdens
|  4> %maxcore 1000
|  5> %tddft
|  6>   nroots 3
|  7>   # nroots is the number of states to be computed
|  8>   Iroot 1
|  9>   end
| 10> * xyz 0 1
| 11>    C        6.00835         3.71512         3.25384
| 12>    O        7.01229         3.04853         3.44875
| 13>    C        5.56541         4.84785         4.11139
| 14>    C        6.23057         5.39764         5.20266
| 15>    C        5.63198         6.47518         5.84947
| 16>    C        4.38557         6.96161         5.41477
| 17>    C        3.72080         6.40510         4.32449
| 18>    C        4.32738         5.33460         3.65382
| 19>    C        3.91681         4.54436         2.46543
| 20>    C        2.69416         4.67277         1.82610
| 21>    C        2.28367         3.87121         0.71454
| 22>    N        1.91932         3.24019        -0.19171
| 23>    C        1.69628         5.60629         2.24813
| 24>    N        0.87162         6.35575         2.57922
| 25>    C        5.00051         3.60488         2.16290
| 26>    F        6.22830         7.06513         6.88418
| 27>    F        3.83527         7.98356         6.06704
| 28>    C       13.77119       -10.58317       -15.30799
| 29>    O       14.31796       -11.05992       -14.33448
| 30>    C       13.77857       -11.12932       -16.68926
| 31>    C       14.42915       -12.26771       -17.15352
| 32>    C       14.28608       -12.58597       -18.49964
| 33>    C       13.49511       -11.78270       -19.34034
| 34>    C       12.85774       -10.63321       -18.87753
| 35>    C       13.01023       -10.29562       -17.52637
| 36>    C       12.57260        -9.10607       -16.74383
| 37>    C       12.13710        -7.91865       -17.31909
| 38>    C       12.13169        -6.67502       -16.62347
| 39>    N       12.13883        -5.64032       -16.09342
| 40>    C       11.77815        -7.80912       -18.69815
| 41>    N       11.45281        -7.69995       -19.80912
| 42>    C       12.90891        -9.35365       -15.35355
| 43>    F       14.88823       -13.65185       -19.02224
| 44>    F       13.37193       -12.14485       -20.61461
| 45>    C        5.09412         2.85101         1.00303
| 46>    C        6.04406         1.90288         0.55243
| 47>    C        7.15279         1.29223         1.15288
| 48>    C        7.82374         0.39958         0.30473
| 49>    C        7.24664         0.29285        -0.98674
| 50>    S        5.84907         1.31586        -1.09884
| 51>    C        7.70101        -0.51304        -2.08020
| 52>    S        6.87787        -0.46859        -3.64922
| 53>    C        7.99126        -1.61954        -4.29661
| 54>    C        8.93862        -2.01687        -3.36090
| 55>    C        8.78320        -1.40090        -2.10724
| 56>    C        8.22703        -2.25201        -5.57768
| 57>    C        9.38328        -3.07382        -5.41699
| 58>    C        9.90104        -3.02288        -3.96924
| 59>    C        7.55587        -2.15161        -6.81160
| 60>    C        8.05896        -2.85994        -7.89769
| 61>    C        9.21457        -3.67980        -7.73358
| 62>    C        9.88817        -3.77828        -6.50265
| 63>    C        7.54014        -2.92880        -9.34739
| 64>    C        8.49705        -3.95191        -9.94566
| 65>    C        9.44684        -4.32772        -9.00417
| 66>    C        8.65468        -4.60142       -11.18623
| 67>    C        9.74193        -5.48384       -11.19081
| 68>    S       10.56204        -5.48943        -9.61985
| 69>    C       10.22839        -6.31473       -12.25255
| 70>    S       11.68145        -7.25421       -12.07327
| 71>    C       11.57791        -7.88322       -13.70985
| 72>    C       10.43212        -7.38865       -14.34061
| 73>    C        9.68260        -6.50472       -13.54545
| 74>    C       12.57258        -8.79458       -14.13326
| 75>    O        8.91612        -0.32016         0.62032
| 76>    C        9.41973        -0.23061         1.95392
| 77>    C       10.63936        -1.13413         2.08064
| 78>    C       11.76625        -0.70050         1.13983
| 79>    C       11.10783        -1.17175         3.53842
| 80>    C       11.36843        -2.54008        -3.87702
| 81>    C       11.59329        -1.09262        -4.30940
| 82>    C        9.71325        -4.37780        -3.22527
| 83>    C       10.53052        -5.57132        -3.71331
| 84>    C        6.06876        -3.39864        -9.42943
| 85>    C        5.83119        -4.83545        -8.96925
| 86>    C        7.73875        -1.58399       -10.10720
| 87>    C        6.93153        -0.37929        -9.62963
| 88>    O        8.56369        -5.85930       -13.92324
| 89>    C        8.14774        -6.00820       -15.28548
| 90>    C        7.03552        -5.01657       -15.59550
| 91>    C        7.52257        -3.57050       -15.46976
| 92>    C        6.48156        -5.29398       -16.99797
| 93>    H        7.18991         5.00485         5.54204
| 94>    H        2.76318         6.83421         4.03980
| 95>    H       15.03673       -12.88687       -16.49135
| 96>    H       12.27267       -10.04789       -19.58487
| 97>    H        4.30467         3.03232         0.27252
| 98>    H        7.43464         1.53418         2.17256
| 99>    H        9.40927        -1.56096        -1.23340
|100>    H        6.66121        -1.53286        -6.90055
|101>    H       10.78266        -4.39713        -6.41410
|102>    H        8.02250        -4.47550       -12.06244
|103>    H       10.14388        -7.69847       -15.33941
|104>    H       13.18465        -9.21627       -13.32466
|105>    H        8.62974        -0.53889         2.66098
|106>    H        9.68331         0.81889         2.18292
|107>    H       10.30846        -2.14832         1.78985
|108>    H       12.12313         0.31089         1.40081
|109>    H       11.43021        -0.68025         0.09179
|110>    H       12.62555        -1.38456         1.21512
|111>    H       11.42670        -0.17169         3.87774
|112>    H       11.96873        -1.84729         3.65432
|113>    H       10.31407        -1.52279         4.21635
|114>    H       11.99984        -3.21004        -4.48133
|115>    H       11.70108        -2.66957        -2.83204
|116>    H       11.26777        -0.92846        -5.34931
|117>    H       12.65925        -0.82568        -4.23994
|118>    H       11.03261        -0.39287        -3.67257
|119>    H        8.64144        -4.63399        -3.25392
|120>    H        9.95526        -4.18701        -2.16550
|121>    H       10.23902        -5.88284        -4.72679
|122>    H       10.36062        -6.43279        -3.04867
|123>    H       11.61241        -5.36591        -3.71620
|124>    H        5.73545        -3.28453       -10.47604
|125>    H        5.44446        -2.71180        -8.83678
|126>    H        6.39087        -5.55148        -9.58835
|127>    H        4.76370        -5.09614        -9.03940
|128>    H        6.14959        -4.98048        -7.92415
|129>    H        7.49511        -1.78365       -11.16499
|130>    H        8.81255        -1.33621       -10.08124
|131>    H        5.84746        -0.57273        -9.62993
|132>    H        7.11314         0.47649       -10.29840
|133>    H        7.22215        -0.06489        -8.61663
|134>    H        7.80137        -7.04583       -15.44551
|135>    H        9.01109        -5.82513       -15.94919
|136>    H        6.23063        -5.19338       -14.85902
|137>    H        8.32841        -3.37092       -16.19484
|138>    H        7.92346        -3.36020       -14.46700
|139>    H        6.70403        -2.86353       -15.67636
|140>    H        7.25527        -5.13137       -17.76689
|141>    H        5.64517        -4.61636       -17.22506
|142>    H        6.11252        -6.32737       -17.09908
|143> *
|144>
|145>                          ****END OF INPUT****

CARTESIAN COORDINATES (ANGSTROEM)
---------------------------------
  C      6.008350    3.715120    3.253840
  O      7.012290    3.048530    3.448750
  C      5.565410    4.847850    4.111390
  C      6.230570    5.397640    5.202660
  C      5.631980    6.475180    5.849470
  C      4.385570    6.961610    5.414770
  C      3.720800    6.405100    4.324490
  C      4.327380    5.334600    3.653820
  C      3.916810    4.544360    2.465430
  C      2.694160    4.672770    1.826100
  C      2.283670    3.871210    0.714540
  N      1.919320    3.240190   -0.191710
  C      1.696280    5.606290    2.248130
  N      0.871620    6.355750    2.579220
  C      5.000510    3.604880    2.162900
  F      6.228300    7.065130    6.884180
  F      3.835270    7.983560    6.067040
  C     13.771190  -10.583170  -15.307990
  O     14.317960  -11.059920  -14.334480
  C     13.778570  -11.129320  -16.689260
  C     14.429150  -12.267710  -17.153520
  C     14.286080  -12.585970  -18.499640
  C     13.495110  -11.782700  -19.340340
  C     12.857740  -10.633210  -18.877530
  C     13.010230  -10.295620  -17.526370
  C     12.572600   -9.106070  -16.743830
  C     12.137100   -7.918650  -17.319090
  C     12.131690   -6.675020  -16.623470
  N     12.138830   -5.640320  -16.093420
  C     11.778150   -7.809120  -18.698150
  N     11.452810   -7.699950  -19.809120
  C     12.908910   -9.353650  -15.353550
  F     14.888230  -13.651850  -19.022240
  F     13.371930  -12.144850  -20.614610
  C      5.094120    2.851010    1.003030
  C      6.044060    1.902880    0.552430
  C      7.152790    1.292230    1.152880
  C      7.823740    0.399580    0.304730
  C      7.246640    0.292850   -0.986740
  S      5.849070    1.315860   -1.098840
  C      7.701010   -0.513040   -2.080200
  S      6.877870   -0.468590   -3.649220
  C      7.991260   -1.619540   -4.296610
  C      8.938620   -2.016870   -3.360900
  C      8.783200   -1.400900   -2.107240
  C      8.227030   -2.252010   -5.577680
  C      9.383280   -3.073820   -5.416990
  C      9.901040   -3.022880   -3.969240
  C      7.555870   -2.151610   -6.811600
  C      8.058960   -2.859940   -7.897690
  C      9.214570   -3.679800   -7.733580
  C      9.888170   -3.778280   -6.502650
  C      7.540140   -2.928800   -9.347390
  C      8.497050   -3.951910   -9.945660
  C      9.446840   -4.327720   -9.004170
  C      8.654680   -4.601420  -11.186230
  C      9.741930   -5.483840  -11.190810
  S     10.562040   -5.489430   -9.619850
  C     10.228390   -6.314730  -12.252550
  S     11.681450   -7.254210  -12.073270
  C     11.577910   -7.883220  -13.709850
  C     10.432120   -7.388650  -14.340610
  C      9.682600   -6.504720  -13.545450
  C     12.572580   -8.794580  -14.133260
  O      8.916120   -0.320160    0.620320
  C      9.419730   -0.230610    1.953920
  C     10.639360   -1.134130    2.080640
  C     11.766250   -0.700500    1.139830
  C     11.107830   -1.171750    3.538420
  C     11.368430   -2.540080   -3.877020
  C     11.593290   -1.092620   -4.309400
  C      9.713250   -4.377800   -3.225270
  C     10.530520   -5.571320   -3.713310
  C      6.068760   -3.398640   -9.429430
  C      5.831190   -4.835450   -8.969250
  C      7.738750   -1.583990  -10.107200
  C      6.931530   -0.379290   -9.629630
  O      8.563690   -5.859300  -13.923240
  C      8.147740   -6.008200  -15.285480
  C      7.035520   -5.016570  -15.595500
  C      7.522570   -3.570500  -15.469760
  C      6.481560   -5.293980  -16.997970
  H      7.189910    5.004850    5.542040
  H      2.763180    6.834210    4.039800
  H     15.036730  -12.886870  -16.491350
  H     12.272670  -10.047890  -19.584870
  H      4.304670    3.032320    0.272520
  H      7.434640    1.534180    2.172560
  H      9.409270   -1.560960   -1.233400
  H      6.661210   -1.532860   -6.900550
  H     10.782660   -4.397130   -6.414100
  H      8.022500   -4.475500  -12.062440
  H     10.143880   -7.698470  -15.339410
  H     13.184650   -9.216270  -13.324660
  H      8.629740   -0.538890    2.660980
  H      9.683310    0.818890    2.182920
  H     10.308460   -2.148320    1.789850
  H     12.123130    0.310890    1.400810
  H     11.430210   -0.680250    0.091790
  H     12.625550   -1.384560    1.215120
  H     11.426700   -0.171690    3.877740
  H     11.968730   -1.847290    3.654320
  H     10.314070   -1.522790    4.216350
  H     11.999840   -3.210040   -4.481330
  H     11.701080   -2.669570   -2.832040
  H     11.267770   -0.928460   -5.349310
  H     12.659250   -0.825680   -4.239940
  H     11.032610   -0.392870   -3.672570
  H      8.641440   -4.633990   -3.253920
  H      9.955260   -4.187010   -2.165500
  H     10.239020   -5.882840   -4.726790
  H     10.360620   -6.432790   -3.048670
  H     11.612410   -5.365910   -3.716200
  H      5.735450   -3.284530  -10.476040
  H      5.444460   -2.711800   -8.836780
  H      6.390870   -5.551480   -9.588350
  H      4.763700   -5.096140   -9.039400
  H      6.149590   -4.980480   -7.924150
  H      7.495110   -1.783650  -11.164990
  H      8.812550   -1.336210  -10.081240
  H      5.847460   -0.572730   -9.629930
  H      7.113140    0.476490  -10.298400
  H      7.222150   -0.064890   -8.616630
  H      7.801370   -7.045830  -15.445510
  H      9.011090   -5.825130  -15.949190
  H      6.230630   -5.193380  -14.859020
  H      8.328410   -3.370920  -16.194840
  H      7.923460   -3.360200  -14.467000
  H      6.704030   -2.863530  -15.676360
  H      7.255270   -5.131370  -17.766890
  H      5.645170   -4.616360  -17.225060
  H      6.112520   -6.327370  -17.099080

 Total Charge           Charge          ....    0
 Multiplicity           Mult            ....    1
 Number of Electrons    NEL             ....  606
 Basis Dimension        Dim             .... 1414

ORBITAL ENERGIES
----------------

  NO   OCC          E(Eh)            E(eV)
   0   2.0000     -91.982968     -2502.9838
   1   2.0000     -91.981995     -2502.9573
   2   2.0000     -91.973064     -2502.7143
   3   2.0000     -91.972149     -2502.6894
   4   2.0000     -26.337793      -716.6878
   5   2.0000     -26.337452      -716.6785
   6   2.0000     -26.335768      -716.6327
   7   2.0000     -26.334764      -716.6053
   8   2.0000     -20.605711      -560.7099
   9   2.0000     -20.605086      -560.6929
  10   2.0000     -20.574247      -559.8537
  11   2.0000     -20.568330      -559.6927
  12   2.0000     -15.599176      -424.4752
  13   2.0000     -15.598161      -424.4475
  14   2.0000     -15.597123      -424.4193
  15   2.0000     -15.593864      -424.3306
  16   2.0000     -11.380090      -309.6680
  17   2.0000     -11.379745      -309.6586
  18   2.0000     -11.378666      -309.6292
  19   2.0000     -11.378049      -309.6125
  20   2.0000     -11.375172      -309.5342
  21   2.0000     -11.367818      -309.3341
  22   2.0000     -11.354683      -308.9766
  23   2.0000     -11.350354      -308.8588
  24   2.0000     -11.337258      -308.5025
  25   2.0000     -11.334554      -308.4289
  26   2.0000     -11.331334      -308.3413
  27   2.0000     -11.327916      -308.2483
  28   2.0000     -11.327717      -308.2429
  29   2.0000     -11.327468      -308.2361
  30   2.0000     -11.320802      -308.0547
  31   2.0000     -11.319898      -308.0301
  32   2.0000     -11.311742      -307.8081
  33   2.0000     -11.311477      -307.8009
  34   2.0000     -11.311360      -307.7977
  35   2.0000     -11.310722      -307.7804
  36   2.0000     -11.308915      -307.7312
  37   2.0000     -11.308333      -307.7154
  38   2.0000     -11.308254      -307.7132
  39   2.0000     -11.306538      -307.6665
  40   2.0000     -11.304275      -307.6050
  41   2.0000     -11.302215      -307.5489
  42   2.0000     -11.301774      -307.5369
  43   2.0000     -11.301504      -307.5296
  44   2.0000     -11.299211      -307.4672
  45   2.0000     -11.298924      -307.4593
  46   2.0000     -11.298811      -307.4563
  47   2.0000     -11.297434      -307.4188
  48   2.0000     -11.294088      -307.3278
  49   2.0000     -11.292204      -307.2765
  50   2.0000     -11.292127      -307.2744
  51   2.0000     -11.288094      -307.1647
  52   2.0000     -11.286332      -307.1167
  53   2.0000     -11.283263      -307.0332
  54   2.0000     -11.282165      -307.0033
  55   2.0000     -11.281847      -306.9947
  56   2.0000     -11.272749      -306.7471
  57   2.0000     -11.271845      -306.7225
  58   2.0000     -11.271767      -306.7204
  59   2.0000     -11.270996      -306.6994
  60   2.0000     -11.270147      -306.6763
  61   2.0000     -11.269978      -306.6717
  62   2.0000     -11.265232      -306.5425
  63   2.0000     -11.264871      -306.5327
  64   2.0000     -11.263918      -306.5068
  65   2.0000     -11.263648      -306.4994
  66   2.0000     -11.255599      -306.2804
  67   2.0000     -11.254891      -306.2611
  68   2.0000     -11.253033      -306.2106
  69   2.0000     -11.250631      -306.1452
  70   2.0000     -11.248071      -306.0756
  71   2.0000     -11.247209      -306.0521
  72   2.0000     -11.246512      -306.0331
  73   2.0000     -11.246061      -306.0209
  74   2.0000     -11.243024      -305.9382
  75   2.0000     -11.240262      -305.8631
  76   2.0000     -11.238610      -305.8181
  77   2.0000     -11.236770      -305.7680
  78   2.0000     -11.234953      -305.7186
  79   2.0000     -11.233810      -305.6875
  80   2.0000     -11.230559      -305.5990
  81   2.0000     -11.229803      -305.5785
  82   2.0000      -9.018326      -245.4011
  83   2.0000      -9.017288      -245.3729
  84   2.0000      -9.007890      -245.1172
  85   2.0000      -9.007179      -245.0978
  86   2.0000      -6.705767      -182.4732
  87   2.0000      -6.704700      -182.4442
  88   2.0000      -6.704677      -182.4435
  89   2.0000      -6.703607      -182.4144
  90   2.0000      -6.702783      -182.3920
  91   2.0000      -6.701763      -182.3643
  92   2.0000      -6.695440      -182.1922
  93   2.0000      -6.694751      -182.1734
  94   2.0000      -6.694465      -182.1657
  95   2.0000      -6.693756      -182.1463
  96   2.0000      -6.692544      -182.1134
  97   2.0000      -6.691832      -182.0940
  98   2.0000      -1.650207       -44.9044
  99   2.0000      -1.649109       -44.8745
 100   2.0000      -1.634105       -44.4663
 101   2.0000      -1.633584       -44.4521
 102   2.0000      -1.427027       -38.8314
 103   2.0000      -1.426349       -38.8129
 104   2.0000      -1.401367       -38.1331
 105   2.0000      -1.397575       -38.0300
 106   2.0000      -1.247391       -33.9432
 107   2.0000      -1.245241       -33.8847
 108   2.0000      -1.225773       -33.3550
 109   2.0000      -1.225324       -33.3427
 110   2.0000      -1.225003       -33.3340
 111   2.0000      -1.223875       -33.3033
 112   2.0000      -1.220662       -33.2159
 113   2.0000      -1.216407       -33.1001
 114   2.0000      -1.205139       -32.7935
 115   2.0000      -1.199582       -32.6423
 116   2.0000      -1.167259       -31.7627
 117   2.0000      -1.165540       -31.7159
 118   2.0000      -1.158083       -31.5130
 119   2.0000      -1.135318       -30.8936
 120   2.0000      -1.107404       -30.1340
 121   2.0000      -1.105733       -30.0885
 122   2.0000      -1.100240       -29.9391
 123   2.0000      -1.096888       -29.8478
 124   2.0000      -1.096299       -29.8318
 125   2.0000      -1.086925       -29.5767
 126   2.0000      -1.084484       -29.5103
 127   2.0000      -1.072413       -29.1818
 128   2.0000      -1.068891       -29.0860
 129   2.0000      -1.067320       -29.0432
 130   2.0000      -1.048098       -28.5202
 131   2.0000      -1.029143       -28.0044
 132   2.0000      -1.022293       -27.8180
 133   2.0000      -1.020898       -27.7800
 134   2.0000      -1.019625       -27.7454
 135   2.0000      -1.017687       -27.6927
 136   2.0000      -1.016649       -27.6644
 137   2.0000      -1.002905       -27.2904
 138   2.0000      -1.000513       -27.2253
 139   2.0000      -0.998809       -27.1790
 140   2.0000      -0.970549       -26.4100
 141   2.0000      -0.964752       -26.2522
 142   2.0000      -0.948625       -25.8134
 143   2.0000      -0.940588       -25.5947
 144   2.0000      -0.938389       -25.5349
 145   2.0000      -0.937700       -25.5161
 146   2.0000      -0.936673       -25.4882
 147   2.0000      -0.934172       -25.4201
 148   2.0000      -0.926203       -25.2033
 149   2.0000      -0.923508       -25.1299
 150   2.0000      -0.914828       -24.8937
 151   2.0000      -0.895992       -24.3812
 152   2.0000      -0.882215       -24.0063
 153   2.0000      -0.868507       -23.6333
 154   2.0000      -0.858165       -23.3519
 155   2.0000      -0.854841       -23.2614
 156   2.0000      -0.846628       -23.0379
 157   2.0000      -0.843909       -22.9639
 158   2.0000      -0.842807       -22.9339
 159   2.0000      -0.832334       -22.6489
 160   2.0000      -0.826587       -22.4926
 161   2.0000      -0.825155       -22.4536
 162   2.0000      -0.812729       -22.1155
 163   2.0000      -0.804097       -21.8806
 164   2.0000      -0.802954       -21.8495
 165   2.0000      -0.797910       -21.7122
 166   2.0000      -0.795800       -21.6548
 167   2.0000      -0.792991       -21.5784
 168   2.0000      -0.786009       -21.3884
 169   2.0000      -0.785198       -21.3663
 170   2.0000      -0.777854       -21.1665
 171   2.0000      -0.776289       -21.1239
 172   2.0000      -0.765431       -20.8284
 173   2.0000      -0.764246       -20.7962
 174   2.0000      -0.759495       -20.6669
 175   2.0000      -0.752137       -20.4667
 176   2.0000      -0.750511       -20.4224
 177   2.0000      -0.747176       -20.3317
 178   2.0000      -0.744825       -20.2677
 179   2.0000      -0.744069       -20.2471
 180   2.0000      -0.737705       -20.0740
 181   2.0000      -0.731430       -19.9032
 182   2.0000      -0.727216       -19.7886
 183   2.0000      -0.722613       -19.6633
 184   2.0000      -0.717631       -19.5277
 185   2.0000      -0.716481       -19.4964
 186   2.0000      -0.716147       -19.4874
 187   2.0000      -0.713724       -19.4214
 188   2.0000      -0.706927       -19.2365
 189   2.0000      -0.696955       -18.9651
 190   2.0000      -0.696181       -18.9441
 191   2.0000      -0.692877       -18.8541
 192   2.0000      -0.691725       -18.8228
 193   2.0000      -0.689766       -18.7695
 194   2.0000      -0.673366       -18.3232
 195   2.0000      -0.670680       -18.2501
 196   2.0000      -0.666543       -18.1376
 197   2.0000      -0.662839       -18.0368
 198   2.0000      -0.661973       -18.0132
 199   2.0000      -0.657994       -17.9049
 200   2.0000      -0.653888       -17.7932
 201   2.0000      -0.651909       -17.7393
 202   2.0000      -0.643970       -17.5233
 203   2.0000      -0.643097       -17.4996
 204   2.0000      -0.639739       -17.4082
 205   2.0000      -0.636020       -17.3070
 206   2.0000      -0.631000       -17.1704
 207   2.0000      -0.628918       -17.1137
 208   2.0000      -0.628146       -17.0927
 209   2.0000      -0.627083       -17.0638
 210   2.0000      -0.626217       -17.0402
 211   2.0000      -0.625150       -17.0112
 212   2.0000      -0.624731       -16.9998
 213   2.0000      -0.622444       -16.9376
 214   2.0000      -0.620975       -16.8976
 215   2.0000      -0.620241       -16.8776
 216   2.0000      -0.619554       -16.8589
 217   2.0000      -0.618566       -16.8320
 218   2.0000      -0.616183       -16.7672
 219   2.0000      -0.610100       -16.6017
 220   2.0000      -0.604121       -16.4390
 221   2.0000      -0.601516       -16.3681
 222   2.0000      -0.596104       -16.2208
 223   2.0000      -0.590308       -16.0631
 224   2.0000      -0.585171       -15.9233
 225   2.0000      -0.583257       -15.8712
 226   2.0000      -0.581627       -15.8269
 227   2.0000      -0.580946       -15.8084
 228   2.0000      -0.579139       -15.7592
 229   2.0000      -0.575994       -15.6736
 230   2.0000      -0.574458       -15.6318
 231   2.0000      -0.574029       -15.6201
 232   2.0000      -0.572581       -15.5807
 233   2.0000      -0.572100       -15.5676
 234   2.0000      -0.570420       -15.5219
 235   2.0000      -0.568464       -15.4687
 236   2.0000      -0.568411       -15.4673
 237   2.0000      -0.562156       -15.2970
 238   2.0000      -0.561262       -15.2727
 239   2.0000      -0.560417       -15.2497
 240   2.0000      -0.558847       -15.2070
 241   2.0000      -0.553915       -15.0728
 242   2.0000      -0.549908       -14.9638
 243   2.0000      -0.548241       -14.9184
 244   2.0000      -0.547019       -14.8851
 245   2.0000      -0.546042       -14.8586
 246   2.0000      -0.544669       -14.8212
 247   2.0000      -0.539748       -14.6873
 248   2.0000      -0.539448       -14.6791
 249   2.0000      -0.535027       -14.5588
 250   2.0000      -0.533106       -14.5065
 251   2.0000      -0.530429       -14.4337
 252   2.0000      -0.529026       -14.3955
 253   2.0000      -0.525688       -14.3047
 254   2.0000      -0.523570       -14.2471
 255   2.0000      -0.522474       -14.2172
 256   2.0000      -0.519437       -14.1346
 257   2.0000      -0.517163       -14.0727
 258   2.0000      -0.516187       -14.0462
 259   2.0000      -0.515017       -14.0143
 260   2.0000      -0.513430       -13.9711
 261   2.0000      -0.502055       -13.6616
 262   2.0000      -0.501372       -13.6430
 263   2.0000      -0.499858       -13.6018
 264   2.0000      -0.498818       -13.5735
 265   2.0000      -0.498145       -13.5552
 266   2.0000      -0.497196       -13.5294
 267   2.0000      -0.496833       -13.5195
 268   2.0000      -0.495926       -13.4948
 269   2.0000      -0.491842       -13.3837
 270   2.0000      -0.490689       -13.3523
 271   2.0000      -0.488941       -13.3048
 272   2.0000      -0.487208       -13.2576
 273   2.0000      -0.483470       -13.1559
 274   2.0000      -0.482830       -13.1385
 275   2.0000      -0.481560       -13.1039
 276   2.0000      -0.480985       -13.0883
 277   2.0000      -0.479002       -13.0343
 278   2.0000      -0.477286       -12.9876
 279   2.0000      -0.470792       -12.8109
 280   2.0000      -0.470315       -12.7979
 281   2.0000      -0.468212       -12.7407
 282   2.0000      -0.466257       -12.6875
 283   2.0000      -0.464570       -12.6416
 284   2.0000      -0.460498       -12.5308
 285   2.0000      -0.450986       -12.2719
 286   2.0000      -0.450670       -12.2633
 287   2.0000      -0.436666       -11.8823
 288   2.0000      -0.420604       -11.4452
 289   2.0000      -0.399838       -10.8801
 290   2.0000      -0.391545       -10.6545
 291   2.0000      -0.388700       -10.5771
 292   2.0000      -0.372454       -10.1350
 293   2.0000      -0.369867       -10.0646
 294   2.0000      -0.366442        -9.9714
 295   2.0000      -0.363345        -9.8871
 296   2.0000      -0.359983        -9.7956
 297   2.0000      -0.356410        -9.6984
 298   2.0000      -0.351965        -9.5775
 299   2.0000      -0.351296        -9.5593
 300   2.0000      -0.325665        -8.8618
 301   2.0000      -0.281761        -7.6671
 302   2.0000      -0.247507        -6.7350
 303   0.0000      -0.034549        -0.9401
 304   0.0000      -0.025765        -0.7011
 305   0.0000       0.009617         0.2617
 306   0.0000       0.013641         0.3712
 307   0.0000       0.041506         1.1294

MULLIKEN ATOMIC CHARGES
-----------------------
   0 C :    0.519978
   1 O :   -0.395539
   2 C :   -0.179435
   3 C :   -0.038159
   4 C :    0.341923
   5 C :    0.344726
   6 C :   -0.056033
   7 C :   -0.025405
   8 C :    0.234906
   9 C :   -0.345270
  10 C :    0.039417
  11 N :   -0.084812
  12 C :    0.043256
  13 N :   -0.086677
  14 C :   -0.301085
  15 F :   -0.305754
  16 F :   -0.302858
  17 C :    0.457862
  18 O :   -0.359711
  19 C :   -0.163212
  20 C :   -0.030214
  21 C :    0.340650
  22 C :    0.344243
  23 C :   -0.063284
  24 C :   -0.047269
  25 C :    0.254219
  26 C :   -0.369222
  27 C :    0.035787
  28 N :   -0.068014
  29 C :    0.048854
  30 N :   -0.087768
  31 C :   -0.336772
  32 F :   -0.304635
  33 F :   -0.302517
  34 C :    0.173731
  35 C :   -0.236123
  36 C :   -0.036516
  37 C :    0.332798
  38 C :   -0.121406
  39 S :    0.188140
  40 C :   -0.148774
  41 S :    0.171450
  42 C :   -0.015130
  43 C :   -0.051773
  44 C :    0.031068
  45 C :   -0.070943
  46 C :   -0.001888
  47 C :   -0.311775
  48 C :   -0.008478
  49 C :   -0.003481
  50 C :   -0.066213
  51 C :   -0.011403
  52 C :   -0.313663
  53 C :   -0.051862
  54 C :   -0.016516
  55 C :    0.037244
  56 C :   -0.141843
  57 S :    0.160651
  58 C :   -0.122249
  59 S :    0.187819
  60 C :   -0.210731
  61 C :   -0.012386
  62 C :    0.330468
  63 C :    0.218200
  64 O :   -0.578700
  65 C :    0.281869
  66 C :   -0.240317
  67 C :   -0.011339
  68 C :   -0.018346
  69 C :    0.011492
  70 C :   -0.021777
  71 C :    0.031820
  72 C :   -0.025954
  73 C :    0.011607
  74 C :   -0.021753
  75 C :    0.032300
  76 C :   -0.026774
  77 O :   -0.573119
  78 C :    0.275129
  79 C :   -0.237050
  80 C :   -0.012661
  81 C :   -0.024121
  82 H :    0.085313
  83 H :    0.106487
  84 H :    0.089339
  85 H :    0.104016
  86 H :    0.090735
  87 H :    0.120601
  88 H :    0.077572
  89 H :    0.035167
  90 H :    0.034134
  91 H :    0.074979
  92 H :    0.076311
  93 H :    0.095732
  94 H :    0.042074
  95 H :    0.039620
  96 H :    0.046572
  97 H :    0.029447
  98 H :    0.046053
  99 H :    0.039473
 100 H :    0.035089
 101 H :    0.044865
 102 H :    0.040116
 103 H :    0.041265
 104 H :    0.031362
 105 H :    0.045109
 106 H :    0.037812
 107 H :    0.046395
 108 H :    0.043091
 109 H :    0.031740
 110 H :    0.042326
 111 H :    0.042424
 112 H :    0.031417
 113 H :    0.032078
 114 H :    0.041705
 115 H :    0.046193
 116 H :    0.037790
 117 H :    0.044205
 118 H :    0.033428
 119 H :    0.043546
 120 H :    0.032051
 121 H :    0.043531
 122 H :    0.041707
 123 H :    0.036256
 124 H :    0.044932
 125 H :    0.046753
 126 H :    0.037278
 127 H :    0.045978
 128 H :    0.039246
 129 H :    0.039667
 130 H :    0.046171
 131 H :    0.037956
Sum of atomic charges:   -0.0000000

LOEWDIN ATOMIC CHARGES
----------------------
   0 C :    0.179262
   1 O :   -0.246028
   2 C :   -0.053121
   3 C :    0.002285
   4 C :    0.120666
   5 C :    0.121115
   6 C :   -0.006541
   7 C :   -0.022666
   8 C :    0.124185
   9 C :   -0.177745
  10 C :    0.014950
  11 N :   -0.097563
  12 C :    0.018623
  13 N :   -0.099804
  14 C :   -0.165422
  15 F :   -0.104584
  16 F :   -0.103020
  17 C :    0.169569
  18 O :   -0.235549
  19 C :   -0.055633
  20 C :    0.005741
  21 C :    0.119185
  22 C :    0.121920
  23 C :   -0.012136
  24 C :   -0.020506
  25 C :    0.118583
  26 C :   -0.184779
  27 C :    0.011382
  28 N :   -0.090490
  29 C :    0.014698
  30 N :   -0.100715
  31 C :   -0.165282
  32 F :   -0.103340
  33 F :   -0.102343
  34 C :    0.110305
  35 C :   -0.211784
  36 C :   -0.008321
  37 C :    0.037136
  38 C :   -0.160204
  39 S :    0.433717
  40 C :   -0.192565
  41 S :    0.397132
  42 C :   -0.155916
  43 C :   -0.053923
  44 C :   -0.010876
  45 C :   -0.033858
  46 C :    0.006130
  47 C :   -0.029653
  48 C :   -0.021033
  49 C :    0.005588
  50 C :   -0.032772
  51 C :   -0.022624
  52 C :   -0.028506
  53 C :   -0.051664
  54 C :   -0.158619
  55 C :   -0.011573
  56 C :   -0.188957
  57 S :    0.394136
  58 C :   -0.161191
  59 S :    0.433186
  60 C :   -0.212114
  61 C :   -0.006259
  62 C :    0.047614
  63 C :    0.112155
  64 O :   -0.181552
  65 C :    0.139708
  66 C :   -0.044678
  67 C :   -0.029681
  68 C :   -0.028374
  69 C :   -0.004857
  70 C :   -0.036775
  71 C :    0.001220
  72 C :   -0.039933
  73 C :   -0.005265
  74 C :   -0.036854
  75 C :    0.001213
  76 C :   -0.039886
  77 O :   -0.181708
  78 C :    0.138385
  79 C :   -0.043863
  80 C :   -0.028957
  81 C :   -0.028419
  82 H :    0.057538
  83 H :    0.057221
  84 H :    0.059650
  85 H :    0.056530
  86 H :    0.047813
  87 H :    0.045459
  88 H :    0.036462
  89 H :    0.028625
  90 H :    0.028098
  91 H :    0.037401
  92 H :    0.037590
  93 H :    0.056767
  94 H :    0.011350
  95 H :    0.011241
  96 H :    0.019428
  97 H :    0.017281
  98 H :    0.018643
  99 H :    0.019002
 100 H :    0.018145
 101 H :    0.022390
 102 H :    0.018655
 103 H :    0.014878
 104 H :    0.014686
 105 H :    0.021357
 106 H :    0.019580
 107 H :    0.019433
 108 H :    0.022140
 109 H :    0.014220
 110 H :    0.017867
 111 H :    0.023326
 112 H :    0.015469
 113 H :    0.015284
 114 H :    0.015066
 115 H :    0.019486
 116 H :    0.019563
 117 H :    0.020920
 118 H :    0.014763
 119 H :    0.022305
 120 H :    0.015632
 121 H :    0.023817
 122 H :    0.017710
 123 H :    0.007886
 124 H :    0.012313
 125 H :    0.019205
 126 H :    0.020477
 127 H :    0.018810
 128 H :    0.019045
 129 H :    0.019846
 130 H :    0.022982
 131 H :    0.017338

  Mayer bond orders larger than 0.100000
B(  0-C ,  1-O ) :   2.0017 B(  0-C ,  2-C ) :   0.9807 B(  0-C , 14-C ) :   0.9847
B(  2-C ,  3-C ) :   1.3803 B(  2-C ,  7-C ) :   1.3894 B(  3-C ,  4-C ) :   1.3933
B(  3-C , 82-H ) :   1.0064 B(  4-C ,  5-C ) :   1.3248 B(  4-C , 15-F ) :   0.9403
B(  5-C ,  6-C ) :   1.4217 B(  5-C , 16-F ) :   0.9483 B(  6-C ,  7-C ) :   1.3630
B(  6-C , 83-H ) :   0.9844 B(  7-C ,  8-C ) :   1.0363 B(  8-C ,  9-C ) :   1.6702
B(  8-C , 14-C ) :   1.1200 B(  9-C , 10-C ) :   1.0576 B(  9-C , 12-C ) :   1.0574
B( 10-C , 11-N ) :   2.9770 B( 12-C , 13-N ) :   2.9797 B( 14-C , 34-C ) :   1.6104
B( 17-C , 18-O ) :   2.0759 B( 17-C , 19-C ) :   0.9546 B( 17-C , 31-C ) :   1.0118
B( 19-C , 20-C ) :   1.3792 B( 19-C , 24-C ) :   1.3847 B( 20-C , 21-C ) :   1.3945
B( 20-C , 84-H ) :   1.0058 B( 21-C , 22-C ) :   1.3251 B( 21-C , 32-F ) :   0.9423
B( 22-C , 23-C ) :   1.4230 B( 22-C , 33-F ) :   0.9471 B( 23-C , 24-C ) :   1.3691
B( 23-C , 85-H ) :   0.9853 B( 24-C , 25-C ) :   1.0427 B( 25-C , 26-C ) :   1.6487
B( 25-C , 31-C ) :   1.1076 B( 26-C , 27-C ) :   1.0867 B( 26-C , 29-C ) :   1.0394
B( 27-C , 28-N ) :   2.9782 B( 29-C , 30-N ) :   2.9866 B( 31-C , 63-C ) :   1.6464
B( 34-C , 35-C ) :   1.2730 B( 34-C , 86-H ) :   0.9414 B( 35-C , 36-C ) :   1.4054
B( 35-C , 39-S ) :   1.0926 B( 36-C , 37-C ) :   1.3292 B( 36-C , 87-H ) :   0.9798
B( 37-C , 38-C ) :   1.4399 B( 37-C , 64-O ) :   1.0025 B( 38-C , 39-S ) :   1.1775
B( 38-C , 40-C ) :   1.1663 B( 40-C , 41-S ) :   1.0882 B( 40-C , 44-C ) :   1.5578
B( 41-S , 42-C ) :   1.0922 B( 42-C , 43-C ) :   1.6038 B( 42-C , 45-C ) :   1.1210
B( 43-C , 44-C ) :   1.2993 B( 43-C , 47-C ) :   0.9484 B( 44-C , 88-H ) :   1.0049
B( 45-C , 46-C ) :   1.4017 B( 45-C , 48-C ) :   1.3617 B( 46-C , 47-C ) :   0.9225
B( 46-C , 51-C ) :   1.4886 B( 47-C , 69-C ) :   1.0039 B( 47-C , 71-C ) :   0.9975
B( 48-C , 49-C ) :   1.4874 B( 48-C , 89-H ) :   0.9993 B( 49-C , 50-C ) :   1.4017
B( 49-C , 52-C ) :   0.9218 B( 50-C , 51-C ) :   1.3605 B( 50-C , 54-C ) :   1.1203
B( 51-C , 90-H ) :   0.9990 B( 52-C , 53-C ) :   0.9505 B( 52-C , 73-C ) :   1.0042
B( 52-C , 75-C ) :   0.9959 B( 53-C , 54-C ) :   1.6062 B( 53-C , 55-C ) :   1.2967
B( 54-C , 57-S ) :   1.0915 B( 55-C , 56-C ) :   1.5637 B( 55-C , 91-H ) :   1.0045
B( 56-C , 57-S ) :   1.0906 B( 56-C , 58-C ) :   1.1544 B( 58-C , 59-S ) :   1.1694
B( 58-C , 62-C ) :   1.4587 B( 59-S , 60-C ) :   1.0997 B( 60-C , 61-C ) :   1.4112
B( 60-C , 63-C ) :   1.2157 B( 61-C , 62-C ) :   1.3518 B( 61-C , 92-H ) :   0.9926
B( 62-C , 77-O ) :   1.0170 B( 63-C , 93-H ) :   0.9389 B( 64-O , 65-C ) :   0.8339
B( 65-C , 66-C ) :   0.9978 B( 65-C , 94-H ) :   0.9790 B( 65-C , 95-H ) :   0.9675
B( 66-C , 67-C ) :   1.0117 B( 66-C , 68-C ) :   1.0214 B( 66-C , 96-H ) :   0.9642
B( 67-C , 97-H ) :   0.9799 B( 67-C , 98-H ) :   0.9882 B( 67-C , 99-H ) :   0.9879
B( 68-C ,100-H ) :   0.9804 B( 68-C ,101-H ) :   0.9877 B( 68-C ,102-H ) :   0.9860
B( 69-C , 70-C ) :   1.0411 B( 69-C ,103-H ) :   0.9723 B( 69-C ,104-H ) :   0.9713
B( 70-C ,105-H ) :   0.9838 B( 70-C ,106-H ) :   0.9869 B( 70-C ,107-H ) :   0.9781
B( 71-C , 72-C ) :   1.0459 B( 71-C ,108-H ) :   0.9714 B( 71-C ,109-H ) :   0.9696
B( 72-C ,110-H ) :   0.9799 B( 72-C ,111-H ) :   0.9849 B( 72-C ,112-H ) :   0.9827
B( 73-C , 74-C ) :   1.0406 B( 73-C ,113-H ) :   0.9714 B( 73-C ,114-H ) :   0.9725
B( 74-C ,115-H ) :   0.9784 B( 74-C ,116-H ) :   0.9869 B( 74-C ,117-H ) :   0.9837
B( 75-C , 76-C ) :   1.0453 B( 75-C ,118-H ) :   0.9696 B( 75-C ,119-H ) :   0.9714
B( 76-C ,120-H ) :   0.9828 B( 76-C ,121-H ) :   0.9849 B( 76-C ,122-H ) :   0.9800
B( 77-O , 78-C ) :   0.8311 B( 78-C , 79-C ) :   0.9997 B( 78-C ,123-H ) :   0.9772
B( 78-C ,124-H ) :   0.9656 B( 79-C , 80-C ) :   1.0109 B( 79-C , 81-C ) :   1.0192
B( 79-C ,125-H ) :   0.9640 B( 80-C ,126-H ) :   0.9802 B( 80-C ,127-H ) :   0.9879
B( 80-C ,128-H ) :   0.9878 B( 81-C ,129-H ) :   0.9807 B( 81-C ,130-H ) :   0.9876
B( 81-C ,131-H ) :   0.9861

-----------------------------------------------------------------------------
         ABSORPTION SPECTRUM VIA TRANSITION ELECTRIC DIPOLE MOMENTS
-----------------------------------------------------------------------------
State   Energy    Wavelength  fosc         T2        TX        TY        TZ
        (cm-1)      (nm)                 (au**2)    (au)      (au)      (au)
-----------------------------------------------------------------------------
   1   19669.5    508.4   3.553618977  59.47768   2.71549  -4.12928  -5.92054
   2   23253.8    430.0   0.078658252   1.11359   0.49937  -0.92720  -0.06724
   3   31645.0    316.0   0.140930182   1.46614  -0.93145  -0.23865  -0.73593

FINAL SINGLE POINT ENERGY     -5030.142008854796

DIPOLE MOMENT
-------------
                                X             Y             Z
Electronic contribution:     -2.29169       6.28793      -0.87130
Nuclear contribution   :      3.57650      -7.77346       2.57294
                        -----------------------------------------
Total Dipole Moment    :      1.28481      -1.48554       1.70164
                        -----------------------------------------
Magnitude (a.u.)       :      2.59868
Magnitude (Debye)      :      6.60532

Rotational constants in cm-1:     0.002007     0.000145     0.000138
Rotational constants in MHz :    60.161875     4.355490     4.125329

                             ****ORCA TERMINATED NORMALLY****
TOTAL RUN TIME: 0 days 17 hours 28 minutes 59 seconds 392 msec
