                         Program Version 4.2.0 -  RELEASE  -
|  1> # ORCA input file
|  2> # PC70BM.out
|  3> ! Engrad Keepdens
|  4> %maxcore 1000
|  5> %tddft
|  6>   nroots 3
|  7>   # nroots is the number of states to be computed
|  8>   Iroot 1
|  9>   end
| 10> * xyz 0 1
| 11>    C        0.12257         0.01575        -0.00003
| 12>    C        1.46035        -0.31633         0.18452
| 13>    C        2.47114         0.70444         0.07079
| 14>    C        3.47294         0.45295         1.07639
| 15>    C       -0.25314         1.37121        -0.29564
| 16>    C        2.10177         2.01169        -0.22299
| 17>    C       -0.88383        -0.51273         0.87977
| 18>    C        1.83523        -1.19678         1.26064
| 19>    C        3.07828        -0.72133         1.81353
| 20>    C        0.85638        -1.70738         2.10614
| 21>    C        4.06380         1.51886         1.74279
| 22>    C        0.71589         2.35006        -0.40533
| 23>    C        2.71084         3.11127         0.47530
| 24>    C        3.28933        -0.77734         3.18604
| 25>    C        3.67435         2.86974         1.43718
| 26>    C        4.27628         1.45649         3.16439
| 27>    C       -1.48803         1.66559         0.38296
| 28>    C       -0.52420        -1.35716         1.91202
| 29>    C       -1.87889         0.50396         1.10628
| 30>    C        0.48098         3.65125         0.16307
| 31>    C        1.71094         4.12051         0.70409
| 32>    C        3.66215         3.62984         2.65727
| 33>    C        4.03293         2.75924         3.72146
| 34>    C        3.89416         0.33210         3.87248
| 35>    C       -1.77720         2.96267         0.85839
| 36>    C       -0.75654         3.98851         0.75069
| 37>    C        1.74385         4.94237         1.85074
| 38>    C        2.74798         4.68472         2.85662
| 39>    C        3.50143         2.91646         5.01801
| 40>    C        3.26218         0.47764         5.15718
| 41>    C       -2.69715         3.03403         1.92456
| 42>    C       -2.57475         0.59671         2.32958
| 43>    C       -0.71966         5.01128         1.72378
| 44>    C        0.50758         5.48174         2.26734
| 45>    C        2.43949         4.99152         4.19993
| 46>    C        2.80928         4.12282         5.26183
| 47>    C        3.10627         1.74320         5.76206
| 48>    C       -2.70441         4.14739         2.83809
| 49>    C       -3.09102         1.87212         2.64681
| 50>    C       -1.72365         5.11957         2.74522
| 51>    C        0.27278         5.89303         3.62616
| 52>    C        1.24125         5.67707         4.57854
| 53>    C        1.84400         4.25963         6.30945
| 54>    C        2.04749         1.86739         6.68788
| 55>    C        1.07809        -1.75499         3.52546
| 56>    C        2.26994        -1.29963         4.05578
| 57>    C       -1.14885        -1.21053         3.20168
| 58>    C        2.26011        -0.52663         5.26980
| 59>    C       -2.19687        -0.29089         3.41428
| 60>    C       -3.11179         3.67897         4.12519
| 61>    C       -3.34135         2.26427         4.00816
| 62>    C       -1.13001         5.67600         3.92984
| 63>    C        0.93194         5.36600         5.98124
| 64>    C        1.44677         3.13813         6.99736
| 65>    C        1.04833         0.86076         6.79778
| 66>    C       -0.15967        -1.45355         4.19561
| 67>    C        1.06917        -0.29810         5.99089
| 68>    C       -2.36061         0.15629         4.74353
| 69>    C       -2.51247         4.20140         5.26840
| 70>    C       -2.98184         1.41945         5.04023
| 71>    C       -1.53346         5.24379         5.17907
| 72>    C       -0.60865         5.12469         6.32185
| 73>    C        0.04760         2.91338         7.30790
| 74>    C       -0.18252         1.50185         7.16820
| 75>    C       -0.18155        -0.78368         5.43776
| 76>    C       -1.36889        -0.08443         5.73635
| 77>    C       -2.13858         3.32327         6.34011
| 78>    C       -2.37855         1.95619         6.22996
| 79>    C       -0.92451         3.81381         6.91945
| 80>    C       -1.37591         1.02888         6.65004
| 81>    C        0.18408         6.21768         6.97016
| 82>    C        0.54900         6.02188         8.40729
| 83>    C       -0.41064         5.65666         9.34169
| 84>    C       -0.05974         5.48791        10.66918
| 85>    C        1.25053         5.68069        11.07214
| 86>    C        2.21060         6.04720        10.14408
| 87>    C        1.86149         6.21810         8.81697
| 88>    C       -0.14050         7.65039         6.58661
| 89>    C       -1.48554         8.08460         7.16594
| 90>    C       -1.85408         9.49657         6.72364
| 91>    C       -3.13218         9.96852         7.37969
| 92>    O       -3.62282         9.50282         8.37247
| 93>    O       -3.65624        11.00139         6.70685
| 94>    C       -4.84703        11.56465         7.24170
| 95>    H       -1.43252         5.50138         9.02834
| 96>    H       -0.81181         5.20312        11.38975
| 97>    H        1.52380         5.54480        12.10791
| 98>    H        3.23412         6.19809        10.45405
| 99>    H        2.61020         6.49914         8.08975
|100>    H       -0.16812         7.74155         5.49955
|101>    H        0.65281         8.30155         6.96230
|102>    H       -2.26325         7.39239         6.83591
|103>    H       -1.45228         8.05173         8.25599
|104>    H       -1.06608        10.19853         7.00997
|105>    H       -1.97425         9.55906         5.64115
|106>    H       -4.63526        12.06923         8.18644
|107>    H       -5.20548        12.27649         6.50320
|108>    H       -5.58941        10.78407         7.41867
|109> *
|110>
|111>                          ****END OF INPUT****

CARTESIAN COORDINATES (ANGSTROEM)
---------------------------------
  C      0.122570    0.015750   -0.000030
  C      1.460350   -0.316330    0.184520
  C      2.471140    0.704440    0.070790
  C      3.472940    0.452950    1.076390
  C     -0.253140    1.371210   -0.295640
  C      2.101770    2.011690   -0.222990
  C     -0.883830   -0.512730    0.879770
  C      1.835230   -1.196780    1.260640
  C      3.078280   -0.721330    1.813530
  C      0.856380   -1.707380    2.106140
  C      4.063800    1.518860    1.742790
  C      0.715890    2.350060   -0.405330
  C      2.710840    3.111270    0.475300
  C      3.289330   -0.777340    3.186040
  C      3.674350    2.869740    1.437180
  C      4.276280    1.456490    3.164390
  C     -1.488030    1.665590    0.382960
  C     -0.524200   -1.357160    1.912020
  C     -1.878890    0.503960    1.106280
  C      0.480980    3.651250    0.163070
  C      1.710940    4.120510    0.704090
  C      3.662150    3.629840    2.657270
  C      4.032930    2.759240    3.721460
  C      3.894160    0.332100    3.872480
  C     -1.777200    2.962670    0.858390
  C     -0.756540    3.988510    0.750690
  C      1.743850    4.942370    1.850740
  C      2.747980    4.684720    2.856620
  C      3.501430    2.916460    5.018010
  C      3.262180    0.477640    5.157180
  C     -2.697150    3.034030    1.924560
  C     -2.574750    0.596710    2.329580
  C     -0.719660    5.011280    1.723780
  C      0.507580    5.481740    2.267340
  C      2.439490    4.991520    4.199930
  C      2.809280    4.122820    5.261830
  C      3.106270    1.743200    5.762060
  C     -2.704410    4.147390    2.838090
  C     -3.091020    1.872120    2.646810
  C     -1.723650    5.119570    2.745220
  C      0.272780    5.893030    3.626160
  C      1.241250    5.677070    4.578540
  C      1.844000    4.259630    6.309450
  C      2.047490    1.867390    6.687880
  C      1.078090   -1.754990    3.525460
  C      2.269940   -1.299630    4.055780
  C     -1.148850   -1.210530    3.201680
  C      2.260110   -0.526630    5.269800
  C     -2.196870   -0.290890    3.414280
  C     -3.111790    3.678970    4.125190
  C     -3.341350    2.264270    4.008160
  C     -1.130010    5.676000    3.929840
  C      0.931940    5.366000    5.981240
  C      1.446770    3.138130    6.997360
  C      1.048330    0.860760    6.797780
  C     -0.159670   -1.453550    4.195610
  C      1.069170   -0.298100    5.990890
  C     -2.360610    0.156290    4.743530
  C     -2.512470    4.201400    5.268400
  C     -2.981840    1.419450    5.040230
  C     -1.533460    5.243790    5.179070
  C     -0.608650    5.124690    6.321850
  C      0.047600    2.913380    7.307900
  C     -0.182520    1.501850    7.168200
  C     -0.181550   -0.783680    5.437760
  C     -1.368890   -0.084430    5.736350
  C     -2.138580    3.323270    6.340110
  C     -2.378550    1.956190    6.229960
  C     -0.924510    3.813810    6.919450
  C     -1.375910    1.028880    6.650040
  C      0.184080    6.217680    6.970160
  C      0.549000    6.021880    8.407290
  C     -0.410640    5.656660    9.341690
  C     -0.059740    5.487910   10.669180
  C      1.250530    5.680690   11.072140
  C      2.210600    6.047200   10.144080
  C      1.861490    6.218100    8.816970
  C     -0.140500    7.650390    6.586610
  C     -1.485540    8.084600    7.165940
  C     -1.854080    9.496570    6.723640
  C     -3.132180    9.968520    7.379690
  O     -3.622820    9.502820    8.372470
  O     -3.656240   11.001390    6.706850
  C     -4.847030   11.564650    7.241700
  H     -1.432520    5.501380    9.028340
  H     -0.811810    5.203120   11.389750
  H      1.523800    5.544800   12.107910
  H      3.234120    6.198090   10.454050
  H      2.610200    6.499140    8.089750
  H     -0.168120    7.741550    5.499550
  H      0.652810    8.301550    6.962300
  H     -2.263250    7.392390    6.835910
  H     -1.452280    8.051730    8.255990
  H     -1.066080   10.198530    7.009970
  H     -1.974250    9.559060    5.641150
  H     -4.635260   12.069230    8.186440
  H     -5.205480   12.276490    6.503200
  H     -5.589410   10.784070    7.418670

 Total Charge           Charge          ....    0
 Multiplicity           Mult            ....    1
 Number of Electrons    NEL             ....  522
 Basis Dimension        Dim             .... 1246

ORBITAL ENERGIES
----------------

  NO   OCC          E(Eh)            E(eV)
   0   2.0000     -20.599692      -560.5461
   1   2.0000     -20.544610      -559.0473
   2   2.0000     -11.384904      -309.7990
   3   2.0000     -11.295997      -307.3797
   4   2.0000     -11.294870      -307.3490
   5   2.0000     -11.292487      -307.2842
   6   2.0000     -11.289755      -307.2099
   7   2.0000     -11.288690      -307.1809
   8   2.0000     -11.288478      -307.1751
   9   2.0000     -11.288458      -307.1745
  10   2.0000     -11.287747      -307.1552
  11   2.0000     -11.287713      -307.1543
  12   2.0000     -11.287640      -307.1523
  13   2.0000     -11.287266      -307.1421
  14   2.0000     -11.286886      -307.1318
  15   2.0000     -11.286831      -307.1303
  16   2.0000     -11.286319      -307.1163
  17   2.0000     -11.286126      -307.1111
  18   2.0000     -11.286086      -307.1100
  19   2.0000     -11.286066      -307.1095
  20   2.0000     -11.285952      -307.1064
  21   2.0000     -11.285535      -307.0950
  22   2.0000     -11.285155      -307.0847
  23   2.0000     -11.284945      -307.0790
  24   2.0000     -11.284353      -307.0629
  25   2.0000     -11.283897      -307.0505
  26   2.0000     -11.283388      -307.0366
  27   2.0000     -11.283093      -307.0286
  28   2.0000     -11.282883      -307.0228
  29   2.0000     -11.281659      -306.9896
  30   2.0000     -11.281495      -306.9851
  31   2.0000     -11.280998      -306.9716
  32   2.0000     -11.280807      -306.9664
  33   2.0000     -11.280524      -306.9587
  34   2.0000     -11.279854      -306.9404
  35   2.0000     -11.279554      -306.9323
  36   2.0000     -11.279489      -306.9305
  37   2.0000     -11.279302      -306.9254
  38   2.0000     -11.279216      -306.9231
  39   2.0000     -11.279058      -306.9188
  40   2.0000     -11.278946      -306.9157
  41   2.0000     -11.278727      -306.9098
  42   2.0000     -11.278469      -306.9027
  43   2.0000     -11.278380      -306.9003
  44   2.0000     -11.278293      -306.8980
  45   2.0000     -11.278161      -306.8944
  46   2.0000     -11.278149      -306.8940
  47   2.0000     -11.278031      -306.8908
  48   2.0000     -11.277808      -306.8847
  49   2.0000     -11.277611      -306.8794
  50   2.0000     -11.277428      -306.8744
  51   2.0000     -11.277346      -306.8722
  52   2.0000     -11.277192      -306.8680
  53   2.0000     -11.277138      -306.8665
  54   2.0000     -11.277079      -306.8649
  55   2.0000     -11.277033      -306.8637
  56   2.0000     -11.276894      -306.8599
  57   2.0000     -11.276776      -306.8567
  58   2.0000     -11.276737      -306.8556
  59   2.0000     -11.276579      -306.8513
  60   2.0000     -11.276449      -306.8478
  61   2.0000     -11.276323      -306.8444
  62   2.0000     -11.276104      -306.8384
  63   2.0000     -11.276060      -306.8372
  64   2.0000     -11.275741      -306.8285
  65   2.0000     -11.275655      -306.8262
  66   2.0000     -11.275590      -306.8244
  67   2.0000     -11.275344      -306.8177
  68   2.0000     -11.274612      -306.7978
  69   2.0000     -11.274318      -306.7898
  70   2.0000     -11.273677      -306.7724
  71   2.0000     -11.272355      -306.7364
  72   2.0000     -11.270693      -306.6912
  73   2.0000     -11.270225      -306.6784
  74   2.0000     -11.269236      -306.6515
  75   2.0000     -11.255201      -306.2696
  76   2.0000     -11.250928      -306.1533
  77   2.0000     -11.250521      -306.1422
  78   2.0000     -11.247743      -306.0667
  79   2.0000     -11.246483      -306.0323
  80   2.0000     -11.245363      -306.0019
  81   2.0000     -11.244373      -305.9749
  82   2.0000     -11.243430      -305.9493
  83   2.0000     -11.238025      -305.8022
  84   2.0000      -1.455631       -39.6097
  85   2.0000      -1.351340       -36.7718
  86   2.0000      -1.292096       -35.1597
  87   2.0000      -1.278557       -34.7913
  88   2.0000      -1.267269       -34.4842
  89   2.0000      -1.265532       -34.4369
  90   2.0000      -1.242590       -33.8126
  91   2.0000      -1.234541       -33.5936
  92   2.0000      -1.232126       -33.5279
  93   2.0000      -1.221714       -33.2445
  94   2.0000      -1.220264       -33.2051
  95   2.0000      -1.198736       -32.6193
  96   2.0000      -1.186656       -32.2905
  97   2.0000      -1.179257       -32.0892
  98   2.0000      -1.175306       -31.9817
  99   2.0000      -1.159358       -31.5477
 100   2.0000      -1.157368       -31.4936
 101   2.0000      -1.148679       -31.2572
 102   2.0000      -1.147163       -31.2159
 103   2.0000      -1.127358       -30.6770
 104   2.0000      -1.117972       -30.4216
 105   2.0000      -1.089942       -29.6588
 106   2.0000      -1.088257       -29.6130
 107   2.0000      -1.087425       -29.5903
 108   2.0000      -1.087175       -29.5835
 109   2.0000      -1.084672       -29.5154
 110   2.0000      -1.084465       -29.5098
 111   2.0000      -1.064531       -28.9673
 112   2.0000      -1.063591       -28.9418
 113   2.0000      -1.055349       -28.7175
 114   2.0000      -1.023318       -27.8459
 115   2.0000      -1.021817       -27.8051
 116   2.0000      -1.018659       -27.7191
 117   2.0000      -1.011836       -27.5335
 118   2.0000      -1.007809       -27.4239
 119   2.0000      -1.006409       -27.3858
 120   2.0000      -1.003976       -27.3196
 121   2.0000      -1.000717       -27.2309
 122   2.0000      -0.992794       -27.0153
 123   2.0000      -0.991396       -26.9772
 124   2.0000      -0.990376       -26.9495
 125   2.0000      -0.987448       -26.8698
 126   2.0000      -0.955930       -26.0122
 127   2.0000      -0.937251       -25.5039
 128   2.0000      -0.926539       -25.2124
 129   2.0000      -0.915986       -24.9253
 130   2.0000      -0.914956       -24.8972
 131   2.0000      -0.903837       -24.5946
 132   2.0000      -0.901921       -24.5425
 133   2.0000      -0.893286       -24.3076
 134   2.0000      -0.889675       -24.2093
 135   2.0000      -0.889526       -24.2052
 136   2.0000      -0.869225       -23.6528
 137   2.0000      -0.860256       -23.4087
 138   2.0000      -0.855804       -23.2876
 139   2.0000      -0.852859       -23.2075
 140   2.0000      -0.848860       -23.0987
 141   2.0000      -0.843337       -22.9484
 142   2.0000      -0.838435       -22.8150
 143   2.0000      -0.830548       -22.6004
 144   2.0000      -0.819210       -22.2918
 145   2.0000      -0.801097       -21.7989
 146   2.0000      -0.795031       -21.6339
 147   2.0000      -0.793902       -21.6032
 148   2.0000      -0.787936       -21.4408
 149   2.0000      -0.784733       -21.3537
 150   2.0000      -0.774676       -21.0800
 151   2.0000      -0.770240       -20.9593
 152   2.0000      -0.768656       -20.9162
 153   2.0000      -0.764218       -20.7954
 154   2.0000      -0.759692       -20.6723
 155   2.0000      -0.737905       -20.0794
 156   2.0000      -0.733445       -19.9581
 157   2.0000      -0.732034       -19.9197
 158   2.0000      -0.728419       -19.8213
 159   2.0000      -0.723844       -19.6968
 160   2.0000      -0.722869       -19.6703
 161   2.0000      -0.710151       -19.3242
 162   2.0000      -0.706160       -19.2156
 163   2.0000      -0.697489       -18.9796
 164   2.0000      -0.691142       -18.8069
 165   2.0000      -0.690422       -18.7873
 166   2.0000      -0.681699       -18.5500
 167   2.0000      -0.679770       -18.4975
 168   2.0000      -0.677185       -18.4272
 169   2.0000      -0.673246       -18.3199
 170   2.0000      -0.673095       -18.3159
 171   2.0000      -0.671075       -18.2609
 172   2.0000      -0.663688       -18.0599
 173   2.0000      -0.659739       -17.9524
 174   2.0000      -0.657219       -17.8838
 175   2.0000      -0.655397       -17.8342
 176   2.0000      -0.651173       -17.7193
 177   2.0000      -0.648502       -17.6466
 178   2.0000      -0.644688       -17.5428
 179   2.0000      -0.642042       -17.4709
 180   2.0000      -0.640276       -17.4228
 181   2.0000      -0.633897       -17.2492
 182   2.0000      -0.630341       -17.1525
 183   2.0000      -0.629764       -17.1368
 184   2.0000      -0.626260       -17.0414
 185   2.0000      -0.625604       -17.0235
 186   2.0000      -0.624271       -16.9873
 187   2.0000      -0.612376       -16.6636
 188   2.0000      -0.611475       -16.6391
 189   2.0000      -0.609665       -16.5898
 190   2.0000      -0.605599       -16.4792
 191   2.0000      -0.604684       -16.4543
 192   2.0000      -0.602824       -16.4037
 193   2.0000      -0.602180       -16.3862
 194   2.0000      -0.598614       -16.2891
 195   2.0000      -0.597695       -16.2641
 196   2.0000      -0.596902       -16.2425
 197   2.0000      -0.595502       -16.2044
 198   2.0000      -0.590175       -16.0595
 199   2.0000      -0.587033       -15.9740
 200   2.0000      -0.581060       -15.8114
 201   2.0000      -0.580414       -15.7939
 202   2.0000      -0.579772       -15.7764
 203   2.0000      -0.578481       -15.7413
 204   2.0000      -0.570898       -15.5349
 205   2.0000      -0.566043       -15.4028
 206   2.0000      -0.565830       -15.3970
 207   2.0000      -0.564562       -15.3625
 208   2.0000      -0.562410       -15.3040
 209   2.0000      -0.560850       -15.2615
 210   2.0000      -0.560759       -15.2590
 211   2.0000      -0.559088       -15.2136
 212   2.0000      -0.546957       -14.8835
 213   2.0000      -0.537903       -14.6371
 214   2.0000      -0.530418       -14.4334
 215   2.0000      -0.528832       -14.3903
 216   2.0000      -0.520922       -14.1750
 217   2.0000      -0.520369       -14.1600
 218   2.0000      -0.518959       -14.1216
 219   2.0000      -0.515001       -14.0139
 220   2.0000      -0.512110       -13.9352
 221   2.0000      -0.510988       -13.9047
 222   2.0000      -0.510292       -13.8858
 223   2.0000      -0.507006       -13.7963
 224   2.0000      -0.506098       -13.7716
 225   2.0000      -0.505450       -13.7540
 226   2.0000      -0.504613       -13.7312
 227   2.0000      -0.502662       -13.6781
 228   2.0000      -0.499030       -13.5793
 229   2.0000      -0.498213       -13.5571
 230   2.0000      -0.495863       -13.4931
 231   2.0000      -0.493544       -13.4300
 232   2.0000      -0.493347       -13.4247
 233   2.0000      -0.488860       -13.3026
 234   2.0000      -0.481167       -13.0932
 235   2.0000      -0.474978       -12.9248
 236   2.0000      -0.474049       -12.8995
 237   2.0000      -0.467061       -12.7094
 238   2.0000      -0.464970       -12.6525
 239   2.0000      -0.452161       -12.3039
 240   2.0000      -0.418126       -11.3778
 241   2.0000      -0.412035       -11.2121
 242   2.0000      -0.408957       -11.1283
 243   2.0000      -0.402631       -10.9562
 244   2.0000      -0.397420       -10.8143
 245   2.0000      -0.389061       -10.5869
 246   2.0000      -0.385318       -10.4850
 247   2.0000      -0.364197        -9.9103
 248   2.0000      -0.363713        -9.8971
 249   2.0000      -0.352036        -9.5794
 250   2.0000      -0.348632        -9.4867
 251   2.0000      -0.337255        -9.1772
 252   2.0000      -0.320715        -8.7271
 253   2.0000      -0.309847        -8.4314
 254   2.0000      -0.309269        -8.4156
 255   2.0000      -0.307563        -8.3692
 256   2.0000      -0.303354        -8.2547
 257   2.0000      -0.289761        -7.8848
 258   2.0000      -0.275191        -7.4883
 259   2.0000      -0.273757        -7.4493
 260   2.0000      -0.261960        -7.1283
 261   0.0000      -0.025987        -0.7071
 262   0.0000      -0.023225        -0.6320
 263   0.0000      -0.019535        -0.5316
 264   0.0000       0.000292         0.0080
 265   0.0000       0.027667         0.7528

MULLIKEN ATOMIC CHARGES
-----------------------
   0 C :    0.002290
   1 C :    0.003182
   2 C :    0.005324
   3 C :    0.004042
   4 C :    0.002123
   5 C :    0.000651
   6 C :    0.002242
   7 C :    0.003108
   8 C :    0.005496
   9 C :    0.002421
  10 C :    0.001368
  11 C :    0.002867
  12 C :    0.003451
  13 C :    0.000563
  14 C :    0.002208
  15 C :    0.001490
  16 C :   -0.026349
  17 C :    0.002892
  18 C :   -0.029527
  19 C :   -0.029663
  20 C :   -0.024916
  21 C :   -0.023152
  22 C :   -0.022266
  23 C :    0.004114
  24 C :    0.035457
  25 C :    0.036338
  26 C :    0.029777
  27 C :    0.025397
  28 C :    0.025362
  29 C :   -0.024251
  30 C :   -0.026565
  31 C :    0.038212
  32 C :   -0.030134
  33 C :   -0.017775
  34 C :   -0.027862
  35 C :   -0.018718
  36 C :    0.029353
  37 C :   -0.010084
  38 C :   -0.029103
  39 C :    0.013373
  40 C :   -0.026764
  41 C :    0.095494
  42 C :    0.079768
  43 C :   -0.014872
  44 C :    0.001702
  45 C :    0.003353
  46 C :   -0.030563
  47 C :   -0.030176
  48 C :    0.039051
  49 C :   -0.006811
  50 C :    0.002650
  51 C :   -0.025266
  52 C :   -0.190679
  53 C :    0.004058
  54 C :   -0.030561
  55 C :   -0.025372
  56 C :    0.037117
  57 C :   -0.030588
  58 C :    0.008334
  59 C :    0.004165
  60 C :    0.087368
  61 C :   -0.193715
  62 C :    0.013886
  63 C :    0.013079
  64 C :    0.034619
  65 C :   -0.025522
  66 C :    0.013533
  67 C :   -0.007325
  68 C :    0.059765
  69 C :   -0.010260
  70 C :   -0.095927
  71 C :   -0.126544
  72 C :    0.021575
  73 C :   -0.025424
  74 C :   -0.022307
  75 C :   -0.028631
  76 C :    0.023782
  77 C :    0.184807
  78 C :   -0.114180
  79 C :   -0.040924
  80 C :    0.480215
  81 O :   -0.406033
  82 O :   -0.530544
  83 C :    0.235768
  84 H :    0.044413
  85 H :    0.040184
  86 H :    0.040612
  87 H :    0.038168
  88 H :    0.032238
  89 H :    0.037665
  90 H :    0.034432
  91 H :    0.046973
  92 H :    0.071958
  93 H :    0.065157
  94 H :    0.065226
  95 H :    0.040344
  96 H :    0.046008
  97 H :    0.048785
Sum of atomic charges:   -0.0000000

LOEWDIN ATOMIC CHARGES
----------------------
   0 C :   -0.009966
   1 C :    0.004789
   2 C :    0.009021
   3 C :    0.007068
   4 C :    0.001219
   5 C :   -0.010724
   6 C :    0.001070
   7 C :    0.004802
   8 C :    0.009226
   9 C :   -0.009713
  10 C :   -0.008247
  11 C :    0.001449
  12 C :    0.002709
  13 C :   -0.010639
  14 C :   -0.000279
  15 C :   -0.001061
  16 C :   -0.001625
  17 C :    0.001997
  18 C :   -0.006740
  19 C :   -0.007709
  20 C :   -0.000926
  21 C :   -0.001928
  22 C :   -0.000075
  23 C :    0.003800
  24 C :   -0.000189
  25 C :    0.001693
  26 C :   -0.002897
  27 C :   -0.004356
  28 C :   -0.005056
  29 C :   -0.001051
  30 C :    0.000100
  31 C :    0.003072
  32 C :   -0.002482
  33 C :   -0.001623
  34 C :    0.000608
  35 C :    0.001811
  36 C :   -0.002987
  37 C :   -0.008654
  38 C :   -0.008682
  39 C :    0.000146
  40 C :   -0.022076
  41 C :    0.020145
  42 C :    0.021421
  43 C :    0.000219
  44 C :    0.000750
  45 C :    0.002070
  46 C :   -0.008003
  47 C :   -0.007915
  48 C :    0.003625
  49 C :   -0.020146
  50 C :    0.003165
  51 C :   -0.024605
  52 C :   -0.008436
  53 C :   -0.008427
  54 C :   -0.001421
  55 C :   -0.000665
  56 C :    0.001687
  57 C :   -0.010161
  58 C :    0.005538
  59 C :    0.005014
  60 C :    0.019842
  61 C :   -0.004602
  62 C :   -0.012278
  63 C :    0.002618
  64 C :   -0.000703
  65 C :    0.001772
  66 C :    0.004195
  67 C :   -0.020031
  68 C :    0.023908
  69 C :   -0.010475
  70 C :   -0.000151
  71 C :   -0.030396
  72 C :   -0.006966
  73 C :   -0.018572
  74 C :   -0.017530
  75 C :   -0.020994
  76 C :   -0.010651
  77 C :    0.011036
  78 C :   -0.010602
  79 C :   -0.036182
  80 C :    0.199679
  81 O :   -0.258831
  82 O :   -0.184705
  83 C :    0.138411
  84 H :    0.027665
  85 H :    0.028635
  86 H :    0.027418
  87 H :    0.027243
  88 H :    0.025214
  89 H :    0.017388
  90 H :    0.022705
  91 H :    0.017799
  92 H :    0.025903
  93 H :    0.038938
  94 H :    0.033264
  95 H :    0.015174
  96 H :    0.018475
  97 H :    0.017637

  Mayer bond orders larger than 0.100000
B(  0-C ,  1-C ) :   1.4663 B(  0-C ,  4-C ) :   1.1940 B(  0-C ,  6-C ) :   1.1948
B(  1-C ,  2-C ) :   1.1878 B(  1-C ,  7-C ) :   1.1926 B(  2-C ,  3-C ) :   1.1831
B(  2-C ,  5-C ) :   1.4746 B(  3-C ,  8-C ) :   1.1829 B(  3-C , 10-C ) :   1.4805
B(  4-C , 11-C ) :   1.4973 B(  4-C , 16-C ) :   1.1604 B(  5-C , 11-C ) :   1.1912
B(  5-C , 12-C ) :   1.1904 B(  6-C , 17-C ) :   1.4992 B(  6-C , 18-C ) :   1.1584
B(  7-C ,  8-C ) :   1.1873 B(  7-C ,  9-C ) :   1.4669 B(  8-C , 13-C ) :   1.4754
B(  9-C , 17-C ) :   1.1944 B(  9-C , 44-C ) :   1.1937 B( 10-C , 14-C ) :   1.1888
B( 10-C , 15-C ) :   1.1888 B( 11-C , 19-C ) :   1.1636 B( 12-C , 14-C ) :   1.4942
B( 12-C , 20-C ) :   1.1673 B( 13-C , 23-C ) :   1.1897 B( 13-C , 45-C ) :   1.1906
B( 14-C , 21-C ) :   1.1684 B( 15-C , 22-C ) :   1.1682 B( 15-C , 23-C ) :   1.4948
B( 16-C , 18-C ) :   1.3414 B( 16-C , 24-C ) :   1.3402 B( 17-C , 46-C ) :   1.1585
B( 18-C , 31-C ) :   1.3454 B( 19-C , 20-C ) :   1.3393 B( 19-C , 25-C ) :   1.3424
B( 20-C , 26-C ) :   1.3345 B( 21-C , 22-C ) :   1.3336 B( 21-C , 27-C ) :   1.3381
B( 22-C , 28-C ) :   1.3385 B( 23-C , 29-C ) :   1.1667 B( 24-C , 25-C ) :   1.1609
B( 24-C , 30-C ) :   1.3388 B( 25-C , 32-C ) :   1.3356 B( 26-C , 27-C ) :   1.1815
B( 26-C , 33-C ) :   1.3326 B( 27-C , 34-C ) :   1.3203 B( 28-C , 35-C ) :   1.3195
B( 28-C , 36-C ) :   1.1826 B( 29-C , 36-C ) :   1.3338 B( 29-C , 47-C ) :   1.3397
B( 30-C , 37-C ) :   1.1634 B( 30-C , 38-C ) :   1.3433 B( 31-C , 38-C ) :   1.3335
B( 31-C , 48-C ) :   1.1603 B( 32-C , 33-C ) :   1.3391 B( 32-C , 39-C ) :   1.1668
B( 33-C , 40-C ) :   1.1818 B( 34-C , 35-C ) :   1.3242 B( 34-C , 41-C ) :   1.2066
B( 35-C , 42-C ) :   1.1990 B( 36-C , 43-C ) :   1.3309 B( 37-C , 39-C ) :   1.4701
B( 37-C , 49-C ) :   1.2331 B( 38-C , 50-C ) :   1.1668 B( 39-C , 51-C ) :   1.2236
B( 40-C , 41-C ) :   1.5951 B( 40-C , 51-C ) :   1.1073 B( 41-C , 52-C ) :   1.0256
B( 42-C , 52-C ) :   1.0275 B( 42-C , 53-C ) :   1.5999 B( 43-C , 53-C ) :   1.1805
B( 43-C , 54-C ) :   1.3371 B( 44-C , 45-C ) :   1.4979 B( 44-C , 55-C ) :   1.1602
B( 45-C , 47-C ) :   1.1633 B( 46-C , 48-C ) :   1.3455 B( 46-C , 55-C ) :   1.3413
B( 47-C , 56-C ) :   1.3418 B( 48-C , 57-C ) :   1.3336 B( 49-C , 50-C ) :   1.1924
B( 49-C , 58-C ) :   1.4312 B( 50-C , 59-C ) :   1.4945 B( 51-C , 60-C ) :   1.5561
B( 52-C , 61-C ) :   0.7330 B( 52-C , 70-C ) :   0.8523 B( 53-C , 62-C ) :   1.1124
B( 54-C , 56-C ) :   1.3365 B( 54-C , 63-C ) :   1.1646 B( 55-C , 64-C ) :   1.3402
B( 56-C , 64-C ) :   1.1605 B( 57-C , 59-C ) :   1.1668 B( 57-C , 65-C ) :   1.3430
B( 58-C , 60-C ) :   1.2425 B( 58-C , 66-C ) :   1.1874 B( 59-C , 67-C ) :   1.1921
B( 60-C , 61-C ) :   1.0253 B( 61-C , 68-C ) :   1.0240 B( 61-C , 70-C ) :   0.8439
B( 62-C , 63-C ) :   1.2257 B( 62-C , 68-C ) :   1.5565 B( 63-C , 69-C ) :   1.4656
B( 64-C , 65-C ) :   1.3389 B( 65-C , 69-C ) :   1.1625 B( 66-C , 67-C ) :   1.4295
B( 66-C , 68-C ) :   1.2412 B( 67-C , 69-C ) :   1.2368 B( 70-C , 71-C ) :   1.0122
B( 70-C , 77-C ) :   1.0332 B( 71-C , 72-C ) :   1.4302 B( 71-C , 76-C ) :   1.4175
B( 72-C , 73-C ) :   1.4176 B( 72-C , 84-H ) :   0.9982 B( 73-C , 74-C ) :   1.4133
B( 73-C , 85-H ) :   1.0016 B( 74-C , 75-C ) :   1.4069 B( 74-C , 86-H ) :   1.0033
B( 75-C , 76-C ) :   1.4248 B( 75-C , 87-H ) :   1.0011 B( 76-C , 88-H ) :   1.0022
B( 77-C , 78-C ) :   1.0401 B( 77-C , 89-H ) :   0.9443 B( 77-C , 90-H ) :   0.9500
B( 78-C , 79-C ) :   1.0324 B( 78-C , 91-H ) :   0.9702 B( 78-C , 92-H ) :   0.9594
B( 79-C , 80-C ) :   0.9830 B( 79-C , 93-H ) :   0.9486 B( 79-C , 94-H ) :   0.9663
B( 80-C , 81-O ) :   1.9723 B( 80-C , 82-O ) :   1.1022 B( 82-O , 83-C ) :   0.8248
B( 83-C , 95-H ) :   0.9925 B( 83-C , 96-H ) :   0.9928 B( 83-C , 97-H ) :   0.9903

-----------------------------------------------------------------------------
         ABSORPTION SPECTRUM VIA TRANSITION ELECTRIC DIPOLE MOMENTS
-----------------------------------------------------------------------------
State   Energy    Wavelength  fosc         T2        TX        TY        TZ
        (cm-1)      (nm)                 (au**2)    (au)      (au)      (au)
-----------------------------------------------------------------------------
   1   21929.0    456.0   0.005504876   0.08264  -0.07011   0.18888  -0.20506
   2   25158.3    397.5   0.085714550   1.12163  -0.29198   0.64111  -0.79079
   3   26785.1    373.3   0.149694848   1.83988   1.12143   0.74092   0.18251

FINAL SINGLE POINT ENERGY     -3260.284675781491

DIPOLE MOMENT
-------------
                                X             Y             Z
Electronic contribution:     18.24632     -65.74470     -49.09625
Nuclear contribution   :    -18.10116      67.27606      49.80146
                        -----------------------------------------
Total Dipole Moment    :      0.14517       1.53136       0.70521
                        -----------------------------------------
Magnitude (a.u.)       :      1.69218
Magnitude (Debye)      :      4.30117

Rotational constants in cm-1:     0.001838     0.000912     0.000854
Rotational constants in MHz :    55.102435    27.344846    25.606897

                             ****ORCA TERMINATED NORMALLY****
TOTAL RUN TIME: 2 days 14 hours 33 minutes 15 seconds 261 msec
