                         Program Version 4.2.0 -  RELEASE  -
|  1> # ORCA input file
|  2> # PC70BM.out: Geometry 69
|  3> ! Engrad Keepdens
|  4> %maxcore 1000
|  5> %tddft
|  6>   nroots 3
|  7>   # nroots is the number of states to be computed
|  8>   Iroot 1
|  9>   end
| 10> * xyz 0 1
| 11>    C       -0.00609         0.05574        -0.02337
| 12>    C        1.34055        -0.29587         0.12915
| 13>    C        2.36969         0.72461         0.00334
| 14>    C        3.40104         0.44512         0.99146
| 15>    C       -0.37360         1.43249        -0.29626
| 16>    C        2.00937         2.04837        -0.27246
| 17>    C       -1.00687        -0.47936         0.88027
| 18>    C        1.73260        -1.20512         1.19320
| 19>    C        3.00434        -0.74569         1.72888
| 20>    C        0.76049        -1.72305         2.05923
| 21>    C        4.02784         1.50115         1.65983
| 22>    C        0.61055         2.40767        -0.41891
| 23>    C        2.65614         3.14166         0.43164
| 24>    C        3.25039        -0.82629         3.10370
| 25>    C        3.64446         2.87349         1.37549
| 26>    C        4.27296         1.41491         3.08874
| 27>    C       -1.60137         1.73258         0.41931
| 28>    C       -0.63240        -1.34943         1.89891
| 29>    C       -1.99463         0.55442         1.14187
| 30>    C        0.40585         3.71886         0.17242
| 31>    C        1.66573         4.17210         0.69382
| 32>    C        3.67308         3.62506         2.61592
| 33>    C        4.05753         2.72546         3.67057
| 34>    C        3.89000         0.27812         3.79476
| 35>    C       -1.86397         3.03482         0.92909
| 36>    C       -0.81870         4.06318         0.80899
| 37>    C        1.72995         4.98269         1.86265
| 38>    C        2.76614         4.69352         2.85574
| 39>    C        3.54609         2.87497         4.98778
| 40>    C        3.28593         0.41193         5.10794
| 41>    C       -2.76817         3.11000         2.02288
| 42>    C       -2.66121         0.64753         2.39390
| 43>    C       -0.75292         5.08636         1.79780
| 44>    C        0.50417         5.54588         2.31860
| 45>    C        2.49148         4.99698         4.21964
| 46>    C        2.87659         4.09893         5.27221
| 47>    C        3.15014         1.68172         5.73495
| 48>    C       -2.73807         4.22226         2.95822
| 49>    C       -3.16436         1.93213         2.74510
| 50>    C       -1.74038         5.18959         2.85340
| 51>    C        0.30721         5.94566         3.70202
| 52>    C        1.30121         5.69928         4.63216
| 53>    C        1.93266         4.22808         6.35317
| 54>    C        2.11374         1.80899         6.70122
| 55>    C        1.01783        -1.79333         3.48594
| 56>    C        2.23428        -1.35386         3.99739
| 57>    C       -1.23191        -1.21571         3.21695
| 58>    C        2.26525        -0.59090         5.23314
| 59>    C       -2.26449        -0.27194         3.47247
| 60>    C       -3.12460         3.73666         4.25824
| 61>    C       -3.37536         2.31200         4.12946
| 62>    C       -1.10713         5.73443         4.04022
| 63>    C        1.02327         5.36543         6.05355
| 64>    C        1.53404         3.09667         7.04061
| 65>    C        1.09381         0.80524         6.82381
| 66>    C       -0.21361        -1.48681         4.19459
| 67>    C        1.08460        -0.34852         5.98842
| 68>    C       -2.40279         0.16166         4.82191
| 69>    C       -2.48371         4.23909         5.40027
| 70>    C       -3.00193         1.44272         5.14895
| 71>    C       -1.48763         5.28088         5.29858
| 72>    C       -0.53158         5.13243         6.43482
| 73>    C        0.12325         2.87940         7.38645
| 74>    C       -0.13277         1.46003         7.23352
| 75>    C       -0.20185        -0.81996         5.45237
| 76>    C       -1.38265        -0.10688         5.79829
| 77>    C       -2.09342         3.33243         6.46158
| 78>    C       -2.36093         1.95967         6.34484
| 79>    C       -0.85137         3.80118         7.02621
| 80>    C       -1.35329         1.00584         6.73500
| 81>    C        0.29591         6.21776         7.06738
| 82>    C        0.70247         6.03753         8.50569
| 83>    C       -0.24185         5.73799         9.49435
| 84>    C        0.14433         5.64136        10.83430
| 85>    C        1.47941         5.83681        11.19585
| 86>    C        2.42860         6.13092        10.21299
| 87>    C        2.04022         6.23178         8.87632
| 88>    C       -0.04268         7.66368         6.69622
| 89>    C       -1.44160         8.06315         7.16601
| 90>    C       -1.84097         9.47671         6.75617
| 91>    C       -3.31499         9.74764         6.97801
| 92>    O       -4.12468         8.94289         7.37116
| 93>    O       -3.62873        11.01630         6.65612
| 94>    C       -5.00367        11.37773         6.78413
| 95>    H       -1.28326         5.57112         9.21179
| 96>    H       -0.60103         5.40574        11.59695
| 97>    H        1.78432         5.75436        12.24193
| 98>    H        3.47438         6.28316        10.49028
| 99>    H        2.78212         6.45721         8.10685
|100>    H        0.03625         7.80149         5.60745
|101>    H        0.72148         8.31598         7.14853
|102>    H       -2.17821         7.36089         6.74870
|103>    H       -1.51861         7.96128         8.26025
|104>    H       -1.26270        10.24603         7.29373
|105>    H       -1.63485         9.65564         5.68588
|106>    H       -5.32382        11.33362         7.83623
|107>    H       -5.08895        12.40282         6.40322
|108>    H       -5.64272        10.69967         6.20026
|109> *
|110>
|111>                          ****END OF INPUT****

CARTESIAN COORDINATES (ANGSTROEM)
---------------------------------
  C     -0.006090    0.055740   -0.023370
  C      1.340550   -0.295870    0.129150
  C      2.369690    0.724610    0.003340
  C      3.401040    0.445120    0.991460
  C     -0.373600    1.432490   -0.296260
  C      2.009370    2.048370   -0.272460
  C     -1.006870   -0.479360    0.880270
  C      1.732600   -1.205120    1.193200
  C      3.004340   -0.745690    1.728880
  C      0.760490   -1.723050    2.059230
  C      4.027840    1.501150    1.659830
  C      0.610550    2.407670   -0.418910
  C      2.656140    3.141660    0.431640
  C      3.250390   -0.826290    3.103700
  C      3.644460    2.873490    1.375490
  C      4.272960    1.414910    3.088740
  C     -1.601370    1.732580    0.419310
  C     -0.632400   -1.349430    1.898910
  C     -1.994630    0.554420    1.141870
  C      0.405850    3.718860    0.172420
  C      1.665730    4.172100    0.693820
  C      3.673080    3.625060    2.615920
  C      4.057530    2.725460    3.670570
  C      3.890000    0.278120    3.794760
  C     -1.863970    3.034820    0.929090
  C     -0.818700    4.063180    0.808990
  C      1.729950    4.982690    1.862650
  C      2.766140    4.693520    2.855740
  C      3.546090    2.874970    4.987780
  C      3.285930    0.411930    5.107940
  C     -2.768170    3.110000    2.022880
  C     -2.661210    0.647530    2.393900
  C     -0.752920    5.086360    1.797800
  C      0.504170    5.545880    2.318600
  C      2.491480    4.996980    4.219640
  C      2.876590    4.098930    5.272210
  C      3.150140    1.681720    5.734950
  C     -2.738070    4.222260    2.958220
  C     -3.164360    1.932130    2.745100
  C     -1.740380    5.189590    2.853400
  C      0.307210    5.945660    3.702020
  C      1.301210    5.699280    4.632160
  C      1.932660    4.228080    6.353170
  C      2.113740    1.808990    6.701220
  C      1.017830   -1.793330    3.485940
  C      2.234280   -1.353860    3.997390
  C     -1.231910   -1.215710    3.216950
  C      2.265250   -0.590900    5.233140
  C     -2.264490   -0.271940    3.472470
  C     -3.124600    3.736660    4.258240
  C     -3.375360    2.312000    4.129460
  C     -1.107130    5.734430    4.040220
  C      1.023270    5.365430    6.053550
  C      1.534040    3.096670    7.040610
  C      1.093810    0.805240    6.823810
  C     -0.213610   -1.486810    4.194590
  C      1.084600   -0.348520    5.988420
  C     -2.402790    0.161660    4.821910
  C     -2.483710    4.239090    5.400270
  C     -3.001930    1.442720    5.148950
  C     -1.487630    5.280880    5.298580
  C     -0.531580    5.132430    6.434820
  C      0.123250    2.879400    7.386450
  C     -0.132770    1.460030    7.233520
  C     -0.201850   -0.819960    5.452370
  C     -1.382650   -0.106880    5.798290
  C     -2.093420    3.332430    6.461580
  C     -2.360930    1.959670    6.344840
  C     -0.851370    3.801180    7.026210
  C     -1.353290    1.005840    6.735000
  C      0.295910    6.217760    7.067380
  C      0.702470    6.037530    8.505690
  C     -0.241850    5.737990    9.494350
  C      0.144330    5.641360   10.834300
  C      1.479410    5.836810   11.195850
  C      2.428600    6.130920   10.212990
  C      2.040220    6.231780    8.876320
  C     -0.042680    7.663680    6.696220
  C     -1.441600    8.063150    7.166010
  C     -1.840970    9.476710    6.756170
  C     -3.314990    9.747640    6.978010
  O     -4.124680    8.942890    7.371160
  O     -3.628730   11.016300    6.656120
  C     -5.003670   11.377730    6.784130
  H     -1.283260    5.571120    9.211790
  H     -0.601030    5.405740   11.596950
  H      1.784320    5.754360   12.241930
  H      3.474380    6.283160   10.490280
  H      2.782120    6.457210    8.106850
  H      0.036250    7.801490    5.607450
  H      0.721480    8.315980    7.148530
  H     -2.178210    7.360890    6.748700
  H     -1.518610    7.961280    8.260250
  H     -1.262700   10.246030    7.293730
  H     -1.634850    9.655640    5.685880
  H     -5.323820   11.333620    7.836230
  H     -5.088950   12.402820    6.403220
  H     -5.642720   10.699670    6.200260

 Total Charge           Charge          ....    0
 Multiplicity           Mult            ....    1
 Number of Electrons    NEL             ....  522
 Basis Dimension        Dim             .... 1246

ORBITAL ENERGIES
----------------

  NO   OCC          E(Eh)            E(eV)
   0   2.0000     -20.600809      -560.5765
   1   2.0000     -20.546177      -559.0899
   2   2.0000     -11.388028      -309.8840
   3   2.0000     -11.300347      -307.4981
   4   2.0000     -11.299687      -307.4801
   5   2.0000     -11.298536      -307.4488
   6   2.0000     -11.294971      -307.3518
   7   2.0000     -11.294788      -307.3468
   8   2.0000     -11.294724      -307.3451
   9   2.0000     -11.294091      -307.3278
  10   2.0000     -11.294066      -307.3272
  11   2.0000     -11.294004      -307.3255
  12   2.0000     -11.293748      -307.3185
  13   2.0000     -11.293174      -307.3029
  14   2.0000     -11.293034      -307.2991
  15   2.0000     -11.292753      -307.2914
  16   2.0000     -11.292707      -307.2902
  17   2.0000     -11.292481      -307.2840
  18   2.0000     -11.292437      -307.2828
  19   2.0000     -11.291799      -307.2655
  20   2.0000     -11.291325      -307.2526
  21   2.0000     -11.291258      -307.2507
  22   2.0000     -11.290814      -307.2387
  23   2.0000     -11.290721      -307.2361
  24   2.0000     -11.290225      -307.2226
  25   2.0000     -11.289708      -307.2086
  26   2.0000     -11.289315      -307.1979
  27   2.0000     -11.288951      -307.1880
  28   2.0000     -11.287836      -307.1576
  29   2.0000     -11.287787      -307.1563
  30   2.0000     -11.287227      -307.1411
  31   2.0000     -11.286910      -307.1324
  32   2.0000     -11.286885      -307.1317
  33   2.0000     -11.286711      -307.1270
  34   2.0000     -11.286207      -307.1133
  35   2.0000     -11.286033      -307.1086
  36   2.0000     -11.285771      -307.1014
  37   2.0000     -11.285462      -307.0930
  38   2.0000     -11.285309      -307.0889
  39   2.0000     -11.285295      -307.0885
  40   2.0000     -11.285179      -307.0853
  41   2.0000     -11.285035      -307.0814
  42   2.0000     -11.284679      -307.0717
  43   2.0000     -11.284545      -307.0681
  44   2.0000     -11.284523      -307.0675
  45   2.0000     -11.284478      -307.0662
  46   2.0000     -11.284394      -307.0640
  47   2.0000     -11.284255      -307.0602
  48   2.0000     -11.283812      -307.0481
  49   2.0000     -11.283793      -307.0476
  50   2.0000     -11.283675      -307.0444
  51   2.0000     -11.283659      -307.0440
  52   2.0000     -11.283658      -307.0440
  53   2.0000     -11.283292      -307.0340
  54   2.0000     -11.283255      -307.0330
  55   2.0000     -11.283198      -307.0314
  56   2.0000     -11.283037      -307.0271
  57   2.0000     -11.282964      -307.0250
  58   2.0000     -11.282926      -307.0240
  59   2.0000     -11.282877      -307.0227
  60   2.0000     -11.282745      -307.0191
  61   2.0000     -11.282513      -307.0128
  62   2.0000     -11.282479      -307.0119
  63   2.0000     -11.282084      -307.0011
  64   2.0000     -11.281972      -306.9981
  65   2.0000     -11.281912      -306.9964
  66   2.0000     -11.281786      -306.9930
  67   2.0000     -11.281347      -306.9811
  68   2.0000     -11.280995      -306.9715
  69   2.0000     -11.280182      -306.9494
  70   2.0000     -11.280054      -306.9459
  71   2.0000     -11.277736      -306.8828
  72   2.0000     -11.277296      -306.8708
  73   2.0000     -11.275896      -306.8327
  74   2.0000     -11.275328      -306.8173
  75   2.0000     -11.261720      -306.4470
  76   2.0000     -11.256017      -306.2918
  77   2.0000     -11.254314      -306.2454
  78   2.0000     -11.253856      -306.2330
  79   2.0000     -11.253250      -306.2165
  80   2.0000     -11.252190      -306.1876
  81   2.0000     -11.251383      -306.1657
  82   2.0000     -11.250607      -306.1446
  83   2.0000     -11.240905      -305.8806
  84   2.0000      -1.451793       -39.5053
  85   2.0000      -1.348388       -36.6915
  86   2.0000      -1.282305       -34.8933
  87   2.0000      -1.269091       -34.5337
  88   2.0000      -1.258009       -34.2322
  89   2.0000      -1.256270       -34.1848
  90   2.0000      -1.233773       -33.5727
  91   2.0000      -1.225980       -33.3606
  92   2.0000      -1.223304       -33.2878
  93   2.0000      -1.213093       -33.0099
  94   2.0000      -1.211753       -32.9735
  95   2.0000      -1.190680       -32.4000
  96   2.0000      -1.178604       -32.0714
  97   2.0000      -1.171417       -31.8759
  98   2.0000      -1.167523       -31.7699
  99   2.0000      -1.152052       -31.3489
 100   2.0000      -1.150366       -31.3031
 101   2.0000      -1.141139       -31.0520
 102   2.0000      -1.139345       -31.0031
 103   2.0000      -1.121027       -30.5047
 104   2.0000      -1.110337       -30.2138
 105   2.0000      -1.085017       -29.5248
 106   2.0000      -1.082381       -29.4531
 107   2.0000      -1.081765       -29.4363
 108   2.0000      -1.081548       -29.4304
 109   2.0000      -1.079050       -29.3625
 110   2.0000      -1.078702       -29.3530
 111   2.0000      -1.058323       -28.7984
 112   2.0000      -1.057532       -28.7769
 113   2.0000      -1.050753       -28.5924
 114   2.0000      -1.018970       -27.7276
 115   2.0000      -1.017266       -27.6812
 116   2.0000      -1.014580       -27.6081
 117   2.0000      -1.007288       -27.4097
 118   2.0000      -1.003648       -27.3106
 119   2.0000      -1.001177       -27.2434
 120   2.0000      -1.000173       -27.2161
 121   2.0000      -0.996965       -27.1288
 122   2.0000      -0.989256       -26.9190
 123   2.0000      -0.987403       -26.8686
 124   2.0000      -0.986557       -26.8456
 125   2.0000      -0.984284       -26.7837
 126   2.0000      -0.952215       -25.9111
 127   2.0000      -0.930343       -25.3159
 128   2.0000      -0.922050       -25.0902
 129   2.0000      -0.911948       -24.8154
 130   2.0000      -0.910901       -24.7869
 131   2.0000      -0.899814       -24.4852
 132   2.0000      -0.897689       -24.4274
 133   2.0000      -0.888339       -24.1729
 134   2.0000      -0.887931       -24.1618
 135   2.0000      -0.884619       -24.0717
 136   2.0000      -0.865801       -23.5596
 137   2.0000      -0.856455       -23.3053
 138   2.0000      -0.851350       -23.1664
 139   2.0000      -0.848386       -23.0858
 140   2.0000      -0.844795       -22.9880
 141   2.0000      -0.839238       -22.8368
 142   2.0000      -0.834795       -22.7159
 143   2.0000      -0.827806       -22.5258
 144   2.0000      -0.816412       -22.2157
 145   2.0000      -0.798384       -21.7251
 146   2.0000      -0.792512       -21.5653
 147   2.0000      -0.789966       -21.4961
 148   2.0000      -0.784950       -21.3596
 149   2.0000      -0.782912       -21.3041
 150   2.0000      -0.770830       -20.9753
 151   2.0000      -0.767304       -20.8794
 152   2.0000      -0.764257       -20.7965
 153   2.0000      -0.759475       -20.6664
 154   2.0000      -0.753732       -20.5101
 155   2.0000      -0.733340       -19.9552
 156   2.0000      -0.728959       -19.8360
 157   2.0000      -0.728535       -19.8244
 158   2.0000      -0.725226       -19.7344
 159   2.0000      -0.719338       -19.5742
 160   2.0000      -0.718386       -19.5483
 161   2.0000      -0.707473       -19.2513
 162   2.0000      -0.702462       -19.1150
 163   2.0000      -0.694153       -18.8889
 164   2.0000      -0.688196       -18.7268
 165   2.0000      -0.687878       -18.7181
 166   2.0000      -0.679837       -18.4993
 167   2.0000      -0.678607       -18.4658
 168   2.0000      -0.674356       -18.3502
 169   2.0000      -0.670782       -18.2529
 170   2.0000      -0.670300       -18.2398
 171   2.0000      -0.666774       -18.1438
 172   2.0000      -0.660030       -17.9603
 173   2.0000      -0.655658       -17.8414
 174   2.0000      -0.653945       -17.7947
 175   2.0000      -0.650685       -17.7060
 176   2.0000      -0.646205       -17.5841
 177   2.0000      -0.643877       -17.5208
 178   2.0000      -0.641565       -17.4579
 179   2.0000      -0.638179       -17.3657
 180   2.0000      -0.636603       -17.3228
 181   2.0000      -0.630609       -17.1597
 182   2.0000      -0.627338       -17.0707
 183   2.0000      -0.626224       -17.0404
 184   2.0000      -0.620694       -16.8899
 185   2.0000      -0.619408       -16.8549
 186   2.0000      -0.618702       -16.8357
 187   2.0000      -0.609303       -16.5800
 188   2.0000      -0.609082       -16.5740
 189   2.0000      -0.607291       -16.5252
 190   2.0000      -0.602582       -16.3971
 191   2.0000      -0.601559       -16.3692
 192   2.0000      -0.600317       -16.3354
 193   2.0000      -0.599486       -16.3128
 194   2.0000      -0.596524       -16.2322
 195   2.0000      -0.595612       -16.2074
 196   2.0000      -0.594725       -16.1833
 197   2.0000      -0.593375       -16.1465
 198   2.0000      -0.587026       -15.9738
 199   2.0000      -0.582828       -15.8596
 200   2.0000      -0.578650       -15.7459
 201   2.0000      -0.576726       -15.6935
 202   2.0000      -0.575296       -15.6546
 203   2.0000      -0.574288       -15.6272
 204   2.0000      -0.566642       -15.4191
 205   2.0000      -0.564466       -15.3599
 206   2.0000      -0.563591       -15.3361
 207   2.0000      -0.562106       -15.2957
 208   2.0000      -0.560067       -15.2402
 209   2.0000      -0.559459       -15.2237
 210   2.0000      -0.558818       -15.2062
 211   2.0000      -0.557157       -15.1610
 212   2.0000      -0.545814       -14.8524
 213   2.0000      -0.533254       -14.5106
 214   2.0000      -0.529999       -14.4220
 215   2.0000      -0.528058       -14.3692
 216   2.0000      -0.518725       -14.1152
 217   2.0000      -0.518576       -14.1112
 218   2.0000      -0.515936       -14.0393
 219   2.0000      -0.512380       -13.9426
 220   2.0000      -0.510670       -13.8960
 221   2.0000      -0.508937       -13.8489
 222   2.0000      -0.508265       -13.8306
 223   2.0000      -0.505795       -13.7634
 224   2.0000      -0.505236       -13.7482
 225   2.0000      -0.503570       -13.7028
 226   2.0000      -0.502913       -13.6850
 227   2.0000      -0.501583       -13.6488
 228   2.0000      -0.495390       -13.4802
 229   2.0000      -0.494787       -13.4638
 230   2.0000      -0.493891       -13.4395
 231   2.0000      -0.490415       -13.3449
 232   2.0000      -0.489908       -13.3311
 233   2.0000      -0.485832       -13.2202
 234   2.0000      -0.480289       -13.0693
 235   2.0000      -0.471962       -12.8427
 236   2.0000      -0.470319       -12.7980
 237   2.0000      -0.465983       -12.6800
 238   2.0000      -0.463744       -12.6191
 239   2.0000      -0.453794       -12.3484
 240   2.0000      -0.415291       -11.3006
 241   2.0000      -0.409107       -11.1324
 242   2.0000      -0.406755       -11.0684
 243   2.0000      -0.400563       -10.8999
 244   2.0000      -0.395761       -10.7692
 245   2.0000      -0.387486       -10.5440
 246   2.0000      -0.383585       -10.4379
 247   2.0000      -0.362710        -9.8698
 248   2.0000      -0.362507        -9.8643
 249   2.0000      -0.350689        -9.5427
 250   2.0000      -0.347914        -9.4672
 251   2.0000      -0.336188        -9.1481
 252   2.0000      -0.320448        -8.7198
 253   2.0000      -0.309847        -8.4314
 254   2.0000      -0.309497        -8.4218
 255   2.0000      -0.307448        -8.3661
 256   2.0000      -0.303413        -8.2563
 257   2.0000      -0.290452        -7.9036
 258   2.0000      -0.275472        -7.4960
 259   2.0000      -0.274532        -7.4704
 260   2.0000      -0.262287        -7.1372
 261   0.0000      -0.027933        -0.7601
 262   0.0000      -0.025651        -0.6980
 263   0.0000      -0.021224        -0.5775
 264   0.0000      -0.000480        -0.0131
 265   0.0000       0.025582         0.6961

MULLIKEN ATOMIC CHARGES
-----------------------
   0 C :    0.001643
   1 C :    0.002161
   2 C :    0.004546
   3 C :    0.004228
   4 C :    0.003038
   5 C :    0.001747
   6 C :    0.001446
   7 C :    0.004551
   8 C :    0.003369
   9 C :    0.002154
  10 C :    0.001030
  11 C :    0.000207
  12 C :    0.002166
  13 C :    0.001900
  14 C :    0.000375
  15 C :    0.002209
  16 C :   -0.025270
  17 C :    0.001424
  18 C :   -0.024437
  19 C :   -0.023985
  20 C :   -0.020768
  21 C :   -0.017678
  22 C :   -0.020909
  23 C :    0.002225
  24 C :    0.034221
  25 C :    0.027203
  26 C :    0.024414
  27 C :    0.018317
  28 C :    0.020334
  29 C :   -0.019785
  30 C :   -0.026324
  31 C :    0.032366
  32 C :   -0.026839
  33 C :   -0.012499
  34 C :   -0.023881
  35 C :   -0.017436
  36 C :    0.023500
  37 C :   -0.007826
  38 C :   -0.023575
  39 C :    0.011871
  40 C :   -0.030618
  41 C :    0.094642
  42 C :    0.081149
  43 C :   -0.011858
  44 C :    0.001761
  45 C :    0.001159
  46 C :   -0.025119
  47 C :   -0.025486
  48 C :    0.030784
  49 C :   -0.004965
  50 C :    0.001182
  51 C :   -0.022529
  52 C :   -0.191409
  53 C :    0.000205
  54 C :   -0.027034
  55 C :   -0.023067
  56 C :    0.029829
  57 C :   -0.023391
  58 C :    0.017226
  59 C :    0.000633
  60 C :    0.079647
  61 C :   -0.191362
  62 C :    0.005502
  63 C :    0.011543
  64 C :    0.031498
  65 C :   -0.024498
  66 C :    0.009171
  67 C :   -0.004092
  68 C :    0.071440
  69 C :   -0.009157
  70 C :   -0.091308
  71 C :   -0.119860
  72 C :    0.007551
  73 C :   -0.036638
  74 C :   -0.031680
  75 C :   -0.037705
  76 C :    0.014981
  77 C :    0.161823
  78 C :   -0.103677
  79 C :   -0.063225
  80 C :    0.491571
  81 O :   -0.409713
  82 O :   -0.537465
  83 C :    0.226631
  84 H :    0.053793
  85 H :    0.048669
  86 H :    0.049591
  87 H :    0.047560
  88 H :    0.041918
  89 H :    0.043646
  90 H :    0.039689
  91 H :    0.070244
  92 H :    0.054952
  93 H :    0.070529
  94 H :    0.068740
  95 H :    0.046058
  96 H :    0.049570
  97 H :    0.049537
Sum of atomic charges:   -0.0000000

LOEWDIN ATOMIC CHARGES
----------------------
   0 C :   -0.010017
   1 C :    0.004795
   2 C :    0.008918
   3 C :    0.006773
   4 C :    0.001131
   5 C :   -0.010803
   6 C :    0.001478
   7 C :    0.004298
   8 C :    0.009423
   9 C :   -0.009171
  10 C :   -0.008201
  11 C :    0.001423
  12 C :    0.002884
  13 C :   -0.011032
  14 C :   -0.000415
  15 C :   -0.001537
  16 C :   -0.001392
  17 C :    0.001619
  18 C :   -0.007689
  19 C :   -0.007765
  20 C :   -0.001386
  21 C :   -0.002478
  22 C :   -0.000134
  23 C :    0.004055
  24 C :   -0.000706
  25 C :    0.002206
  26 C :   -0.002430
  27 C :   -0.003632
  28 C :   -0.004715
  29 C :   -0.001615
  30 C :    0.000968
  31 C :    0.003713
  32 C :   -0.002769
  33 C :   -0.002001
  34 C :   -0.000342
  35 C :    0.001031
  36 C :   -0.002579
  37 C :   -0.009412
  38 C :   -0.009216
  39 C :    0.001424
  40 C :   -0.021390
  41 C :    0.018061
  42 C :    0.019130
  43 C :   -0.000492
  44 C :    0.000562
  45 C :    0.002300
  46 C :   -0.008055
  47 C :   -0.007929
  48 C :    0.004082
  49 C :   -0.017752
  50 C :    0.003395
  51 C :   -0.025380
  52 C :   -0.006744
  53 C :   -0.007874
  54 C :   -0.001443
  55 C :   -0.000948
  56 C :    0.001997
  57 C :   -0.010200
  58 C :    0.007233
  59 C :    0.005076
  60 C :    0.022543
  61 C :   -0.002968
  62 C :   -0.012691
  63 C :    0.002126
  64 C :   -0.000600
  65 C :    0.001717
  66 C :    0.005571
  67 C :   -0.019969
  68 C :    0.022637
  69 C :   -0.009819
  70 C :   -0.000208
  71 C :   -0.029282
  72 C :   -0.012334
  73 C :   -0.022074
  74 C :   -0.020892
  75 C :   -0.023100
  76 C :   -0.013229
  77 C :    0.008011
  78 C :   -0.015859
  79 C :   -0.040207
  80 C :    0.207236
  81 O :   -0.262636
  82 O :   -0.192305
  83 C :    0.137040
  84 H :    0.030116
  85 H :    0.031007
  86 H :    0.030150
  87 H :    0.030241
  88 H :    0.027791
  89 H :    0.018714
  90 H :    0.024389
  91 H :    0.023644
  92 H :    0.023371
  93 H :    0.038452
  94 H :    0.039554
  95 H :    0.017209
  96 H :    0.020092
  97 H :    0.018231

  Mayer bond orders larger than 0.100000
B(  0-C ,  1-C ) :   1.4689 B(  0-C ,  4-C ) :   1.1878 B(  0-C ,  6-C ) :   1.1891
B(  1-C ,  2-C ) :   1.1817 B(  1-C ,  7-C ) :   1.1868 B(  2-C ,  3-C ) :   1.1763
B(  2-C ,  5-C ) :   1.4779 B(  3-C ,  8-C ) :   1.1767 B(  3-C , 10-C ) :   1.4840
B(  4-C , 11-C ) :   1.5025 B(  4-C , 16-C ) :   1.1546 B(  5-C , 11-C ) :   1.1849
B(  5-C , 12-C ) :   1.1840 B(  6-C , 17-C ) :   1.5033 B(  6-C , 18-C ) :   1.1525
B(  7-C ,  8-C ) :   1.1811 B(  7-C ,  9-C ) :   1.4692 B(  8-C , 13-C ) :   1.4784
B(  9-C , 17-C ) :   1.1887 B(  9-C , 44-C ) :   1.1873 B( 10-C , 14-C ) :   1.1828
B( 10-C , 15-C ) :   1.1823 B( 11-C , 19-C ) :   1.1576 B( 12-C , 14-C ) :   1.4984
B( 12-C , 20-C ) :   1.1617 B( 13-C , 23-C ) :   1.1836 B( 13-C , 45-C ) :   1.1846
B( 14-C , 21-C ) :   1.1626 B( 15-C , 22-C ) :   1.1631 B( 15-C , 23-C ) :   1.4989
B( 16-C , 18-C ) :   1.3382 B( 16-C , 24-C ) :   1.3412 B( 17-C , 46-C ) :   1.1526
B( 18-C , 31-C ) :   1.3468 B( 19-C , 20-C ) :   1.3358 B( 19-C , 25-C ) :   1.3437
B( 20-C , 26-C ) :   1.3351 B( 21-C , 22-C ) :   1.3298 B( 21-C , 27-C ) :   1.3391
B( 22-C , 28-C ) :   1.3396 B( 23-C , 29-C ) :   1.1613 B( 24-C , 25-C ) :   1.1531
B( 24-C , 30-C ) :   1.3403 B( 25-C , 32-C ) :   1.3366 B( 26-C , 27-C ) :   1.1740
B( 26-C , 33-C ) :   1.3336 B( 27-C , 34-C ) :   1.3219 B( 28-C , 35-C ) :   1.3208
B( 28-C , 36-C ) :   1.1756 B( 29-C , 36-C ) :   1.3342 B( 29-C , 47-C ) :   1.3368
B( 30-C , 37-C ) :   1.1572 B( 30-C , 38-C ) :   1.3395 B( 31-C , 38-C ) :   1.3344
B( 31-C , 48-C ) :   1.1524 B( 32-C , 33-C ) :   1.3355 B( 32-C , 39-C ) :   1.1606
B( 33-C , 40-C ) :   1.1748 B( 34-C , 35-C ) :   1.3215 B( 34-C , 41-C ) :   1.2002
B( 35-C , 42-C ) :   1.1933 B( 36-C , 43-C ) :   1.3320 B( 37-C , 39-C ) :   1.4744
B( 37-C , 49-C ) :   1.2278 B( 38-C , 50-C ) :   1.1607 B( 39-C , 51-C ) :   1.2166
B( 40-C , 41-C ) :   1.6001 B( 40-C , 51-C ) :   1.1029 B( 41-C , 52-C ) :   1.0224
B( 42-C , 52-C ) :   1.0263 B( 42-C , 53-C ) :   1.6060 B( 43-C , 53-C ) :   1.1736
B( 43-C , 54-C ) :   1.3341 B( 44-C , 45-C ) :   1.5030 B( 44-C , 55-C ) :   1.1545
B( 45-C , 47-C ) :   1.1570 B( 46-C , 48-C ) :   1.3470 B( 46-C , 55-C ) :   1.3375
B( 47-C , 56-C ) :   1.3429 B( 48-C , 57-C ) :   1.3342 B( 49-C , 50-C ) :   1.1862
B( 49-C , 58-C ) :   1.4341 B( 50-C , 59-C ) :   1.4995 B( 51-C , 60-C ) :   1.5588
B( 52-C , 61-C ) :   0.7375 B( 52-C , 70-C ) :   0.8559 B( 53-C , 62-C ) :   1.1060
B( 54-C , 56-C ) :   1.3374 B( 54-C , 63-C ) :   1.1587 B( 55-C , 64-C ) :   1.3416
B( 56-C , 64-C ) :   1.1527 B( 57-C , 59-C ) :   1.1607 B( 57-C , 65-C ) :   1.3396
B( 58-C , 60-C ) :   1.2352 B( 58-C , 66-C ) :   1.1822 B( 59-C , 67-C ) :   1.1857
B( 60-C , 61-C ) :   1.0233 B( 61-C , 68-C ) :   1.0219 B( 61-C , 70-C ) :   0.8455
B( 62-C , 63-C ) :   1.2193 B( 62-C , 68-C ) :   1.5598 B( 63-C , 69-C ) :   1.4691
B( 64-C , 65-C ) :   1.3399 B( 65-C , 69-C ) :   1.1566 B( 66-C , 67-C ) :   1.4305
B( 66-C , 68-C ) :   1.2358 B( 67-C , 69-C ) :   1.2311 B( 70-C , 71-C ) :   1.0161
B( 70-C , 77-C ) :   1.0240 B( 71-C , 72-C ) :   1.4328 B( 71-C , 76-C ) :   1.4123
B( 72-C , 73-C ) :   1.4153 B( 72-C , 84-H ) :   0.9936 B( 73-C , 74-C ) :   1.4171
B( 73-C , 85-H ) :   0.9978 B( 74-C , 75-C ) :   1.4064 B( 74-C , 86-H ) :   0.9988
B( 75-C , 76-C ) :   1.4291 B( 75-C , 87-H ) :   0.9975 B( 76-C , 88-H ) :   0.9980
B( 77-C , 78-C ) :   1.0330 B( 77-C , 89-H ) :   0.9499 B( 77-C , 90-H ) :   0.9508
B( 78-C , 79-C ) :   1.0253 B( 78-C , 91-H ) :   0.9684 B( 78-C , 92-H ) :   0.9597
B( 79-C , 80-C ) :   0.9873 B( 79-C , 93-H ) :   0.9564 B( 79-C , 94-H ) :   0.9598
B( 80-C , 81-O ) :   1.9643 B( 80-C , 82-O ) :   1.0927 B( 82-O , 83-C ) :   0.8239
B( 83-C , 95-H ) :   0.9913 B( 83-C , 96-H ) :   0.9923 B( 83-C , 97-H ) :   0.9901

-----------------------------------------------------------------------------
         ABSORPTION SPECTRUM VIA TRANSITION ELECTRIC DIPOLE MOMENTS
-----------------------------------------------------------------------------
State   Energy    Wavelength  fosc         T2        TX        TY        TZ
        (cm-1)      (nm)                 (au**2)    (au)      (au)      (au)
-----------------------------------------------------------------------------
   1   21611.7    462.7   0.005520991   0.08410   0.07199  -0.19438   0.20282
   2   25033.9    399.5   0.099231395   1.30496   0.29676  -0.73334   0.82408
   3   26533.6    376.9   0.158511663   1.96671   1.17015   0.74824   0.19393

FINAL SINGLE POINT ENERGY     -3260.274656993096

DIPOLE MOMENT
-------------
                                X             Y             Z
Electronic contribution:     17.47189     -65.49529     -48.25632
Nuclear contribution   :    -17.17585      67.21797      49.24520
                        -----------------------------------------
Total Dipole Moment    :      0.29603       1.72268       0.98888
                        -----------------------------------------
Magnitude (a.u.)       :      2.00827
Magnitude (Debye)      :      5.10461

Rotational constants in cm-1:     0.001769     0.000923     0.000855
Rotational constants in MHz :    53.031038    27.665694    25.628694

                             ****ORCA TERMINATED NORMALLY****
TOTAL RUN TIME: 2 days 3 hours 22 minutes 55 seconds 291 msec
