                         Program Version 4.2.0 -  RELEASE  -
|  1> # ORCA input file
|  2> # PCBM.out: Geometry 9
|  3> ! Engrad Keepdens
|  4> %maxcore 1000
|  5> %tddft
|  6>   nroots 3
|  7>   # nroots is the number of states to be computed
|  8>   Iroot 1
|  9>   end
| 10> * xyz 0 1
| 11>    C        0.36771        -2.43092         1.23868
| 12>    C        0.77804        -2.29688        -0.14141
| 13>    C        1.53282        -1.01517        -0.28437
| 14>    C        1.30375        -0.28798         0.99795
| 15>    C        0.69255        -1.19859         1.93664
| 16>    C       -0.14043        -0.72974         2.95907
| 17>    C       -0.43291         0.68521         3.04127
| 18>    C        0.12358         1.56128         2.09921
| 19>    C        1.00770         1.06518         1.06048
| 20>    C        0.73328         1.83598        -0.16923
| 21>    C        0.76733         1.22475        -1.41408
| 22>    C        1.23331        -0.17886        -1.62404
| 23>    C        0.23405        -0.78204        -2.55338
| 24>    C       -0.30239        -2.04967        -2.37377
| 25>    C       -0.02488        -2.82182        -1.14467
| 26>    C       -1.23553        -3.54624        -0.79898
| 27>    C       -2.25226        -3.23978        -1.79374
| 28>    C       -1.67720        -2.31663        -2.75950
| 29>    C       -2.47181        -1.30244        -3.31001
| 30>    C       -1.92048         0.02616        -3.47135
| 31>    C       -0.60218         0.27600        -3.07301
| 32>    C       -0.27430         1.50760        -2.37425
| 33>    C       -1.27676         2.44595        -2.10031
| 34>    C       -1.29825         3.10464        -0.81225
| 35>    C       -0.31610         2.79231         0.13813
| 36>    C       -0.69073         2.62720         1.53504
| 37>    C       -2.02377         2.77482         1.92787
| 38>    C       -2.60348         1.85585         2.89818
| 39>    C       -1.82370         0.83234         3.44356
| 40>    C       -2.38835        -0.50097         3.61276
| 41>    C       -3.70775        -0.75645         3.22645
| 42>    C       -4.51798         0.31151         2.65995
| 43>    C       -3.97676         1.59105         2.50046
| 44>    C       -4.24886         2.35183         1.28723
| 45>    C       -3.04448         3.08617         0.93604
| 46>    C       -2.68887         3.24959        -0.40603
| 47>    C       -3.52629         2.67715        -1.45268
| 48>    C       -2.65150         2.17925        -2.50313
| 49>    C       -2.96654         0.99613        -3.17510
| 50>    C       -4.17094         0.25738        -2.82658
| 51>    C       -3.86402        -1.16537        -2.90938
| 52>    C       -4.41302        -2.05330        -1.97990
| 53>    C       -3.59207        -3.11601        -1.41446
| 54>    C       -3.97251        -3.28550        -0.01809
| 55>    C       -5.01846        -2.32034         0.28164
| 56>    C       -5.29031        -1.55900        -0.93135
| 57>    C       -5.58230        -0.19393        -0.84929
| 58>    C       -5.01096         0.73287        -1.81530
| 59>    C       -4.68323         1.96782        -1.11530
| 60>    C       -5.05169         1.80244         0.28292
| 61>    C       -5.60918         0.46754         0.44722
| 62>    C       -5.34878        -0.26219         1.61050
| 63>    C       -5.04959        -1.68471         1.52693
| 64>    C       -4.03575        -1.99107         2.52534
| 65>    C       -3.03207        -2.92221         2.23914
| 66>    C       -2.99855        -3.58208         0.94000
| 67>    C       -1.60524        -3.72155         0.54157
| 68>    C       -0.78362        -3.14711         1.58535
| 69>    C       -1.65894        -2.65272         2.63943
| 70>    C       -1.34451        -1.46962         3.31181
| 71>    C        2.60837        -0.71219        -1.29726
| 72>    C        3.13968        -1.88572        -2.11697
| 73>    C        3.65192         0.30575        -0.91521
| 74>    C        4.34371         0.21802         0.29967
| 75>    C        5.33534         1.14913         0.62002
| 76>    C        5.64864         2.17637        -0.27410
| 77>    C        4.96508         2.26887        -1.49086
| 78>    C        3.97331         1.33823        -1.80744
| 79>    H        5.86254         1.07281         1.57340
| 80>    H        6.42113         2.90630        -0.02042
| 81>    H        4.09706        -0.57775         1.00494
| 82>    H        3.42902         1.41840        -2.75156
| 83>    H        5.20201         3.07014        -2.19483
| 84>    C        3.94343        -2.87170        -1.27207
| 85>    H        3.75971        -1.47648        -2.93214
| 86>    H        2.30584        -2.41540        -2.59955
| 87>    H        3.31155        -3.26133        -0.45853
| 88>    C        4.47418        -4.04597        -2.08483
| 89>    H        4.78310        -2.35818        -0.77756
| 90>    H        5.18379        -3.72405        -2.86523
| 91>    H        3.65713        -4.55708        -2.62604
| 92>    C        5.15888        -5.08414        -1.22338
| 93>    O        5.15402        -5.10418        -0.01655
| 94>    O        5.77912        -6.01188        -1.97492
| 95>    C        6.45141        -7.04878        -1.26138
| 96>    H        6.95116        -7.66889        -2.01610
| 97>    H        5.73566        -7.65397        -0.68331
| 98>    H        7.18900        -6.62654        -0.56256
| 99> *
|100>
|101>                          ****END OF INPUT****

CARTESIAN COORDINATES (ANGSTROEM)
---------------------------------
  C      0.367710   -2.430920    1.238680
  C      0.778040   -2.296880   -0.141410
  C      1.532820   -1.015170   -0.284370
  C      1.303750   -0.287980    0.997950
  C      0.692550   -1.198590    1.936640
  C     -0.140430   -0.729740    2.959070
  C     -0.432910    0.685210    3.041270
  C      0.123580    1.561280    2.099210
  C      1.007700    1.065180    1.060480
  C      0.733280    1.835980   -0.169230
  C      0.767330    1.224750   -1.414080
  C      1.233310   -0.178860   -1.624040
  C      0.234050   -0.782040   -2.553380
  C     -0.302390   -2.049670   -2.373770
  C     -0.024880   -2.821820   -1.144670
  C     -1.235530   -3.546240   -0.798980
  C     -2.252260   -3.239780   -1.793740
  C     -1.677200   -2.316630   -2.759500
  C     -2.471810   -1.302440   -3.310010
  C     -1.920480    0.026160   -3.471350
  C     -0.602180    0.276000   -3.073010
  C     -0.274300    1.507600   -2.374250
  C     -1.276760    2.445950   -2.100310
  C     -1.298250    3.104640   -0.812250
  C     -0.316100    2.792310    0.138130
  C     -0.690730    2.627200    1.535040
  C     -2.023770    2.774820    1.927870
  C     -2.603480    1.855850    2.898180
  C     -1.823700    0.832340    3.443560
  C     -2.388350   -0.500970    3.612760
  C     -3.707750   -0.756450    3.226450
  C     -4.517980    0.311510    2.659950
  C     -3.976760    1.591050    2.500460
  C     -4.248860    2.351830    1.287230
  C     -3.044480    3.086170    0.936040
  C     -2.688870    3.249590   -0.406030
  C     -3.526290    2.677150   -1.452680
  C     -2.651500    2.179250   -2.503130
  C     -2.966540    0.996130   -3.175100
  C     -4.170940    0.257380   -2.826580
  C     -3.864020   -1.165370   -2.909380
  C     -4.413020   -2.053300   -1.979900
  C     -3.592070   -3.116010   -1.414460
  C     -3.972510   -3.285500   -0.018090
  C     -5.018460   -2.320340    0.281640
  C     -5.290310   -1.559000   -0.931350
  C     -5.582300   -0.193930   -0.849290
  C     -5.010960    0.732870   -1.815300
  C     -4.683230    1.967820   -1.115300
  C     -5.051690    1.802440    0.282920
  C     -5.609180    0.467540    0.447220
  C     -5.348780   -0.262190    1.610500
  C     -5.049590   -1.684710    1.526930
  C     -4.035750   -1.991070    2.525340
  C     -3.032070   -2.922210    2.239140
  C     -2.998550   -3.582080    0.940000
  C     -1.605240   -3.721550    0.541570
  C     -0.783620   -3.147110    1.585350
  C     -1.658940   -2.652720    2.639430
  C     -1.344510   -1.469620    3.311810
  C      2.608370   -0.712190   -1.297260
  C      3.139680   -1.885720   -2.116970
  C      3.651920    0.305750   -0.915210
  C      4.343710    0.218020    0.299670
  C      5.335340    1.149130    0.620020
  C      5.648640    2.176370   -0.274100
  C      4.965080    2.268870   -1.490860
  C      3.973310    1.338230   -1.807440
  H      5.862540    1.072810    1.573400
  H      6.421130    2.906300   -0.020420
  H      4.097060   -0.577750    1.004940
  H      3.429020    1.418400   -2.751560
  H      5.202010    3.070140   -2.194830
  C      3.943430   -2.871700   -1.272070
  H      3.759710   -1.476480   -2.932140
  H      2.305840   -2.415400   -2.599550
  H      3.311550   -3.261330   -0.458530
  C      4.474180   -4.045970   -2.084830
  H      4.783100   -2.358180   -0.777560
  H      5.183790   -3.724050   -2.865230
  H      3.657130   -4.557080   -2.626040
  C      5.158880   -5.084140   -1.223380
  O      5.154020   -5.104180   -0.016550
  O      5.779120   -6.011880   -1.974920
  C      6.451410   -7.048780   -1.261380
  H      6.951160   -7.668890   -2.016100
  H      5.735660   -7.653970   -0.683310
  H      7.189000   -6.626540   -0.562560

 Total Charge           Charge          ....    0
 Multiplicity           Mult            ....    1
 Number of Electrons    NEL             ....  462
 Basis Dimension        Dim             .... 1106

ORBITAL ENERGIES
----------------

  NO   OCC          E(Eh)            E(eV)
   0   2.0000     -20.600492      -560.5679
   1   2.0000     -20.545230      -559.0641
   2   2.0000     -11.386984      -309.8556
   3   2.0000     -11.299423      -307.4729
   4   2.0000     -11.297930      -307.4323
   5   2.0000     -11.297040      -307.4081
   6   2.0000     -11.292304      -307.2792
   7   2.0000     -11.291591      -307.2598
   8   2.0000     -11.290983      -307.2433
   9   2.0000     -11.288841      -307.1850
  10   2.0000     -11.288445      -307.1742
  11   2.0000     -11.288012      -307.1624
  12   2.0000     -11.287900      -307.1594
  13   2.0000     -11.287865      -307.1584
  14   2.0000     -11.287791      -307.1564
  15   2.0000     -11.287553      -307.1499
  16   2.0000     -11.287507      -307.1487
  17   2.0000     -11.287388      -307.1454
  18   2.0000     -11.287345      -307.1443
  19   2.0000     -11.287257      -307.1419
  20   2.0000     -11.287195      -307.1402
  21   2.0000     -11.287151      -307.1390
  22   2.0000     -11.287076      -307.1370
  23   2.0000     -11.287055      -307.1364
  24   2.0000     -11.287020      -307.1354
  25   2.0000     -11.286977      -307.1343
  26   2.0000     -11.286882      -307.1317
  27   2.0000     -11.286833      -307.1303
  28   2.0000     -11.286816      -307.1299
  29   2.0000     -11.286760      -307.1284
  30   2.0000     -11.286675      -307.1260
  31   2.0000     -11.286498      -307.1212
  32   2.0000     -11.286458      -307.1201
  33   2.0000     -11.286331      -307.1167
  34   2.0000     -11.286243      -307.1143
  35   2.0000     -11.286221      -307.1137
  36   2.0000     -11.286177      -307.1125
  37   2.0000     -11.286013      -307.1080
  38   2.0000     -11.285897      -307.1049
  39   2.0000     -11.285889      -307.1047
  40   2.0000     -11.285825      -307.1029
  41   2.0000     -11.285808      -307.1024
  42   2.0000     -11.285703      -307.0996
  43   2.0000     -11.285656      -307.0983
  44   2.0000     -11.285608      -307.0970
  45   2.0000     -11.285556      -307.0956
  46   2.0000     -11.285506      -307.0942
  47   2.0000     -11.285470      -307.0932
  48   2.0000     -11.285383      -307.0909
  49   2.0000     -11.285341      -307.0897
  50   2.0000     -11.285125      -307.0839
  51   2.0000     -11.284922      -307.0784
  52   2.0000     -11.284878      -307.0771
  53   2.0000     -11.284599      -307.0696
  54   2.0000     -11.284505      -307.0670
  55   2.0000     -11.284097      -307.0559
  56   2.0000     -11.284037      -307.0543
  57   2.0000     -11.283737      -307.0461
  58   2.0000     -11.283381      -307.0364
  59   2.0000     -11.283164      -307.0305
  60   2.0000     -11.283082      -307.0283
  61   2.0000     -11.282862      -307.0223
  62   2.0000     -11.282601      -307.0152
  63   2.0000     -11.282030      -306.9996
  64   2.0000     -11.281517      -306.9857
  65   2.0000     -11.260715      -306.4196
  66   2.0000     -11.255024      -306.2648
  67   2.0000     -11.253030      -306.2105
  68   2.0000     -11.252703      -306.2016
  69   2.0000     -11.252279      -306.1901
  70   2.0000     -11.251419      -306.1667
  71   2.0000     -11.250452      -306.1404
  72   2.0000     -11.249682      -306.1194
  73   2.0000     -11.240207      -305.8616
  74   2.0000      -1.451801       -39.5055
  75   2.0000      -1.347928       -36.6790
  76   2.0000      -1.283014       -34.9126
  77   2.0000      -1.262440       -34.3528
  78   2.0000      -1.257539       -34.2194
  79   2.0000      -1.256596       -34.1937
  80   2.0000      -1.223163       -33.2840
  81   2.0000      -1.210809       -32.9478
  82   2.0000      -1.209883       -32.9226
  83   2.0000      -1.209443       -32.9106
  84   2.0000      -1.208847       -32.8944
  85   2.0000      -1.174525       -31.9605
  86   2.0000      -1.160149       -31.5692
  87   2.0000      -1.158963       -31.5370
  88   2.0000      -1.155209       -31.4348
  89   2.0000      -1.138987       -30.9934
  90   2.0000      -1.122048       -30.5325
  91   2.0000      -1.120035       -30.4777
  92   2.0000      -1.119743       -30.4698
  93   2.0000      -1.097666       -29.8690
  94   2.0000      -1.076763       -29.3002
  95   2.0000      -1.057376       -28.7727
  96   2.0000      -1.056964       -28.7615
  97   2.0000      -1.056084       -28.7375
  98   2.0000      -1.055177       -28.7128
  99   2.0000      -1.047818       -28.5126
 100   2.0000      -1.037272       -28.2256
 101   2.0000      -1.037117       -28.2214
 102   2.0000      -1.035831       -28.1864
 103   2.0000      -1.027249       -27.9529
 104   2.0000      -1.014861       -27.6158
 105   2.0000      -1.003988       -27.3199
 106   2.0000      -0.987110       -26.8606
 107   2.0000      -0.969990       -26.3948
 108   2.0000      -0.969563       -26.3831
 109   2.0000      -0.967176       -26.3182
 110   2.0000      -0.966887       -26.3103
 111   2.0000      -0.949468       -25.8363
 112   2.0000      -0.945717       -25.7343
 113   2.0000      -0.943087       -25.6627
 114   2.0000      -0.941256       -25.6129
 115   2.0000      -0.904987       -24.6259
 116   2.0000      -0.888306       -24.1720
 117   2.0000      -0.884998       -24.0820
 118   2.0000      -0.874334       -23.7918
 119   2.0000      -0.854944       -23.2642
 120   2.0000      -0.846230       -23.0271
 121   2.0000      -0.845279       -23.0012
 122   2.0000      -0.844833       -22.9891
 123   2.0000      -0.844532       -22.9809
 124   2.0000      -0.843979       -22.9658
 125   2.0000      -0.843528       -22.9536
 126   2.0000      -0.842351       -22.9215
 127   2.0000      -0.833063       -22.6688
 128   2.0000      -0.826902       -22.5011
 129   2.0000      -0.803846       -21.8738
 130   2.0000      -0.769442       -20.9376
 131   2.0000      -0.768271       -20.9057
 132   2.0000      -0.758919       -20.6512
 133   2.0000      -0.753092       -20.4927
 134   2.0000      -0.751859       -20.4591
 135   2.0000      -0.751340       -20.4450
 136   2.0000      -0.736924       -20.0527
 137   2.0000      -0.731689       -19.9103
 138   2.0000      -0.730686       -19.8830
 139   2.0000      -0.729364       -19.8470
 140   2.0000      -0.727107       -19.7856
 141   2.0000      -0.712185       -19.3795
 142   2.0000      -0.708430       -19.2774
 143   2.0000      -0.707860       -19.2618
 144   2.0000      -0.704781       -19.1781
 145   2.0000      -0.690462       -18.7884
 146   2.0000      -0.687640       -18.7116
 147   2.0000      -0.679310       -18.4850
 148   2.0000      -0.673573       -18.3288
 149   2.0000      -0.670626       -18.2487
 150   2.0000      -0.667024       -18.1506
 151   2.0000      -0.658541       -17.9198
 152   2.0000      -0.654120       -17.7995
 153   2.0000      -0.644693       -17.5430
 154   2.0000      -0.643694       -17.5158
 155   2.0000      -0.641867       -17.4661
 156   2.0000      -0.640173       -17.4200
 157   2.0000      -0.638105       -17.3637
 158   2.0000      -0.635331       -17.2882
 159   2.0000      -0.626915       -17.0592
 160   2.0000      -0.623297       -16.9608
 161   2.0000      -0.622013       -16.9258
 162   2.0000      -0.621640       -16.9157
 163   2.0000      -0.620064       -16.8728
 164   2.0000      -0.617220       -16.7954
 165   2.0000      -0.615273       -16.7424
 166   2.0000      -0.613574       -16.6962
 167   2.0000      -0.608618       -16.5613
 168   2.0000      -0.607826       -16.5398
 169   2.0000      -0.606626       -16.5071
 170   2.0000      -0.604874       -16.4595
 171   2.0000      -0.600690       -16.3456
 172   2.0000      -0.598154       -16.2766
 173   2.0000      -0.593052       -16.1378
 174   2.0000      -0.590734       -16.0747
 175   2.0000      -0.589489       -16.0408
 176   2.0000      -0.583118       -15.8675
 177   2.0000      -0.576311       -15.6822
 178   2.0000      -0.572594       -15.5811
 179   2.0000      -0.571680       -15.5562
 180   2.0000      -0.570900       -15.5350
 181   2.0000      -0.568404       -15.4671
 182   2.0000      -0.559738       -15.2313
 183   2.0000      -0.556141       -15.1334
 184   2.0000      -0.555444       -15.1144
 185   2.0000      -0.554642       -15.0926
 186   2.0000      -0.550686       -14.9849
 187   2.0000      -0.543292       -14.7837
 188   2.0000      -0.532042       -14.4776
 189   2.0000      -0.528244       -14.3742
 190   2.0000      -0.525789       -14.3074
 191   2.0000      -0.518499       -14.1091
 192   2.0000      -0.516617       -14.0579
 193   2.0000      -0.514993       -14.0137
 194   2.0000      -0.513465       -13.9721
 195   2.0000      -0.511651       -13.9227
 196   2.0000      -0.509363       -13.8605
 197   2.0000      -0.506849       -13.7921
 198   2.0000      -0.503977       -13.7139
 199   2.0000      -0.503711       -13.7067
 200   2.0000      -0.503192       -13.6926
 201   2.0000      -0.501285       -13.6406
 202   2.0000      -0.499704       -13.5976
 203   2.0000      -0.492709       -13.4073
 204   2.0000      -0.488615       -13.2959
 205   2.0000      -0.481963       -13.1149
 206   2.0000      -0.474056       -12.8997
 207   2.0000      -0.472172       -12.8484
 208   2.0000      -0.465606       -12.6698
 209   2.0000      -0.458338       -12.4720
 210   2.0000      -0.456836       -12.4311
 211   2.0000      -0.456157       -12.4127
 212   2.0000      -0.454441       -12.3660
 213   2.0000      -0.452717       -12.3190
 214   2.0000      -0.442423       -12.0389
 215   2.0000      -0.379694       -10.3320
 216   2.0000      -0.362618        -9.8673
 217   2.0000      -0.359664        -9.7869
 218   2.0000      -0.358865        -9.7652
 219   2.0000      -0.354701        -9.6519
 220   2.0000      -0.353103        -9.6084
 221   2.0000      -0.350069        -9.5259
 222   2.0000      -0.347640        -9.4598
 223   2.0000      -0.346068        -9.4170
 224   2.0000      -0.339017        -9.2251
 225   2.0000      -0.330206        -8.9854
 226   2.0000      -0.297222        -8.0878
 227   2.0000      -0.288076        -7.8390
 228   2.0000      -0.283084        -7.7031
 229   2.0000      -0.282850        -7.6967
 230   2.0000      -0.275652        -7.5009
 231   0.0000      -0.026038        -0.7085
 232   0.0000      -0.021093        -0.5740
 233   0.0000      -0.010390        -0.2827
 234   0.0000       0.036846         1.0026
 235   0.0000       0.042837         1.1656

MULLIKEN ATOMIC CHARGES
-----------------------
   0 C :    0.011956
   1 C :    0.078026
   2 C :   -0.189083
   3 C :    0.059107
   4 C :    0.006743
   5 C :   -0.007806
   6 C :   -0.008686
   7 C :    0.009039
   8 C :    0.004749
   9 C :   -0.002129
  10 C :    0.075859
  11 C :   -0.191105
  12 C :    0.087859
  13 C :   -0.033443
  14 C :   -0.028911
  15 C :    0.010694
  16 C :   -0.007129
  17 C :    0.010250
  18 C :   -0.010184
  19 C :   -0.007874
  20 C :   -0.002321
  21 C :    0.002861
  22 C :   -0.007370
  23 C :   -0.009559
  24 C :    0.010501
  25 C :   -0.006671
  26 C :   -0.000975
  27 C :   -0.002848
  28 C :   -0.000767
  29 C :   -0.000654
  30 C :    0.000492
  31 C :   -0.001744
  32 C :   -0.000811
  33 C :   -0.000782
  34 C :   -0.003661
  35 C :    0.000630
  36 C :   -0.001901
  37 C :   -0.001245
  38 C :   -0.001968
  39 C :   -0.000358
  40 C :   -0.000641
  41 C :   -0.002291
  42 C :   -0.002028
  43 C :   -0.001931
  44 C :   -0.001321
  45 C :   -0.001708
  46 C :   -0.000658
  47 C :   -0.001084
  48 C :    0.001188
  49 C :   -0.001958
  50 C :   -0.001946
  51 C :   -0.001319
  52 C :   -0.000886
  53 C :   -0.000984
  54 C :    0.000456
  55 C :   -0.001411
  56 C :   -0.007510
  57 C :   -0.008347
  58 C :   -0.001209
  59 C :   -0.000962
  60 C :   -0.092050
  61 C :    0.162125
  62 C :   -0.123086
  63 C :    0.011099
  64 C :   -0.038684
  65 C :   -0.030729
  66 C :   -0.038869
  67 C :    0.016312
  68 H :    0.048342
  69 H :    0.049392
  70 H :    0.053292
  71 H :    0.041670
  72 H :    0.047451
  73 C :   -0.101610
  74 H :    0.037842
  75 H :    0.042944
  76 H :    0.065724
  77 C :   -0.065113
  78 H :    0.056493
  79 H :    0.068739
  80 H :    0.069449
  81 C :    0.492482
  82 O :   -0.410243
  83 O :   -0.536106
  84 C :    0.225934
  85 H :    0.049540
  86 H :    0.046539
  87 H :    0.048894
Sum of atomic charges:   -0.0000000

LOEWDIN ATOMIC CHARGES
----------------------
   0 C :    0.001052
   1 C :    0.015450
   2 C :   -0.007013
   3 C :    0.015259
   4 C :   -0.000651
   5 C :   -0.006557
   6 C :   -0.008412
   7 C :   -0.000238
   8 C :   -0.007081
   9 C :   -0.005409
  10 C :    0.014972
  11 C :   -0.005451
  12 C :    0.012642
  13 C :   -0.018417
  14 C :   -0.020015
  15 C :   -0.001265
  16 C :    0.001847
  17 C :   -0.002387
  18 C :   -0.007209
  19 C :   -0.006498
  20 C :   -0.000908
  21 C :   -0.001576
  22 C :   -0.007389
  23 C :   -0.008044
  24 C :   -0.000238
  25 C :    0.003365
  26 C :   -0.001133
  27 C :   -0.003425
  28 C :    0.001040
  29 C :   -0.001756
  30 C :    0.000247
  31 C :   -0.001610
  32 C :   -0.000258
  33 C :   -0.000602
  34 C :   -0.002611
  35 C :    0.000213
  36 C :   -0.001709
  37 C :    0.000371
  38 C :   -0.001074
  39 C :   -0.002110
  40 C :    0.000276
  41 C :   -0.002740
  42 C :   -0.000523
  43 C :   -0.003103
  44 C :   -0.000755
  45 C :   -0.000892
  46 C :   -0.001009
  47 C :    0.000346
  48 C :   -0.000048
  49 C :   -0.001340
  50 C :   -0.001114
  51 C :   -0.000786
  52 C :   -0.001134
  53 C :    0.000440
  54 C :   -0.001757
  55 C :    0.000914
  56 C :   -0.007416
  57 C :   -0.004482
  58 C :   -0.000456
  59 C :    0.000858
  60 C :   -0.001182
  61 C :    0.007203
  62 C :   -0.029859
  63 C :   -0.011259
  64 C :   -0.023209
  65 C :   -0.020501
  66 C :   -0.023945
  67 C :   -0.012408
  68 H :    0.030850
  69 H :    0.030007
  70 H :    0.029880
  71 H :    0.027871
  72 H :    0.030080
  73 C :   -0.015044
  74 H :    0.023662
  75 H :    0.019084
  76 H :    0.023887
  77 C :   -0.040441
  78 H :    0.023394
  79 H :    0.037177
  80 H :    0.040562
  81 C :    0.206242
  82 O :   -0.262956
  83 O :   -0.191585
  84 C :    0.136437
  85 H :    0.019956
  86 H :    0.017436
  87 H :    0.017970

  Mayer bond orders larger than 0.100000
B(  0-C ,  1-C ) :   1.2263 B(  0-C ,  4-C ) :   1.1683 B(  0-C , 57-C ) :   1.4637
B(  1-C ,  2-C ) :   1.0187 B(  1-C , 14-C ) :   1.5820 B(  2-C ,  3-C ) :   1.0174
B(  2-C , 11-C ) :   0.7416 B(  2-C , 60-C ) :   0.8450 B(  3-C ,  4-C ) :   1.2272
B(  3-C ,  8-C ) :   1.5823 B(  4-C ,  5-C ) :   1.4598 B(  5-C ,  6-C ) :   1.2130
B(  5-C , 59-C ) :   1.1734 B(  6-C ,  7-C ) :   1.4624 B(  6-C , 28-C ) :   1.1790
B(  7-C ,  8-C ) :   1.2124 B(  7-C , 25-C ) :   1.1725 B(  8-C ,  9-C ) :   1.0919
B(  9-C , 10-C ) :   1.5839 B(  9-C , 24-C ) :   1.2112 B( 10-C , 11-C ) :   1.0212
B( 10-C , 21-C ) :   1.2259 B( 11-C , 12-C ) :   1.0168 B( 11-C , 60-C ) :   0.8593
B( 12-C , 13-C ) :   1.5809 B( 12-C , 20-C ) :   1.2309 B( 13-C , 14-C ) :   1.0875
B( 13-C , 17-C ) :   1.2108 B( 14-C , 15-C ) :   1.2098 B( 15-C , 16-C ) :   1.1748
B( 15-C , 56-C ) :   1.4672 B( 16-C , 17-C ) :   1.1752 B( 16-C , 42-C ) :   1.4965
B( 17-C , 18-C ) :   1.4659 B( 18-C , 19-C ) :   1.2100 B( 18-C , 40-C ) :   1.1802
B( 19-C , 20-C ) :   1.4625 B( 19-C , 38-C ) :   1.1725 B( 20-C , 21-C ) :   1.1658
B( 21-C , 22-C ) :   1.4603 B( 22-C , 23-C ) :   1.2124 B( 22-C , 37-C ) :   1.1732
B( 23-C , 24-C ) :   1.4628 B( 23-C , 35-C ) :   1.1792 B( 24-C , 25-C ) :   1.1727
B( 25-C , 26-C ) :   1.4983 B( 26-C , 27-C ) :   1.1740 B( 26-C , 34-C ) :   1.1733
B( 27-C , 28-C ) :   1.4878 B( 27-C , 32-C ) :   1.1838 B( 28-C , 29-C ) :   1.1785
B( 29-C , 30-C ) :   1.4868 B( 29-C , 59-C ) :   1.1789 B( 30-C , 31-C ) :   1.1804
B( 30-C , 53-C ) :   1.1761 B( 31-C , 32-C ) :   1.4875 B( 31-C , 51-C ) :   1.1762
B( 32-C , 33-C ) :   1.1730 B( 33-C , 34-C ) :   1.1840 B( 33-C , 49-C ) :   1.4872
B( 34-C , 35-C ) :   1.4878 B( 35-C , 36-C ) :   1.1788 B( 36-C , 37-C ) :   1.1791
B( 36-C , 48-C ) :   1.4864 B( 37-C , 38-C ) :   1.4953 B( 38-C , 39-C ) :   1.1796
B( 39-C , 40-C ) :   1.1785 B( 39-C , 47-C ) :   1.4872 B( 40-C , 41-C ) :   1.4876
B( 41-C , 42-C ) :   1.1745 B( 41-C , 45-C ) :   1.1836 B( 42-C , 43-C ) :   1.1745
B( 43-C , 44-C ) :   1.1838 B( 43-C , 55-C ) :   1.4871 B( 44-C , 45-C ) :   1.1733
B( 44-C , 52-C ) :   1.4874 B( 45-C , 46-C ) :   1.4876 B( 46-C , 47-C ) :   1.1799
B( 46-C , 50-C ) :   1.1763 B( 47-C , 48-C ) :   1.1764 B( 48-C , 49-C ) :   1.1806
B( 49-C , 50-C ) :   1.1764 B( 50-C , 51-C ) :   1.4926 B( 51-C , 52-C ) :   1.1765
B( 52-C , 53-C ) :   1.1800 B( 53-C , 54-C ) :   1.4869 B( 54-C , 55-C ) :   1.1786
B( 54-C , 58-C ) :   1.1791 B( 55-C , 56-C ) :   1.1803 B( 56-C , 57-C ) :   1.2090
B( 57-C , 58-C ) :   1.1729 B( 58-C , 59-C ) :   1.4949 B( 60-C , 61-C ) :   1.0297
B( 60-C , 62-C ) :   1.0122 B( 61-C , 73-C ) :   1.0339 B( 61-C , 74-H ) :   0.9517
B( 61-C , 75-H ) :   0.9481 B( 62-C , 63-C ) :   1.4303 B( 62-C , 67-C ) :   1.4148
B( 63-C , 64-C ) :   1.4176 B( 63-C , 70-H ) :   0.9938 B( 64-C , 65-C ) :   1.4158
B( 64-C , 68-H ) :   0.9979 B( 65-C , 66-C ) :   1.4064 B( 65-C , 69-H ) :   0.9989
B( 66-C , 67-C ) :   1.4281 B( 66-C , 72-H ) :   0.9974 B( 67-C , 71-H ) :   0.9979
B( 73-C , 76-H ) :   0.9653 B( 73-C , 77-C ) :   1.0277 B( 73-C , 78-H ) :   0.9641
B( 77-C , 79-H ) :   0.9607 B( 77-C , 80-H ) :   0.9544 B( 77-C , 81-C ) :   0.9868
B( 81-C , 82-O ) :   1.9664 B( 81-C , 83-O ) :   1.0942 B( 83-O , 84-C ) :   0.8248
B( 84-C , 85-H ) :   0.9921 B( 84-C , 86-H ) :   0.9911 B( 84-C , 87-H ) :   0.9902

-----------------------------------------------------------------------------
         ABSORPTION SPECTRUM VIA TRANSITION ELECTRIC DIPOLE MOMENTS
-----------------------------------------------------------------------------
State   Energy    Wavelength  fosc         T2        TX        TY        TZ
        (cm-1)      (nm)                 (au**2)    (au)      (au)      (au)
-----------------------------------------------------------------------------
   1   23889.2    418.6   0.000020205   0.00028  -0.00538  -0.00534   0.01487
   2   24718.2    404.6   0.000115928   0.00154   0.01330   0.03176   0.01893
   3   24986.1    400.2   0.005439202   0.07167  -0.05465   0.14558  -0.21791

FINAL SINGLE POINT ENERGY     -2881.823031782486

DIPOLE MOMENT
-------------
                                X             Y             Z
Electronic contribution:    -71.69895      21.87125      13.68673
Nuclear contribution   :     73.30838     -22.06830     -14.55025
                        -----------------------------------------
Total Dipole Moment    :      1.60943      -0.19705      -0.86353
                        -----------------------------------------
Magnitude (a.u.)       :      1.83705
Magnitude (Debye)      :      4.66942

Rotational constants in cm-1:     0.002147     0.001169     0.001064
Rotational constants in MHz :    64.362280    35.060487    31.902290

                             ****ORCA TERMINATED NORMALLY****
TOTAL RUN TIME: 1 days 4 hours 35 minutes 54 seconds 510 msec
