                         Program Version 4.2.0 -  RELEASE  -
|  1> # ORCA input file
|  2> # PCBM.out
|  3> ! Engrad Keepdens
|  4> %maxcore 1000
|  5> %tddft
|  6>   nroots 3
|  7>   # nroots is the number of states to be computed
|  8>   Iroot 1
|  9>   end
| 10> * xyz 0 1
| 11>    C        0.30559        -2.43478         1.23997
| 12>    C        0.71540        -2.31512        -0.12843
| 13>    C        1.48289        -1.06491        -0.28305
| 14>    C        1.27037        -0.33412         0.98111
| 15>    C        0.64873        -1.21707         1.92221
| 16>    C       -0.17297        -0.73013         2.93128
| 17>    C       -0.44010         0.67684         3.00241
| 18>    C        0.12795         1.52917         2.06123
| 19>    C        0.99600         1.01620         1.03496
| 20>    C        0.73618         1.77347        -0.18283
| 21>    C        0.76051         1.15709        -1.41614
| 22>    C        1.20016        -0.23852        -1.61125
| 23>    C        0.20131        -0.82253        -2.52668
| 24>    C       -0.35453        -2.07191        -2.33862
| 25>    C       -0.09312        -2.83049        -1.12074
| 26>    C       -1.30351        -3.52650        -0.77324
| 27>    C       -2.30619        -3.21484        -1.75864
| 28>    C       -1.72053        -2.31606        -2.71909
| 29>    C       -2.49439        -1.30163        -3.27224
| 30>    C       -1.92703         0.00438        -3.44170
| 31>    C       -0.61337         0.23359        -3.05111
| 32>    C       -0.26870         1.45095        -2.36876
| 33>    C       -1.24999         2.39752        -2.10052
| 34>    C       -1.26012         3.05771        -0.82771
| 35>    C       -0.28838         2.73906         0.11516
| 36>    C       -0.66187         2.59368         1.49841
| 37>    C       -1.98266         2.76578         1.88837
| 38>    C       -2.57182         1.87291         2.85528
| 39>    C       -1.81343         0.84782         3.40282
| 40>    C       -2.39323        -0.46138         3.57902
| 41>    C       -3.70740        -0.69635         3.19812
| 42>    C       -4.49377         0.36971         2.63089
| 43>    C       -3.93650         1.63060         2.46445
| 44>    C       -4.19465         2.37962         1.25918
| 45>    C       -2.98926         3.08414         0.90626
| 46>    C       -2.63363         3.22839        -0.42732
| 47>    C       -3.47226         2.67029        -1.45991
| 48>    C       -2.61481         2.15656        -2.49760
| 49>    C       -2.94728         0.98206        -3.15624
| 50>    C       -4.15095         0.27232        -2.80498
| 51>    C       -3.87053        -1.14083        -2.87777
| 52>    C       -4.43023        -2.00678        -1.94886
| 53>    C       -3.63395        -3.06717        -1.38267
| 54>    C       -4.01292        -3.21826         0.00025
| 55>    C       -5.03356        -2.24485         0.29110
| 56>    C       -5.29168        -1.49576        -0.91419
| 57>    C       -5.55922        -0.13516        -0.84202
| 58>    C       -4.97776         0.76576        -1.80482
| 59>    C       -4.63206         1.98712        -1.11980
| 60>    C       -5.00039         1.83968         0.26556
| 61>    C       -5.57495         0.52895         0.43718
| 62>    C       -5.32645        -0.19192         1.59708
| 63>    C       -5.05260        -1.60516         1.52333
| 64>    C       -4.05295        -1.91777         2.51311
| 65>    C       -3.07172        -2.85946         2.23411
| 66>    C       -3.05018        -3.52160         0.95266
| 67>    C       -1.67412        -3.68308         0.55808
| 68>    C       -0.84965        -3.12326         1.58920
| 69>    C       -1.70817        -2.61400         2.62945
| 70>    C       -1.37601        -1.43947         3.28828
| 71>    C        2.56334        -0.78185        -1.28512
| 72>    C        3.09186        -1.94100        -2.11065
| 73>    C        3.60142         0.21917        -0.88996
| 74>    C        4.23428         0.13767         0.34323
| 75>    C        5.20855         1.05749         0.68737
| 76>    C        5.55728         2.06446        -0.19624
| 77>    C        4.92939         2.14943        -1.42741
| 78>    C        3.95542         1.23052        -1.77355
| 79>    H        5.69644         0.98645         1.64797
| 80>    H        6.31818         2.78150         0.07347
| 81>    H        3.96257        -0.64680         1.03420
| 82>    H        3.46059         1.29742        -2.73213
| 83>    H        5.19873         2.93333        -2.11976
| 84>    C        3.94725        -2.88121        -1.26451
| 85>    H        3.68924        -1.53750        -2.93234
| 86>    H        2.25721        -2.49711        -2.54039
| 87>    H        3.35872        -3.25844        -0.42603
| 88>    C        4.45478        -4.06045        -2.08596
| 89>    H        4.79917        -2.33820        -0.85204
| 90>    H        5.04791        -3.71976        -2.93705
| 91>    H        3.62006        -4.64307        -2.48300
| 92>    C        5.31281        -4.98892        -1.25710
| 93>    O        5.51344        -4.89199        -0.07686
| 94>    O        5.83538        -5.95738        -2.02162
| 95>    C        6.66155        -6.90533        -1.35822
| 96>    H        7.04757        -7.56491        -2.13081
| 97>    H        6.07877        -7.47014        -0.62794
| 98>    H        7.47817        -6.39897        -0.84003
| 99> *
|100>
|101>                          ****END OF INPUT****

CARTESIAN COORDINATES (ANGSTROEM)
---------------------------------
  C      0.305590   -2.434780    1.239970
  C      0.715400   -2.315120   -0.128430
  C      1.482890   -1.064910   -0.283050
  C      1.270370   -0.334120    0.981110
  C      0.648730   -1.217070    1.922210
  C     -0.172970   -0.730130    2.931280
  C     -0.440100    0.676840    3.002410
  C      0.127950    1.529170    2.061230
  C      0.996000    1.016200    1.034960
  C      0.736180    1.773470   -0.182830
  C      0.760510    1.157090   -1.416140
  C      1.200160   -0.238520   -1.611250
  C      0.201310   -0.822530   -2.526680
  C     -0.354530   -2.071910   -2.338620
  C     -0.093120   -2.830490   -1.120740
  C     -1.303510   -3.526500   -0.773240
  C     -2.306190   -3.214840   -1.758640
  C     -1.720530   -2.316060   -2.719090
  C     -2.494390   -1.301630   -3.272240
  C     -1.927030    0.004380   -3.441700
  C     -0.613370    0.233590   -3.051110
  C     -0.268700    1.450950   -2.368760
  C     -1.249990    2.397520   -2.100520
  C     -1.260120    3.057710   -0.827710
  C     -0.288380    2.739060    0.115160
  C     -0.661870    2.593680    1.498410
  C     -1.982660    2.765780    1.888370
  C     -2.571820    1.872910    2.855280
  C     -1.813430    0.847820    3.402820
  C     -2.393230   -0.461380    3.579020
  C     -3.707400   -0.696350    3.198120
  C     -4.493770    0.369710    2.630890
  C     -3.936500    1.630600    2.464450
  C     -4.194650    2.379620    1.259180
  C     -2.989260    3.084140    0.906260
  C     -2.633630    3.228390   -0.427320
  C     -3.472260    2.670290   -1.459910
  C     -2.614810    2.156560   -2.497600
  C     -2.947280    0.982060   -3.156240
  C     -4.150950    0.272320   -2.804980
  C     -3.870530   -1.140830   -2.877770
  C     -4.430230   -2.006780   -1.948860
  C     -3.633950   -3.067170   -1.382670
  C     -4.012920   -3.218260    0.000250
  C     -5.033560   -2.244850    0.291100
  C     -5.291680   -1.495760   -0.914190
  C     -5.559220   -0.135160   -0.842020
  C     -4.977760    0.765760   -1.804820
  C     -4.632060    1.987120   -1.119800
  C     -5.000390    1.839680    0.265560
  C     -5.574950    0.528950    0.437180
  C     -5.326450   -0.191920    1.597080
  C     -5.052600   -1.605160    1.523330
  C     -4.052950   -1.917770    2.513110
  C     -3.071720   -2.859460    2.234110
  C     -3.050180   -3.521600    0.952660
  C     -1.674120   -3.683080    0.558080
  C     -0.849650   -3.123260    1.589200
  C     -1.708170   -2.614000    2.629450
  C     -1.376010   -1.439470    3.288280
  C      2.563340   -0.781850   -1.285120
  C      3.091860   -1.941000   -2.110650
  C      3.601420    0.219170   -0.889960
  C      4.234280    0.137670    0.343230
  C      5.208550    1.057490    0.687370
  C      5.557280    2.064460   -0.196240
  C      4.929390    2.149430   -1.427410
  C      3.955420    1.230520   -1.773550
  H      5.696440    0.986450    1.647970
  H      6.318180    2.781500    0.073470
  H      3.962570   -0.646800    1.034200
  H      3.460590    1.297420   -2.732130
  H      5.198730    2.933330   -2.119760
  C      3.947250   -2.881210   -1.264510
  H      3.689240   -1.537500   -2.932340
  H      2.257210   -2.497110   -2.540390
  H      3.358720   -3.258440   -0.426030
  C      4.454780   -4.060450   -2.085960
  H      4.799170   -2.338200   -0.852040
  H      5.047910   -3.719760   -2.937050
  H      3.620060   -4.643070   -2.483000
  C      5.312810   -4.988920   -1.257100
  O      5.513440   -4.891990   -0.076860
  O      5.835380   -5.957380   -2.021620
  C      6.661550   -6.905330   -1.358220
  H      7.047570   -7.564910   -2.130810
  H      6.078770   -7.470140   -0.627940
  H      7.478170   -6.398970   -0.840030

 Total Charge           Charge          ....    0
 Multiplicity           Mult            ....    1
 Number of Electrons    NEL             ....  462
 Basis Dimension        Dim             .... 1106

ORBITAL ENERGIES
----------------

  NO   OCC          E(Eh)            E(eV)
   0   2.0000     -20.598842      -560.5230
   1   2.0000     -20.544760      -559.0513
   2   2.0000     -11.384430      -309.7861
   3   2.0000     -11.295882      -307.3766
   4   2.0000     -11.291706      -307.2629
   5   2.0000     -11.291223      -307.2498
   6   2.0000     -11.287051      -307.1363
   7   2.0000     -11.285613      -307.0971
   8   2.0000     -11.285273      -307.0879
   9   2.0000     -11.282744      -307.0191
  10   2.0000     -11.282608      -307.0154
  11   2.0000     -11.281506      -306.9854
  12   2.0000     -11.281482      -306.9847
  13   2.0000     -11.281412      -306.9828
  14   2.0000     -11.281390      -306.9822
  15   2.0000     -11.281320      -306.9803
  16   2.0000     -11.281082      -306.9738
  17   2.0000     -11.281047      -306.9729
  18   2.0000     -11.280866      -306.9680
  19   2.0000     -11.280767      -306.9653
  20   2.0000     -11.280691      -306.9632
  21   2.0000     -11.280591      -306.9605
  22   2.0000     -11.280517      -306.9585
  23   2.0000     -11.280488      -306.9577
  24   2.0000     -11.280446      -306.9565
  25   2.0000     -11.280371      -306.9545
  26   2.0000     -11.280289      -306.9523
  27   2.0000     -11.280266      -306.9517
  28   2.0000     -11.280224      -306.9505
  29   2.0000     -11.280171      -306.9491
  30   2.0000     -11.280050      -306.9458
  31   2.0000     -11.280030      -306.9452
  32   2.0000     -11.279921      -306.9423
  33   2.0000     -11.279794      -306.9388
  34   2.0000     -11.279752      -306.9376
  35   2.0000     -11.279646      -306.9348
  36   2.0000     -11.279596      -306.9334
  37   2.0000     -11.279398      -306.9280
  38   2.0000     -11.279314      -306.9257
  39   2.0000     -11.279287      -306.9250
  40   2.0000     -11.279223      -306.9232
  41   2.0000     -11.279138      -306.9210
  42   2.0000     -11.279036      -306.9182
  43   2.0000     -11.278958      -306.9161
  44   2.0000     -11.278941      -306.9156
  45   2.0000     -11.278894      -306.9143
  46   2.0000     -11.278854      -306.9132
  47   2.0000     -11.278786      -306.9114
  48   2.0000     -11.278699      -306.9090
  49   2.0000     -11.278638      -306.9073
  50   2.0000     -11.278497      -306.9035
  51   2.0000     -11.278094      -306.8925
  52   2.0000     -11.277962      -306.8890
  53   2.0000     -11.277880      -306.8867
  54   2.0000     -11.277781      -306.8840
  55   2.0000     -11.277279      -306.8704
  56   2.0000     -11.277190      -306.8679
  57   2.0000     -11.277141      -306.8666
  58   2.0000     -11.276610      -306.8522
  59   2.0000     -11.276313      -306.8441
  60   2.0000     -11.276269      -306.8429
  61   2.0000     -11.276220      -306.8415
  62   2.0000     -11.276043      -306.8367
  63   2.0000     -11.274933      -306.8065
  64   2.0000     -11.274669      -306.7993
  65   2.0000     -11.254298      -306.2450
  66   2.0000     -11.250589      -306.1441
  67   2.0000     -11.248877      -306.0975
  68   2.0000     -11.247037      -306.0474
  69   2.0000     -11.245803      -306.0139
  70   2.0000     -11.244878      -305.9887
  71   2.0000     -11.243897      -305.9620
  72   2.0000     -11.243003      -305.9377
  73   2.0000     -11.236211      -305.7529
  74   2.0000      -1.455167       -39.5971
  75   2.0000      -1.351125       -36.7660
  76   2.0000      -1.292690       -35.1759
  77   2.0000      -1.271875       -34.6095
  78   2.0000      -1.266624       -34.4666
  79   2.0000      -1.265753       -34.4429
  80   2.0000      -1.231746       -33.5175
  81   2.0000      -1.219194       -33.1760
  82   2.0000      -1.218116       -33.1466
  83   2.0000      -1.217963       -33.1425
  84   2.0000      -1.217344       -33.1256
  85   2.0000      -1.182194       -32.1691
  86   2.0000      -1.168508       -31.7967
  87   2.0000      -1.167196       -31.7610
  88   2.0000      -1.163349       -31.6563
  89   2.0000      -1.145880       -31.1810
  90   2.0000      -1.127620       -30.6841
  91   2.0000      -1.125987       -30.6397
  92   2.0000      -1.125872       -30.6365
  93   2.0000      -1.102822       -30.0093
  94   2.0000      -1.080363       -29.3982
  95   2.0000      -1.063126       -28.9291
  96   2.0000      -1.062875       -28.9223
  97   2.0000      -1.061876       -28.8951
  98   2.0000      -1.061424       -28.8828
  99   2.0000      -1.052918       -28.6513
 100   2.0000      -1.041449       -28.3393
 101   2.0000      -1.041228       -28.3333
 102   2.0000      -1.040434       -28.3117
 103   2.0000      -1.031743       -28.0752
 104   2.0000      -1.019794       -27.7500
 105   2.0000      -1.007086       -27.4042
 106   2.0000      -0.990440       -26.9512
 107   2.0000      -0.972310       -26.4579
 108   2.0000      -0.971765       -26.4431
 109   2.0000      -0.969087       -26.3702
 110   2.0000      -0.968871       -26.3643
 111   2.0000      -0.953714       -25.9519
 112   2.0000      -0.951685       -25.8967
 113   2.0000      -0.948963       -25.8226
 114   2.0000      -0.946268       -25.7493
 115   2.0000      -0.909402       -24.7461
 116   2.0000      -0.893772       -24.3208
 117   2.0000      -0.890877       -24.2420
 118   2.0000      -0.878613       -23.9083
 119   2.0000      -0.858021       -23.3479
 120   2.0000      -0.848738       -23.0953
 121   2.0000      -0.847952       -23.0740
 122   2.0000      -0.847853       -23.0713
 123   2.0000      -0.846600       -23.0371
 124   2.0000      -0.846506       -23.0346
 125   2.0000      -0.846069       -23.0227
 126   2.0000      -0.844769       -22.9873
 127   2.0000      -0.836571       -22.7643
 128   2.0000      -0.829100       -22.5610
 129   2.0000      -0.811508       -22.0822
 130   2.0000      -0.773103       -21.0372
 131   2.0000      -0.769944       -20.9512
 132   2.0000      -0.763117       -20.7655
 133   2.0000      -0.757674       -20.6174
 134   2.0000      -0.756644       -20.5893
 135   2.0000      -0.756378       -20.5821
 136   2.0000      -0.738781       -20.1033
 137   2.0000      -0.735301       -20.0086
 138   2.0000      -0.731471       -19.9043
 139   2.0000      -0.730317       -19.8729
 140   2.0000      -0.728896       -19.8343
 141   2.0000      -0.716285       -19.4911
 142   2.0000      -0.711829       -19.3699
 143   2.0000      -0.711495       -19.3608
 144   2.0000      -0.708062       -19.2673
 145   2.0000      -0.694346       -18.8941
 146   2.0000      -0.691712       -18.8224
 147   2.0000      -0.681059       -18.5326
 148   2.0000      -0.677080       -18.4243
 149   2.0000      -0.673991       -18.3402
 150   2.0000      -0.669797       -18.2261
 151   2.0000      -0.663547       -18.0560
 152   2.0000      -0.657754       -17.8984
 153   2.0000      -0.650208       -17.6931
 154   2.0000      -0.646966       -17.6048
 155   2.0000      -0.645850       -17.5745
 156   2.0000      -0.643870       -17.5206
 157   2.0000      -0.641578       -17.4582
 158   2.0000      -0.638682       -17.3794
 159   2.0000      -0.629714       -17.1354
 160   2.0000      -0.626223       -17.0404
 161   2.0000      -0.625257       -17.0141
 162   2.0000      -0.623690       -16.9715
 163   2.0000      -0.622745       -16.9458
 164   2.0000      -0.622613       -16.9422
 165   2.0000      -0.621110       -16.9013
 166   2.0000      -0.618452       -16.8289
 167   2.0000      -0.610951       -16.6248
 168   2.0000      -0.609289       -16.5796
 169   2.0000      -0.607900       -16.5418
 170   2.0000      -0.605509       -16.4767
 171   2.0000      -0.602565       -16.3966
 172   2.0000      -0.601354       -16.3637
 173   2.0000      -0.595267       -16.1980
 174   2.0000      -0.592862       -16.1326
 175   2.0000      -0.591913       -16.1068
 176   2.0000      -0.586870       -15.9695
 177   2.0000      -0.578513       -15.7421
 178   2.0000      -0.574609       -15.6359
 179   2.0000      -0.572423       -15.5764
 180   2.0000      -0.572106       -15.5678
 181   2.0000      -0.569432       -15.4950
 182   2.0000      -0.563638       -15.3374
 183   2.0000      -0.560726       -15.2581
 184   2.0000      -0.560328       -15.2473
 185   2.0000      -0.559585       -15.2271
 186   2.0000      -0.555105       -15.1052
 187   2.0000      -0.544116       -14.8061
 188   2.0000      -0.533755       -14.5242
 189   2.0000      -0.528628       -14.3847
 190   2.0000      -0.527963       -14.3666
 191   2.0000      -0.520176       -14.1547
 192   2.0000      -0.518159       -14.0998
 193   2.0000      -0.516682       -14.0596
 194   2.0000      -0.514247       -13.9934
 195   2.0000      -0.513424       -13.9710
 196   2.0000      -0.512087       -13.9346
 197   2.0000      -0.508153       -13.8276
 198   2.0000      -0.505041       -13.7429
 199   2.0000      -0.504696       -13.7335
 200   2.0000      -0.504546       -13.7294
 201   2.0000      -0.502075       -13.6621
 202   2.0000      -0.500495       -13.6192
 203   2.0000      -0.496577       -13.5125
 204   2.0000      -0.491656       -13.3786
 205   2.0000      -0.483039       -13.1442
 206   2.0000      -0.477986       -13.0067
 207   2.0000      -0.476344       -12.9620
 208   2.0000      -0.466120       -12.6838
 209   2.0000      -0.460371       -12.5273
 210   2.0000      -0.459377       -12.5003
 211   2.0000      -0.458531       -12.4773
 212   2.0000      -0.456717       -12.4279
 213   2.0000      -0.453089       -12.3292
 214   2.0000      -0.442856       -12.0507
 215   2.0000      -0.381278       -10.3751
 216   2.0000      -0.363615        -9.8945
 217   2.0000      -0.360457        -9.8085
 218   2.0000      -0.359163        -9.7733
 219   2.0000      -0.355365        -9.6700
 220   2.0000      -0.353969        -9.6320
 221   2.0000      -0.351283        -9.5589
 222   2.0000      -0.348910        -9.4943
 223   2.0000      -0.347001        -9.4424
 224   2.0000      -0.339666        -9.2428
 225   2.0000      -0.330122        -8.9831
 226   2.0000      -0.296728        -8.0744
 227   2.0000      -0.286659        -7.8004
 228   2.0000      -0.281716        -7.6659
 229   2.0000      -0.281625        -7.6634
 230   2.0000      -0.273822        -7.4511
 231   0.0000      -0.024952        -0.6790
 232   0.0000      -0.019914        -0.5419
 233   0.0000      -0.008686        -0.2364
 234   0.0000       0.039866         1.0848
 235   0.0000       0.045420         1.2359

MULLIKEN ATOMIC CHARGES
-----------------------
   0 C :    0.007692
   1 C :    0.082892
   2 C :   -0.190863
   3 C :    0.045981
   4 C :    0.011539
   5 C :   -0.009784
   6 C :   -0.010388
   7 C :    0.009032
   8 C :    0.012181
   9 C :   -0.000363
  10 C :    0.075027
  11 C :   -0.189633
  12 C :    0.086250
  13 C :   -0.029535
  14 C :   -0.029905
  15 C :    0.009868
  16 C :   -0.005434
  17 C :    0.008287
  18 C :   -0.010920
  19 C :   -0.008653
  20 C :   -0.001661
  21 C :    0.005634
  22 C :   -0.009123
  23 C :   -0.010598
  24 C :    0.010302
  25 C :   -0.005591
  26 C :   -0.000311
  27 C :   -0.003902
  28 C :    0.000608
  29 C :   -0.001320
  30 C :    0.000220
  31 C :   -0.001698
  32 C :   -0.000633
  33 C :   -0.000685
  34 C :   -0.003961
  35 C :    0.000621
  36 C :   -0.001437
  37 C :   -0.000344
  38 C :   -0.001433
  39 C :   -0.001150
  40 C :    0.000222
  41 C :   -0.003242
  42 C :   -0.001288
  43 C :   -0.003175
  44 C :   -0.000985
  45 C :   -0.000964
  46 C :   -0.001324
  47 C :   -0.000126
  48 C :    0.000188
  49 C :   -0.001738
  50 C :   -0.001258
  51 C :   -0.001191
  52 C :   -0.001256
  53 C :   -0.000091
  54 C :   -0.000881
  55 C :    0.000394
  56 C :   -0.010393
  57 C :   -0.008644
  58 C :   -0.000832
  59 C :    0.000112
  60 C :   -0.097284
  61 C :    0.182352
  62 C :   -0.127108
  63 C :    0.020351
  64 C :   -0.026257
  65 C :   -0.022976
  66 C :   -0.028802
  67 C :    0.023469
  68 H :    0.039404
  69 H :    0.040132
  70 H :    0.046077
  71 H :    0.032034
  72 H :    0.038068
  73 C :   -0.100902
  74 H :    0.032930
  75 H :    0.037749
  76 H :    0.055129
  77 C :   -0.053708
  78 H :    0.059653
  79 H :    0.064160
  80 H :    0.065971
  81 C :    0.487098
  82 O :   -0.405386
  83 O :   -0.533604
  84 C :    0.238130
  85 H :    0.045723
  86 H :    0.042219
  87 H :    0.045044
Sum of atomic charges:   -0.0000000

LOEWDIN ATOMIC CHARGES
----------------------
   0 C :    0.000894
   1 C :    0.014621
   2 C :   -0.008206
   3 C :    0.016406
   4 C :   -0.001183
   5 C :   -0.006435
   6 C :   -0.008611
   7 C :   -0.000170
   8 C :   -0.007073
   9 C :   -0.006221
  10 C :    0.016563
  11 C :   -0.006894
  12 C :    0.014372
  13 C :   -0.019073
  14 C :   -0.019782
  15 C :   -0.002431
  16 C :    0.002295
  17 C :   -0.002442
  18 C :   -0.007320
  19 C :   -0.006620
  20 C :   -0.000707
  21 C :   -0.001555
  22 C :   -0.007273
  23 C :   -0.008232
  24 C :   -0.000289
  25 C :    0.003468
  26 C :   -0.001122
  27 C :   -0.003164
  28 C :    0.000667
  29 C :   -0.001772
  30 C :    0.000389
  31 C :   -0.001524
  32 C :   -0.000342
  33 C :   -0.000426
  34 C :   -0.002912
  35 C :    0.000305
  36 C :   -0.001847
  37 C :    0.000399
  38 C :   -0.001125
  39 C :   -0.001766
  40 C :   -0.000032
  41 C :   -0.002496
  42 C :   -0.000858
  43 C :   -0.002564
  44 C :   -0.000965
  45 C :   -0.000962
  46 C :   -0.000865
  47 C :    0.000184
  48 C :    0.000310
  49 C :   -0.001459
  50 C :   -0.000977
  51 C :   -0.000779
  52 C :   -0.000806
  53 C :    0.000202
  54 C :   -0.001509
  55 C :    0.000166
  56 C :   -0.006917
  57 C :   -0.005680
  58 C :   -0.000584
  59 C :    0.000776
  60 C :   -0.001429
  61 C :    0.010706
  62 C :   -0.029865
  63 C :   -0.007540
  64 C :   -0.019924
  65 C :   -0.018357
  66 C :   -0.021285
  67 C :   -0.010330
  68 H :    0.028231
  69 H :    0.027165
  70 H :    0.027882
  71 H :    0.025403
  72 H :    0.027159
  73 C :   -0.010612
  74 H :    0.022138
  75 H :    0.017506
  76 H :    0.020632
  77 C :   -0.037044
  78 H :    0.023001
  79 H :    0.035563
  80 H :    0.037562
  81 C :    0.199403
  82 O :   -0.257299
  83 O :   -0.186097
  84 C :    0.138668
  85 H :    0.018382
  86 H :    0.015803
  87 H :    0.016527

  Mayer bond orders larger than 0.100000
B(  0-C ,  1-C ) :   1.2333 B(  0-C ,  4-C ) :   1.1744 B(  0-C , 57-C ) :   1.4601
B(  1-C ,  2-C ) :   1.0207 B(  1-C , 14-C ) :   1.5784 B(  2-C ,  3-C ) :   1.0208
B(  2-C , 11-C ) :   0.7371 B(  2-C , 60-C ) :   0.8436 B(  3-C ,  4-C ) :   1.2325
B(  3-C ,  8-C ) :   1.5778 B(  4-C ,  5-C ) :   1.4571 B(  5-C ,  6-C ) :   1.2179
B(  5-C , 59-C ) :   1.1807 B(  6-C ,  7-C ) :   1.4602 B(  6-C , 28-C ) :   1.1862
B(  7-C ,  8-C ) :   1.2191 B(  7-C , 25-C ) :   1.1788 B(  8-C ,  9-C ) :   1.0985
B(  9-C , 10-C ) :   1.5798 B(  9-C , 24-C ) :   1.2172 B( 10-C , 11-C ) :   1.0232
B( 10-C , 21-C ) :   1.2314 B( 11-C , 12-C ) :   1.0216 B( 11-C , 60-C ) :   0.8561
B( 12-C , 13-C ) :   1.5764 B( 12-C , 20-C ) :   1.2375 B( 13-C , 14-C ) :   1.0933
B( 13-C , 17-C ) :   1.2175 B( 14-C , 15-C ) :   1.2163 B( 15-C , 16-C ) :   1.1816
B( 15-C , 56-C ) :   1.4649 B( 16-C , 17-C ) :   1.1811 B( 16-C , 42-C ) :   1.4925
B( 17-C , 18-C ) :   1.4638 B( 18-C , 19-C ) :   1.2148 B( 18-C , 40-C ) :   1.1874
B( 19-C , 20-C ) :   1.4590 B( 19-C , 38-C ) :   1.1802 B( 20-C , 21-C ) :   1.1721
B( 21-C , 22-C ) :   1.4576 B( 22-C , 23-C ) :   1.2164 B( 22-C , 37-C ) :   1.1811
B( 23-C , 24-C ) :   1.4613 B( 23-C , 35-C ) :   1.1865 B( 24-C , 25-C ) :   1.1793
B( 25-C , 26-C ) :   1.4938 B( 26-C , 27-C ) :   1.1805 B( 26-C , 34-C ) :   1.1806
B( 27-C , 28-C ) :   1.4837 B( 27-C , 32-C ) :   1.1904 B( 28-C , 29-C ) :   1.1848
B( 29-C , 30-C ) :   1.4839 B( 29-C , 59-C ) :   1.1856 B( 30-C , 31-C ) :   1.1867
B( 30-C , 53-C ) :   1.1822 B( 31-C , 32-C ) :   1.4835 B( 31-C , 51-C ) :   1.1831
B( 32-C , 33-C ) :   1.1794 B( 33-C , 34-C ) :   1.1904 B( 33-C , 49-C ) :   1.4835
B( 34-C , 35-C ) :   1.4836 B( 35-C , 36-C ) :   1.1848 B( 36-C , 37-C ) :   1.1855
B( 36-C , 48-C ) :   1.4839 B( 37-C , 38-C ) :   1.4904 B( 38-C , 39-C ) :   1.1858
B( 39-C , 40-C ) :   1.1850 B( 39-C , 47-C ) :   1.4840 B( 40-C , 41-C ) :   1.4833
B( 41-C , 42-C ) :   1.1811 B( 41-C , 45-C ) :   1.1905 B( 42-C , 43-C ) :   1.1811
B( 43-C , 44-C ) :   1.1904 B( 43-C , 55-C ) :   1.4832 B( 44-C , 45-C ) :   1.1795
B( 44-C , 52-C ) :   1.4839 B( 45-C , 46-C ) :   1.4837 B( 46-C , 47-C ) :   1.1865
B( 46-C , 50-C ) :   1.1829 B( 47-C , 48-C ) :   1.1821 B( 48-C , 49-C ) :   1.1866
B( 49-C , 50-C ) :   1.1832 B( 50-C , 51-C ) :   1.4880 B( 51-C , 52-C ) :   1.1829
B( 52-C , 53-C ) :   1.1863 B( 53-C , 54-C ) :   1.4840 B( 54-C , 55-C ) :   1.1847
B( 54-C , 58-C ) :   1.1858 B( 55-C , 56-C ) :   1.1875 B( 56-C , 57-C ) :   1.2138
B( 57-C , 58-C ) :   1.1804 B( 58-C , 59-C ) :   1.4902 B( 60-C , 61-C ) :   1.0331
B( 60-C , 62-C ) :   1.0122 B( 61-C , 73-C ) :   1.0386 B( 61-C , 74-H ) :   0.9495
B( 61-C , 75-H ) :   0.9451 B( 62-C , 63-C ) :   1.4294 B( 62-C , 67-C ) :   1.4176
B( 63-C , 64-C ) :   1.4173 B( 63-C , 70-H ) :   0.9980 B( 64-C , 65-C ) :   1.4124
B( 64-C , 68-H ) :   1.0019 B( 65-C , 66-C ) :   1.4073 B( 65-C , 69-H ) :   1.0033
B( 66-C , 67-C ) :   1.4237 B( 66-C , 72-H ) :   1.0011 B( 67-C , 71-H ) :   1.0027
B( 73-C , 76-H ) :   0.9654 B( 73-C , 77-C ) :   1.0320 B( 73-C , 78-H ) :   0.9649
B( 77-C , 79-H ) :   0.9599 B( 77-C , 80-H ) :   0.9546 B( 77-C , 81-C ) :   0.9873
B( 81-C , 82-O ) :   1.9727 B( 81-C , 83-O ) :   1.1000 B( 83-O , 84-C ) :   0.8253
B( 84-C , 85-H ) :   0.9927 B( 84-C , 86-H ) :   0.9922 B( 84-C , 87-H ) :   0.9911

-----------------------------------------------------------------------------
         ABSORPTION SPECTRUM VIA TRANSITION ELECTRIC DIPOLE MOMENTS
-----------------------------------------------------------------------------
State   Energy    Wavelength  fosc         T2        TX        TY        TZ
        (cm-1)      (nm)                 (au**2)    (au)      (au)      (au)
-----------------------------------------------------------------------------
   1   23697.0    422.0   0.000028645   0.00040   0.00268   0.00888  -0.01766
   2   24612.4    406.3   0.000091097   0.00122   0.01336   0.02648   0.01840
   3   24766.9    403.8   0.005840419   0.07763   0.05054  -0.15126   0.22848

FINAL SINGLE POINT ENERGY     -2881.833186548498

DIPOLE MOMENT
-------------
                                X             Y             Z
Electronic contribution:    -71.90096      22.05771      13.63185
Nuclear contribution   :     73.42731     -22.32570     -14.49782
                        -----------------------------------------
Total Dipole Moment    :      1.52635      -0.26798      -0.86597
                        -----------------------------------------
Magnitude (a.u.)       :      1.77524
Magnitude (Debye)      :      4.51230

Rotational constants in cm-1:     0.002214     0.001169     0.001072
Rotational constants in MHz :    66.386768    35.039189    32.136526

                             ****ORCA TERMINATED NORMALLY****
TOTAL RUN TIME: 1 days 16 hours 38 minutes 19 seconds 2 msec
