                         Program Version 4.2.0 -  RELEASE  -
|  1> # ORCA input file
|  2> # SNBDT1-F.out
|  3> ! Engrad Keepdens
|  4> %maxcore 1000
|  5> %tddft
|  6>   nroots 3
|  7>   # nroots is the number of states to be computed
|  8>   Iroot 1
|  9>   end
| 10> * xyz 0 1
| 11>    C       -2.75775        -0.28298         0.46022
| 12>    C       -1.64820         0.35948        -0.10791
| 13>    C       -0.43908        -0.31159        -0.07805
| 14>    C       -0.24055        -1.55111         0.58587
| 15>    C       -1.30408        -2.06736         1.36280
| 16>    C       -2.54433        -1.44639         1.25749
| 17>    S        0.98268         0.34692        -0.85103
| 18>    C        1.86730        -1.04648        -0.34291
| 19>    C        1.10640        -1.98383         0.39234
| 20>    C        3.15556        -1.54909        -0.45640
| 21>    C        3.14882        -2.80500         0.19241
| 22>    N        1.90424        -3.05416         0.70766
| 23>    S        4.70313        -1.15719        -1.09025
| 24>    C        5.34789        -2.68405        -0.47470
| 25>    C        4.37896        -3.45397         0.14902
| 26>    S       -4.02964        -1.98707         2.05892
| 27>    C       -4.92437        -0.73651         1.27614
| 28>    C       -4.13769         0.06000         0.42492
| 29>    C       -6.23614        -0.28797         1.16929
| 30>    C       -6.21732         0.75858         0.21314
| 31>    N       -4.93804         0.95657        -0.23915
| 32>    S       -7.81217        -0.56112         1.78988
| 33>    C       -8.44039         0.76614         0.80703
| 34>    C       -7.46006         1.34489         0.01220
| 35>    O       -1.01045        -3.13685         2.14337
| 36>    O       -1.70373         1.61441        -0.66139
| 37>    C       -1.89782         2.65795         0.29709
| 38>    C       -0.64917         2.94782         1.13761
| 39>    C        0.41143         3.64290         0.28893
| 40>    C       -1.02766         3.80387         2.34280
| 41>    C       -1.79773        -3.46375         3.27795
| 42>    C       -0.95014        -4.31517         4.22854
| 43>    C        0.18601        -3.48488         4.81962
| 44>    C       -1.83848        -4.88396         5.33044
| 45>    C       -4.63070         1.66037        -1.45970
| 46>    C       -4.55651         0.71089        -2.66852
| 47>    C        1.55701        -4.33509         1.26581
| 48>    C        1.32099        -5.39801         0.17948
| 49>    C       -5.91965         0.10647        -2.99067
| 50>    C       -4.00069         1.47303        -3.86741
| 51>    C        1.06211        -6.74513         0.84731
| 52>    C        0.14500        -5.00209        -0.70807
| 53>    C        6.68878        -3.06501        -0.69462
| 54>    C        7.76071        -2.27122        -0.97860
| 55>    C        8.95602        -2.83869        -1.64921
| 56>    C        9.71074        -1.66203        -2.14219
| 57>    C        9.09341        -0.48225        -1.68635
| 58>    C        7.96672        -0.84723        -0.83059
| 59>    C       10.83863        -1.63095        -2.93703
| 60>    C       11.33097        -0.37922        -3.27617
| 61>    C       10.73322         0.79836        -2.85188
| 62>    C        9.60586         0.75467        -2.04561
| 63>    C       -9.81415         1.05209         0.89010
| 64>    C      -10.51439         2.14630         0.46220
| 65>    C      -11.98155         2.01556         0.27035
| 66>    C      -12.37967         3.21166        -0.50681
| 67>    C      -11.26594         4.05554        -0.66696
| 68>    C      -10.13055         3.47601         0.05373
| 69>    C      -13.61317         3.52205        -1.04133
| 70>    C      -13.70407         4.70633        -1.75824
| 71>    C      -12.61895         5.54972        -1.94385
| 72>    C      -11.38662         5.23036        -1.39343
| 73>    O      -12.68561         1.10374         0.63804
| 74>    F      -14.88473         5.05027        -2.29871
| 75>    C       -9.02922         4.18300         0.46734
| 76>    C       -8.74622         5.50590         0.07277
| 77>    C       -8.08188         3.70487         1.39358
| 78>    N       -8.44274         6.57002        -0.23402
| 79>    N       -7.28917         3.38437         2.15984
| 80>    O        9.22417        -4.00849        -1.80056
| 81>    F       12.42771        -0.30033        -4.04904
| 82>    C        7.42095        -0.05247         0.14338
| 83>    C        7.72835         1.31231         0.30785
| 84>    C        6.56865        -0.54802         1.15252
| 85>    N        5.92601        -0.93246         2.02276
| 86>    N        7.93789         2.42844         0.47570
| 87>    H        4.59939        -4.41379         0.57947
| 88>    H       -7.67016         2.12149        -0.70026
| 89>    H       -2.74069         2.40713         0.95393
| 90>    H       -2.15655         3.54180        -0.29166
| 91>    H       -0.25125         1.99126         1.49585
| 92>    H        0.08078         4.64462         0.02263
| 93>    H        0.59167         3.08338        -0.62532
| 94>    H        1.34707         3.72124         0.83611
| 95>    H       -1.47231         4.74153         2.01690
| 96>    H       -0.14262         4.02969         2.93162
| 97>    H       -1.74258         3.28745         2.97970
| 98>    H       -2.68489        -4.02870         2.96756
| 99>    H       -2.11700        -2.55312         3.79432
|100>    H       -0.52595        -5.14397         3.65238
|101>    H       -0.21490        -2.69980         5.45707
|102>    H        0.77623        -3.02190         4.03296
|103>    H        0.84091        -4.11217         5.41855
|104>    H       -2.30488        -4.07982         5.89448
|105>    H       -1.24591        -5.48522         6.01457
|106>    H       -2.62302        -5.50993         4.91253
|107>    H       -3.67005         2.16082        -1.36137
|108>    H       -5.40787         2.41133        -1.61559
|109>    H       -3.86094        -0.09703        -2.41471
|110>    H        0.65195        -4.22181         1.85563
|111>    H        2.37759        -4.64846         1.91802
|112>    H        2.22174        -5.47372        -0.44014
|113>    H       -5.83988        -0.56820        -3.83944
|114>    H       -6.63317         0.88855        -3.24339
|115>    H       -6.30976        -0.45851        -2.14671
|116>    H       -4.64772         2.31027        -4.12031
|117>    H       -3.93331         0.81854        -4.73252
|118>    H       -3.00689         1.85490        -3.64714
|119>    H        0.16109        -6.69760         1.45502
|120>    H        1.89512        -7.02878         1.48653
|121>    H        0.92744        -7.52016         0.09724
|122>    H       -0.75272        -4.87255        -0.10756
|123>    H       -0.04420        -5.77260        -1.45145
|124>    H        0.34689        -4.06953        -1.23047
|125>    H        6.88111        -4.13350        -0.71816
|126>    H       11.31654        -2.53547        -3.27761
|127>    H       11.15734         1.74219        -3.15636
|128>    H        9.14023         1.67159        -1.72237
|129>    H      -10.43456         0.25943         1.29843
|130>    H      -14.46636         2.87661        -0.90755
|131>    H      -12.74787         6.45348        -2.51825
|132>    H      -10.54746         5.88925        -1.54617
|133> *
|134>
|135>                          ****END OF INPUT****

CARTESIAN COORDINATES (ANGSTROEM)
---------------------------------
  C     -2.757750   -0.282980    0.460220
  C     -1.648200    0.359480   -0.107910
  C     -0.439080   -0.311590   -0.078050
  C     -0.240550   -1.551110    0.585870
  C     -1.304080   -2.067360    1.362800
  C     -2.544330   -1.446390    1.257490
  S      0.982680    0.346920   -0.851030
  C      1.867300   -1.046480   -0.342910
  C      1.106400   -1.983830    0.392340
  C      3.155560   -1.549090   -0.456400
  C      3.148820   -2.805000    0.192410
  N      1.904240   -3.054160    0.707660
  S      4.703130   -1.157190   -1.090250
  C      5.347890   -2.684050   -0.474700
  C      4.378960   -3.453970    0.149020
  S     -4.029640   -1.987070    2.058920
  C     -4.924370   -0.736510    1.276140
  C     -4.137690    0.060000    0.424920
  C     -6.236140   -0.287970    1.169290
  C     -6.217320    0.758580    0.213140
  N     -4.938040    0.956570   -0.239150
  S     -7.812170   -0.561120    1.789880
  C     -8.440390    0.766140    0.807030
  C     -7.460060    1.344890    0.012200
  O     -1.010450   -3.136850    2.143370
  O     -1.703730    1.614410   -0.661390
  C     -1.897820    2.657950    0.297090
  C     -0.649170    2.947820    1.137610
  C      0.411430    3.642900    0.288930
  C     -1.027660    3.803870    2.342800
  C     -1.797730   -3.463750    3.277950
  C     -0.950140   -4.315170    4.228540
  C      0.186010   -3.484880    4.819620
  C     -1.838480   -4.883960    5.330440
  C     -4.630700    1.660370   -1.459700
  C     -4.556510    0.710890   -2.668520
  C      1.557010   -4.335090    1.265810
  C      1.320990   -5.398010    0.179480
  C     -5.919650    0.106470   -2.990670
  C     -4.000690    1.473030   -3.867410
  C      1.062110   -6.745130    0.847310
  C      0.145000   -5.002090   -0.708070
  C      6.688780   -3.065010   -0.694620
  C      7.760710   -2.271220   -0.978600
  C      8.956020   -2.838690   -1.649210
  C      9.710740   -1.662030   -2.142190
  C      9.093410   -0.482250   -1.686350
  C      7.966720   -0.847230   -0.830590
  C     10.838630   -1.630950   -2.937030
  C     11.330970   -0.379220   -3.276170
  C     10.733220    0.798360   -2.851880
  C      9.605860    0.754670   -2.045610
  C     -9.814150    1.052090    0.890100
  C    -10.514390    2.146300    0.462200
  C    -11.981550    2.015560    0.270350
  C    -12.379670    3.211660   -0.506810
  C    -11.265940    4.055540   -0.666960
  C    -10.130550    3.476010    0.053730
  C    -13.613170    3.522050   -1.041330
  C    -13.704070    4.706330   -1.758240
  C    -12.618950    5.549720   -1.943850
  C    -11.386620    5.230360   -1.393430
  O    -12.685610    1.103740    0.638040
  F    -14.884730    5.050270   -2.298710
  C     -9.029220    4.183000    0.467340
  C     -8.746220    5.505900    0.072770
  C     -8.081880    3.704870    1.393580
  N     -8.442740    6.570020   -0.234020
  N     -7.289170    3.384370    2.159840
  O      9.224170   -4.008490   -1.800560
  F     12.427710   -0.300330   -4.049040
  C      7.420950   -0.052470    0.143380
  C      7.728350    1.312310    0.307850
  C      6.568650   -0.548020    1.152520
  N      5.926010   -0.932460    2.022760
  N      7.937890    2.428440    0.475700
  H      4.599390   -4.413790    0.579470
  H     -7.670160    2.121490   -0.700260
  H     -2.740690    2.407130    0.953930
  H     -2.156550    3.541800   -0.291660
  H     -0.251250    1.991260    1.495850
  H      0.080780    4.644620    0.022630
  H      0.591670    3.083380   -0.625320
  H      1.347070    3.721240    0.836110
  H     -1.472310    4.741530    2.016900
  H     -0.142620    4.029690    2.931620
  H     -1.742580    3.287450    2.979700
  H     -2.684890   -4.028700    2.967560
  H     -2.117000   -2.553120    3.794320
  H     -0.525950   -5.143970    3.652380
  H     -0.214900   -2.699800    5.457070
  H      0.776230   -3.021900    4.032960
  H      0.840910   -4.112170    5.418550
  H     -2.304880   -4.079820    5.894480
  H     -1.245910   -5.485220    6.014570
  H     -2.623020   -5.509930    4.912530
  H     -3.670050    2.160820   -1.361370
  H     -5.407870    2.411330   -1.615590
  H     -3.860940   -0.097030   -2.414710
  H      0.651950   -4.221810    1.855630
  H      2.377590   -4.648460    1.918020
  H      2.221740   -5.473720   -0.440140
  H     -5.839880   -0.568200   -3.839440
  H     -6.633170    0.888550   -3.243390
  H     -6.309760   -0.458510   -2.146710
  H     -4.647720    2.310270   -4.120310
  H     -3.933310    0.818540   -4.732520
  H     -3.006890    1.854900   -3.647140
  H      0.161090   -6.697600    1.455020
  H      1.895120   -7.028780    1.486530
  H      0.927440   -7.520160    0.097240
  H     -0.752720   -4.872550   -0.107560
  H     -0.044200   -5.772600   -1.451450
  H      0.346890   -4.069530   -1.230470
  H      6.881110   -4.133500   -0.718160
  H     11.316540   -2.535470   -3.277610
  H     11.157340    1.742190   -3.156360
  H      9.140230    1.671590   -1.722370
  H    -10.434560    0.259430    1.298430
  H    -14.466360    2.876610   -0.907550
  H    -12.747870    6.453480   -2.518250
  H    -10.547460    5.889250   -1.546170

 Total Charge           Charge          ....    0
 Multiplicity           Mult            ....    1
 Number of Electrons    NEL             ....  562
 Basis Dimension        Dim             .... 1310

ORBITAL ENERGIES
----------------

  NO   OCC          E(Eh)            E(eV)
   0   2.0000     -91.975254     -2502.7739
   1   2.0000     -91.968474     -2502.5894
   2   2.0000     -91.968185     -2502.5815
   3   2.0000     -91.961272     -2502.3934
   4   2.0000     -26.325713      -716.3591
   5   2.0000     -26.320905      -716.2282
   6   2.0000     -20.611513      -560.8678
   7   2.0000     -20.598369      -560.5101
   8   2.0000     -20.564183      -559.5799
   9   2.0000     -20.560065      -559.4678
  10   2.0000     -15.642235      -425.6469
  11   2.0000     -15.638124      -425.5350
  12   2.0000     -15.589805      -424.2202
  13   2.0000     -15.587915      -424.1687
  14   2.0000     -15.582764      -424.0286
  15   2.0000     -15.576809      -423.8665
  16   2.0000     -11.368615      -309.3558
  17   2.0000     -11.363307      -309.2113
  18   2.0000     -11.361584      -309.1644
  19   2.0000     -11.358086      -309.0692
  20   2.0000     -11.347255      -308.7745
  21   2.0000     -11.341140      -308.6081
  22   2.0000     -11.331613      -308.3489
  23   2.0000     -11.328124      -308.2539
  24   2.0000     -11.318721      -307.9981
  25   2.0000     -11.317641      -307.9687
  26   2.0000     -11.313006      -307.8425
  27   2.0000     -11.312315      -307.8237
  28   2.0000     -11.312111      -307.8182
  29   2.0000     -11.311568      -307.8034
  30   2.0000     -11.310436      -307.7726
  31   2.0000     -11.304009      -307.5977
  32   2.0000     -11.301133      -307.5195
  33   2.0000     -11.300705      -307.5078
  34   2.0000     -11.299688      -307.4801
  35   2.0000     -11.296861      -307.4032
  36   2.0000     -11.296798      -307.4015
  37   2.0000     -11.296215      -307.3856
  38   2.0000     -11.295185      -307.3576
  39   2.0000     -11.293863      -307.3216
  40   2.0000     -11.293351      -307.3077
  41   2.0000     -11.292383      -307.2814
  42   2.0000     -11.292357      -307.2806
  43   2.0000     -11.291692      -307.2626
  44   2.0000     -11.290882      -307.2405
  45   2.0000     -11.290005      -307.2166
  46   2.0000     -11.289605      -307.2058
  47   2.0000     -11.289002      -307.1894
  48   2.0000     -11.287736      -307.1549
  49   2.0000     -11.286923      -307.1328
  50   2.0000     -11.286479      -307.1207
  51   2.0000     -11.286292      -307.1156
  52   2.0000     -11.285912      -307.1053
  53   2.0000     -11.285339      -307.0897
  54   2.0000     -11.284385      -307.0637
  55   2.0000     -11.283767      -307.0469
  56   2.0000     -11.282348      -307.0083
  57   2.0000     -11.281783      -306.9929
  58   2.0000     -11.281410      -306.9828
  59   2.0000     -11.279085      -306.9195
  60   2.0000     -11.277651      -306.8805
  61   2.0000     -11.277071      -306.8647
  62   2.0000     -11.271965      -306.7258
  63   2.0000     -11.267057      -306.5922
  64   2.0000     -11.251638      -306.1726
  65   2.0000     -11.246487      -306.0325
  66   2.0000     -11.246434      -306.0310
  67   2.0000     -11.238459      -305.8140
  68   2.0000     -11.236311      -305.7556
  69   2.0000     -11.236274      -305.7546
  70   2.0000     -11.232590      -305.6543
  71   2.0000     -11.232120      -305.6415
  72   2.0000     -11.231327      -305.6200
  73   2.0000     -11.228866      -305.5530
  74   2.0000     -11.225658      -305.4657
  75   2.0000     -11.218389      -305.2679
  76   2.0000      -9.010347      -245.1840
  77   2.0000      -9.003509      -244.9979
  78   2.0000      -9.003231      -244.9904
  79   2.0000      -8.996496      -244.8071
  80   2.0000      -6.697934      -182.2600
  81   2.0000      -6.696948      -182.2332
  82   2.0000      -6.694797      -182.1747
  83   2.0000      -6.691255      -182.0783
  84   2.0000      -6.690852      -182.0673
  85   2.0000      -6.690257      -182.0511
  86   2.0000      -6.689837      -182.0397
  87   2.0000      -6.687737      -181.9826
  88   2.0000      -6.687692      -181.9814
  89   2.0000      -6.684148      -181.8849
  90   2.0000      -6.683204      -181.8592
  91   2.0000      -6.680767      -181.7929
  92   2.0000      -1.628174       -44.3049
  93   2.0000      -1.623170       -44.1687
  94   2.0000      -1.434079       -39.0233
  95   2.0000      -1.416436       -38.5432
  96   2.0000      -1.396623       -38.0040
  97   2.0000      -1.391951       -37.8769
  98   2.0000      -1.344157       -36.5764
  99   2.0000      -1.338284       -36.4166
 100   2.0000      -1.250869       -34.0379
 101   2.0000      -1.243421       -33.8352
 102   2.0000      -1.226631       -33.3783
 103   2.0000      -1.225614       -33.3507
 104   2.0000      -1.220479       -33.2109
 105   2.0000      -1.216246       -33.0957
 106   2.0000      -1.215361       -33.0716
 107   2.0000      -1.198302       -32.6075
 108   2.0000      -1.192387       -32.4465
 109   2.0000      -1.181650       -32.1543
 110   2.0000      -1.164878       -31.6980
 111   2.0000      -1.159423       -31.5495
 112   2.0000      -1.131054       -30.7775
 113   2.0000      -1.112454       -30.2714
 114   2.0000      -1.108844       -30.1732
 115   2.0000      -1.100761       -29.9532
 116   2.0000      -1.095701       -29.8155
 117   2.0000      -1.092188       -29.7199
 118   2.0000      -1.085926       -29.5496
 119   2.0000      -1.082996       -29.4698
 120   2.0000      -1.077082       -29.3089
 121   2.0000      -1.062986       -28.9253
 122   2.0000      -1.057448       -28.7746
 123   2.0000      -1.057314       -28.7710
 124   2.0000      -1.051692       -28.6180
 125   2.0000      -1.032803       -28.1040
 126   2.0000      -1.019199       -27.7338
 127   2.0000      -1.009798       -27.4780
 128   2.0000      -1.006574       -27.3903
 129   2.0000      -0.987466       -26.8703
 130   2.0000      -0.979566       -26.6554
 131   2.0000      -0.966443       -26.2983
 132   2.0000      -0.955400       -25.9977
 133   2.0000      -0.943353       -25.6699
 134   2.0000      -0.941327       -25.6148
 135   2.0000      -0.940545       -25.5935
 136   2.0000      -0.938944       -25.5500
 137   2.0000      -0.934506       -25.4292
 138   2.0000      -0.931441       -25.3458
 139   2.0000      -0.930355       -25.3162
 140   2.0000      -0.928199       -25.2576
 141   2.0000      -0.922421       -25.1004
 142   2.0000      -0.906692       -24.6724
 143   2.0000      -0.890555       -24.2332
 144   2.0000      -0.871360       -23.7109
 145   2.0000      -0.858185       -23.3524
 146   2.0000      -0.850442       -23.1417
 147   2.0000      -0.843765       -22.9600
 148   2.0000      -0.826791       -22.4981
 149   2.0000      -0.820943       -22.3390
 150   2.0000      -0.817698       -22.2507
 151   2.0000      -0.810521       -22.0554
 152   2.0000      -0.810324       -22.0500
 153   2.0000      -0.803534       -21.8653
 154   2.0000      -0.800568       -21.7846
 155   2.0000      -0.798814       -21.7368
 156   2.0000      -0.792735       -21.5714
 157   2.0000      -0.786418       -21.3995
 158   2.0000      -0.779044       -21.1989
 159   2.0000      -0.773552       -21.0494
 160   2.0000      -0.769721       -20.9452
 161   2.0000      -0.765669       -20.8349
 162   2.0000      -0.761327       -20.7168
 163   2.0000      -0.743320       -20.2268
 164   2.0000      -0.738340       -20.0913
 165   2.0000      -0.736872       -20.0513
 166   2.0000      -0.734023       -19.9738
 167   2.0000      -0.730661       -19.8823
 168   2.0000      -0.719791       -19.5865
 169   2.0000      -0.719063       -19.5667
 170   2.0000      -0.717739       -19.5307
 171   2.0000      -0.715020       -19.4567
 172   2.0000      -0.712637       -19.3918
 173   2.0000      -0.709184       -19.2979
 174   2.0000      -0.705730       -19.2039
 175   2.0000      -0.703437       -19.1415
 176   2.0000      -0.698925       -19.0187
 177   2.0000      -0.688073       -18.7234
 178   2.0000      -0.684776       -18.6337
 179   2.0000      -0.681289       -18.5388
 180   2.0000      -0.675488       -18.3810
 181   2.0000      -0.673255       -18.3202
 182   2.0000      -0.669742       -18.2246
 183   2.0000      -0.666526       -18.1371
 184   2.0000      -0.660746       -17.9798
 185   2.0000      -0.654103       -17.7990
 186   2.0000      -0.652281       -17.7495
 187   2.0000      -0.649772       -17.6812
 188   2.0000      -0.647740       -17.6259
 189   2.0000      -0.646762       -17.5993
 190   2.0000      -0.645172       -17.5560
 191   2.0000      -0.635089       -17.2817
 192   2.0000      -0.631349       -17.1799
 193   2.0000      -0.629964       -17.1422
 194   2.0000      -0.627803       -17.0834
 195   2.0000      -0.624736       -16.9999
 196   2.0000      -0.622456       -16.9379
 197   2.0000      -0.621680       -16.9168
 198   2.0000      -0.617785       -16.8108
 199   2.0000      -0.615458       -16.7475
 200   2.0000      -0.610738       -16.6190
 201   2.0000      -0.610078       -16.6011
 202   2.0000      -0.607101       -16.5200
 203   2.0000      -0.604684       -16.4543
 204   2.0000      -0.599780       -16.3208
 205   2.0000      -0.597809       -16.2672
 206   2.0000      -0.590520       -16.0689
 207   2.0000      -0.586120       -15.9491
 208   2.0000      -0.584591       -15.9075
 209   2.0000      -0.582366       -15.8470
 210   2.0000      -0.579510       -15.7693
 211   2.0000      -0.577343       -15.7103
 212   2.0000      -0.576445       -15.6859
 213   2.0000      -0.575212       -15.6523
 214   2.0000      -0.570373       -15.5206
 215   2.0000      -0.569008       -15.4835
 216   2.0000      -0.568285       -15.4638
 217   2.0000      -0.567295       -15.4369
 218   2.0000      -0.565125       -15.3778
 219   2.0000      -0.563675       -15.3384
 220   2.0000      -0.562474       -15.3057
 221   2.0000      -0.559726       -15.2309
 222   2.0000      -0.558514       -15.1979
 223   2.0000      -0.557314       -15.1653
 224   2.0000      -0.556868       -15.1531
 225   2.0000      -0.556639       -15.1469
 226   2.0000      -0.554254       -15.0820
 227   2.0000      -0.551823       -15.0159
 228   2.0000      -0.550196       -14.9716
 229   2.0000      -0.547296       -14.8927
 230   2.0000      -0.545518       -14.8443
 231   2.0000      -0.543085       -14.7781
 232   2.0000      -0.537101       -14.6153
 233   2.0000      -0.534050       -14.5322
 234   2.0000      -0.532572       -14.4920
 235   2.0000      -0.528560       -14.3829
 236   2.0000      -0.528102       -14.3704
 237   2.0000      -0.527599       -14.3567
 238   2.0000      -0.525658       -14.3039
 239   2.0000      -0.520404       -14.1609
 240   2.0000      -0.509710       -13.8699
 241   2.0000      -0.505771       -13.7627
 242   2.0000      -0.503043       -13.6885
 243   2.0000      -0.502861       -13.6835
 244   2.0000      -0.499786       -13.5999
 245   2.0000      -0.498730       -13.5711
 246   2.0000      -0.495831       -13.4923
 247   2.0000      -0.494837       -13.4652
 248   2.0000      -0.494106       -13.4453
 249   2.0000      -0.493587       -13.4312
 250   2.0000      -0.491682       -13.3793
 251   2.0000      -0.489532       -13.3208
 252   2.0000      -0.487413       -13.2632
 253   2.0000      -0.486340       -13.2340
 254   2.0000      -0.485077       -13.1996
 255   2.0000      -0.481431       -13.1004
 256   2.0000      -0.479887       -13.0584
 257   2.0000      -0.474819       -12.9205
 258   2.0000      -0.474359       -12.9080
 259   2.0000      -0.471373       -12.8267
 260   2.0000      -0.466243       -12.6871
 261   2.0000      -0.464144       -12.6300
 262   2.0000      -0.457208       -12.4413
 263   2.0000      -0.452474       -12.3125
 264   2.0000      -0.447120       -12.1667
 265   2.0000      -0.444116       -12.0850
 266   2.0000      -0.437757       -11.9120
 267   2.0000      -0.414113       -11.2686
 268   2.0000      -0.401419       -10.9232
 269   2.0000      -0.397739       -10.8230
 270   2.0000      -0.389834       -10.6079
 271   2.0000      -0.385043       -10.4775
 272   2.0000      -0.376643       -10.2490
 273   2.0000      -0.364187        -9.9100
 274   2.0000      -0.350614        -9.5407
 275   2.0000      -0.346423        -9.4267
 276   2.0000      -0.342518        -9.3204
 277   2.0000      -0.323995        -8.8164
 278   2.0000      -0.297682        -8.1003
 279   2.0000      -0.294394        -8.0109
 280   2.0000      -0.251581        -6.8459
 281   0.0000      -0.025867        -0.7039
 282   0.0000      -0.009768        -0.2658
 283   0.0000       0.018739         0.5099
 284   0.0000       0.026769         0.7284
 285   0.0000       0.055172         1.5013

MULLIKEN ATOMIC CHARGES
-----------------------
   0 C :   -0.049679
   1 C :    0.227533
   2 C :   -0.088179
   3 C :   -0.074389
   4 C :    0.324891
   5 C :   -0.120632
   6 S :    0.206250
   7 C :   -0.147354
   8 C :    0.249890
   9 C :   -0.100661
  10 C :    0.218886
  11 N :   -0.570207
  12 S :    0.173351
  13 C :   -0.209792
  14 C :    0.048541
  15 S :    0.144360
  16 C :   -0.124852
  17 C :    0.236412
  18 C :   -0.104763
  19 C :    0.198794
  20 N :   -0.570447
  21 S :    0.194424
  22 C :   -0.229941
  23 C :    0.034696
  24 O :   -0.621540
  25 O :   -0.616481
  26 C :    0.284567
  27 C :   -0.276840
  28 C :    0.016516
  29 C :    0.005896
  30 C :    0.274632
  31 C :   -0.282574
  32 C :    0.005808
  33 C :    0.020385
  34 C :    0.233302
  35 C :   -0.275601
  36 C :    0.218594
  37 C :   -0.260986
  38 C :    0.008704
  39 C :    0.012321
  40 C :    0.015433
  41 C :   -0.001607
  42 C :    0.173380
  43 C :   -0.328948
  44 C :    0.472356
  45 C :   -0.147408
  46 C :   -0.079961
  47 C :    0.231913
  48 C :   -0.054744
  49 C :    0.420058
  50 C :   -0.082076
  51 C :    0.023342
  52 C :    0.216479
  53 C :   -0.333114
  54 C :    0.464439
  55 C :   -0.139359
  56 C :   -0.085252
  57 C :    0.251349
  58 C :   -0.054284
  59 C :    0.422740
  60 C :   -0.082221
  61 C :    0.018547
  62 O :   -0.351462
  63 F :   -0.327266
  64 C :   -0.390572
  65 C :    0.044445
  66 C :    0.032217
  67 N :   -0.071741
  68 N :   -0.050429
  69 O :   -0.352496
  70 F :   -0.329107
  71 C :   -0.340210
  72 C :    0.036764
  73 C :    0.044363
  74 N :   -0.063416
  75 N :   -0.071729
  76 H :    0.048622
  77 H :    0.066612
  78 H :    0.055995
  79 H :    0.039133
  80 H :    0.062604
  81 H :    0.019790
  82 H :    0.046300
  83 H :    0.039331
  84 H :    0.027927
  85 H :    0.040697
  86 H :    0.036753
  87 H :    0.056745
  88 H :    0.052829
  89 H :    0.048874
  90 H :    0.027654
  91 H :    0.046745
  92 H :    0.037858
  93 H :    0.030835
  94 H :    0.041017
  95 H :    0.033590
  96 H :    0.086111
  97 H :    0.036082
  98 H :    0.054903
  99 H :    0.104535
 100 H :    0.039772
 101 H :    0.039228
 102 H :    0.038210
 103 H :    0.015817
 104 H :    0.056508
 105 H :    0.021345
 106 H :    0.036830
 107 H :    0.045997
 108 H :    0.025450
 109 H :    0.027507
 110 H :    0.039092
 111 H :    0.031853
 112 H :    0.034439
 113 H :    0.053318
 114 H :    0.081121
 115 H :    0.071058
 116 H :    0.069756
 117 H :    0.079622
 118 H :    0.084406
 119 H :    0.072397
 120 H :    0.070496
 121 H :    0.079976
Sum of atomic charges:    0.0000000

LOEWDIN ATOMIC CHARGES
----------------------
   0 C :   -0.064360
   1 C :    0.041956
   2 C :   -0.142517
   3 C :   -0.073926
   4 C :    0.079171
   5 C :   -0.170696
   6 S :    0.406658
   7 C :   -0.228521
   8 C :    0.035919
   9 C :   -0.183875
  10 C :   -0.014051
  11 N :   -0.007132
  12 S :    0.418508
  13 C :   -0.201380
  14 C :    0.017331
  15 S :    0.376735
  16 C :   -0.223161
  17 C :    0.028548
  18 C :   -0.188222
  19 C :   -0.004532
  20 N :   -0.012808
  21 S :    0.411609
  22 C :   -0.205964
  23 C :    0.019848
  24 O :   -0.178434
  25 O :   -0.206318
  26 C :    0.133514
  27 C :   -0.050286
  28 C :   -0.026702
  29 C :   -0.022489
  30 C :    0.123425
  31 C :   -0.043861
  32 C :   -0.024038
  33 C :   -0.021341
  34 C :    0.083531
  35 C :   -0.039788
  36 C :    0.076941
  37 C :   -0.040818
  38 C :   -0.029068
  39 C :   -0.023639
  40 C :   -0.024299
  41 C :   -0.028016
  42 C :    0.110400
  43 C :   -0.156442
  44 C :    0.165826
  45 C :   -0.039550
  46 C :   -0.035747
  47 C :    0.102068
  48 C :   -0.006111
  49 C :    0.152729
  50 C :   -0.025323
  51 C :    0.026393
  52 C :    0.111994
  53 C :   -0.158469
  54 C :    0.164766
  55 C :   -0.037747
  56 C :   -0.039374
  57 C :    0.111319
  58 C :   -0.005497
  59 C :    0.154586
  60 C :   -0.026189
  61 C :    0.025760
  62 O :   -0.229170
  63 F :   -0.125205
  64 C :   -0.183954
  65 C :    0.011311
  66 C :    0.009659
  67 N :   -0.099363
  68 N :   -0.083994
  69 O :   -0.231307
  70 F :   -0.127016
  71 C :   -0.171961
  72 C :    0.013509
  73 C :    0.001068
  74 N :   -0.095595
  75 N :   -0.097234
  76 H :    0.037296
  77 H :    0.034614
  78 H :    0.008453
  79 H :    0.014747
  80 H :    0.017305
  81 H :    0.011281
  82 H :    0.007875
  83 H :    0.019410
  84 H :    0.015356
  85 H :    0.021346
  86 H :    0.016713
  87 H :    0.003338
  88 H :    0.007201
  89 H :    0.014178
  90 H :    0.016056
  91 H :    0.018164
  92 H :    0.018799
  93 H :    0.016982
  94 H :    0.021535
  95 H :    0.016018
  96 H :    0.025767
  97 H :    0.017546
  98 H :    0.018170
  99 H :    0.022814
 100 H :    0.015522
 101 H :    0.010365
 102 H :    0.019785
 103 H :    0.010494
 104 H :    0.018597
 105 H :    0.013318
 106 H :    0.019451
 107 H :    0.020827
 108 H :    0.014061
 109 H :    0.013984
 110 H :    0.020109
 111 H :    0.015352
 112 H :    0.017751
 113 H :    0.019174
 114 H :    0.054653
 115 H :    0.051452
 116 H :    0.045486
 117 H :    0.044432
 118 H :    0.052660
 119 H :    0.052184
 120 H :    0.045842
 121 H :    0.043949

  Mayer bond orders larger than 0.100000
B(  0-C ,  1-C ) :   1.3496 B(  0-C ,  5-C ) :   1.3120 B(  0-C , 17-C ) :   1.1722
B(  1-C ,  2-C ) :   1.4752 B(  1-C , 25-O ) :   1.0384 B(  2-C ,  3-C ) :   1.3646
B(  2-C ,  6-S ) :   1.0404 B(  3-C ,  4-C ) :   1.3585 B(  3-C ,  8-C ) :   1.1550
B(  4-C ,  5-C ) :   1.4891 B(  4-C , 24-O ) :   0.9948 B(  5-C , 15-S ) :   0.9790
B(  6-S ,  7-C ) :   0.9338 B(  7-C ,  8-C ) :   1.4834 B(  7-C ,  9-C ) :   1.5531
B(  8-C , 11-N ) :   1.1404 B(  9-C , 10-C ) :   1.3902 B(  9-C , 12-S ) :   1.0146
B( 10-C , 11-N ) :   1.0810 B( 10-C , 14-C ) :   1.2820 B( 11-N , 36-C ) :   0.8493
B( 12-S , 13-C ) :   1.0536 B( 13-C , 14-C ) :   1.4932 B( 13-C , 42-C ) :   1.1920
B( 14-C , 76-H ) :   1.0069 B( 15-S , 16-C ) :   0.9522 B( 16-C , 17-C ) :   1.4953
B( 16-C , 18-C ) :   1.5208 B( 17-C , 20-N ) :   1.1306 B( 18-C , 19-C ) :   1.3884
B( 18-C , 21-S ) :   1.0316 B( 19-C , 20-N ) :   1.0729 B( 19-C , 23-C ) :   1.3298
B( 20-N , 34-C ) :   0.8590 B( 21-S , 22-C ) :   1.0648 B( 22-C , 23-C ) :   1.4711
B( 22-C , 52-C ) :   1.1975 B( 23-C , 77-H ) :   0.9966 B( 24-O , 30-C ) :   0.8181
B( 25-O , 26-C ) :   0.7983 B( 26-C , 27-C ) :   0.9928 B( 26-C , 78-H ) :   0.9843
B( 26-C , 79-H ) :   0.9674 B( 27-C , 28-C ) :   1.0087 B( 27-C , 29-C ) :   1.0208
B( 27-C , 80-H ) :   0.9640 B( 28-C , 81-H ) :   0.9800 B( 28-C , 82-H ) :   0.9859
B( 28-C , 83-H ) :   0.9874 B( 29-C , 84-H ) :   0.9816 B( 29-C , 85-H ) :   0.9866
B( 29-C , 86-H ) :   0.9853 B( 30-C , 31-C ) :   0.9978 B( 30-C , 87-H ) :   0.9752
B( 30-C , 88-H ) :   0.9680 B( 31-C , 32-C ) :   1.0095 B( 31-C , 33-C ) :   1.0265
B( 31-C , 89-H ) :   0.9627 B( 32-C , 90-H ) :   0.9816 B( 32-C , 91-H ) :   0.9892
B( 32-C , 92-H ) :   0.9878 B( 33-C , 93-H ) :   0.9814 B( 33-C , 94-H ) :   0.9874
B( 33-C , 95-H ) :   0.9850 B( 34-C , 35-C ) :   0.9930 B( 34-C , 96-H ) :   0.9745
B( 34-C , 97-H ) :   0.9703 B( 35-C , 38-C ) :   1.0065 B( 35-C , 39-C ) :   1.0265
B( 35-C , 98-H ) :   0.9594 B( 36-C , 37-C ) :   1.0004 B( 36-C , 99-H ) :   0.9614
B( 36-C ,100-H ) :   0.9774 B( 37-C , 40-C ) :   1.0259 B( 37-C , 41-C ) :   1.0036
B( 37-C ,101-H ) :   0.9626 B( 38-C ,102-H ) :   0.9856 B( 38-C ,103-H ) :   0.9820
B( 38-C ,104-H ) :   0.9842 B( 39-C ,105-H ) :   0.9803 B( 39-C ,106-H ) :   0.9867
B( 39-C ,107-H ) :   0.9855 B( 40-C ,108-H ) :   0.9809 B( 40-C ,109-H ) :   0.9852
B( 40-C ,110-H ) :   0.9860 B( 41-C ,111-H ) :   0.9831 B( 41-C ,112-H ) :   0.9862
B( 41-C ,113-H ) :   0.9849 B( 42-C , 43-C ) :   1.6878 B( 42-C ,114-H ) :   0.9626
B( 43-C , 44-C ) :   0.9979 B( 43-C , 47-C ) :   1.0691 B( 44-C , 45-C ) :   0.9428
B( 44-C , 69-O ) :   2.1051 B( 45-C , 46-C ) :   1.3555 B( 45-C , 48-C ) :   1.3995
B( 46-C , 47-C ) :   1.0440 B( 46-C , 51-C ) :   1.4182 B( 47-C , 71-C ) :   1.7033
B( 48-C , 49-C ) :   1.3765 B( 48-C ,115-H ) :   1.0141 B( 49-C , 50-C ) :   1.3971
B( 49-C , 70-F ) :   0.8979 B( 50-C , 51-C ) :   1.4004 B( 50-C ,116-H ) :   0.9984
B( 51-C ,117-H ) :   0.9887 B( 52-C , 53-C ) :   1.6732 B( 52-C ,118-H ) :   0.9478
B( 53-C , 54-C ) :   1.0053 B( 53-C , 57-C ) :   1.0885 B( 54-C , 55-C ) :   0.9415
B( 54-C , 62-O ) :   2.0987 B( 55-C , 56-C ) :   1.3561 B( 55-C , 58-C ) :   1.4025
B( 56-C , 57-C ) :   1.0444 B( 56-C , 61-C ) :   1.4162 B( 57-C , 64-C ) :   1.6691
B( 58-C , 59-C ) :   1.3724 B( 58-C ,119-H ) :   1.0142 B( 59-C , 60-C ) :   1.3983
B( 59-C , 63-F ) :   0.8999 B( 60-C , 61-C ) :   1.4013 B( 60-C ,120-H ) :   0.9982
B( 61-C ,121-H ) :   0.9882 B( 64-C , 65-C ) :   1.0534 B( 64-C , 66-C ) :   1.0833
B( 65-C , 67-N ) :   2.9941 B( 66-C , 68-N ) :   3.0054 B( 71-C , 72-C ) :   1.0590
B( 71-C , 73-C ) :   1.0656 B( 72-C , 75-N ) :   2.9966 B( 73-C , 74-N ) :   3.0189

-----------------------------------------------------------------------------
         ABSORPTION SPECTRUM VIA TRANSITION ELECTRIC DIPOLE MOMENTS
-----------------------------------------------------------------------------
State   Energy    Wavelength  fosc         T2        TX        TY        TZ
        (cm-1)      (nm)                 (au**2)    (au)      (au)      (au)
-----------------------------------------------------------------------------
   1   21355.6    468.3   2.342899288  36.11741  -5.87346   1.19394   0.44093
   2   25113.1    398.2   0.270198620   3.54208   0.49725   1.80265  -0.21273
   3   33057.0    302.5   0.451572820   4.49718  -1.69890  -0.72086   1.04465

FINAL SINGLE POINT ENERGY     -4710.873789261643

DIPOLE MOMENT
-------------
                                X             Y             Z
Electronic contribution:      3.11179      35.68402     -21.83476
Nuclear contribution   :     -4.19910     -38.51088      20.87040
                        -----------------------------------------
Total Dipole Moment    :     -1.08731      -2.82686      -0.96436
                        -----------------------------------------
Magnitude (a.u.)       :      3.17858
Magnitude (Debye)      :      8.07931

Rotational constants in cm-1:     0.001745     0.000281     0.000259
Rotational constants in MHz :    52.327766     8.430094     7.758706

                             ****ORCA TERMINATED NORMALLY****
TOTAL RUN TIME: 1 days 0 hours 1 minutes 19 seconds 625 msec
