                         Program Version 4.2.0 -  RELEASE  -
|  1> # ORCA input file
|  2> # SNBDT1-F.out: Geometry 170
|  3> ! Engrad Keepdens
|  4> %maxcore 1000
|  5> %tddft
|  6>   nroots 3
|  7>   # nroots is the number of states to be computed
|  8>   Iroot 1
|  9>   end
| 10> * xyz 0 1
| 11>    C       -3.02947        -0.81091         0.18491
| 12>    C       -1.97407        -0.21533        -0.53148
| 13>    C       -0.68458        -0.69249        -0.32498
| 14>    C       -0.36290        -1.72726         0.61672
| 15>    C       -1.41665        -2.25157         1.41810
| 16>    C       -2.72276        -1.77071         1.21500
| 17>    S        0.69953         0.01391        -1.15209
| 18>    C        1.75073        -1.02901        -0.24277
| 19>    C        1.07578        -1.91824         0.63522
| 20>    C        3.12978        -1.22518        -0.08882
| 21>    C        3.27602        -2.24751         0.87931
| 22>    N        2.03102        -2.66983         1.31459
| 23>    S        4.66005        -0.65745        -0.66057
| 24>    C        5.50513        -1.81243         0.39360
| 25>    C        4.60857        -2.59314         1.13885
| 26>    S       -4.13158        -2.06215         2.27995
| 27>    C       -5.11036        -0.97651         1.32718
| 28>    C       -4.42500        -0.46594         0.20571
| 29>    C       -6.37937        -0.36164         1.35909
| 30>    C       -6.43507         0.47970         0.21833
| 31>    N       -5.26193         0.38449        -0.50750
| 32>    S       -7.81324        -0.19879         2.31859
| 33>    C       -8.45136         1.03110         1.20461
| 34>    C       -7.59537         1.25205         0.12494
| 35>    O       -1.05712        -3.12846         2.39392
| 36>    O       -2.16552         0.86645        -1.34591
| 37>    C       -2.48747         2.10067        -0.65805
| 38>    C       -1.26840         2.88939        -0.18849
| 39>    C       -0.44804         3.41360        -1.36879
| 40>    C       -1.74799         4.02705         0.72087
| 41>    C       -1.94101        -4.15577         2.84747
| 42>    C       -1.16590        -5.13587         3.72346
| 43>    C       -0.52909        -4.43194         4.92562
| 44>    C       -2.09096        -6.27316         4.16661
| 45>    C       -5.18977         0.76637        -1.91542
| 46>    C       -5.72932        -0.29131        -2.89690
| 47>    C        1.90915        -3.86285         2.14070
| 48>    C        2.28917        -5.15073         1.38695
| 49>    C       -7.16915        -0.72884        -2.61677
| 50>    C       -5.59512         0.25787        -4.32057
| 51>    C        2.56263        -6.28381         2.37931
| 52>    C        1.22904        -5.53834         0.35465
| 53>    C        6.90366        -2.04307         0.35829
| 54>    C        7.95107        -1.38702        -0.24651
| 55>    C        9.17124        -2.18517        -0.58601
| 56>    C        9.92731        -1.35571        -1.56878
| 57>    C        9.26534        -0.12169        -1.75291
| 58>    C        8.11981        -0.05767        -0.81245
| 59>    C       11.08567        -1.69344        -2.25467
| 60>    C       11.56812        -0.75921        -3.17141
| 61>    C       10.92827         0.46402        -3.39452
| 62>    C        9.77493         0.79836        -2.67856
| 63>    C       -9.70380         1.66060         1.44755
| 64>    C      -10.14885         2.86933         0.96159
| 65>    C      -11.62534         3.11677         0.86324
| 66>    C      -11.77266         4.30180        -0.03410
| 67>    C      -10.49420         4.80149        -0.36331
| 68>    C       -9.46992         4.02057         0.37139
| 69>    C      -12.94436         4.85882        -0.53208
| 70>    C      -12.80802         5.93841        -1.40739
| 71>    C      -11.55607         6.44707        -1.76844
| 72>    C      -10.38914         5.88895        -1.24160
| 73>    O      -12.51628         2.45826         1.35735
| 74>    F      -13.89616         6.51131        -1.92954
| 75>    C       -8.17683         4.45446         0.61422
| 76>    C       -7.63279         5.63373         0.01634
| 77>    C       -7.28620         3.82650         1.53851
| 78>    N       -7.15702         6.57434        -0.47389
| 79>    N       -6.52321         3.37772         2.29167
| 80>    O        9.45040        -3.30288        -0.20251
| 81>    F       12.67496        -1.03764        -3.86532
| 82>    C        7.50812         1.10318        -0.37041
| 83>    C        7.72703         2.37004        -0.99409
| 84>    C        6.73029         1.13747         0.82808
| 85>    N        6.14497         1.18656         1.83061
| 86>    N        7.88682         3.39684        -1.51542
| 87>    H        4.94958        -3.36827         1.82462
| 88>    H       -7.83073         1.94773        -0.67755
| 89>    H       -3.15068         1.87701         0.19129
| 90>    H       -3.06027         2.69819        -1.38451
| 91>    H       -0.63842         2.20849         0.40993
| 92>    H       -1.02657         4.16031        -1.93910
| 93>    H       -0.16917         2.60315        -2.05670
| 94>    H        0.47693         3.89876        -1.02143
| 95>    H       -2.42247         4.71005         0.17657
| 96>    H       -0.89831         4.62295         1.08684
| 97>    H       -2.29640         3.64291         1.59565
| 98>    H       -2.38710        -4.66439         1.97549
| 99>    H       -2.75696        -3.72187         3.44840
|100>    H       -0.36621        -5.57350         3.10279
|101>    H       -1.30859        -4.00631         5.57965
|102>    H        0.13202        -3.60972         4.61695
|103>    H        0.06220        -5.14104         5.52647
|104>    H       -2.90975        -5.89532         4.80157
|105>    H       -1.53103        -7.01557         4.75626
|106>    H       -2.54129        -6.79512         3.30704
|107>    H       -4.14440         0.97052        -2.16445
|108>    H       -5.75407         1.70609        -2.02349
|109>    H       -5.07738        -1.17769        -2.79877
|110>    H        0.88530        -3.90679         2.50989
|111>    H        2.57123        -3.72937         3.01056
|112>    H        3.22864        -4.94626         0.84462
|113>    H       -7.49112        -1.47555        -3.35909
|114>    H       -7.86407         0.12513        -2.68437
|115>    H       -7.28542        -1.18067        -1.62145
|116>    H       -6.25427         1.13088        -4.46289
|117>    H       -5.88672        -0.50008        -5.06349
|118>    H       -4.56530         0.57891        -4.54303
|119>    H        1.65618        -6.54532         2.94974
|120>    H        3.34301        -6.00644         3.10546
|121>    H        2.89923        -7.19155         1.85510
|122>    H        0.30217        -5.86866         0.85166
|123>    H        1.58178        -6.36710        -0.27861
|124>    H        0.97454        -4.69495        -0.30554
|125>    H        7.20441        -3.00307         0.79717
|126>    H       11.59241        -2.64453        -2.08456
|127>    H       11.35133         1.15047        -4.13006
|128>    H        9.29301         1.75692        -2.85994
|129>    H      -10.45636         1.09576         2.01313
|130>    H      -13.92265         4.46526        -0.25149
|131>    H      -11.51415         7.28931        -2.46121
|132>    H       -9.42652         6.30462        -1.53106
|133> *
|134>
|135>                          ****END OF INPUT****

CARTESIAN COORDINATES (ANGSTROEM)
---------------------------------
  C     -3.029470   -0.810910    0.184910
  C     -1.974070   -0.215330   -0.531480
  C     -0.684580   -0.692490   -0.324980
  C     -0.362900   -1.727260    0.616720
  C     -1.416650   -2.251570    1.418100
  C     -2.722760   -1.770710    1.215000
  S      0.699530    0.013910   -1.152090
  C      1.750730   -1.029010   -0.242770
  C      1.075780   -1.918240    0.635220
  C      3.129780   -1.225180   -0.088820
  C      3.276020   -2.247510    0.879310
  N      2.031020   -2.669830    1.314590
  S      4.660050   -0.657450   -0.660570
  C      5.505130   -1.812430    0.393600
  C      4.608570   -2.593140    1.138850
  S     -4.131580   -2.062150    2.279950
  C     -5.110360   -0.976510    1.327180
  C     -4.425000   -0.465940    0.205710
  C     -6.379370   -0.361640    1.359090
  C     -6.435070    0.479700    0.218330
  N     -5.261930    0.384490   -0.507500
  S     -7.813240   -0.198790    2.318590
  C     -8.451360    1.031100    1.204610
  C     -7.595370    1.252050    0.124940
  O     -1.057120   -3.128460    2.393920
  O     -2.165520    0.866450   -1.345910
  C     -2.487470    2.100670   -0.658050
  C     -1.268400    2.889390   -0.188490
  C     -0.448040    3.413600   -1.368790
  C     -1.747990    4.027050    0.720870
  C     -1.941010   -4.155770    2.847470
  C     -1.165900   -5.135870    3.723460
  C     -0.529090   -4.431940    4.925620
  C     -2.090960   -6.273160    4.166610
  C     -5.189770    0.766370   -1.915420
  C     -5.729320   -0.291310   -2.896900
  C      1.909150   -3.862850    2.140700
  C      2.289170   -5.150730    1.386950
  C     -7.169150   -0.728840   -2.616770
  C     -5.595120    0.257870   -4.320570
  C      2.562630   -6.283810    2.379310
  C      1.229040   -5.538340    0.354650
  C      6.903660   -2.043070    0.358290
  C      7.951070   -1.387020   -0.246510
  C      9.171240   -2.185170   -0.586010
  C      9.927310   -1.355710   -1.568780
  C      9.265340   -0.121690   -1.752910
  C      8.119810   -0.057670   -0.812450
  C     11.085670   -1.693440   -2.254670
  C     11.568120   -0.759210   -3.171410
  C     10.928270    0.464020   -3.394520
  C      9.774930    0.798360   -2.678560
  C     -9.703800    1.660600    1.447550
  C    -10.148850    2.869330    0.961590
  C    -11.625340    3.116770    0.863240
  C    -11.772660    4.301800   -0.034100
  C    -10.494200    4.801490   -0.363310
  C     -9.469920    4.020570    0.371390
  C    -12.944360    4.858820   -0.532080
  C    -12.808020    5.938410   -1.407390
  C    -11.556070    6.447070   -1.768440
  C    -10.389140    5.888950   -1.241600
  O    -12.516280    2.458260    1.357350
  F    -13.896160    6.511310   -1.929540
  C     -8.176830    4.454460    0.614220
  C     -7.632790    5.633730    0.016340
  C     -7.286200    3.826500    1.538510
  N     -7.157020    6.574340   -0.473890
  N     -6.523210    3.377720    2.291670
  O      9.450400   -3.302880   -0.202510
  F     12.674960   -1.037640   -3.865320
  C      7.508120    1.103180   -0.370410
  C      7.727030    2.370040   -0.994090
  C      6.730290    1.137470    0.828080
  N      6.144970    1.186560    1.830610
  N      7.886820    3.396840   -1.515420
  H      4.949580   -3.368270    1.824620
  H     -7.830730    1.947730   -0.677550
  H     -3.150680    1.877010    0.191290
  H     -3.060270    2.698190   -1.384510
  H     -0.638420    2.208490    0.409930
  H     -1.026570    4.160310   -1.939100
  H     -0.169170    2.603150   -2.056700
  H      0.476930    3.898760   -1.021430
  H     -2.422470    4.710050    0.176570
  H     -0.898310    4.622950    1.086840
  H     -2.296400    3.642910    1.595650
  H     -2.387100   -4.664390    1.975490
  H     -2.756960   -3.721870    3.448400
  H     -0.366210   -5.573500    3.102790
  H     -1.308590   -4.006310    5.579650
  H      0.132020   -3.609720    4.616950
  H      0.062200   -5.141040    5.526470
  H     -2.909750   -5.895320    4.801570
  H     -1.531030   -7.015570    4.756260
  H     -2.541290   -6.795120    3.307040
  H     -4.144400    0.970520   -2.164450
  H     -5.754070    1.706090   -2.023490
  H     -5.077380   -1.177690   -2.798770
  H      0.885300   -3.906790    2.509890
  H      2.571230   -3.729370    3.010560
  H      3.228640   -4.946260    0.844620
  H     -7.491120   -1.475550   -3.359090
  H     -7.864070    0.125130   -2.684370
  H     -7.285420   -1.180670   -1.621450
  H     -6.254270    1.130880   -4.462890
  H     -5.886720   -0.500080   -5.063490
  H     -4.565300    0.578910   -4.543030
  H      1.656180   -6.545320    2.949740
  H      3.343010   -6.006440    3.105460
  H      2.899230   -7.191550    1.855100
  H      0.302170   -5.868660    0.851660
  H      1.581780   -6.367100   -0.278610
  H      0.974540   -4.694950   -0.305540
  H      7.204410   -3.003070    0.797170
  H     11.592410   -2.644530   -2.084560
  H     11.351330    1.150470   -4.130060
  H      9.293010    1.756920   -2.859940
  H    -10.456360    1.095760    2.013130
  H    -13.922650    4.465260   -0.251490
  H    -11.514150    7.289310   -2.461210
  H     -9.426520    6.304620   -1.531060

 Total Charge           Charge          ....    0
 Multiplicity           Mult            ....    1
 Number of Electrons    NEL             ....  562
 Basis Dimension        Dim             .... 1310

ORBITAL ENERGIES
----------------

  NO   OCC          E(Eh)            E(eV)
   0   2.0000     -91.979610     -2502.8924
   1   2.0000     -91.971732     -2502.6781
   2   2.0000     -91.971589     -2502.6742
   3   2.0000     -91.962601     -2502.4296
   4   2.0000     -26.330971      -716.5021
   5   2.0000     -26.322319      -716.2667
   6   2.0000     -20.608563      -560.7875
   7   2.0000     -20.595440      -560.4304
   8   2.0000     -20.569410      -559.7221
   9   2.0000     -20.558687      -559.4303
  10   2.0000     -15.641656      -425.6311
  11   2.0000     -15.639819      -425.5811
  12   2.0000     -15.597543      -424.4307
  13   2.0000     -15.593850      -424.3302
  14   2.0000     -15.586084      -424.1189
  15   2.0000     -15.579263      -423.9333
  16   2.0000     -11.374526      -309.5166
  17   2.0000     -11.369255      -309.3732
  18   2.0000     -11.364342      -309.2395
  19   2.0000     -11.358729      -309.0867
  20   2.0000     -11.350796      -308.8709
  21   2.0000     -11.350237      -308.8557
  22   2.0000     -11.337301      -308.5037
  23   2.0000     -11.330335      -308.3141
  24   2.0000     -11.329505      -308.2915
  25   2.0000     -11.327175      -308.2281
  26   2.0000     -11.319742      -308.0258
  27   2.0000     -11.317567      -307.9667
  28   2.0000     -11.316551      -307.9390
  29   2.0000     -11.316105      -307.9269
  30   2.0000     -11.315563      -307.9121
  31   2.0000     -11.310030      -307.7616
  32   2.0000     -11.308038      -307.7074
  33   2.0000     -11.304324      -307.6063
  34   2.0000     -11.304093      -307.6000
  35   2.0000     -11.302951      -307.5689
  36   2.0000     -11.300781      -307.5099
  37   2.0000     -11.300517      -307.5027
  38   2.0000     -11.300372      -307.4988
  39   2.0000     -11.300218      -307.4946
  40   2.0000     -11.298871      -307.4579
  41   2.0000     -11.298360      -307.4440
  42   2.0000     -11.297574      -307.4226
  43   2.0000     -11.296637      -307.3971
  44   2.0000     -11.296285      -307.3875
  45   2.0000     -11.296019      -307.3803
  46   2.0000     -11.294306      -307.3337
  47   2.0000     -11.294150      -307.3294
  48   2.0000     -11.293839      -307.3210
  49   2.0000     -11.292993      -307.2980
  50   2.0000     -11.292988      -307.2978
  51   2.0000     -11.292621      -307.2878
  52   2.0000     -11.290596      -307.2327
  53   2.0000     -11.290013      -307.2169
  54   2.0000     -11.289722      -307.2090
  55   2.0000     -11.288198      -307.1675
  56   2.0000     -11.288059      -307.1637
  57   2.0000     -11.286660      -307.1256
  58   2.0000     -11.283422      -307.0375
  59   2.0000     -11.282669      -307.0170
  60   2.0000     -11.282368      -307.0088
  61   2.0000     -11.279821      -306.9395
  62   2.0000     -11.278961      -306.9161
  63   2.0000     -11.269107      -306.6480
  64   2.0000     -11.257553      -306.3336
  65   2.0000     -11.254154      -306.2411
  66   2.0000     -11.253551      -306.2247
  67   2.0000     -11.247111      -306.0494
  68   2.0000     -11.245429      -306.0037
  69   2.0000     -11.241719      -305.9027
  70   2.0000     -11.240694      -305.8748
  71   2.0000     -11.240324      -305.8648
  72   2.0000     -11.239863      -305.8522
  73   2.0000     -11.236457      -305.7595
  74   2.0000     -11.226622      -305.4919
  75   2.0000     -11.222095      -305.3687
  76   2.0000      -9.013805      -245.2781
  77   2.0000      -9.006102      -245.0685
  78   2.0000      -9.005594      -245.0547
  79   2.0000      -8.997233      -244.8271
  80   2.0000      -6.701341      -182.3527
  81   2.0000      -6.700403      -182.3272
  82   2.0000      -6.698257      -182.2688
  83   2.0000      -6.693654      -182.1436
  84   2.0000      -6.693289      -182.1337
  85   2.0000      -6.692678      -182.1170
  86   2.0000      -6.692321      -182.1073
  87   2.0000      -6.690525      -182.0584
  88   2.0000      -6.689832      -182.0396
  89   2.0000      -6.684862      -181.9043
  90   2.0000      -6.683899      -181.8781
  91   2.0000      -6.681490      -181.8126
  92   2.0000      -1.635725       -44.5103
  93   2.0000      -1.627414       -44.2842
  94   2.0000      -1.426372       -38.8136
  95   2.0000      -1.410147       -38.3721
  96   2.0000      -1.397924       -38.0394
  97   2.0000      -1.387507       -37.7560
  98   2.0000      -1.332749       -36.2659
  99   2.0000      -1.327128       -36.1130
 100   2.0000      -1.244494       -33.8644
 101   2.0000      -1.232327       -33.5333
 102   2.0000      -1.221914       -33.2500
 103   2.0000      -1.219700       -33.1897
 104   2.0000      -1.210932       -32.9511
 105   2.0000      -1.206509       -32.8308
 106   2.0000      -1.205964       -32.8160
 107   2.0000      -1.192583       -32.4518
 108   2.0000      -1.186610       -32.2893
 109   2.0000      -1.173629       -31.9361
 110   2.0000      -1.160323       -31.5740
 111   2.0000      -1.150809       -31.3151
 112   2.0000      -1.125630       -30.6300
 113   2.0000      -1.108381       -30.1606
 114   2.0000      -1.107448       -30.1352
 115   2.0000      -1.096570       -29.8392
 116   2.0000      -1.089349       -29.6427
 117   2.0000      -1.087704       -29.5979
 118   2.0000      -1.082462       -29.4553
 119   2.0000      -1.079184       -29.3661
 120   2.0000      -1.071213       -29.1492
 121   2.0000      -1.059617       -28.8337
 122   2.0000      -1.050944       -28.5976
 123   2.0000      -1.049930       -28.5700
 124   2.0000      -1.046454       -28.4755
 125   2.0000      -1.027440       -27.9581
 126   2.0000      -1.014881       -27.6163
 127   2.0000      -1.006569       -27.3901
 128   2.0000      -1.002576       -27.2815
 129   2.0000      -0.984456       -26.7884
 130   2.0000      -0.975431       -26.5428
 131   2.0000      -0.961392       -26.1608
 132   2.0000      -0.950552       -25.8658
 133   2.0000      -0.941919       -25.6309
 134   2.0000      -0.940744       -25.5989
 135   2.0000      -0.939607       -25.5680
 136   2.0000      -0.935099       -25.4453
 137   2.0000      -0.930313       -25.3151
 138   2.0000      -0.926495       -25.2112
 139   2.0000      -0.923353       -25.1257
 140   2.0000      -0.922216       -25.0948
 141   2.0000      -0.919639       -25.0246
 142   2.0000      -0.903535       -24.5864
 143   2.0000      -0.887670       -24.1547
 144   2.0000      -0.869408       -23.6578
 145   2.0000      -0.855598       -23.2820
 146   2.0000      -0.846517       -23.0349
 147   2.0000      -0.837951       -22.8018
 148   2.0000      -0.825841       -22.4723
 149   2.0000      -0.817455       -22.2441
 150   2.0000      -0.813334       -22.1319
 151   2.0000      -0.807617       -21.9764
 152   2.0000      -0.806434       -21.9442
 153   2.0000      -0.800708       -21.7884
 154   2.0000      -0.799474       -21.7548
 155   2.0000      -0.795180       -21.6379
 156   2.0000      -0.788687       -21.4613
 157   2.0000      -0.780639       -21.2423
 158   2.0000      -0.779390       -21.2083
 159   2.0000      -0.772428       -21.0188
 160   2.0000      -0.766363       -20.8538
 161   2.0000      -0.763759       -20.7829
 162   2.0000      -0.760036       -20.6816
 163   2.0000      -0.741895       -20.1880
 164   2.0000      -0.735198       -20.0057
 165   2.0000      -0.732017       -19.9192
 166   2.0000      -0.729822       -19.8595
 167   2.0000      -0.726557       -19.7706
 168   2.0000      -0.725192       -19.7335
 169   2.0000      -0.719208       -19.5706
 170   2.0000      -0.717031       -19.5114
 171   2.0000      -0.714533       -19.4434
 172   2.0000      -0.708993       -19.2927
 173   2.0000      -0.705385       -19.1945
 174   2.0000      -0.702728       -19.1222
 175   2.0000      -0.700162       -19.0524
 176   2.0000      -0.697012       -18.9667
 177   2.0000      -0.684822       -18.6350
 178   2.0000      -0.681853       -18.5542
 179   2.0000      -0.678377       -18.4596
 180   2.0000      -0.673896       -18.3376
 181   2.0000      -0.667455       -18.1624
 182   2.0000      -0.665076       -18.0976
 183   2.0000      -0.660891       -17.9837
 184   2.0000      -0.657033       -17.8788
 185   2.0000      -0.651811       -17.7367
 186   2.0000      -0.649300       -17.6684
 187   2.0000      -0.648066       -17.6348
 188   2.0000      -0.645082       -17.5536
 189   2.0000      -0.641379       -17.4528
 190   2.0000      -0.639922       -17.4132
 191   2.0000      -0.631799       -17.1921
 192   2.0000      -0.629080       -17.1181
 193   2.0000      -0.626434       -17.0461
 194   2.0000      -0.625707       -17.0264
 195   2.0000      -0.621860       -16.9217
 196   2.0000      -0.618100       -16.8194
 197   2.0000      -0.616048       -16.7635
 198   2.0000      -0.614333       -16.7169
 199   2.0000      -0.611114       -16.6292
 200   2.0000      -0.608198       -16.5499
 201   2.0000      -0.607293       -16.5253
 202   2.0000      -0.605040       -16.4640
 203   2.0000      -0.602901       -16.4058
 204   2.0000      -0.597328       -16.2541
 205   2.0000      -0.594026       -16.1643
 206   2.0000      -0.588261       -16.0074
 207   2.0000      -0.584737       -15.9115
 208   2.0000      -0.582412       -15.8482
 209   2.0000      -0.580216       -15.7885
 210   2.0000      -0.579498       -15.7690
 211   2.0000      -0.577209       -15.7067
 212   2.0000      -0.574648       -15.6370
 213   2.0000      -0.570990       -15.5374
 214   2.0000      -0.569933       -15.5087
 215   2.0000      -0.568114       -15.4592
 216   2.0000      -0.567458       -15.4413
 217   2.0000      -0.565391       -15.3851
 218   2.0000      -0.561697       -15.2846
 219   2.0000      -0.560421       -15.2498
 220   2.0000      -0.558940       -15.2095
 221   2.0000      -0.557581       -15.1725
 222   2.0000      -0.556727       -15.1493
 223   2.0000      -0.555393       -15.1130
 224   2.0000      -0.555006       -15.1025
 225   2.0000      -0.553464       -15.0605
 226   2.0000      -0.550535       -14.9808
 227   2.0000      -0.548260       -14.9189
 228   2.0000      -0.546416       -14.8687
 229   2.0000      -0.544633       -14.8202
 230   2.0000      -0.540154       -14.6983
 231   2.0000      -0.538274       -14.6472
 232   2.0000      -0.535623       -14.5750
 233   2.0000      -0.533259       -14.5107
 234   2.0000      -0.531950       -14.4751
 235   2.0000      -0.528310       -14.3760
 236   2.0000      -0.523144       -14.2355
 237   2.0000      -0.522342       -14.2137
 238   2.0000      -0.518793       -14.1171
 239   2.0000      -0.513707       -13.9787
 240   2.0000      -0.509563       -13.8659
 241   2.0000      -0.504340       -13.7238
 242   2.0000      -0.503462       -13.6999
 243   2.0000      -0.501905       -13.6575
 244   2.0000      -0.499747       -13.5988
 245   2.0000      -0.498257       -13.5583
 246   2.0000      -0.496816       -13.5191
 247   2.0000      -0.494798       -13.4642
 248   2.0000      -0.493867       -13.4388
 249   2.0000      -0.491605       -13.3773
 250   2.0000      -0.490765       -13.3544
 251   2.0000      -0.489448       -13.3186
 252   2.0000      -0.486249       -13.2315
 253   2.0000      -0.484029       -13.1711
 254   2.0000      -0.481463       -13.1013
 255   2.0000      -0.479288       -13.0421
 256   2.0000      -0.477935       -13.0053
 257   2.0000      -0.473477       -12.8840
 258   2.0000      -0.472974       -12.8703
 259   2.0000      -0.466908       -12.7052
 260   2.0000      -0.463845       -12.6219
 261   2.0000      -0.461542       -12.5592
 262   2.0000      -0.455303       -12.3894
 263   2.0000      -0.451174       -12.2771
 264   2.0000      -0.449310       -12.2264
 265   2.0000      -0.442801       -12.0492
 266   2.0000      -0.436652       -11.8819
 267   2.0000      -0.413874       -11.2621
 268   2.0000      -0.400665       -10.9027
 269   2.0000      -0.397196       -10.8083
 270   2.0000      -0.389631       -10.6024
 271   2.0000      -0.380381       -10.3507
 272   2.0000      -0.375487       -10.2175
 273   2.0000      -0.362363        -9.8604
 274   2.0000      -0.351382        -9.5616
 275   2.0000      -0.347350        -9.4519
 276   2.0000      -0.338783        -9.2187
 277   2.0000      -0.327231        -8.9044
 278   2.0000      -0.299376        -8.1464
 279   2.0000      -0.296044        -8.0558
 280   2.0000      -0.254885        -6.9358
 281   0.0000      -0.028360        -0.7717
 282   0.0000      -0.012922        -0.3516
 283   0.0000       0.016559         0.4506
 284   0.0000       0.027094         0.7373
 285   0.0000       0.052771         1.4360

MULLIKEN ATOMIC CHARGES
-----------------------
   0 C :   -0.069310
   1 C :    0.248963
   2 C :   -0.091041
   3 C :   -0.092756
   4 C :    0.345346
   5 C :   -0.133036
   6 S :    0.205750
   7 C :   -0.168150
   8 C :    0.277196
   9 C :   -0.096850
  10 C :    0.215964
  11 N :   -0.598217
  12 S :    0.198484
  13 C :   -0.160851
  14 C :    0.013260
  15 S :    0.155229
  16 C :   -0.137487
  17 C :    0.254876
  18 C :   -0.103573
  19 C :    0.191573
  20 N :   -0.596604
  21 S :    0.206170
  22 C :   -0.244985
  23 C :    0.038541
  24 O :   -0.615355
  25 O :   -0.621047
  26 C :    0.291248
  27 C :   -0.258723
  28 C :   -0.002832
  29 C :   -0.023880
  30 C :    0.304211
  31 C :   -0.323878
  32 C :   -0.005380
  33 C :    0.003121
  34 C :    0.196947
  35 C :   -0.239681
  36 C :    0.233572
  37 C :   -0.278271
  38 C :   -0.012524
  39 C :   -0.012650
  40 C :   -0.000991
  41 C :   -0.001471
  42 C :    0.136971
  43 C :   -0.330287
  44 C :    0.467089
  45 C :   -0.152744
  46 C :   -0.076644
  47 C :    0.241010
  48 C :   -0.060399
  49 C :    0.415094
  50 C :   -0.094982
  51 C :    0.018714
  52 C :    0.214465
  53 C :   -0.327946
  54 C :    0.463209
  55 C :   -0.148746
  56 C :   -0.083065
  57 C :    0.224664
  58 C :   -0.059407
  59 C :    0.417396
  60 C :   -0.093670
  61 C :    0.018497
  62 O :   -0.351112
  63 F :   -0.318441
  64 C :   -0.361685
  65 C :    0.048607
  66 C :    0.051828
  67 N :   -0.087841
  68 N :   -0.063055
  69 O :   -0.363252
  70 F :   -0.320923
  71 C :   -0.336130
  72 C :    0.050011
  73 C :    0.043628
  74 N :   -0.071580
  75 N :   -0.094492
  76 H :    0.064544
  77 H :    0.074858
  78 H :    0.066952
  79 H :    0.032382
  80 H :    0.059638
  81 H :    0.022971
  82 H :    0.050322
  83 H :    0.043862
  84 H :    0.033229
  85 H :    0.046474
  86 H :    0.048018
  87 H :    0.045328
  88 H :    0.057818
  89 H :    0.058690
  90 H :    0.033603
  91 H :    0.051955
  92 H :    0.039840
  93 H :    0.037897
  94 H :    0.045539
  95 H :    0.038626
  96 H :    0.106185
  97 H :    0.037060
  98 H :    0.048505
  99 H :    0.099654
 100 H :    0.044103
 101 H :    0.052141
 102 H :    0.043032
 103 H :    0.020516
 104 H :    0.065341
 105 H :    0.026789
 106 H :    0.045095
 107 H :    0.044456
 108 H :    0.025998
 109 H :    0.034096
 110 H :    0.045281
 111 H :    0.021370
 112 H :    0.042689
 113 H :    0.053790
 114 H :    0.088318
 115 H :    0.079851
 116 H :    0.077561
 117 H :    0.089654
 118 H :    0.097460
 119 H :    0.083158
 120 H :    0.080029
 121 H :    0.089636
Sum of atomic charges:   -0.0000000

LOEWDIN ATOMIC CHARGES
----------------------
   0 C :   -0.060676
   1 C :    0.044596
   2 C :   -0.140232
   3 C :   -0.075103
   4 C :    0.082187
   5 C :   -0.169004
   6 S :    0.399257
   7 C :   -0.229271
   8 C :    0.047591
   9 C :   -0.177904
  10 C :   -0.016469
  11 N :   -0.028093
  12 S :    0.416393
  13 C :   -0.199387
  14 C :    0.014090
  15 S :    0.365186
  16 C :   -0.213571
  17 C :    0.027187
  18 C :   -0.187881
  19 C :   -0.002077
  20 N :   -0.033204
  21 S :    0.407226
  22 C :   -0.202500
  23 C :    0.006990
  24 O :   -0.191810
  25 O :   -0.214528
  26 C :    0.141468
  27 C :   -0.052256
  28 C :   -0.031210
  29 C :   -0.027770
  30 C :    0.133247
  31 C :   -0.050583
  32 C :   -0.028385
  33 C :   -0.024996
  34 C :    0.081044
  35 C :   -0.041864
  36 C :    0.083553
  37 C :   -0.046394
  38 C :   -0.034485
  39 C :   -0.028541
  40 C :   -0.028998
  41 C :   -0.029709
  42 C :    0.110855
  43 C :   -0.164302
  44 C :    0.171171
  45 C :   -0.039734
  46 C :   -0.037388
  47 C :    0.111992
  48 C :   -0.012695
  49 C :    0.149577
  50 C :   -0.031873
  51 C :    0.025340
  52 C :    0.115612
  53 C :   -0.151828
  54 C :    0.169691
  55 C :   -0.038611
  56 C :   -0.041903
  57 C :    0.112356
  58 C :   -0.011869
  59 C :    0.153382
  60 C :   -0.030311
  61 C :    0.024936
  62 O :   -0.229529
  63 F :   -0.117108
  64 C :   -0.177458
  65 C :    0.016892
  66 C :    0.011704
  67 N :   -0.103391
  68 N :   -0.088278
  69 O :   -0.239754
  70 F :   -0.119088
  71 C :   -0.175604
  72 C :    0.019792
  73 C :    0.001028
  74 N :   -0.096014
  75 N :   -0.104817
  76 H :    0.041206
  77 H :    0.037004
  78 H :    0.013912
  79 H :    0.012883
  80 H :    0.016995
  81 H :    0.013186
  82 H :    0.012231
  83 H :    0.021481
  84 H :    0.017194
  85 H :    0.023155
  86 H :    0.021380
  87 H :    0.011384
  88 H :   -0.001314
  89 H :    0.011267
  90 H :    0.019252
  91 H :    0.020987
  92 H :    0.019500
  93 H :    0.018753
  94 H :    0.023148
  95 H :    0.018477
  96 H :    0.030133
  97 H :    0.016211
  98 H :    0.019431
  99 H :    0.024020
 100 H :    0.017125
 101 H :    0.014993
 102 H :    0.022198
 103 H :    0.011519
 104 H :    0.022204
 105 H :    0.015172
 106 H :    0.022220
 107 H :    0.020985
 108 H :    0.015070
 109 H :    0.016525
 110 H :    0.023011
 111 H :    0.012607
 112 H :    0.021479
 113 H :    0.021852
 114 H :    0.057853
 115 H :    0.054452
 116 H :    0.047775
 117 H :    0.046862
 118 H :    0.057205
 119 H :    0.055714
 120 H :    0.048929
 121 H :    0.046482

  Mayer bond orders larger than 0.100000
B(  0-C ,  1-C ) :   1.3584 B(  0-C ,  5-C ) :   1.3197 B(  0-C , 17-C ) :   1.1663
B(  1-C ,  2-C ) :   1.4801 B(  1-C , 25-O ) :   1.0388 B(  2-C ,  3-C ) :   1.3531
B(  2-C ,  6-S ) :   1.0418 B(  3-C ,  4-C ) :   1.3600 B(  3-C ,  8-C ) :   1.1459
B(  4-C ,  5-C ) :   1.4948 B(  4-C , 24-O ) :   1.0020 B(  5-C , 15-S ) :   0.9818
B(  6-S ,  7-C ) :   0.9393 B(  7-C ,  8-C ) :   1.4913 B(  7-C ,  9-C ) :   1.5261
B(  8-C , 11-N ) :   1.1224 B(  9-C , 10-C ) :   1.3875 B(  9-C , 12-S ) :   1.0354
B( 10-C , 11-N ) :   1.0661 B( 10-C , 14-C ) :   1.2910 B( 11-N , 36-C ) :   0.8447
B( 12-S , 13-C ) :   1.0400 B( 13-C , 14-C ) :   1.4779 B( 13-C , 42-C ) :   1.2352
B( 14-C , 76-H ) :   1.0038 B( 15-S , 16-C ) :   0.9650 B( 16-C , 17-C ) :   1.5055
B( 16-C , 18-C ) :   1.4870 B( 17-C , 20-N ) :   1.1036 B( 18-C , 19-C ) :   1.4085
B( 18-C , 21-S ) :   1.0306 B( 19-C , 20-N ) :   1.0614 B( 19-C , 23-C ) :   1.3100
B( 20-N , 34-C ) :   0.8570 B( 21-S , 22-C ) :   1.0672 B( 22-C , 23-C ) :   1.5062
B( 22-C , 52-C ) :   1.1622 B( 23-C , 77-H ) :   0.9962 B( 24-O , 30-C ) :   0.8223
B( 25-O , 26-C ) :   0.7775 B( 26-C , 27-C ) :   1.0012 B( 26-C , 78-H ) :   0.9808
B( 26-C , 79-H ) :   0.9689 B( 27-C , 28-C ) :   1.0068 B( 27-C , 29-C ) :   1.0178
B( 27-C , 80-H ) :   0.9618 B( 28-C , 81-H ) :   0.9804 B( 28-C , 82-H ) :   0.9862
B( 28-C , 83-H ) :   0.9875 B( 29-C , 84-H ) :   0.9812 B( 29-C , 85-H ) :   0.9862
B( 29-C , 86-H ) :   0.9856 B( 30-C , 31-C ) :   1.0097 B( 30-C , 87-H ) :   0.9746
B( 30-C , 88-H ) :   0.9610 B( 31-C , 32-C ) :   1.0065 B( 31-C , 33-C ) :   1.0309
B( 31-C , 89-H ) :   0.9555 B( 32-C , 90-H ) :   0.9809 B( 32-C , 91-H ) :   0.9892
B( 32-C , 92-H ) :   0.9872 B( 33-C , 93-H ) :   0.9816 B( 33-C , 94-H ) :   0.9870
B( 33-C , 95-H ) :   0.9855 B( 34-C , 35-C ) :   0.9923 B( 34-C , 96-H ) :   0.9653
B( 34-C , 97-H ) :   0.9714 B( 35-C , 38-C ) :   1.0144 B( 35-C , 39-C ) :   1.0228
B( 35-C , 98-H ) :   0.9575 B( 36-C , 37-C ) :   0.9820 B( 36-C , 99-H ) :   0.9689
B( 36-C ,100-H ) :   0.9817 B( 37-C , 40-C ) :   1.0180 B( 37-C , 41-C ) :   0.9995
B( 37-C ,101-H ) :   0.9675 B( 38-C ,102-H ) :   0.9856 B( 38-C ,103-H ) :   0.9798
B( 38-C ,104-H ) :   0.9809 B( 39-C ,105-H ) :   0.9797 B( 39-C ,106-H ) :   0.9863
B( 39-C ,107-H ) :   0.9872 B( 40-C ,108-H ) :   0.9836 B( 40-C ,109-H ) :   0.9837
B( 40-C ,110-H ) :   0.9855 B( 41-C ,111-H ) :   0.9838 B( 41-C ,112-H ) :   0.9846
B( 41-C ,113-H ) :   0.9864 B( 42-C , 43-C ) :   1.6712 B( 42-C ,114-H ) :   0.9532
B( 43-C , 44-C ) :   1.0099 B( 43-C , 47-C ) :   1.0744 B( 44-C , 45-C ) :   0.9461
B( 44-C , 69-O ) :   2.0767 B( 45-C , 46-C ) :   1.3632 B( 45-C , 48-C ) :   1.4008
B( 46-C , 47-C ) :   1.0406 B( 46-C , 51-C ) :   1.4121 B( 47-C , 71-C ) :   1.6917
B( 48-C , 49-C ) :   1.3788 B( 48-C ,115-H ) :   1.0070 B( 49-C , 50-C ) :   1.3940
B( 49-C , 70-F ) :   0.9051 B( 50-C , 51-C ) :   1.4082 B( 50-C ,116-H ) :   0.9936
B( 51-C ,117-H ) :   0.9847 B( 52-C , 53-C ) :   1.7040 B( 52-C ,118-H ) :   0.9481
B( 53-C , 54-C ) :   0.9961 B( 53-C , 57-C ) :   1.0739 B( 54-C , 55-C ) :   0.9401
B( 54-C , 62-O ) :   2.0965 B( 55-C , 56-C ) :   1.3644 B( 55-C , 58-C ) :   1.4000
B( 56-C , 57-C ) :   1.0451 B( 56-C , 61-C ) :   1.4030 B( 57-C , 64-C ) :   1.6914
B( 58-C , 59-C ) :   1.3798 B( 58-C ,119-H ) :   1.0062 B( 59-C , 60-C ) :   1.3899
B( 59-C , 63-F ) :   0.9085 B( 60-C , 61-C ) :   1.4156 B( 60-C ,120-H ) :   0.9934
B( 61-C ,121-H ) :   0.9845 B( 64-C , 65-C ) :   1.0449 B( 64-C , 66-C ) :   1.0707
B( 65-C , 67-N ) :   2.9885 B( 66-C , 68-N ) :   3.0077 B( 71-C , 72-C ) :   1.0449
B( 71-C , 73-C ) :   1.0651 B( 72-C , 75-N ) :   2.9877 B( 73-C , 74-N ) :   3.0155

-----------------------------------------------------------------------------
         ABSORPTION SPECTRUM VIA TRANSITION ELECTRIC DIPOLE MOMENTS
-----------------------------------------------------------------------------
State   Energy    Wavelength  fosc         T2        TX        TY        TZ
        (cm-1)      (nm)                 (au**2)    (au)      (au)      (au)
-----------------------------------------------------------------------------
   1   21505.0    465.0   2.029366213  31.06679   5.40120  -1.22919  -0.61884
   2   25122.7    398.0   0.626827306   8.21405   1.67276   2.29667  -0.37582
   3   33264.1    300.6   0.378995035   3.75089   1.68718   0.40975  -0.85815

FINAL SINGLE POINT ENERGY     -4710.863722309444

DIPOLE MOMENT
-------------
                                X             Y             Z
Electronic contribution:     13.99646      54.60820     -12.76120
Nuclear contribution   :    -15.71489     -58.92729      11.75488
                        -----------------------------------------
Total Dipole Moment    :     -1.71843      -4.31908      -1.00632
                        -----------------------------------------
Magnitude (a.u.)       :      4.75607
Magnitude (Debye)      :     12.08896

Rotational constants in cm-1:     0.001545     0.000288     0.000257
Rotational constants in MHz :    46.332745     8.647981     7.690798

                             ****ORCA TERMINATED NORMALLY****
TOTAL RUN TIME: 0 days 17 hours 16 minutes 19 seconds 574 msec
