                         Program Version 4.2.0 -  RELEASE  -
|  1> # ORCA input file
|  2> # Y1-4F.out: Geometry 69
|  3> ! Engrad Keepdens
|  4> %maxcore 1000
|  5> %tddft
|  6>   nroots 3
|  7>   # nroots is the number of states to be computed
|  8>   Iroot 1
|  9>   end
| 10> * xyz 0 1
| 11>    C        5.98613         3.37779         0.58267
| 12>    O        7.20387         3.32388         0.61785
| 13>    C        5.14063         4.51001         1.04938
| 14>    C        5.54544         5.69064         1.66512
| 15>    C        4.55469         6.58674         2.05523
| 16>    F        4.86238         7.72771         2.66414
| 17>    C        3.19813         6.30114         1.82230
| 18>    F        2.29029         7.18511         2.23063
| 19>    C        2.79605         5.12749         1.19235
| 20>    C        3.78504         4.21451         0.80235
| 21>    C        3.69044         2.88349         0.15453
| 22>    C        2.51494         2.32200        -0.31600
| 23>    C        2.43281         1.04006        -0.94404
| 24>    N        2.33473         0.00131        -1.45717
| 25>    C        1.25584         2.99616        -0.24820
| 26>    N        0.22584         3.53310        -0.21103
| 27>    C        5.04872         2.34083         0.08491
| 28>    C        5.39475         1.07313        -0.33329
| 29>    C        6.61662         0.37549        -0.50362
| 30>    S        8.28470         0.94975        -0.28162
| 31>    C        8.91506        -0.57407        -0.84708
| 32>    C        7.87041        -1.48325        -1.16390
| 33>    C        6.59723        -0.95069        -0.97444
| 34>    S        8.43386        -3.02177        -1.80794
| 35>    C       10.06887        -2.44142        -1.67083
| 36>    C       10.17865        -1.13971        -1.15024
| 37>    N       11.52127        -0.77510        -1.09693
| 38>    C       11.97601         0.17416        -0.07222
| 39>    C       11.76127         1.64200        -0.41908
| 40>    C       12.26954        -1.83935        -1.63876
| 41>    C       11.36654        -2.90200        -1.96709
| 42>    C       11.85705        -4.12704        -2.50302
| 43>    N       11.22686        -5.25844        -2.85511
| 44>    N       12.21398        -6.03957        -3.27487
| 45>    C       11.96323        -7.41786        -3.67422
| 46>    C       11.59035        -8.28536        -2.47905
| 47>    N       13.44031        -5.53391        -3.22652
| 48>    C       13.24488        -4.29950        -2.73749
| 49>    C       14.14534        -3.21813        -2.52009
| 50>    C       13.65962        -1.97147        -1.98755
| 51>    N       14.71228        -1.05201        -2.04204
| 52>    C       14.72586         0.38005        -1.78392
| 53>    C       15.41073         0.74203        -0.46715
| 54>    C       15.81358        -1.68495        -2.58379
| 55>    C       15.49333        -3.02160        -2.87522
| 56>    S       16.77149        -3.88559        -3.69385
| 57>    C       17.74334        -2.41370        -3.68274
| 58>    C       17.10153        -1.32518        -3.03652
| 59>    S       18.08701         0.09240        -3.07809
| 60>    C       19.34906        -0.76283        -4.01063
| 61>    C       18.98993        -2.10066        -4.23078
| 62>    C       20.48080         0.00982        -4.37805
| 63>    C       21.54382        -0.23529        -5.22958
| 64>    C       22.63595         0.70586        -5.51162
| 65>    C       22.90599         1.91645        -4.89607
| 66>    C       23.96898         2.77944        -5.31071
| 67>    N       24.81561         3.51026        -5.62733
| 68>    C       22.16685         2.44423        -3.79102
| 69>    N       21.59630         2.92025        -2.89654
| 70>    C       23.45291         0.12732        -6.60750
| 71>    C       24.60380         0.58761        -7.26334
| 72>    C       25.14512        -0.20688        -8.26985
| 73>    F       26.23681         0.19208        -8.91694
| 74>    C       24.56978        -1.43724        -8.63469
| 75>    F       25.13594        -2.13871        -9.61132
| 76>    C       23.43655        -1.90781        -7.98266
| 77>    C       22.90150        -1.11334        -6.97455
| 78>    C       21.72290        -1.41430        -6.12425
| 79>    O       21.06408        -2.43836        -6.19365
| 80>    H        6.59815         5.90704         1.85569
| 81>    H        1.73214         4.96898         1.03049
| 82>    H        4.56064         0.42865        -0.61014
| 83>    H        5.66157        -1.46795        -1.18993
| 84>    H       13.02989        -0.03658         0.12645
| 85>    H       11.44243        -0.06504         0.86309
| 86>    H       12.20890         2.27569         0.36146
| 87>    H       10.69437         1.89677        -0.47641
| 88>    H       12.21469         1.91387        -1.38358
| 89>    H       12.88319        -7.76161        -4.16432
| 90>    H       11.15282        -7.40142        -4.41810
| 91>    H       12.42081        -8.33637        -1.75848
| 92>    H       11.34975        -9.30549        -2.81480
| 93>    H       10.70995        -7.86675        -1.96956
| 94>    H       13.69735         0.74586        -1.83271
| 95>    H       15.25276         0.86172        -2.62260
| 96>    H       14.95239         0.21713         0.38418
| 97>    H       15.34652         1.82552        -0.28407
| 98>    H       16.47506         0.46165        -0.48991
| 99>    H       19.63174        -2.76898        -4.79987
|100>    H       20.48000         0.99467        -3.90982
|101>    H       25.09702         1.52927        -7.03411
|102>    H       22.98768        -2.86384        -8.25576
|103> *
|104>
|105>                          ****END OF INPUT****

CARTESIAN COORDINATES (ANGSTROEM)
---------------------------------
  C      5.986130    3.377790    0.582670
  O      7.203870    3.323880    0.617850
  C      5.140630    4.510010    1.049380
  C      5.545440    5.690640    1.665120
  C      4.554690    6.586740    2.055230
  F      4.862380    7.727710    2.664140
  C      3.198130    6.301140    1.822300
  F      2.290290    7.185110    2.230630
  C      2.796050    5.127490    1.192350
  C      3.785040    4.214510    0.802350
  C      3.690440    2.883490    0.154530
  C      2.514940    2.322000   -0.316000
  C      2.432810    1.040060   -0.944040
  N      2.334730    0.001310   -1.457170
  C      1.255840    2.996160   -0.248200
  N      0.225840    3.533100   -0.211030
  C      5.048720    2.340830    0.084910
  C      5.394750    1.073130   -0.333290
  C      6.616620    0.375490   -0.503620
  S      8.284700    0.949750   -0.281620
  C      8.915060   -0.574070   -0.847080
  C      7.870410   -1.483250   -1.163900
  C      6.597230   -0.950690   -0.974440
  S      8.433860   -3.021770   -1.807940
  C     10.068870   -2.441420   -1.670830
  C     10.178650   -1.139710   -1.150240
  N     11.521270   -0.775100   -1.096930
  C     11.976010    0.174160   -0.072220
  C     11.761270    1.642000   -0.419080
  C     12.269540   -1.839350   -1.638760
  C     11.366540   -2.902000   -1.967090
  C     11.857050   -4.127040   -2.503020
  N     11.226860   -5.258440   -2.855110
  N     12.213980   -6.039570   -3.274870
  C     11.963230   -7.417860   -3.674220
  C     11.590350   -8.285360   -2.479050
  N     13.440310   -5.533910   -3.226520
  C     13.244880   -4.299500   -2.737490
  C     14.145340   -3.218130   -2.520090
  C     13.659620   -1.971470   -1.987550
  N     14.712280   -1.052010   -2.042040
  C     14.725860    0.380050   -1.783920
  C     15.410730    0.742030   -0.467150
  C     15.813580   -1.684950   -2.583790
  C     15.493330   -3.021600   -2.875220
  S     16.771490   -3.885590   -3.693850
  C     17.743340   -2.413700   -3.682740
  C     17.101530   -1.325180   -3.036520
  S     18.087010    0.092400   -3.078090
  C     19.349060   -0.762830   -4.010630
  C     18.989930   -2.100660   -4.230780
  C     20.480800    0.009820   -4.378050
  C     21.543820   -0.235290   -5.229580
  C     22.635950    0.705860   -5.511620
  C     22.905990    1.916450   -4.896070
  C     23.968980    2.779440   -5.310710
  N     24.815610    3.510260   -5.627330
  C     22.166850    2.444230   -3.791020
  N     21.596300    2.920250   -2.896540
  C     23.452910    0.127320   -6.607500
  C     24.603800    0.587610   -7.263340
  C     25.145120   -0.206880   -8.269850
  F     26.236810    0.192080   -8.916940
  C     24.569780   -1.437240   -8.634690
  F     25.135940   -2.138710   -9.611320
  C     23.436550   -1.907810   -7.982660
  C     22.901500   -1.113340   -6.974550
  C     21.722900   -1.414300   -6.124250
  O     21.064080   -2.438360   -6.193650
  H      6.598150    5.907040    1.855690
  H      1.732140    4.968980    1.030490
  H      4.560640    0.428650   -0.610140
  H      5.661570   -1.467950   -1.189930
  H     13.029890   -0.036580    0.126450
  H     11.442430   -0.065040    0.863090
  H     12.208900    2.275690    0.361460
  H     10.694370    1.896770   -0.476410
  H     12.214690    1.913870   -1.383580
  H     12.883190   -7.761610   -4.164320
  H     11.152820   -7.401420   -4.418100
  H     12.420810   -8.336370   -1.758480
  H     11.349750   -9.305490   -2.814800
  H     10.709950   -7.866750   -1.969560
  H     13.697350    0.745860   -1.832710
  H     15.252760    0.861720   -2.622600
  H     14.952390    0.217130    0.384180
  H     15.346520    1.825520   -0.284070
  H     16.475060    0.461650   -0.489910
  H     19.631740   -2.768980   -4.799870
  H     20.480000    0.994670   -3.909820
  H     25.097020    1.529270   -7.034110
  H     22.987680   -2.863840   -8.255760

 Total Charge           Charge          ....    0
 Multiplicity           Mult            ....    1
 Number of Electrons    NEL             ....  502
 Basis Dimension        Dim             .... 1097

ORBITAL ENERGIES
----------------

  NO   OCC          E(Eh)            E(eV)
   0   2.0000     -91.991961     -2503.2285
   1   2.0000     -91.989008     -2503.1482
   2   2.0000     -91.980894     -2502.9274
   3   2.0000     -91.978764     -2502.8694
   4   2.0000     -26.340084      -716.7501
   5   2.0000     -26.339681      -716.7392
   6   2.0000     -26.336961      -716.6651
   7   2.0000     -26.336887      -716.6631
   8   2.0000     -20.576984      -559.9282
   9   2.0000     -20.575819      -559.8965
  10   2.0000     -15.706742      -427.4022
  11   2.0000     -15.656048      -426.0227
  12   2.0000     -15.650169      -425.8627
  13   2.0000     -15.627198      -425.2377
  14   2.0000     -15.626474      -425.2180
  15   2.0000     -15.602367      -424.5620
  16   2.0000     -15.602177      -424.5568
  17   2.0000     -15.597595      -424.4321
  18   2.0000     -15.596974      -424.4152
  19   2.0000     -11.382227      -309.7262
  20   2.0000     -11.381762      -309.7135
  21   2.0000     -11.380038      -309.6666
  22   2.0000     -11.379981      -309.6650
  23   2.0000     -11.377167      -309.5885
  24   2.0000     -11.374979      -309.5289
  25   2.0000     -11.354857      -308.9814
  26   2.0000     -11.354075      -308.9601
  27   2.0000     -11.335394      -308.4518
  28   2.0000     -11.334259      -308.4209
  29   2.0000     -11.332797      -308.3811
  30   2.0000     -11.332311      -308.3679
  31   2.0000     -11.331416      -308.3435
  32   2.0000     -11.330005      -308.3051
  33   2.0000     -11.327446      -308.2355
  34   2.0000     -11.324323      -308.1505
  35   2.0000     -11.317254      -307.9581
  36   2.0000     -11.315750      -307.9172
  37   2.0000     -11.315672      -307.9151
  38   2.0000     -11.315662      -307.9148
  39   2.0000     -11.314907      -307.8943
  40   2.0000     -11.314023      -307.8702
  41   2.0000     -11.311215      -307.7938
  42   2.0000     -11.311197      -307.7933
  43   2.0000     -11.311145      -307.7919
  44   2.0000     -11.309982      -307.7602
  45   2.0000     -11.309602      -307.7499
  46   2.0000     -11.309565      -307.7489
  47   2.0000     -11.309355      -307.7432
  48   2.0000     -11.303318      -307.5789
  49   2.0000     -11.302330      -307.5520
  50   2.0000     -11.301811      -307.5379
  51   2.0000     -11.301675      -307.5342
  52   2.0000     -11.301470      -307.5286
  53   2.0000     -11.300296      -307.4967
  54   2.0000     -11.300212      -307.4944
  55   2.0000     -11.300127      -307.4921
  56   2.0000     -11.300021      -307.4892
  57   2.0000     -11.298629      -307.4513
  58   2.0000     -11.295768      -307.3735
  59   2.0000     -11.294174      -307.3301
  60   2.0000     -11.290939      -307.2421
  61   2.0000     -11.289519      -307.2034
  62   2.0000     -11.288516      -307.1761
  63   2.0000     -11.284184      -307.0583
  64   2.0000     -11.283637      -307.0434
  65   2.0000     -11.282169      -307.0034
  66   2.0000     -11.265947      -306.5620
  67   2.0000     -11.262648      -306.4722
  68   2.0000     -11.249701      -306.1199
  69   2.0000      -9.026376      -245.6202
  70   2.0000      -9.021827      -245.4964
  71   2.0000      -9.015135      -245.3143
  72   2.0000      -9.012827      -245.2515
  73   2.0000      -6.713910      -182.6948
  74   2.0000      -6.712846      -182.6658
  75   2.0000      -6.710880      -182.6123
  76   2.0000      -6.709008      -182.5614
  77   2.0000      -6.707964      -182.5330
  78   2.0000      -6.705961      -182.4785
  79   2.0000      -6.702654      -182.3885
  80   2.0000      -6.701797      -182.3652
  81   2.0000      -6.700330      -182.3253
  82   2.0000      -6.699486      -182.3023
  83   2.0000      -6.699474      -182.3020
  84   2.0000      -6.697140      -182.2384
  85   2.0000      -1.652496       -44.9667
  86   2.0000      -1.652412       -44.9644
  87   2.0000      -1.636168       -44.5224
  88   2.0000      -1.635953       -44.5165
  89   2.0000      -1.461216       -39.7617
  90   2.0000      -1.404805       -38.2267
  91   2.0000      -1.402901       -38.1749
  92   2.0000      -1.345898       -36.6238
  93   2.0000      -1.329192       -36.1691
  94   2.0000      -1.249422       -33.9985
  95   2.0000      -1.249337       -33.9962
  96   2.0000      -1.229656       -33.4606
  97   2.0000      -1.229475       -33.4557
  98   2.0000      -1.227825       -33.4108
  99   2.0000      -1.226051       -33.3625
 100   2.0000      -1.224062       -33.3084
 101   2.0000      -1.223725       -33.2993
 102   2.0000      -1.205137       -32.7935
 103   2.0000      -1.187882       -32.3239
 104   2.0000      -1.171830       -31.8871
 105   2.0000      -1.171716       -31.8840
 106   2.0000      -1.153418       -31.3861
 107   2.0000      -1.151179       -31.3252
 108   2.0000      -1.125364       -30.6227
 109   2.0000      -1.108742       -30.1704
 110   2.0000      -1.100410       -29.9437
 111   2.0000      -1.096238       -29.8301
 112   2.0000      -1.080414       -29.3996
 113   2.0000      -1.071061       -29.1451
 114   2.0000      -1.070410       -29.1273
 115   2.0000      -1.068370       -29.0718
 116   2.0000      -1.066612       -29.0240
 117   2.0000      -1.050638       -28.5893
 118   2.0000      -1.048762       -28.5383
 119   2.0000      -1.028650       -27.9910
 120   2.0000      -1.016284       -27.6545
 121   2.0000      -1.010238       -27.4900
 122   2.0000      -0.994650       -27.0658
 123   2.0000      -0.978766       -26.6336
 124   2.0000      -0.969008       -26.3680
 125   2.0000      -0.959268       -26.1030
 126   2.0000      -0.942260       -25.6402
 127   2.0000      -0.941353       -25.6155
 128   2.0000      -0.936077       -25.4719
 129   2.0000      -0.926496       -25.2113
 130   2.0000      -0.910267       -24.7696
 131   2.0000      -0.906167       -24.6581
 132   2.0000      -0.887187       -24.1416
 133   2.0000      -0.879217       -23.9247
 134   2.0000      -0.863356       -23.4931
 135   2.0000      -0.861748       -23.4494
 136   2.0000      -0.859255       -23.3815
 137   2.0000      -0.855477       -23.2787
 138   2.0000      -0.837197       -22.7813
 139   2.0000      -0.836124       -22.7521
 140   2.0000      -0.820371       -22.3234
 141   2.0000      -0.806125       -21.9358
 142   2.0000      -0.805421       -21.9166
 143   2.0000      -0.796888       -21.6844
 144   2.0000      -0.790901       -21.5215
 145   2.0000      -0.788956       -21.4686
 146   2.0000      -0.788175       -21.4473
 147   2.0000      -0.781173       -21.2568
 148   2.0000      -0.777688       -21.1620
 149   2.0000      -0.774675       -21.0800
 150   2.0000      -0.763437       -20.7742
 151   2.0000      -0.757893       -20.6233
 152   2.0000      -0.756421       -20.5833
 153   2.0000      -0.753086       -20.4925
 154   2.0000      -0.746927       -20.3249
 155   2.0000      -0.746784       -20.3210
 156   2.0000      -0.735931       -20.0257
 157   2.0000      -0.729697       -19.8561
 158   2.0000      -0.728068       -19.8117
 159   2.0000      -0.725425       -19.7398
 160   2.0000      -0.718518       -19.5519
 161   2.0000      -0.718304       -19.5461
 162   2.0000      -0.718293       -19.5457
 163   2.0000      -0.709610       -19.3095
 164   2.0000      -0.705587       -19.2000
 165   2.0000      -0.700744       -19.0682
 166   2.0000      -0.694310       -18.8931
 167   2.0000      -0.690659       -18.7938
 168   2.0000      -0.686354       -18.6766
 169   2.0000      -0.679520       -18.4907
 170   2.0000      -0.674089       -18.3429
 171   2.0000      -0.668933       -18.2026
 172   2.0000      -0.665809       -18.1176
 173   2.0000      -0.665432       -18.1073
 174   2.0000      -0.653538       -17.7837
 175   2.0000      -0.651425       -17.7262
 176   2.0000      -0.649356       -17.6699
 177   2.0000      -0.646134       -17.5822
 178   2.0000      -0.643726       -17.5167
 179   2.0000      -0.639068       -17.3899
 180   2.0000      -0.636645       -17.3240
 181   2.0000      -0.630685       -17.1618
 182   2.0000      -0.627063       -17.0633
 183   2.0000      -0.626377       -17.0446
 184   2.0000      -0.625042       -17.0083
 185   2.0000      -0.624568       -16.9953
 186   2.0000      -0.623247       -16.9594
 187   2.0000      -0.622770       -16.9464
 188   2.0000      -0.620730       -16.8909
 189   2.0000      -0.613726       -16.7003
 190   2.0000      -0.611358       -16.6359
 191   2.0000      -0.605491       -16.4762
 192   2.0000      -0.593017       -16.1368
 193   2.0000      -0.589929       -16.0528
 194   2.0000      -0.588879       -16.0242
 195   2.0000      -0.584449       -15.9037
 196   2.0000      -0.583769       -15.8852
 197   2.0000      -0.583380       -15.8746
 198   2.0000      -0.577082       -15.7032
 199   2.0000      -0.576769       -15.6947
 200   2.0000      -0.575760       -15.6672
 201   2.0000      -0.575517       -15.6606
 202   2.0000      -0.573604       -15.6086
 203   2.0000      -0.571789       -15.5592
 204   2.0000      -0.567175       -15.4336
 205   2.0000      -0.564552       -15.3622
 206   2.0000      -0.564394       -15.3579
 207   2.0000      -0.558636       -15.2013
 208   2.0000      -0.555164       -15.1068
 209   2.0000      -0.553074       -15.0499
 210   2.0000      -0.547988       -14.9115
 211   2.0000      -0.546282       -14.8651
 212   2.0000      -0.542226       -14.7547
 213   2.0000      -0.537202       -14.6180
 214   2.0000      -0.535652       -14.5758
 215   2.0000      -0.528249       -14.3744
 216   2.0000      -0.526915       -14.3381
 217   2.0000      -0.524324       -14.2676
 218   2.0000      -0.521229       -14.1834
 219   2.0000      -0.505957       -13.7678
 220   2.0000      -0.502541       -13.6748
 221   2.0000      -0.502336       -13.6693
 222   2.0000      -0.500871       -13.6294
 223   2.0000      -0.500318       -13.6144
 224   2.0000      -0.499285       -13.5862
 225   2.0000      -0.495034       -13.4706
 226   2.0000      -0.490686       -13.3522
 227   2.0000      -0.489019       -13.3069
 228   2.0000      -0.487115       -13.2551
 229   2.0000      -0.480760       -13.0821
 230   2.0000      -0.479589       -13.0503
 231   2.0000      -0.472593       -12.8599
 232   2.0000      -0.471565       -12.8319
 233   2.0000      -0.460861       -12.5407
 234   2.0000      -0.454414       -12.3652
 235   2.0000      -0.449912       -12.2427
 236   2.0000      -0.448886       -12.2148
 237   2.0000      -0.423586       -11.5264
 238   2.0000      -0.423076       -11.5125
 239   2.0000      -0.398911       -10.8549
 240   2.0000      -0.394593       -10.7374
 241   2.0000      -0.389518       -10.5993
 242   2.0000      -0.388231       -10.5643
 243   2.0000      -0.364176        -9.9097
 244   2.0000      -0.361211        -9.8290
 245   2.0000      -0.358664        -9.7597
 246   2.0000      -0.346771        -9.4361
 247   2.0000      -0.336817        -9.1652
 248   2.0000      -0.313312        -8.5256
 249   2.0000      -0.310977        -8.4621
 250   2.0000      -0.261221        -7.1082
 251   0.0000      -0.038223        -1.0401
 252   0.0000      -0.021683        -0.5900
 253   0.0000       0.007589         0.2065
 254   0.0000       0.013109         0.3567
 255   0.0000       0.044542         1.2120

MULLIKEN ATOMIC CHARGES
-----------------------
   0 C :    0.516905
   1 O :   -0.380620
   2 C :   -0.186168
   3 C :   -0.036117
   4 C :    0.341020
   5 F :   -0.303029
   6 C :    0.345799
   7 F :   -0.302161
   8 C :   -0.054384
   9 C :   -0.032132
  10 C :    0.248762
  11 C :   -0.348438
  12 C :    0.047420
  13 N :   -0.095767
  14 C :    0.042025
  15 N :   -0.084700
  16 C :   -0.298805
  17 C :    0.079003
  18 C :   -0.155074
  19 S :    0.244018
  20 C :   -0.011979
  21 C :   -0.111935
  22 C :    0.012266
  23 S :    0.243022
  24 C :    0.007809
  25 C :    0.121058
  26 N :   -0.613348
  27 C :    0.116886
  28 C :   -0.051309
  29 C :    0.256495
  30 C :   -0.237701
  31 C :    0.121211
  32 N :   -0.184792
  33 N :   -0.237061
  34 C :    0.193481
  35 C :   -0.076330
  36 N :   -0.174697
  37 C :    0.107686
  38 C :   -0.226989
  39 C :    0.242790
  40 N :   -0.611427
  41 C :    0.118545
  42 C :   -0.047497
  43 C :    0.137309
  44 C :    0.007959
  45 S :    0.241455
  46 C :   -0.135242
  47 C :   -0.023605
  48 S :    0.184459
  49 C :   -0.264681
  50 C :    0.085573
  51 C :    0.160175
  52 C :   -0.298006
  53 C :    0.239415
  54 C :   -0.349764
  55 C :    0.042337
  56 N :   -0.082738
  57 C :    0.043195
  58 N :   -0.087619
  59 C :   -0.027931
  60 C :   -0.055024
  61 C :    0.345045
  62 F :   -0.301582
  63 C :    0.343812
  64 F :   -0.302720
  65 C :   -0.035653
  66 C :   -0.181213
  67 C :    0.515559
  68 O :   -0.388952
  69 H :    0.086880
  70 H :    0.107323
  71 H :    0.091347
  72 H :    0.085958
  73 H :    0.045457
  74 H :    0.065842
  75 H :    0.054536
  76 H :    0.070577
  77 H :    0.046660
  78 H :    0.066640
  79 H :    0.064898
  80 H :    0.052004
  81 H :    0.049613
  82 H :    0.063403
  83 H :    0.057609
  84 H :    0.065789
  85 H :    0.049485
  86 H :    0.057462
  87 H :    0.056582
  88 H :    0.121246
  89 H :    0.090523
  90 H :    0.106802
  91 H :    0.088061
Sum of atomic charges:    0.0000000

LOEWDIN ATOMIC CHARGES
----------------------
   0 C :    0.170953
   1 O :   -0.251089
   2 C :   -0.053061
   3 C :    0.002219
   4 C :    0.120771
   5 F :   -0.101649
   6 C :    0.121367
   7 F :   -0.102226
   8 C :   -0.006080
   9 C :   -0.023443
  10 C :    0.126499
  11 C :   -0.178402
  12 C :    0.020176
  13 N :   -0.104042
  14 C :    0.017949
  15 N :   -0.098129
  16 C :   -0.170399
  17 C :    0.114722
  18 C :   -0.211515
  19 S :    0.453599
  20 C :   -0.161838
  21 C :   -0.213189
  22 C :    0.027095
  23 S :    0.404512
  24 C :   -0.156470
  25 C :   -0.021860
  26 N :   -0.061639
  27 C :    0.075573
  28 C :   -0.042555
  29 C :    0.044050
  30 C :   -0.074406
  31 C :   -0.041360
  32 N :   -0.111133
  33 N :    0.109290
  34 C :    0.076675
  35 C :   -0.038862
  36 N :   -0.107743
  37 C :   -0.042075
  38 C :   -0.077390
  39 C :    0.043424
  40 N :   -0.035361
  41 C :    0.071154
  42 C :   -0.040505
  43 C :   -0.022851
  44 C :   -0.159995
  45 S :    0.402186
  46 C :   -0.206395
  47 C :   -0.165640
  48 S :    0.407077
  49 C :   -0.213135
  50 C :    0.041390
  51 C :    0.110680
  52 C :   -0.161672
  53 C :    0.125064
  54 C :   -0.176463
  55 C :    0.017887
  56 N :   -0.097094
  57 C :    0.016106
  58 N :   -0.099228
  59 C :   -0.023975
  60 C :   -0.006584
  61 C :    0.121015
  62 F :   -0.101585
  63 C :    0.120939
  64 F :   -0.101172
  65 C :    0.003773
  66 C :   -0.052940
  67 C :    0.177098
  68 O :   -0.239704
  69 H :    0.058376
  70 H :    0.057583
  71 H :    0.053566
  72 H :    0.049742
  73 H :    0.019325
  74 H :    0.026012
  75 H :    0.031025
  76 H :    0.016483
  77 H :    0.020321
  78 H :    0.032646
  79 H :    0.030032
  80 H :    0.025903
  81 H :    0.026893
  82 H :    0.028599
  83 H :    0.022336
  84 H :    0.023681
  85 H :    0.020200
  86 H :    0.030004
  87 H :    0.023050
  88 H :    0.052423
  89 H :    0.047012
  90 H :    0.057373
  91 H :    0.059025

  Mayer bond orders larger than 0.100000
B(  0-C ,  1-O ) :   2.0523 B(  0-C ,  2-C ) :   0.9735 B(  0-C , 16-C ) :   0.9791
B(  2-C ,  3-C ) :   1.3784 B(  2-C ,  9-C ) :   1.3885 B(  3-C ,  4-C ) :   1.3970
B(  3-C , 69-H ) :   1.0058 B(  4-C ,  5-F ) :   0.9427 B(  4-C ,  6-C ) :   1.3238
B(  6-C ,  7-F ) :   0.9503 B(  6-C ,  8-C ) :   1.4235 B(  8-C ,  9-C ) :   1.3619
B(  8-C , 70-H ) :   0.9828 B(  9-C , 10-C ) :   1.0419 B( 10-C , 11-C ) :   1.6679
B( 10-C , 16-C ) :   1.1171 B( 11-C , 12-C ) :   1.0595 B( 11-C , 14-C ) :   1.0562
B( 12-C , 13-N ) :   2.9713 B( 14-C , 15-N ) :   2.9795 B( 16-C , 17-C ) :   1.6009
B( 17-C , 18-C ) :   1.3060 B( 17-C , 71-H ) :   0.9566 B( 18-C , 19-S ) :   1.0287
B( 18-C , 22-C ) :   1.4575 B( 19-S , 20-C ) :   1.0235 B( 20-C , 21-C ) :   1.4336
B( 20-C , 25-C ) :   1.3760 B( 21-C , 22-C ) :   1.4032 B( 21-C , 23-S ) :   1.0051
B( 22-C , 72-H ) :   0.9944 B( 23-S , 24-C ) :   0.9884 B( 24-C , 25-C ) :   1.4770
B( 24-C , 30-C ) :   1.4082 B( 25-C , 26-N ) :   1.0650 B( 26-N , 27-C ) :   0.8304
B( 26-N , 29-C ) :   1.0661 B( 27-C , 28-C ) :   1.0370 B( 27-C , 73-H ) :   0.9857
B( 27-C , 74-H ) :   0.9771 B( 28-C , 75-H ) :   0.9807 B( 28-C , 76-H ) :   0.9774
B( 28-C , 77-H ) :   0.9793 B( 29-C , 30-C ) :   1.4718 B( 29-C , 39-C ) :   1.1849
B( 30-C , 31-C ) :   1.1219 B( 31-C , 32-N ) :   1.5033 B( 31-C , 37-C ) :   1.2721
B( 32-N , 33-N ) :   1.2125 B( 32-N , 36-N ) :   0.1316 B( 33-N , 34-C ) :   0.8181
B( 33-N , 36-N ) :   1.2181 B( 34-C , 35-C ) :   1.0427 B( 34-C , 78-H ) :   0.9732
B( 34-C , 79-H ) :   0.9753 B( 35-C , 80-H ) :   0.9801 B( 35-C , 81-H ) :   0.9843
B( 35-C , 82-H ) :   0.9818 B( 36-N , 37-C ) :   1.5059 B( 37-C , 38-C ) :   1.1262
B( 38-C , 39-C ) :   1.4375 B( 38-C , 44-C ) :   1.4415 B( 39-C , 40-N ) :   1.0872
B( 40-N , 41-C ) :   0.8375 B( 40-N , 43-C ) :   1.0821 B( 41-C , 42-C ) :   1.0322
B( 41-C , 83-H ) :   0.9833 B( 41-C , 84-H ) :   0.9778 B( 42-C , 85-H ) :   0.9781
B( 42-C , 86-H ) :   0.9827 B( 42-C , 87-H ) :   0.9769 B( 43-C , 44-C ) :   1.4564
B( 43-C , 47-C ) :   1.3353 B( 44-C , 45-S ) :   0.9816 B( 45-S , 46-C ) :   1.0108
B( 46-C , 47-C ) :   1.4342 B( 46-C , 50-C ) :   1.3829 B( 47-C , 48-S ) :   1.0673
B( 48-S , 49-C ) :   1.0547 B( 49-C , 50-C ) :   1.4681 B( 49-C , 51-C ) :   1.2619
B( 50-C , 88-H ) :   0.9719 B( 51-C , 52-C ) :   1.6366 B( 51-C , 89-H ) :   0.9380
B( 52-C , 53-C ) :   1.1126 B( 52-C , 67-C ) :   0.9821 B( 53-C , 54-C ) :   1.6732
B( 53-C , 59-C ) :   1.0410 B( 54-C , 55-C ) :   1.0564 B( 54-C , 57-C ) :   1.0593
B( 55-C , 56-N ) :   2.9797 B( 57-C , 58-N ) :   2.9702 B( 59-C , 60-C ) :   1.3571
B( 59-C , 66-C ) :   1.3904 B( 60-C , 61-C ) :   1.4271 B( 60-C , 90-H ) :   0.9839
B( 61-C , 62-F ) :   0.9501 B( 61-C , 63-C ) :   1.3211 B( 63-C , 64-F ) :   0.9432
B( 63-C , 65-C ) :   1.3962 B( 65-C , 66-C ) :   1.3764 B( 65-C , 91-H ) :   1.0066
B( 66-C , 67-C ) :   0.9833 B( 67-C , 68-O ) :   2.0131

-----------------------------------------------------------------------------
         ABSORPTION SPECTRUM VIA TRANSITION ELECTRIC DIPOLE MOMENTS
-----------------------------------------------------------------------------
State   Energy    Wavelength  fosc         T2        TX        TY        TZ
        (cm-1)      (nm)                 (au**2)    (au)      (au)      (au)
-----------------------------------------------------------------------------
   1   21462.2    465.9   2.998796498  45.99896   6.45282  -0.75422  -1.94710
   2   27006.7    370.3   0.813032333   9.91089  -0.13025  -3.12369   0.36944
   3   34979.9    285.9   0.054318632   0.51122   0.36522   0.45712   0.41094

FINAL SINGLE POINT ENERGY     -4531.372489195595

DIPOLE MOMENT
-------------
                                X             Y             Z
Electronic contribution:      8.35497      30.05490     -15.64128
Nuclear contribution   :     -8.06540     -33.37539      16.53649
                        -----------------------------------------
Total Dipole Moment    :      0.28957      -3.32049       0.89521
                        -----------------------------------------
Magnitude (a.u.)       :      3.45122
Magnitude (Debye)      :      8.77229

Rotational constants in cm-1:     0.001548     0.000264     0.000233
Rotational constants in MHz :    46.408876     7.917037     6.979983

                             ****ORCA TERMINATED NORMALLY****
TOTAL RUN TIME: 0 days 10 hours 37 minutes 57 seconds 700 msec
