                         Program Version 4.2.0 -  RELEASE  -
|  1> # ORCA input file
|  2> # Y1-4F.out
|  3> ! Engrad Keepdens
|  4> %maxcore 1000
|  5> %tddft
|  6>   nroots 3
|  7>   # nroots is the number of states to be computed
|  8>   Iroot 1
|  9>   end
| 10> * xyz 0 1
| 11>    C        6.25257         3.09290         0.78855
| 12>    O        7.39651         3.02781         0.37278
| 13>    C        5.62162         4.27714         1.40581
| 14>    C        6.17629         5.51903         1.64186
| 15>    C        5.37322         6.47743         2.23881
| 16>    F        5.86885         7.69559         2.48780
| 17>    C        4.05362         6.18383         2.58243
| 18>    F        3.30031         7.12795         3.15660
| 19>    C        3.49789         4.93476         2.34518
| 20>    C        4.29463         3.96982         1.74951
| 21>    C        4.02081         2.58036         1.37492
| 22>    C        2.82642         1.93651         1.56867
| 23>    C        2.54339         0.59721         1.22668
| 24>    N        2.23128        -0.48137         0.98423
| 25>    C        1.68995         2.53795         2.15106
| 26>    N        0.73062         2.96518         2.61368
| 27>    C        5.23111         2.04596         0.78389
| 28>    C        5.39402         0.76842         0.29930
| 29>    C        6.50693         0.15236        -0.28016
| 30>    S        8.07934         0.89136        -0.56663
| 31>    C        8.66453        -0.58167        -1.24280
| 32>    C        7.68228        -1.59654        -1.23890
| 33>    C        6.48064        -1.18112        -0.70516
| 34>    S        8.24400        -3.11915        -1.89861
| 35>    C        9.79368        -2.39252        -2.17036
| 36>    C        9.86233        -1.04623        -1.78767
| 37>    N       11.12075        -0.56117        -2.01148
| 38>    C       11.43984         0.76603        -1.53816
| 39>    C       10.92455         1.84960        -2.48539
| 40>    C       11.88782        -1.57917        -2.55126
| 41>    C       11.06269        -2.74758        -2.63183
| 42>    C       11.58581        -3.99094        -3.04039
| 43>    N       11.04223        -5.20172        -3.17581
| 44>    N       12.04482        -5.96027        -3.54213
| 45>    C       11.88471        -7.36986        -3.75269
| 46>    C       12.02479        -8.12719        -2.43546
| 47>    N       13.20969        -5.37429        -3.66195
| 48>    C       12.96406        -4.10055        -3.34973
| 49>    C       13.77321        -2.94668        -3.33138
| 50>    C       13.23904        -1.66417        -2.98885
| 51>    N       14.24464        -0.72777        -3.17107
| 52>    C       14.24252         0.71706        -3.19015
| 53>    C       14.93709         1.30763        -1.96264
| 54>    C       15.37317        -1.38709        -3.57397
| 55>    C       15.11497        -2.76124        -3.67368
| 56>    S       16.47454        -3.69688        -4.19568
| 57>    C       17.41329        -2.22472        -4.29797
| 58>    C       16.68108        -1.07119        -3.94131
| 59>    S       17.65049         0.34181        -4.07749
| 60>    C       19.04486        -0.62229        -4.59172
| 61>    C       18.72722        -1.97259        -4.65657
| 62>    C       20.21197         0.10827        -4.85873
| 63>    C       21.48546        -0.28698        -5.18668
| 64>    C       22.57000         0.64631        -5.43815
| 65>    C       22.48261         2.00332        -5.61143
| 66>    C       23.59098         2.83850        -5.87079
| 67>    N       24.44531         3.57550        -6.08011
| 68>    C       21.30032         2.77433        -5.59514
| 69>    N       20.39416         3.48017        -5.61234
| 70>    C       23.80714        -0.12733        -5.54192
| 71>    C       25.12671         0.26506        -5.70668
| 72>    C       26.09672        -0.72417        -5.77079
| 73>    F       27.37666        -0.36604        -5.92264
| 74>    C       25.77204        -2.07802        -5.67840
| 75>    F       26.74173        -2.99817        -5.74718
| 76>    C       24.45604        -2.47741        -5.51244
| 77>    C       23.49211        -1.49117        -5.44335
| 78>    C       22.03333        -1.65652        -5.25207
| 79>    O       21.45652        -2.72010        -5.16358
| 80>    H        7.19691         5.74084         1.37395
| 81>    H        2.47361         4.76132         2.63081
| 82>    H        4.53677         0.11017         0.36757
| 83>    H        5.60511        -1.79765        -0.61091
| 84>    H       12.50971         0.84576        -1.37289
| 85>    H       10.94416         0.89283        -0.56970
| 86>    H       11.27879         2.82221        -2.15683
| 87>    H        9.83835         1.86398        -2.48021
| 88>    H       11.25366         1.67949        -3.50862
| 89>    H       12.65535        -7.68234        -4.45952
| 90>    H       10.89253        -7.52965        -4.17934
| 91>    H       13.01022        -7.95834        -2.00815
| 92>    H       11.89432        -9.19175        -2.60628
| 93>    H       11.27061        -7.78931        -1.72897
| 94>    H       13.22293         1.07653        -3.29087
| 95>    H       14.79269         1.03172        -4.08389
| 96>    H       14.53818         0.89502        -1.03820
| 97>    H       14.80919         2.38620        -1.95212
| 98>    H       16.00114         1.08984        -1.99194
| 99>    H       19.43876        -2.72164        -4.95054
|100>    H       20.06587         1.17785        -4.76125
|101>    H       25.43207         1.29555        -5.78130
|102>    H       24.19852        -3.52193        -5.43824
|103> *
|104>
|105>                          ****END OF INPUT****

CARTESIAN COORDINATES (ANGSTROEM)
---------------------------------
  C      6.252570    3.092900    0.788550
  O      7.396510    3.027810    0.372780
  C      5.621620    4.277140    1.405810
  C      6.176290    5.519030    1.641860
  C      5.373220    6.477430    2.238810
  F      5.868850    7.695590    2.487800
  C      4.053620    6.183830    2.582430
  F      3.300310    7.127950    3.156600
  C      3.497890    4.934760    2.345180
  C      4.294630    3.969820    1.749510
  C      4.020810    2.580360    1.374920
  C      2.826420    1.936510    1.568670
  C      2.543390    0.597210    1.226680
  N      2.231280   -0.481370    0.984230
  C      1.689950    2.537950    2.151060
  N      0.730620    2.965180    2.613680
  C      5.231110    2.045960    0.783890
  C      5.394020    0.768420    0.299300
  C      6.506930    0.152360   -0.280160
  S      8.079340    0.891360   -0.566630
  C      8.664530   -0.581670   -1.242800
  C      7.682280   -1.596540   -1.238900
  C      6.480640   -1.181120   -0.705160
  S      8.244000   -3.119150   -1.898610
  C      9.793680   -2.392520   -2.170360
  C      9.862330   -1.046230   -1.787670
  N     11.120750   -0.561170   -2.011480
  C     11.439840    0.766030   -1.538160
  C     10.924550    1.849600   -2.485390
  C     11.887820   -1.579170   -2.551260
  C     11.062690   -2.747580   -2.631830
  C     11.585810   -3.990940   -3.040390
  N     11.042230   -5.201720   -3.175810
  N     12.044820   -5.960270   -3.542130
  C     11.884710   -7.369860   -3.752690
  C     12.024790   -8.127190   -2.435460
  N     13.209690   -5.374290   -3.661950
  C     12.964060   -4.100550   -3.349730
  C     13.773210   -2.946680   -3.331380
  C     13.239040   -1.664170   -2.988850
  N     14.244640   -0.727770   -3.171070
  C     14.242520    0.717060   -3.190150
  C     14.937090    1.307630   -1.962640
  C     15.373170   -1.387090   -3.573970
  C     15.114970   -2.761240   -3.673680
  S     16.474540   -3.696880   -4.195680
  C     17.413290   -2.224720   -4.297970
  C     16.681080   -1.071190   -3.941310
  S     17.650490    0.341810   -4.077490
  C     19.044860   -0.622290   -4.591720
  C     18.727220   -1.972590   -4.656570
  C     20.211970    0.108270   -4.858730
  C     21.485460   -0.286980   -5.186680
  C     22.570000    0.646310   -5.438150
  C     22.482610    2.003320   -5.611430
  C     23.590980    2.838500   -5.870790
  N     24.445310    3.575500   -6.080110
  C     21.300320    2.774330   -5.595140
  N     20.394160    3.480170   -5.612340
  C     23.807140   -0.127330   -5.541920
  C     25.126710    0.265060   -5.706680
  C     26.096720   -0.724170   -5.770790
  F     27.376660   -0.366040   -5.922640
  C     25.772040   -2.078020   -5.678400
  F     26.741730   -2.998170   -5.747180
  C     24.456040   -2.477410   -5.512440
  C     23.492110   -1.491170   -5.443350
  C     22.033330   -1.656520   -5.252070
  O     21.456520   -2.720100   -5.163580
  H      7.196910    5.740840    1.373950
  H      2.473610    4.761320    2.630810
  H      4.536770    0.110170    0.367570
  H      5.605110   -1.797650   -0.610910
  H     12.509710    0.845760   -1.372890
  H     10.944160    0.892830   -0.569700
  H     11.278790    2.822210   -2.156830
  H      9.838350    1.863980   -2.480210
  H     11.253660    1.679490   -3.508620
  H     12.655350   -7.682340   -4.459520
  H     10.892530   -7.529650   -4.179340
  H     13.010220   -7.958340   -2.008150
  H     11.894320   -9.191750   -2.606280
  H     11.270610   -7.789310   -1.728970
  H     13.222930    1.076530   -3.290870
  H     14.792690    1.031720   -4.083890
  H     14.538180    0.895020   -1.038200
  H     14.809190    2.386200   -1.952120
  H     16.001140    1.089840   -1.991940
  H     19.438760   -2.721640   -4.950540
  H     20.065870    1.177850   -4.761250
  H     25.432070    1.295550   -5.781300
  H     24.198520   -3.521930   -5.438240

 Total Charge           Charge          ....    0
 Multiplicity           Mult            ....    1
 Number of Electrons    NEL             ....  502
 Basis Dimension        Dim             .... 1097

ORBITAL ENERGIES
----------------

  NO   OCC          E(Eh)            E(eV)
   0   2.0000     -91.990544     -2503.1900
   1   2.0000     -91.984224     -2503.0180
   2   2.0000     -91.978754     -2502.8691
   3   2.0000     -91.977046     -2502.8227
   4   2.0000     -26.338821      -716.7157
   5   2.0000     -26.337487      -716.6794
   6   2.0000     -26.336426      -716.6506
   7   2.0000     -26.335282      -716.6195
   8   2.0000     -20.576588      -559.9174
   9   2.0000     -20.576422      -559.9129
  10   2.0000     -15.706243      -427.3886
  11   2.0000     -15.655150      -425.9983
  12   2.0000     -15.654181      -425.9719
  13   2.0000     -15.621823      -425.0914
  14   2.0000     -15.621262      -425.0761
  15   2.0000     -15.596910      -424.4135
  16   2.0000     -15.596386      -424.3992
  17   2.0000     -15.591169      -424.2573
  18   2.0000     -15.591062      -424.2544
  19   2.0000     -11.381639      -309.7101
  20   2.0000     -11.380547      -309.6804
  21   2.0000     -11.380280      -309.6732
  22   2.0000     -11.379088      -309.6407
  23   2.0000     -11.374732      -309.5222
  24   2.0000     -11.374647      -309.5199
  25   2.0000     -11.347234      -308.7739
  26   2.0000     -11.346746      -308.7607
  27   2.0000     -11.333152      -308.3908
  28   2.0000     -11.332197      -308.3648
  29   2.0000     -11.327861      -308.2468
  30   2.0000     -11.327524      -308.2376
  31   2.0000     -11.324097      -308.1444
  32   2.0000     -11.323984      -308.1413
  33   2.0000     -11.323533      -308.1290
  34   2.0000     -11.317315      -307.9598
  35   2.0000     -11.314747      -307.8899
  36   2.0000     -11.313672      -307.8607
  37   2.0000     -11.310997      -307.7879
  38   2.0000     -11.307798      -307.7008
  39   2.0000     -11.307780      -307.7003
  40   2.0000     -11.307426      -307.6907
  41   2.0000     -11.307052      -307.6805
  42   2.0000     -11.306064      -307.6536
  43   2.0000     -11.305482      -307.6378
  44   2.0000     -11.304501      -307.6111
  45   2.0000     -11.304370      -307.6075
  46   2.0000     -11.302202      -307.5486
  47   2.0000     -11.302089      -307.5455
  48   2.0000     -11.299901      -307.4859
  49   2.0000     -11.299334      -307.4705
  50   2.0000     -11.298470      -307.4470
  51   2.0000     -11.297964      -307.4332
  52   2.0000     -11.297498      -307.4206
  53   2.0000     -11.297291      -307.4149
  54   2.0000     -11.297090      -307.4094
  55   2.0000     -11.295319      -307.3613
  56   2.0000     -11.295106      -307.3555
  57   2.0000     -11.294603      -307.3418
  58   2.0000     -11.292723      -307.2906
  59   2.0000     -11.291507      -307.2575
  60   2.0000     -11.284914      -307.0781
  61   2.0000     -11.283830      -307.0486
  62   2.0000     -11.281732      -306.9915
  63   2.0000     -11.278358      -306.8997
  64   2.0000     -11.277579      -306.8785
  65   2.0000     -11.276865      -306.8591
  66   2.0000     -11.261717      -306.4469
  67   2.0000     -11.258287      -306.3536
  68   2.0000     -11.244204      -305.9703
  69   2.0000      -9.025589      -245.5988
  70   2.0000      -9.017672      -245.3833
  71   2.0000      -9.013414      -245.2675
  72   2.0000      -9.011705      -245.2210
  73   2.0000      -6.713146      -182.6740
  74   2.0000      -6.712071      -182.6447
  75   2.0000      -6.710082      -182.5906
  76   2.0000      -6.704809      -182.4471
  77   2.0000      -6.703483      -182.4110
  78   2.0000      -6.701465      -182.3561
  79   2.0000      -6.700942      -182.3419
  80   2.0000      -6.700120      -182.3195
  81   2.0000      -6.699267      -182.2963
  82   2.0000      -6.698442      -182.2739
  83   2.0000      -6.697765      -182.2554
  84   2.0000      -6.696054      -182.2089
  85   2.0000      -1.647892       -44.8414
  86   2.0000      -1.646562       -44.8052
  87   2.0000      -1.632940       -44.4346
  88   2.0000      -1.631600       -44.3981
  89   2.0000      -1.475332       -40.1458
  90   2.0000      -1.410509       -38.3819
  91   2.0000      -1.408918       -38.3386
  92   2.0000      -1.358940       -36.9786
  93   2.0000      -1.344599       -36.5884
  94   2.0000      -1.257539       -34.2194
  95   2.0000      -1.257236       -34.2111
  96   2.0000      -1.237405       -33.6715
  97   2.0000      -1.237112       -33.6635
  98   2.0000      -1.235278       -33.6136
  99   2.0000      -1.233318       -33.5603
 100   2.0000      -1.229820       -33.4651
 101   2.0000      -1.229468       -33.4555
 102   2.0000      -1.210069       -32.9276
 103   2.0000      -1.195927       -32.5428
 104   2.0000      -1.179410       -32.0934
 105   2.0000      -1.178926       -32.0802
 106   2.0000      -1.160718       -31.5847
 107   2.0000      -1.158027       -31.5115
 108   2.0000      -1.134633       -30.8749
 109   2.0000      -1.116391       -30.3785
 110   2.0000      -1.107333       -30.1321
 111   2.0000      -1.103233       -30.0205
 112   2.0000      -1.086050       -29.5529
 113   2.0000      -1.077049       -29.3080
 114   2.0000      -1.075665       -29.2703
 115   2.0000      -1.073255       -29.2048
 116   2.0000      -1.070742       -29.1364
 117   2.0000      -1.056221       -28.7412
 118   2.0000      -1.055484       -28.7212
 119   2.0000      -1.033875       -28.1332
 120   2.0000      -1.021213       -27.7886
 121   2.0000      -1.013776       -27.5862
 122   2.0000      -0.999759       -27.2048
 123   2.0000      -0.984049       -26.7773
 124   2.0000      -0.972753       -26.4700
 125   2.0000      -0.963495       -26.2180
 126   2.0000      -0.949042       -25.8247
 127   2.0000      -0.947387       -25.7797
 128   2.0000      -0.938445       -25.5364
 129   2.0000      -0.933563       -25.4035
 130   2.0000      -0.919926       -25.0325
 131   2.0000      -0.909535       -24.7497
 132   2.0000      -0.889903       -24.2155
 133   2.0000      -0.885082       -24.0843
 134   2.0000      -0.867664       -23.6104
 135   2.0000      -0.864839       -23.5335
 136   2.0000      -0.863109       -23.4864
 137   2.0000      -0.859491       -23.3879
 138   2.0000      -0.843397       -22.9500
 139   2.0000      -0.841282       -22.8925
 140   2.0000      -0.824166       -22.4267
 141   2.0000      -0.808219       -21.9928
 142   2.0000      -0.805925       -21.9303
 143   2.0000      -0.800375       -21.7793
 144   2.0000      -0.794350       -21.6154
 145   2.0000      -0.792610       -21.5680
 146   2.0000      -0.791222       -21.5302
 147   2.0000      -0.784593       -21.3499
 148   2.0000      -0.780837       -21.2476
 149   2.0000      -0.777083       -21.1455
 150   2.0000      -0.769699       -20.9446
 151   2.0000      -0.760694       -20.6995
 152   2.0000      -0.759766       -20.6743
 153   2.0000      -0.754255       -20.5243
 154   2.0000      -0.744992       -20.2723
 155   2.0000      -0.743682       -20.2366
 156   2.0000      -0.739753       -20.1297
 157   2.0000      -0.735465       -20.0130
 158   2.0000      -0.730864       -19.8878
 159   2.0000      -0.730464       -19.8769
 160   2.0000      -0.725403       -19.7392
 161   2.0000      -0.716811       -19.5054
 162   2.0000      -0.715526       -19.4705
 163   2.0000      -0.715109       -19.4591
 164   2.0000      -0.711034       -19.3482
 165   2.0000      -0.705637       -19.2014
 166   2.0000      -0.697176       -18.9711
 167   2.0000      -0.694190       -18.8899
 168   2.0000      -0.688302       -18.7296
 169   2.0000      -0.683776       -18.6065
 170   2.0000      -0.678348       -18.4588
 171   2.0000      -0.675178       -18.3725
 172   2.0000      -0.670877       -18.2555
 173   2.0000      -0.669456       -18.2168
 174   2.0000      -0.660462       -17.9721
 175   2.0000      -0.654790       -17.8177
 176   2.0000      -0.653297       -17.7771
 177   2.0000      -0.650301       -17.6956
 178   2.0000      -0.649350       -17.6697
 179   2.0000      -0.642946       -17.4955
 180   2.0000      -0.640411       -17.4265
 181   2.0000      -0.635723       -17.2989
 182   2.0000      -0.633787       -17.2462
 183   2.0000      -0.632764       -17.2184
 184   2.0000      -0.630127       -17.1466
 185   2.0000      -0.628032       -17.0896
 186   2.0000      -0.627138       -17.0653
 187   2.0000      -0.626027       -17.0351
 188   2.0000      -0.624117       -16.9831
 189   2.0000      -0.618366       -16.8266
 190   2.0000      -0.615308       -16.7434
 191   2.0000      -0.608753       -16.5650
 192   2.0000      -0.596759       -16.2386
 193   2.0000      -0.595106       -16.1937
 194   2.0000      -0.591030       -16.0827
 195   2.0000      -0.586113       -15.9489
 196   2.0000      -0.582798       -15.8587
 197   2.0000      -0.582171       -15.8417
 198   2.0000      -0.581966       -15.8361
 199   2.0000      -0.581280       -15.8174
 200   2.0000      -0.577222       -15.7070
 201   2.0000      -0.576791       -15.6953
 202   2.0000      -0.576135       -15.6774
 203   2.0000      -0.574135       -15.6230
 204   2.0000      -0.569514       -15.4973
 205   2.0000      -0.567205       -15.4344
 206   2.0000      -0.566730       -15.4215
 207   2.0000      -0.562919       -15.3178
 208   2.0000      -0.558285       -15.1917
 209   2.0000      -0.556407       -15.1406
 210   2.0000      -0.552498       -15.0342
 211   2.0000      -0.547207       -14.8903
 212   2.0000      -0.545513       -14.8442
 213   2.0000      -0.541858       -14.7447
 214   2.0000      -0.540070       -14.6960
 215   2.0000      -0.536599       -14.6016
 216   2.0000      -0.529461       -14.4074
 217   2.0000      -0.527407       -14.3515
 218   2.0000      -0.523075       -14.2336
 219   2.0000      -0.510881       -13.9018
 220   2.0000      -0.507990       -13.8231
 221   2.0000      -0.505703       -13.7609
 222   2.0000      -0.502849       -13.6832
 223   2.0000      -0.502044       -13.6613
 224   2.0000      -0.499377       -13.5887
 225   2.0000      -0.495457       -13.4821
 226   2.0000      -0.492645       -13.4056
 227   2.0000      -0.490247       -13.3403
 228   2.0000      -0.487605       -13.2684
 229   2.0000      -0.480732       -13.0814
 230   2.0000      -0.480245       -13.0681
 231   2.0000      -0.475836       -12.9482
 232   2.0000      -0.474616       -12.9150
 233   2.0000      -0.463697       -12.6178
 234   2.0000      -0.455133       -12.3848
 235   2.0000      -0.451611       -12.2889
 236   2.0000      -0.441327       -12.0091
 237   2.0000      -0.425951       -11.5907
 238   2.0000      -0.424720       -11.5572
 239   2.0000      -0.402063       -10.9407
 240   2.0000      -0.397144       -10.8068
 241   2.0000      -0.392254       -10.6738
 242   2.0000      -0.389648       -10.6029
 243   2.0000      -0.366253        -9.9662
 244   2.0000      -0.361466        -9.8360
 245   2.0000      -0.359829        -9.7915
 246   2.0000      -0.346802        -9.4370
 247   2.0000      -0.334965        -9.1148
 248   2.0000      -0.311126        -8.4662
 249   2.0000      -0.308227        -8.3873
 250   2.0000      -0.258799        -7.0423
 251   0.0000      -0.038262        -1.0412
 252   0.0000      -0.020482        -0.5573
 253   0.0000       0.008315         0.2263
 254   0.0000       0.013171         0.3584
 255   0.0000       0.046671         1.2700

MULLIKEN ATOMIC CHARGES
-----------------------
   0 C :    0.534335
   1 O :   -0.407270
   2 C :   -0.175398
   3 C :   -0.031148
   4 C :    0.345556
   5 F :   -0.311934
   6 C :    0.355233
   7 F :   -0.308090
   8 C :   -0.052428
   9 C :   -0.027301
  10 C :    0.265173
  11 C :   -0.378716
  12 C :    0.035566
  13 N :   -0.074098
  14 C :    0.029835
  15 N :   -0.063961
  16 C :   -0.323498
  17 C :    0.104939
  18 C :   -0.165251
  19 S :    0.244851
  20 C :   -0.002594
  21 C :   -0.096799
  22 C :    0.016916
  23 S :    0.237415
  24 C :    0.029869
  25 C :    0.102333
  26 N :   -0.589972
  27 C :    0.113731
  28 C :   -0.036619
  29 C :    0.254891
  30 C :   -0.257301
  31 C :    0.116596
  32 N :   -0.182334
  33 N :   -0.215694
  34 C :    0.187114
  35 C :   -0.052422
  36 N :   -0.180253
  37 C :    0.113902
  38 C :   -0.255668
  39 C :    0.256231
  40 N :   -0.592270
  41 C :    0.114274
  42 C :   -0.038875
  43 C :    0.109455
  44 C :    0.025777
  45 S :    0.244649
  46 C :   -0.127435
  47 C :   -0.014329
  48 S :    0.180673
  49 C :   -0.246009
  50 C :    0.073950
  51 C :    0.155697
  52 C :   -0.299088
  53 C :    0.254009
  54 C :   -0.376411
  55 C :    0.029129
  56 N :   -0.064685
  57 C :    0.029832
  58 N :   -0.066650
  59 C :   -0.028769
  60 C :   -0.051070
  61 C :    0.354329
  62 F :   -0.308695
  63 C :    0.346892
  64 F :   -0.311611
  65 C :   -0.032926
  66 C :   -0.174389
  67 C :    0.519991
  68 O :   -0.381370
  69 H :    0.076147
  70 H :    0.097615
  71 H :    0.085597
  72 H :    0.069917
  73 H :    0.046668
  74 H :    0.070424
  75 H :    0.050493
  76 H :    0.061094
  77 H :    0.046865
  78 H :    0.063137
  79 H :    0.062612
  80 H :    0.048996
  81 H :    0.044066
  82 H :    0.051648
  83 H :    0.050242
  84 H :    0.067101
  85 H :    0.049651
  86 H :    0.052035
  87 H :    0.055181
  88 H :    0.109053
  89 H :    0.085657
  90 H :    0.097441
  91 H :    0.078545
Sum of atomic charges:    0.0000000

LOEWDIN ATOMIC CHARGES
----------------------
   0 C :    0.170244
   1 O :   -0.261671
   2 C :   -0.052459
   3 C :    0.009785
   4 C :    0.123027
   5 F :   -0.110184
   6 C :    0.125414
   7 F :   -0.107666
   8 C :   -0.000854
   9 C :   -0.021654
  10 C :    0.120730
  11 C :   -0.177230
  12 C :    0.013240
  13 N :   -0.095673
  14 C :    0.011523
  15 N :   -0.091717
  16 C :   -0.176978
  17 C :    0.118514
  18 C :   -0.216228
  19 S :    0.480257
  20 C :   -0.168124
  21 C :   -0.212469
  22 C :    0.028516
  23 S :    0.402699
  24 C :   -0.157130
  25 C :   -0.031608
  26 N :   -0.023950
  27 C :    0.071798
  28 C :   -0.037647
  29 C :    0.040868
  30 C :   -0.079863
  31 C :   -0.043581
  32 N :   -0.110616
  33 N :    0.121403
  34 C :    0.072941
  35 C :   -0.032584
  36 N :   -0.109377
  37 C :   -0.045486
  38 C :   -0.078333
  39 C :    0.040042
  40 N :   -0.027081
  41 C :    0.072231
  42 C :   -0.038668
  43 C :   -0.029019
  44 C :   -0.159736
  45 S :    0.414530
  46 C :   -0.208548
  47 C :   -0.167108
  48 S :    0.418771
  49 C :   -0.214422
  50 C :    0.041088
  51 C :    0.108710
  52 C :   -0.160600
  53 C :    0.120114
  54 C :   -0.176898
  55 C :    0.011819
  56 N :   -0.091675
  57 C :    0.009573
  58 N :   -0.093466
  59 C :   -0.023888
  60 C :   -0.001244
  61 C :    0.125169
  62 F :   -0.108258
  63 C :    0.124140
  64 F :   -0.109928
  65 C :    0.009867
  66 C :   -0.051694
  67 C :    0.171700
  68 O :   -0.233352
  69 H :    0.054902
  70 H :    0.055275
  71 H :    0.052669
  72 H :    0.044881
  73 H :    0.019931
  74 H :    0.024230
  75 H :    0.026941
  76 H :    0.018435
  77 H :    0.018066
  78 H :    0.030794
  79 H :    0.030169
  80 H :    0.024098
  81 H :    0.023806
  82 H :    0.024721
  83 H :    0.021422
  84 H :    0.023629
  85 H :    0.019487
  86 H :    0.027309
  87 H :    0.015203
  88 H :    0.048065
  89 H :    0.045133
  90 H :    0.055080
  91 H :    0.055710

  Mayer bond orders larger than 0.100000
B(  0-C ,  1-O ) :   1.9823 B(  0-C ,  2-C ) :   0.9892 B(  0-C , 16-C ) :   1.0051
B(  2-C ,  3-C ) :   1.3894 B(  2-C ,  9-C ) :   1.3701 B(  3-C ,  4-C ) :   1.3774
B(  3-C , 69-H ) :   1.0141 B(  4-C ,  5-F ) :   0.9351 B(  4-C ,  6-C ) :   1.3406
B(  6-C ,  7-F ) :   0.9453 B(  6-C ,  8-C ) :   1.4007 B(  8-C ,  9-C ) :   1.3779
B(  8-C , 70-H ) :   0.9901 B(  9-C , 10-C ) :   1.0389 B( 10-C , 11-C ) :   1.6671
B( 10-C , 16-C ) :   1.1258 B( 11-C , 12-C ) :   1.0700 B( 11-C , 14-C ) :   1.0656
B( 12-C , 13-N ) :   2.9695 B( 14-C , 15-N ) :   2.9843 B( 16-C , 17-C ) :   1.5483
B( 17-C , 18-C ) :   1.3338 B( 17-C , 71-H ) :   0.9591 B( 18-C , 19-S ) :   1.0227
B( 18-C , 22-C ) :   1.4218 B( 19-S , 20-C ) :   1.0300 B( 20-C , 21-C ) :   1.4068
B( 20-C , 25-C ) :   1.3699 B( 21-C , 22-C ) :   1.4407 B( 21-C , 23-S ) :   0.9940
B( 22-C , 72-H ) :   1.0029 B( 23-S , 24-C ) :   0.9732 B( 24-C , 25-C ) :   1.4465
B( 24-C , 30-C ) :   1.4592 B( 25-C , 26-N ) :   1.0914 B( 26-N , 27-C ) :   0.8409
B( 26-N , 29-C ) :   1.1003 B( 27-C , 28-C ) :   1.0382 B( 27-C , 73-H ) :   0.9847
B( 27-C , 74-H ) :   0.9771 B( 28-C , 75-H ) :   0.9842 B( 28-C , 76-H ) :   0.9755
B( 28-C , 77-H ) :   0.9762 B( 29-C , 30-C ) :   1.4281 B( 29-C , 39-C ) :   1.1745
B( 30-C , 31-C ) :   1.1294 B( 31-C , 32-N ) :   1.5106 B( 31-C , 37-C ) :   1.2715
B( 32-N , 33-N ) :   1.2186 B( 32-N , 36-N ) :   0.1283 B( 33-N , 34-C ) :   0.8323
B( 33-N , 36-N ) :   1.2222 B( 34-C , 35-C ) :   1.0486 B( 34-C , 78-H ) :   0.9727
B( 34-C , 79-H ) :   0.9734 B( 35-C , 80-H ) :   0.9813 B( 35-C , 81-H ) :   0.9858
B( 35-C , 82-H ) :   0.9820 B( 36-N , 37-C ) :   1.5098 B( 37-C , 38-C ) :   1.1302
B( 38-C , 39-C ) :   1.4360 B( 38-C , 44-C ) :   1.4520 B( 39-C , 40-N ) :   1.0923
B( 40-N , 41-C ) :   0.8414 B( 40-N , 43-C ) :   1.0920 B( 41-C , 42-C ) :   1.0375
B( 41-C , 83-H ) :   0.9847 B( 41-C , 84-H ) :   0.9783 B( 42-C , 85-H ) :   0.9762
B( 42-C , 86-H ) :   0.9842 B( 42-C , 87-H ) :   0.9762 B( 43-C , 44-C ) :   1.4492
B( 43-C , 47-C ) :   1.3590 B( 44-C , 45-S ) :   0.9780 B( 45-S , 46-C ) :   1.0100
B( 46-C , 47-C ) :   1.4251 B( 46-C , 50-C ) :   1.3911 B( 47-C , 48-S ) :   1.0610
B( 48-S , 49-C ) :   1.0532 B( 49-C , 50-C ) :   1.4606 B( 49-C , 51-C ) :   1.2695
B( 50-C , 88-H ) :   0.9808 B( 51-C , 52-C ) :   1.6327 B( 51-C , 89-H ) :   0.9379
B( 52-C , 53-C ) :   1.1177 B( 52-C , 67-C ) :   0.9777 B( 53-C , 54-C ) :   1.6693
B( 53-C , 59-C ) :   1.0392 B( 54-C , 55-C ) :   1.0655 B( 54-C , 57-C ) :   1.0672
B( 55-C , 56-N ) :   2.9858 B( 57-C , 58-N ) :   2.9809 B( 59-C , 60-C ) :   1.3722
B( 59-C , 66-C ) :   1.3722 B( 60-C , 61-C ) :   1.4059 B( 60-C , 90-H ) :   0.9902
B( 61-C , 62-F ) :   0.9447 B( 61-C , 63-C ) :   1.3369 B( 63-C , 64-F ) :   0.9359
B( 63-C , 65-C ) :   1.3802 B( 65-C , 66-C ) :   1.3888 B( 65-C , 91-H ) :   1.0137
B( 66-C , 67-C ) :   0.9803 B( 67-C , 68-O ) :   2.0238

-----------------------------------------------------------------------------
         ABSORPTION SPECTRUM VIA TRANSITION ELECTRIC DIPOLE MOMENTS
-----------------------------------------------------------------------------
State   Energy    Wavelength  fosc         T2        TX        TY        TZ
        (cm-1)      (nm)                 (au**2)    (au)      (au)      (au)
-----------------------------------------------------------------------------
   1   21221.8    471.2   3.125027916  48.47832  -6.47832   0.76900   2.43277
   2   26955.8    371.0   0.740985107   9.04967   0.54377   2.90348   0.56904
   3   35039.2    285.4   0.072396360   0.68020   0.24502   0.77057  -0.16244

FINAL SINGLE POINT ENERGY     -4531.375340645054

DIPOLE MOMENT
-------------
                                X             Y             Z
Electronic contribution:     15.93473      25.15121       3.26013
Nuclear contribution   :    -15.68440     -28.09878      -3.49642
                        -----------------------------------------
Total Dipole Moment    :      0.25033      -2.94757      -0.23629
                        -----------------------------------------
Magnitude (a.u.)       :      2.96760
Magnitude (Debye)      :      7.54304

Rotational constants in cm-1:     0.001670     0.000270     0.000234
Rotational constants in MHz :    50.059416     8.092459     7.026829

                             ****ORCA TERMINATED NORMALLY****
TOTAL RUN TIME: 0 days 14 hours 32 minutes 36 seconds 731 msec
