                         Program Version 4.2.0 -  RELEASE  -
|  1> # ORCA input file
|  2> # Y11.out
|  3> ! Engrad Keepdens
|  4> %maxcore 1000
|  5> %tddft
|  6>   nroots 3
|  7>   # nroots is the number of states to be computed
|  8>   Iroot 1
|  9>   end
| 10> * xyz 0 1
| 11>    C        2.91351         2.30544        -2.28313
| 12>    O        1.90047         1.66990        -2.46205
| 13>    C        3.49562         3.35185        -3.15901
| 14>    C        3.05832         3.78489        -4.39473
| 15>    C        3.80379         4.76272        -5.03499
| 16>    F        3.41933         5.20659        -6.23793
| 17>    C        4.95245         5.28758        -4.44215
| 18>    F        5.65840         6.22089        -5.09081
| 19>    C        5.38633         4.86262        -3.19498
| 20>    C        4.64804         3.88310        -2.55257
| 21>    C        4.81589         3.25726        -1.24164
| 22>    C        5.52285         3.78725        -0.19214
| 23>    C        5.37040         3.33412         1.13501
| 24>    N        5.21781         3.02287         2.22955
| 25>    C        6.41227         4.87219        -0.30527
| 26>    N        7.17907         5.72558        -0.34813
| 27>    C        3.87961         2.16220        -1.16917
| 28>    C        3.83223         1.05395        -0.36922
| 29>    C        4.84995         0.47212         0.40514
| 30>    S        6.55303         0.84744         0.12937
| 31>    C        7.02167        -0.28675         1.33638
| 32>    C        5.90824        -0.93290         1.89548
| 33>    C        4.68369        -0.52207         1.36995
| 34>    C        3.36390        -1.00809         1.86370
| 35>    C        2.75986        -0.00150         2.84674
| 36>    S        6.33618        -2.11375         3.11424
| 37>    C        8.00768        -1.73141         2.86953
| 38>    C        8.21520        -0.72985         1.89984
| 39>    N        9.54757        -0.47264         1.78204
| 40>    C       10.07703         0.50039         0.86104
| 41>    C       10.00136         1.91450         1.43247
| 42>    C       10.21274        -1.29423         2.66384
| 43>    C        9.26391        -2.11132         3.34183
| 44>    C        9.70348        -3.06589         4.30044
| 45>    N        9.02041        -3.88731         5.09414
| 46>    N        9.94001        -4.58805         5.70836
| 47>    C        9.60371        -5.62781         6.63777
| 48>    C        9.17042        -6.88925         5.89794
| 49>    N       11.18191        -4.31188         5.38577
| 50>    C       11.08129        -3.33036         4.49721
| 51>    C       12.09895        -2.63181         3.73326
| 52>    C       11.58563        -1.46432         2.92253
| 53>    N       12.67587        -0.70504         3.11604
| 54>    C       13.23034         0.51682         2.61061
| 55>    C       13.28551         1.56816         3.71711
| 56>    C       13.30533        -1.57294         4.03485
| 57>    C       13.24286        -3.37249         3.11441
| 58>    S       14.21312        -4.63084         2.30090
| 59>    C       15.35819        -3.25173         2.81842
| 60>    C       14.25781        -2.50218         3.34559
| 61>    S       19.16331        -3.84764         1.95760
| 62>    C       17.57768        -4.14633         2.32383
| 63>    C       16.69667        -3.12107         2.81100
| 64>    C       17.27242        -1.80970         3.27632
| 65>    C       17.42824        -0.83452         2.10875
| 66>    C       17.15708        -5.51631         2.13604
| 67>    C       16.42642        -6.23932         3.01954
| 68>    C       15.89994        -7.58675         2.83579
| 69>    C       16.26906        -8.48947         1.88066
| 70>    C       15.71445        -9.78377         1.76340
| 71>    N       15.30298       -10.84526         1.62447
| 72>    C       17.26780        -8.27806         0.90306
| 73>    N       18.06088        -8.18636         0.07943
| 74>    C       14.88876        -7.79620         3.86976
| 75>    C       13.98108        -8.82837         4.05917
| 76>    C       13.10300        -8.73184         5.12711
| 77>    F       12.20736        -9.70752         5.32273
| 78>    C       13.12011        -7.63995         5.99652
| 79>    F       12.25156        -7.59682         7.01551
| 80>    C       14.02015        -6.60424         5.81588
| 81>    C       14.89300        -6.70024         4.75001
| 82>    C       15.93207        -5.73453         4.33689
| 83>    O       16.34111        -4.78852         4.96694
| 84>    H        2.16951         3.38077        -4.85236
| 85>    H        6.27977         5.29416        -2.77347
| 86>    H        2.90263         0.49518        -0.42184
| 87>    H        3.51084        -1.96566         2.36690
| 88>    H        2.67841        -1.15605         1.02685
| 89>    H        3.42357         0.14100         3.69567
| 90>    H        1.80210        -0.36468         3.20926
| 91>    H        2.61197         0.96150         2.36407
| 92>    H        9.48213         0.44891        -0.05639
| 93>    H       11.10374         0.22007         0.61441
| 94>    H       10.53219         1.97980         2.37861
| 95>    H        8.96424         2.19304         1.60267
| 96>    H       10.43628         2.62304         0.73352
| 97>    H        8.78984        -5.26364         7.26813
| 98>    H       10.48890        -5.82012         7.24424
| 99>    H        8.29023        -6.68508         5.29374
|100>    H        8.93682        -7.67166         6.61334
|101>    H        9.96746        -7.24153         5.24807
|102>    H       12.64214         0.87955         1.76870
|103>    H       14.24939         0.30430         2.26530
|104>    H       12.28795         1.78422         4.09236
|105>    H       13.72334         2.48511         3.33385
|106>    H       13.89084         1.20476         4.54321
|107>    H       18.24669        -1.99435         3.72848
|108>    H       16.61044        -1.38303         4.03080
|109>    H       18.13224        -1.22421         1.37827
|110>    H       17.80043         0.12005         2.47148
|111>    H       16.47277        -0.67252         1.61290
|112>    H       17.53922        -5.99452         1.24347
|113>    H       13.92466        -9.68957         3.41384
|114>    H       14.02553        -5.75009         6.47348
|115> *
|116>
|117>                          ****END OF INPUT****

CARTESIAN COORDINATES (ANGSTROEM)
---------------------------------
  C      2.913510    2.305440   -2.283130
  O      1.900470    1.669900   -2.462050
  C      3.495620    3.351850   -3.159010
  C      3.058320    3.784890   -4.394730
  C      3.803790    4.762720   -5.034990
  F      3.419330    5.206590   -6.237930
  C      4.952450    5.287580   -4.442150
  F      5.658400    6.220890   -5.090810
  C      5.386330    4.862620   -3.194980
  C      4.648040    3.883100   -2.552570
  C      4.815890    3.257260   -1.241640
  C      5.522850    3.787250   -0.192140
  C      5.370400    3.334120    1.135010
  N      5.217810    3.022870    2.229550
  C      6.412270    4.872190   -0.305270
  N      7.179070    5.725580   -0.348130
  C      3.879610    2.162200   -1.169170
  C      3.832230    1.053950   -0.369220
  C      4.849950    0.472120    0.405140
  S      6.553030    0.847440    0.129370
  C      7.021670   -0.286750    1.336380
  C      5.908240   -0.932900    1.895480
  C      4.683690   -0.522070    1.369950
  C      3.363900   -1.008090    1.863700
  C      2.759860   -0.001500    2.846740
  S      6.336180   -2.113750    3.114240
  C      8.007680   -1.731410    2.869530
  C      8.215200   -0.729850    1.899840
  N      9.547570   -0.472640    1.782040
  C     10.077030    0.500390    0.861040
  C     10.001360    1.914500    1.432470
  C     10.212740   -1.294230    2.663840
  C      9.263910   -2.111320    3.341830
  C      9.703480   -3.065890    4.300440
  N      9.020410   -3.887310    5.094140
  N      9.940010   -4.588050    5.708360
  C      9.603710   -5.627810    6.637770
  C      9.170420   -6.889250    5.897940
  N     11.181910   -4.311880    5.385770
  C     11.081290   -3.330360    4.497210
  C     12.098950   -2.631810    3.733260
  C     11.585630   -1.464320    2.922530
  N     12.675870   -0.705040    3.116040
  C     13.230340    0.516820    2.610610
  C     13.285510    1.568160    3.717110
  C     13.305330   -1.572940    4.034850
  C     13.242860   -3.372490    3.114410
  S     14.213120   -4.630840    2.300900
  C     15.358190   -3.251730    2.818420
  C     14.257810   -2.502180    3.345590
  S     19.163310   -3.847640    1.957600
  C     17.577680   -4.146330    2.323830
  C     16.696670   -3.121070    2.811000
  C     17.272420   -1.809700    3.276320
  C     17.428240   -0.834520    2.108750
  C     17.157080   -5.516310    2.136040
  C     16.426420   -6.239320    3.019540
  C     15.899940   -7.586750    2.835790
  C     16.269060   -8.489470    1.880660
  C     15.714450   -9.783770    1.763400
  N     15.302980  -10.845260    1.624470
  C     17.267800   -8.278060    0.903060
  N     18.060880   -8.186360    0.079430
  C     14.888760   -7.796200    3.869760
  C     13.981080   -8.828370    4.059170
  C     13.103000   -8.731840    5.127110
  F     12.207360   -9.707520    5.322730
  C     13.120110   -7.639950    5.996520
  F     12.251560   -7.596820    7.015510
  C     14.020150   -6.604240    5.815880
  C     14.893000   -6.700240    4.750010
  C     15.932070   -5.734530    4.336890
  O     16.341110   -4.788520    4.966940
  H      2.169510    3.380770   -4.852360
  H      6.279770    5.294160   -2.773470
  H      2.902630    0.495180   -0.421840
  H      3.510840   -1.965660    2.366900
  H      2.678410   -1.156050    1.026850
  H      3.423570    0.141000    3.695670
  H      1.802100   -0.364680    3.209260
  H      2.611970    0.961500    2.364070
  H      9.482130    0.448910   -0.056390
  H     11.103740    0.220070    0.614410
  H     10.532190    1.979800    2.378610
  H      8.964240    2.193040    1.602670
  H     10.436280    2.623040    0.733520
  H      8.789840   -5.263640    7.268130
  H     10.488900   -5.820120    7.244240
  H      8.290230   -6.685080    5.293740
  H      8.936820   -7.671660    6.613340
  H      9.967460   -7.241530    5.248070
  H     12.642140    0.879550    1.768700
  H     14.249390    0.304300    2.265300
  H     12.287950    1.784220    4.092360
  H     13.723340    2.485110    3.333850
  H     13.890840    1.204760    4.543210
  H     18.246690   -1.994350    3.728480
  H     16.610440   -1.383030    4.030800
  H     18.132240   -1.224210    1.378270
  H     17.800430    0.120050    2.471480
  H     16.472770   -0.672520    1.612900
  H     17.539220   -5.994520    1.243470
  H     13.924660   -9.689570    3.413840
  H     14.025530   -5.750090    6.473480

 Total Charge           Charge          ....    0
 Multiplicity           Mult            ....    1
 Number of Electrons    NEL             ....  534
 Basis Dimension        Dim             .... 1193

ORBITAL ENERGIES
----------------

  NO   OCC          E(Eh)            E(eV)
   0   2.0000     -91.990163     -2503.1796
   1   2.0000     -91.983299     -2502.9928
   2   2.0000     -91.965838     -2502.5177
   3   2.0000     -91.916611     -2501.1782
   4   2.0000     -26.345219      -716.8898
   5   2.0000     -26.339050      -716.7220
   6   2.0000     -26.338851      -716.7166
   7   2.0000     -26.338727      -716.7132
   8   2.0000     -20.577151      -559.9327
   9   2.0000     -20.571424      -559.7769
  10   2.0000     -15.700307      -427.2271
  11   2.0000     -15.671845      -426.4526
  12   2.0000     -15.664984      -426.2659
  13   2.0000     -15.627280      -425.2399
  14   2.0000     -15.625748      -425.1982
  15   2.0000     -15.600255      -424.5045
  16   2.0000     -15.599888      -424.4945
  17   2.0000     -15.598997      -424.4703
  18   2.0000     -15.593475      -424.3200
  19   2.0000     -11.383039      -309.7482
  20   2.0000     -11.382756      -309.7405
  21   2.0000     -11.381535      -309.7073
  22   2.0000     -11.381053      -309.6942
  23   2.0000     -11.375087      -309.5319
  24   2.0000     -11.370552      -309.4085
  25   2.0000     -11.351655      -308.8942
  26   2.0000     -11.348546      -308.8096
  27   2.0000     -11.344622      -308.7029
  28   2.0000     -11.341297      -308.6124
  29   2.0000     -11.337156      -308.4997
  30   2.0000     -11.328684      -308.2692
  31   2.0000     -11.328352      -308.2601
  32   2.0000     -11.326817      -308.2184
  33   2.0000     -11.323720      -308.1341
  34   2.0000     -11.323390      -308.1251
  35   2.0000     -11.321713      -308.0795
  36   2.0000     -11.319201      -308.0111
  37   2.0000     -11.315642      -307.9143
  38   2.0000     -11.315613      -307.9135
  39   2.0000     -11.310746      -307.7810
  40   2.0000     -11.309606      -307.7500
  41   2.0000     -11.309099      -307.7362
  42   2.0000     -11.308983      -307.7331
  43   2.0000     -11.308335      -307.7154
  44   2.0000     -11.307651      -307.6968
  45   2.0000     -11.304153      -307.6016
  46   2.0000     -11.303560      -307.5855
  47   2.0000     -11.301662      -307.5339
  48   2.0000     -11.301524      -307.5301
  49   2.0000     -11.300882      -307.5126
  50   2.0000     -11.300572      -307.5042
  51   2.0000     -11.300546      -307.5035
  52   2.0000     -11.299941      -307.4870
  53   2.0000     -11.296589      -307.3958
  54   2.0000     -11.295953      -307.3785
  55   2.0000     -11.294141      -307.3292
  56   2.0000     -11.293859      -307.3215
  57   2.0000     -11.292932      -307.2963
  58   2.0000     -11.291618      -307.2605
  59   2.0000     -11.289641      -307.2067
  60   2.0000     -11.289380      -307.1996
  61   2.0000     -11.288552      -307.1771
  62   2.0000     -11.287900      -307.1594
  63   2.0000     -11.279420      -306.9286
  64   2.0000     -11.275675      -306.8267
  65   2.0000     -11.272134      -306.7304
  66   2.0000     -11.262299      -306.4627
  67   2.0000     -11.255320      -306.2728
  68   2.0000     -11.255109      -306.2671
  69   2.0000     -11.246534      -306.0338
  70   2.0000     -11.243613      -305.9543
  71   2.0000     -11.240522      -305.8701
  72   2.0000     -11.230895      -305.6082
  73   2.0000      -9.025070      -245.5847
  74   2.0000      -9.017794      -245.3866
  75   2.0000      -8.998699      -244.8670
  76   2.0000      -8.952501      -243.6099
  77   2.0000      -6.712734      -182.6628
  78   2.0000      -6.711617      -182.6324
  79   2.0000      -6.709572      -182.5767
  80   2.0000      -6.705369      -182.4624
  81   2.0000      -6.704560      -182.4404
  82   2.0000      -6.702187      -182.3758
  83   2.0000      -6.685802      -181.9299
  84   2.0000      -6.685213      -181.9139
  85   2.0000      -6.682380      -181.8368
  86   2.0000      -6.639899      -180.6808
  87   2.0000      -6.638616      -180.6459
  88   2.0000      -6.636181      -180.5797
  89   2.0000      -1.651991       -44.9530
  90   2.0000      -1.648909       -44.8691
  91   2.0000      -1.636197       -44.5232
  92   2.0000      -1.633999       -44.4634
  93   2.0000      -1.475862       -40.1602
  94   2.0000      -1.411224       -38.4014
  95   2.0000      -1.404043       -38.2060
  96   2.0000      -1.374138       -37.3922
  97   2.0000      -1.357646       -36.9434
  98   2.0000      -1.261923       -34.3387
  99   2.0000      -1.260544       -34.3012
 100   2.0000      -1.243006       -33.8239
 101   2.0000      -1.239158       -33.7192
 102   2.0000      -1.237295       -33.6685
 103   2.0000      -1.235608       -33.6226
 104   2.0000      -1.231791       -33.5187
 105   2.0000      -1.221687       -33.2438
 106   2.0000      -1.210921       -32.9508
 107   2.0000      -1.192915       -32.4609
 108   2.0000      -1.185140       -32.2493
 109   2.0000      -1.181864       -32.1602
 110   2.0000      -1.164901       -31.6986
 111   2.0000      -1.161637       -31.6097
 112   2.0000      -1.134937       -30.8832
 113   2.0000      -1.118511       -30.4362
 114   2.0000      -1.111349       -30.2413
 115   2.0000      -1.108549       -30.1652
 116   2.0000      -1.100375       -29.9427
 117   2.0000      -1.087604       -29.5952
 118   2.0000      -1.081040       -29.4166
 119   2.0000      -1.078293       -29.3418
 120   2.0000      -1.077405       -29.3177
 121   2.0000      -1.067454       -29.0469
 122   2.0000      -1.050703       -28.5911
 123   2.0000      -1.037030       -28.2190
 124   2.0000      -1.028482       -27.9864
 125   2.0000      -1.024266       -27.8717
 126   2.0000      -1.007679       -27.4203
 127   2.0000      -0.993023       -27.0215
 128   2.0000      -0.981121       -26.6976
 129   2.0000      -0.974013       -26.5042
 130   2.0000      -0.968048       -26.3419
 131   2.0000      -0.955080       -25.9890
 132   2.0000      -0.949917       -25.8486
 133   2.0000      -0.945017       -25.7152
 134   2.0000      -0.933610       -25.4048
 135   2.0000      -0.920207       -25.0401
 136   2.0000      -0.913584       -24.8599
 137   2.0000      -0.894627       -24.3440
 138   2.0000      -0.892912       -24.2974
 139   2.0000      -0.887847       -24.1595
 140   2.0000      -0.877606       -23.8809
 141   2.0000      -0.870414       -23.6852
 142   2.0000      -0.866015       -23.5655
 143   2.0000      -0.860085       -23.4041
 144   2.0000      -0.852677       -23.2025
 145   2.0000      -0.845341       -23.0029
 146   2.0000      -0.842668       -22.9302
 147   2.0000      -0.829377       -22.5685
 148   2.0000      -0.825138       -22.4531
 149   2.0000      -0.808971       -22.0132
 150   2.0000      -0.807039       -21.9607
 151   2.0000      -0.800378       -21.7794
 152   2.0000      -0.793666       -21.5968
 153   2.0000      -0.791819       -21.5465
 154   2.0000      -0.790695       -21.5159
 155   2.0000      -0.786053       -21.3896
 156   2.0000      -0.771529       -20.9944
 157   2.0000      -0.769599       -20.9418
 158   2.0000      -0.761325       -20.7167
 159   2.0000      -0.755867       -20.5682
 160   2.0000      -0.750732       -20.4285
 161   2.0000      -0.750313       -20.4171
 162   2.0000      -0.749041       -20.3825
 163   2.0000      -0.746035       -20.3007
 164   2.0000      -0.739303       -20.1174
 165   2.0000      -0.733500       -19.9596
 166   2.0000      -0.730002       -19.8644
 167   2.0000      -0.725403       -19.7392
 168   2.0000      -0.720921       -19.6173
 169   2.0000      -0.717964       -19.5368
 170   2.0000      -0.715342       -19.4654
 171   2.0000      -0.712946       -19.4003
 172   2.0000      -0.710005       -19.3202
 173   2.0000      -0.704771       -19.1778
 174   2.0000      -0.696387       -18.9497
 175   2.0000      -0.687937       -18.7197
 176   2.0000      -0.685818       -18.6620
 177   2.0000      -0.679764       -18.4973
 178   2.0000      -0.673650       -18.3309
 179   2.0000      -0.671072       -18.2608
 180   2.0000      -0.670702       -18.2507
 181   2.0000      -0.666512       -18.1367
 182   2.0000      -0.660930       -17.9848
 183   2.0000      -0.658469       -17.9179
 184   2.0000      -0.656589       -17.8667
 185   2.0000      -0.653143       -17.7729
 186   2.0000      -0.647745       -17.6260
 187   2.0000      -0.643957       -17.5230
 188   2.0000      -0.642005       -17.4698
 189   2.0000      -0.640303       -17.4235
 190   2.0000      -0.635201       -17.2847
 191   2.0000      -0.632498       -17.2111
 192   2.0000      -0.630709       -17.1625
 193   2.0000      -0.629722       -17.1356
 194   2.0000      -0.627417       -17.0729
 195   2.0000      -0.626050       -17.0357
 196   2.0000      -0.623511       -16.9666
 197   2.0000      -0.619321       -16.8526
 198   2.0000      -0.614412       -16.7190
 199   2.0000      -0.613107       -16.6835
 200   2.0000      -0.606490       -16.5034
 201   2.0000      -0.601606       -16.3705
 202   2.0000      -0.589933       -16.0529
 203   2.0000      -0.589104       -16.0303
 204   2.0000      -0.585570       -15.9342
 205   2.0000      -0.584887       -15.9156
 206   2.0000      -0.584604       -15.9079
 207   2.0000      -0.583561       -15.8795
 208   2.0000      -0.581612       -15.8265
 209   2.0000      -0.580496       -15.7961
 210   2.0000      -0.579547       -15.7703
 211   2.0000      -0.576093       -15.6763
 212   2.0000      -0.574227       -15.6255
 213   2.0000      -0.572170       -15.5696
 214   2.0000      -0.570028       -15.5112
 215   2.0000      -0.566481       -15.4147
 216   2.0000      -0.563799       -15.3417
 217   2.0000      -0.561197       -15.2709
 218   2.0000      -0.556499       -15.1431
 219   2.0000      -0.555048       -15.1036
 220   2.0000      -0.549514       -14.9530
 221   2.0000      -0.548883       -14.9359
 222   2.0000      -0.544573       -14.8186
 223   2.0000      -0.542612       -14.7652
 224   2.0000      -0.540870       -14.7178
 225   2.0000      -0.537450       -14.6247
 226   2.0000      -0.535740       -14.5782
 227   2.0000      -0.530227       -14.4282
 228   2.0000      -0.525763       -14.3067
 229   2.0000      -0.525042       -14.2871
 230   2.0000      -0.519586       -14.1386
 231   2.0000      -0.515842       -14.0368
 232   2.0000      -0.513050       -13.9608
 233   2.0000      -0.511781       -13.9263
 234   2.0000      -0.510382       -13.8882
 235   2.0000      -0.508878       -13.8473
 236   2.0000      -0.506256       -13.7759
 237   2.0000      -0.503027       -13.6881
 238   2.0000      -0.500684       -13.6243
 239   2.0000      -0.499707       -13.5977
 240   2.0000      -0.496608       -13.5134
 241   2.0000      -0.491174       -13.3655
 242   2.0000      -0.489181       -13.3113
 243   2.0000      -0.484352       -13.1799
 244   2.0000      -0.481892       -13.1130
 245   2.0000      -0.472949       -12.8696
 246   2.0000      -0.469796       -12.7838
 247   2.0000      -0.460405       -12.5283
 248   2.0000      -0.455374       -12.3913
 249   2.0000      -0.452274       -12.3070
 250   2.0000      -0.447780       -12.1847
 251   2.0000      -0.435944       -11.8627
 252   2.0000      -0.421929       -11.4813
 253   2.0000      -0.402986       -10.9658
 254   2.0000      -0.398154       -10.8343
 255   2.0000      -0.397529       -10.8173
 256   2.0000      -0.388672       -10.5763
 257   2.0000      -0.386751       -10.5240
 258   2.0000      -0.366511        -9.9733
 259   2.0000      -0.363723        -9.8974
 260   2.0000      -0.356300        -9.6954
 261   2.0000      -0.353204        -9.6112
 262   2.0000      -0.347581        -9.4582
 263   2.0000      -0.328156        -8.9296
 264   2.0000      -0.322600        -8.7784
 265   2.0000      -0.306625        -8.3437
 266   2.0000      -0.265188        -7.2161
 267   0.0000      -0.036404        -0.9906
 268   0.0000      -0.031699        -0.8626
 269   0.0000       0.006114         0.1664
 270   0.0000       0.008357         0.2274
 271   0.0000       0.029140         0.7930

MULLIKEN ATOMIC CHARGES
-----------------------
   0 C :    0.478607
   1 O :   -0.350857
   2 C :   -0.164836
   3 C :   -0.026770
   4 C :    0.342261
   5 F :   -0.311722
   6 C :    0.354096
   7 F :   -0.309468
   8 C :   -0.055690
   9 C :   -0.045703
  10 C :    0.234155
  11 C :   -0.350556
  12 C :    0.043981
  13 N :   -0.060905
  14 C :    0.034746
  15 N :   -0.066049
  16 C :   -0.340222
  17 C :    0.148664
  18 C :   -0.207229
  19 S :    0.179837
  20 C :    0.006547
  21 C :   -0.117489
  22 C :   -0.053562
  23 C :    0.005355
  24 C :   -0.011970
  25 S :    0.236102
  26 C :    0.015033
  27 C :    0.117123
  28 N :   -0.552039
  29 C :    0.113382
  30 C :   -0.035857
  31 C :    0.199908
  32 C :   -0.214613
  33 C :    0.095627
  34 N :   -0.165111
  35 N :   -0.229690
  36 C :    0.181159
  37 C :   -0.047233
  38 N :   -0.156695
  39 C :    0.135765
  40 C :   -0.479017
  41 C :    0.283458
  42 N :   -0.437582
  43 C :    0.128032
  44 C :   -0.033304
  45 C :    0.179769
  46 C :    0.110971
  47 S :    0.054546
  48 C :   -0.020166
  49 C :   -0.094423
  50 S :   -0.086927
  51 C :   -0.089083
  52 C :   -0.149636
  53 C :    0.044609
  54 C :   -0.015460
  55 C :    0.120630
  56 C :   -0.279036
  57 C :    0.263867
  58 C :   -0.345115
  59 C :    0.028887
  60 N :   -0.052058
  61 C :    0.028511
  62 N :   -0.040761
  63 C :   -0.027998
  64 C :   -0.055527
  65 C :    0.354375
  66 F :   -0.312479
  67 C :    0.339515
  68 F :   -0.319586
  69 C :    0.000713
  70 C :   -0.129214
  71 C :    0.478559
  72 O :   -0.330285
  73 H :    0.080754
  74 H :    0.091254
  75 H :    0.082778
  76 H :    0.054226
  77 H :    0.058150
  78 H :    0.052055
  79 H :    0.047374
  80 H :    0.048944
  81 H :    0.064597
  82 H :    0.058018
  83 H :    0.041977
  84 H :    0.060232
  85 H :    0.054248
  86 H :    0.059320
  87 H :    0.071366
  88 H :    0.049187
  89 H :    0.047953
  90 H :    0.038153
  91 H :    0.049324
  92 H :    0.066603
  93 H :    0.046188
  94 H :    0.046575
  95 H :    0.064521
  96 H :    0.056301
  97 H :    0.056252
  98 H :    0.044405
  99 H :    0.035908
 100 H :    0.015600
 101 H :    0.111836
 102 H :    0.095168
 103 H :    0.083870
Sum of atomic charges:   -0.0000000

LOEWDIN ATOMIC CHARGES
----------------------
   0 C :    0.165743
   1 O :   -0.230942
   2 C :   -0.054422
   3 C :    0.012705
   4 C :    0.121739
   5 F :   -0.110223
   6 C :    0.126646
   7 F :   -0.108639
   8 C :   -0.007048
   9 C :   -0.019924
  10 C :    0.102476
  11 C :   -0.176440
  12 C :   -0.002921
  13 N :   -0.093226
  14 C :    0.010012
  15 N :   -0.092792
  16 C :   -0.163550
  17 C :    0.114955
  18 C :   -0.215496
  19 S :    0.426977
  20 C :   -0.162443
  21 C :   -0.202368
  22 C :    0.024963
  23 C :   -0.012159
  24 C :   -0.015516
  25 S :    0.407902
  26 C :   -0.167607
  27 C :   -0.016399
  28 N :   -0.003544
  29 C :    0.074413
  30 C :   -0.035612
  31 C :    0.005987
  32 C :   -0.062246
  33 C :   -0.050142
  34 N :   -0.097916
  35 N :    0.106391
  36 C :    0.071862
  37 C :   -0.031773
  38 N :   -0.087557
  39 C :   -0.043700
  40 C :   -0.053549
  41 C :    0.051925
  42 N :    0.050327
  43 C :    0.070236
  44 C :   -0.025783
  45 C :   -0.111023
  46 C :   -0.125938
  47 S :    0.291204
  48 C :   -0.047693
  49 C :   -0.120375
  50 S :    0.069114
  51 C :   -0.089638
  52 C :   -0.069225
  53 C :   -0.001257
  54 C :   -0.027470
  55 C :    0.063501
  56 C :   -0.102653
  57 C :    0.110223
  58 C :   -0.144848
  59 C :    0.012086
  60 N :   -0.077782
  61 C :    0.007638
  62 N :   -0.069512
  63 C :   -0.025476
  64 C :   -0.002222
  65 C :    0.121960
  66 F :   -0.110739
  67 C :    0.124945
  68 F :   -0.107964
  69 C :    0.021917
  70 C :   -0.044561
  71 C :    0.146686
  72 O :   -0.199704
  73 H :    0.056630
  74 H :    0.053645
  75 H :    0.054201
  76 H :    0.025625
  77 H :    0.029531
  78 H :    0.026195
  79 H :    0.021991
  80 H :    0.021707
  81 H :    0.023268
  82 H :    0.020257
  83 H :    0.019966
  84 H :    0.024790
  85 H :    0.028200
  86 H :    0.028242
  87 H :    0.028818
  88 H :    0.022865
  89 H :    0.026002
  90 H :    0.018443
  91 H :    0.018520
  92 H :    0.028910
  93 H :    0.020849
  94 H :    0.024774
  95 H :    0.029410
  96 H :    0.022996
  97 H :    0.026409
  98 H :    0.014960
  99 H :    0.017144
 100 H :    0.005856
 101 H :    0.054002
 102 H :    0.054341
 103 H :    0.058934

  Mayer bond orders larger than 0.100000
B(  0-C ,  1-O ) :   2.1011 B(  0-C ,  2-C ) :   0.9467 B(  0-C , 16-C ) :   1.0010
B(  2-C ,  3-C ) :   1.3904 B(  2-C ,  9-C ) :   1.3631 B(  3-C ,  4-C ) :   1.3820
B(  3-C , 73-H ) :   1.0128 B(  4-C ,  5-F ) :   0.9357 B(  4-C ,  6-C ) :   1.3399
B(  6-C ,  7-F ) :   0.9419 B(  6-C ,  8-C ) :   1.4009 B(  8-C ,  9-C ) :   1.3835
B(  8-C , 74-H ) :   0.9937 B(  9-C , 10-C ) :   1.0451 B( 10-C , 11-C ) :   1.6900
B( 10-C , 16-C ) :   1.0813 B( 11-C , 12-C ) :   1.0730 B( 11-C , 14-C ) :   1.0560
B( 12-C , 13-N ) :   3.0023 B( 14-C , 15-N ) :   2.9958 B( 16-C , 17-C ) :   1.6663
B( 17-C , 18-C ) :   1.2299 B( 17-C , 75-H ) :   0.9568 B( 18-C , 19-S ) :   1.0467
B( 18-C , 22-C ) :   1.5070 B( 19-S , 20-C ) :   1.0313 B( 20-C , 21-C ) :   1.5042
B( 20-C , 27-C ) :   1.3673 B( 21-C , 22-C ) :   1.4493 B( 21-C , 25-S ) :   0.9918
B( 22-C , 23-C ) :   0.9881 B( 23-C , 24-C ) :   1.0377 B( 23-C , 76-H ) :   0.9668
B( 23-C , 77-H ) :   0.9584 B( 24-C , 78-H ) :   0.9808 B( 24-C , 79-H ) :   0.9863
B( 24-C , 80-H ) :   0.9839 B( 25-S , 26-C ) :   0.9737 B( 26-C , 27-C ) :   1.4213
B( 26-C , 32-C ) :   1.4890 B( 27-C , 28-N ) :   1.1213 B( 28-N , 29-C ) :   0.8512
B( 28-N , 31-C ) :   1.1073 B( 29-C , 30-C ) :   1.0337 B( 29-C , 81-H ) :   0.9785
B( 29-C , 82-H ) :   0.9808 B( 30-C , 83-H ) :   0.9811 B( 30-C , 84-H ) :   0.9780
B( 30-C , 85-H ) :   0.9837 B( 31-C , 32-C ) :   1.4666 B( 31-C , 41-C ) :   1.1550
B( 32-C , 33-C ) :   1.0553 B( 33-C , 34-N ) :   1.5670 B( 33-C , 39-C ) :   1.3231
B( 34-N , 35-N ) :   1.2058 B( 34-N , 38-N ) :   0.1092 B( 35-N , 36-C ) :   0.8279
B( 35-N , 38-N ) :   1.2061 B( 36-C , 37-C ) :   1.0487 B( 36-C , 86-H ) :   0.9739
B( 36-C , 87-H ) :   0.9716 B( 37-C , 88-H ) :   0.9821 B( 37-C , 89-H ) :   0.9856
B( 37-C , 90-H ) :   0.9818 B( 38-N , 39-C ) :   1.5912 B( 39-C , 40-C ) :   0.9765
B( 40-C , 41-C ) :   1.0135 B( 40-C , 45-C ) :   0.9697 B( 40-C , 46-C ) :   1.0418
B( 41-C , 42-N ) :   1.3616 B( 42-N , 43-C ) :   0.8338 B( 42-N , 45-C ) :   1.0213
B( 43-C , 44-C ) :   1.0440 B( 43-C , 91-H ) :   0.9777 B( 43-C , 92-H ) :   0.9692
B( 44-C , 93-H ) :   0.9807 B( 44-C , 94-H ) :   0.9842 B( 44-C , 95-H ) :   0.9791
B( 45-C , 49-C ) :   1.0397 B( 46-C , 47-S ) :   0.8547 B( 46-C , 49-C ) :   1.7628
B( 47-S , 48-C ) :   0.9742 B( 48-C , 49-C ) :   1.1494 B( 48-C , 52-C ) :   1.8429
B( 50-S , 51-C ) :   1.7696 B( 51-C , 52-C ) :   1.0700 B( 51-C , 55-C ) :   1.0470
B( 52-C , 53-C ) :   0.9988 B( 53-C , 54-C ) :   1.0384 B( 53-C , 96-H ) :   0.9515
B( 53-C , 97-H ) :   0.9688 B( 54-C , 98-H ) :   0.9798 B( 54-C , 99-H ) :   0.9877
B( 54-C ,100-H ) :   0.9823 B( 55-C , 56-C ) :   1.8108 B( 55-C ,101-H ) :   0.9476
B( 56-C , 57-C ) :   1.0352 B( 56-C , 71-C ) :   0.9397 B( 57-C , 58-C ) :   1.7429
B( 57-C , 63-C ) :   1.0541 B( 58-C , 59-C ) :   1.0559 B( 58-C , 61-C ) :   1.0625
B( 59-C , 60-N ) :   2.9920 B( 61-C , 62-N ) :   2.9896 B( 63-C , 64-C ) :   1.3603
B( 63-C , 70-C ) :   1.3624 B( 64-C , 65-C ) :   1.4190 B( 64-C ,102-H ) :   0.9910
B( 65-C , 66-F ) :   0.9398 B( 65-C , 67-C ) :   1.3356 B( 67-C , 68-F ) :   0.9044
B( 67-C , 69-C ) :   1.3885 B( 69-C , 70-C ) :   1.3866 B( 69-C ,103-H ) :   1.0096
B( 70-C , 71-C ) :   0.9569 B( 71-C , 72-O ) :   2.1070

-----------------------------------------------------------------------------
         ABSORPTION SPECTRUM VIA TRANSITION ELECTRIC DIPOLE MOMENTS
-----------------------------------------------------------------------------
State   Energy    Wavelength  fosc         T2        TX        TY        TZ
        (cm-1)      (nm)                 (au**2)    (au)      (au)      (au)
-----------------------------------------------------------------------------
   1   20001.3    500.0   0.006994129   0.11512   0.21539   0.25976  -0.03541
   2   21191.1    471.9   1.326472654  20.60729   3.57138  -2.18891   1.74962
   3   27531.2    363.2   0.215468597   2.57652   0.91798   1.28704  -0.27813

FINAL SINGLE POINT ENERGY     -4687.081232852500

DIPOLE MOMENT
-------------
                                X             Y             Z
Electronic contribution:     -8.25002     -17.45314     -28.65716
Nuclear contribution   :      8.04970      19.04710      28.89578
                        -----------------------------------------
Total Dipole Moment    :     -0.20032       1.59396       0.23862
                        -----------------------------------------
Magnitude (a.u.)       :      1.62412
Magnitude (Debye)      :      4.12818

Rotational constants in cm-1:     0.001577     0.000361     0.000329
Rotational constants in MHz :    47.277269    10.809043     9.864132

                             ****ORCA TERMINATED NORMALLY****
TOTAL RUN TIME: 0 days 16 hours 10 minutes 40 seconds 991 msec
