                         Program Version 4.2.0 -  RELEASE  -
|  1> # ORCA input file
|  2> # Y11.out: Geometry 74
|  3> ! Engrad Keepdens
|  4> %maxcore 1000
|  5> %tddft
|  6>   nroots 3
|  7>   # nroots is the number of states to be computed
|  8>   Iroot 1
|  9>   end
| 10> * xyz 0 1
| 11>    C        3.83367         3.78411        -2.44660
| 12>    O        5.05103         3.70769        -2.47477
| 13>    C        3.02145         4.76311        -3.20704
| 14>    C        3.47746         5.74116        -4.08335
| 15>    C        2.53053         6.57577        -4.66414
| 16>    F        2.89955         7.52839        -5.51748
| 17>    C        1.16765         6.42851        -4.34788
| 18>    F        0.29672         7.27046        -4.89621
| 19>    C        0.71334         5.43633        -3.48161
| 20>    C        1.65960         4.58138        -2.90264
| 21>    C        1.52954         3.44249        -1.95541
| 22>    C        0.32633         2.98658        -1.43793
| 23>    C        0.21811         1.90260        -0.51155
| 24>    N        0.10529         1.02365         0.24211
| 25>    C       -0.93387         3.57122        -1.77645
| 26>    N       -1.96796         4.03376        -2.03750
| 27>    C        2.87928         2.94668        -1.68211
| 28>    C        3.20450         1.86625        -0.87770
| 29>    C        4.42023         1.30630        -0.42942
| 30>    S        6.04743         1.95013        -0.76180
| 31>    C        6.74205         0.75796         0.27404
| 32>    C        5.77997        -0.11170         0.82967
| 33>    C        4.46335         0.17033         0.43067
| 34>    C        3.27876        -0.64518         0.87374
| 35>    C        2.85631        -0.38251         2.32700
| 36>    S        6.49477        -1.34876         1.87978
| 37>    C        8.08523        -0.69655         1.53543
| 38>    C        8.04423         0.41572         0.68514
| 39>    N        9.32083         0.86764         0.41145
| 40>    C        9.50405         1.62430        -0.82895
| 41>    C        9.51259         0.74356        -2.07261
| 42>    C       10.21656         0.03181         1.09782
| 43>    C        9.44757        -0.95909         1.80527
| 44>    C       10.11560        -1.97261         2.55273
| 45>    N        9.64147        -2.98331         3.29779
| 46>    N       10.74164        -3.58460         3.73448
| 47>    C       10.68058        -4.78912         4.55013
| 48>    C       10.64728        -6.05834         3.70725
| 49>    N       11.90091        -3.07733         3.33203
| 50>    C       11.53510        -2.03261         2.57394
| 51>    C       12.31032        -1.04132         1.90613
| 52>    C       11.65046         0.02840         1.20400
| 53>    N       12.63929         0.89834         0.72975
| 54>    C       12.55641         2.24861         0.18492
| 55>    C       12.78793         2.30771        -1.32361
| 56>    C       13.86816         0.37313         1.07213
| 57>    C       13.69957        -0.81637         1.79369
| 58>    S       15.21306        -1.57374         2.22013
| 59>    C       16.09800        -0.26963         1.39984
| 60>    C       15.22026         0.69668         0.85107
| 61>    S       16.07394         1.92242        -0.00409
| 62>    C       17.63129         1.14129         0.35753
| 63>    C       17.46773        -0.04014         1.12656
| 64>    C       18.60040        -0.96000         1.47140
| 65>    C       18.23243        -2.41750         1.74344
| 66>    C       18.72137         1.67863        -0.36837
| 67>    C       20.09512         1.60076        -0.21708
| 68>    C       21.05919         1.95508        -1.26011
| 69>    C       20.79916         2.18769        -2.60060
| 70>    C       21.81462         2.56467        -3.53440
| 71>    N       22.61601         2.88081        -4.31473
| 72>    C       19.50663         2.05894        -3.20216
| 73>    N       18.48104         1.96038        -3.74154
| 74>    C       22.40502         1.95968        -0.64239
| 75>    C       23.67778         2.19219        -1.18061
| 76>    C       24.77584         2.10126        -0.33066
| 77>    F       26.00109         2.31793        -0.80330
| 78>    C       24.63136         1.77951         1.03085
| 79>    F       25.72536         1.69147         1.78242
| 80>    C       23.37062         1.55336         1.57483
| 81>    C       22.27610         1.63602         0.72173
| 82>    C       20.84211         1.40721         1.05730
| 83>    O       20.40254         1.19927         2.17401
| 84>    H        4.53782         5.85571        -4.31440
| 85>    H       -0.35549         5.37707        -3.28724
| 86>    H        2.35537         1.32359        -0.47122
| 87>    H        3.55566        -1.70781         0.75953
| 88>    H        2.41685        -0.48187         0.21392
| 89>    H        3.68803        -0.56239         3.02567
| 90>    H        2.02452        -1.04564         2.60564
| 91>    H        2.51174         0.65472         2.45378
| 92>    H       10.41139         2.21859        -0.77046
| 93>    H        8.68056         2.35103        -0.87941
| 94>    H       10.33652         0.01412        -2.03548
| 95>    H        9.63780         1.36673        -2.97154
| 96>    H        8.56724         0.18992        -2.17174
| 97>    H        9.77948        -4.69585         5.17186
| 98>    H       11.56380        -4.76404         5.20351
| 99>    H        9.76530        -6.06403         3.04931
|100>    H       10.59999        -6.94085         4.36336
|101>    H       11.55064        -6.13359         3.08356
|102>    H       13.32196         2.84924         0.70053
|103>    H       11.59785         2.68569         0.48907
|104>    H       13.79531         1.94833        -1.57803
|105>    H       12.69682         3.34340        -1.68488
|106>    H       12.07312         1.68416        -1.87468
|107>    H       19.13153        -0.52427         2.33348
|108>    H       19.33687        -0.90320         0.65147
|109>    H       17.62295        -2.52613         2.65389
|110>    H       19.14694        -3.00742         1.90369
|111>    H       17.67802        -2.86962         0.90649
|112>    H       18.39040         2.25222        -1.23745
|113>    H       23.85448         2.45168        -2.22242
|114>    H       23.25291         1.30092         2.62990
|115> *
|116>
|117>                          ****END OF INPUT****

CARTESIAN COORDINATES (ANGSTROEM)
---------------------------------
  C      3.833670    3.784110   -2.446600
  O      5.051030    3.707690   -2.474770
  C      3.021450    4.763110   -3.207040
  C      3.477460    5.741160   -4.083350
  C      2.530530    6.575770   -4.664140
  F      2.899550    7.528390   -5.517480
  C      1.167650    6.428510   -4.347880
  F      0.296720    7.270460   -4.896210
  C      0.713340    5.436330   -3.481610
  C      1.659600    4.581380   -2.902640
  C      1.529540    3.442490   -1.955410
  C      0.326330    2.986580   -1.437930
  C      0.218110    1.902600   -0.511550
  N      0.105290    1.023650    0.242110
  C     -0.933870    3.571220   -1.776450
  N     -1.967960    4.033760   -2.037500
  C      2.879280    2.946680   -1.682110
  C      3.204500    1.866250   -0.877700
  C      4.420230    1.306300   -0.429420
  S      6.047430    1.950130   -0.761800
  C      6.742050    0.757960    0.274040
  C      5.779970   -0.111700    0.829670
  C      4.463350    0.170330    0.430670
  C      3.278760   -0.645180    0.873740
  C      2.856310   -0.382510    2.327000
  S      6.494770   -1.348760    1.879780
  C      8.085230   -0.696550    1.535430
  C      8.044230    0.415720    0.685140
  N      9.320830    0.867640    0.411450
  C      9.504050    1.624300   -0.828950
  C      9.512590    0.743560   -2.072610
  C     10.216560    0.031810    1.097820
  C      9.447570   -0.959090    1.805270
  C     10.115600   -1.972610    2.552730
  N      9.641470   -2.983310    3.297790
  N     10.741640   -3.584600    3.734480
  C     10.680580   -4.789120    4.550130
  C     10.647280   -6.058340    3.707250
  N     11.900910   -3.077330    3.332030
  C     11.535100   -2.032610    2.573940
  C     12.310320   -1.041320    1.906130
  C     11.650460    0.028400    1.204000
  N     12.639290    0.898340    0.729750
  C     12.556410    2.248610    0.184920
  C     12.787930    2.307710   -1.323610
  C     13.868160    0.373130    1.072130
  C     13.699570   -0.816370    1.793690
  S     15.213060   -1.573740    2.220130
  C     16.098000   -0.269630    1.399840
  C     15.220260    0.696680    0.851070
  S     16.073940    1.922420   -0.004090
  C     17.631290    1.141290    0.357530
  C     17.467730   -0.040140    1.126560
  C     18.600400   -0.960000    1.471400
  C     18.232430   -2.417500    1.743440
  C     18.721370    1.678630   -0.368370
  C     20.095120    1.600760   -0.217080
  C     21.059190    1.955080   -1.260110
  C     20.799160    2.187690   -2.600600
  C     21.814620    2.564670   -3.534400
  N     22.616010    2.880810   -4.314730
  C     19.506630    2.058940   -3.202160
  N     18.481040    1.960380   -3.741540
  C     22.405020    1.959680   -0.642390
  C     23.677780    2.192190   -1.180610
  C     24.775840    2.101260   -0.330660
  F     26.001090    2.317930   -0.803300
  C     24.631360    1.779510    1.030850
  F     25.725360    1.691470    1.782420
  C     23.370620    1.553360    1.574830
  C     22.276100    1.636020    0.721730
  C     20.842110    1.407210    1.057300
  O     20.402540    1.199270    2.174010
  H      4.537820    5.855710   -4.314400
  H     -0.355490    5.377070   -3.287240
  H      2.355370    1.323590   -0.471220
  H      3.555660   -1.707810    0.759530
  H      2.416850   -0.481870    0.213920
  H      3.688030   -0.562390    3.025670
  H      2.024520   -1.045640    2.605640
  H      2.511740    0.654720    2.453780
  H     10.411390    2.218590   -0.770460
  H      8.680560    2.351030   -0.879410
  H     10.336520    0.014120   -2.035480
  H      9.637800    1.366730   -2.971540
  H      8.567240    0.189920   -2.171740
  H      9.779480   -4.695850    5.171860
  H     11.563800   -4.764040    5.203510
  H      9.765300   -6.064030    3.049310
  H     10.599990   -6.940850    4.363360
  H     11.550640   -6.133590    3.083560
  H     13.321960    2.849240    0.700530
  H     11.597850    2.685690    0.489070
  H     13.795310    1.948330   -1.578030
  H     12.696820    3.343400   -1.684880
  H     12.073120    1.684160   -1.874680
  H     19.131530   -0.524270    2.333480
  H     19.336870   -0.903200    0.651470
  H     17.622950   -2.526130    2.653890
  H     19.146940   -3.007420    1.903690
  H     17.678020   -2.869620    0.906490
  H     18.390400    2.252220   -1.237450
  H     23.854480    2.451680   -2.222420
  H     23.252910    1.300920    2.629900

 Total Charge           Charge          ....    0
 Multiplicity           Mult            ....    1
 Number of Electrons    NEL             ....  534
 Basis Dimension        Dim             .... 1193

ORBITAL ENERGIES
----------------

  NO   OCC          E(Eh)            E(eV)
   0   2.0000     -91.986908     -2503.0910
   1   2.0000     -91.981256     -2502.9372
   2   2.0000     -91.979620     -2502.8927
   3   2.0000     -91.979390     -2502.8864
   4   2.0000     -26.338198      -716.6988
   5   2.0000     -26.338176      -716.6982
   6   2.0000     -26.335216      -716.6177
   7   2.0000     -26.334902      -716.6091
   8   2.0000     -20.571170      -559.7700
   9   2.0000     -20.570261      -559.7452
  10   2.0000     -15.705627      -427.3718
  11   2.0000     -15.654102      -425.9698
  12   2.0000     -15.649286      -425.8387
  13   2.0000     -15.626248      -425.2118
  14   2.0000     -15.625355      -425.1875
  15   2.0000     -15.601846      -424.5478
  16   2.0000     -15.597977      -424.4425
  17   2.0000     -15.595372      -424.3716
  18   2.0000     -15.594306      -424.3426
  19   2.0000     -11.380323      -309.6743
  20   2.0000     -11.379835      -309.6611
  21   2.0000     -11.378038      -309.6122
  22   2.0000     -11.377891      -309.6082
  23   2.0000     -11.371976      -309.4472
  24   2.0000     -11.370442      -309.4054
  25   2.0000     -11.352531      -308.9181
  26   2.0000     -11.350291      -308.8571
  27   2.0000     -11.334847      -308.4369
  28   2.0000     -11.333040      -308.3877
  29   2.0000     -11.329646      -308.2953
  30   2.0000     -11.329346      -308.2872
  31   2.0000     -11.327652      -308.2411
  32   2.0000     -11.325951      -308.1948
  33   2.0000     -11.325121      -308.1722
  34   2.0000     -11.318808      -308.0004
  35   2.0000     -11.316943      -307.9497
  36   2.0000     -11.316671      -307.9423
  37   2.0000     -11.315699      -307.9158
  38   2.0000     -11.313330      -307.8514
  39   2.0000     -11.312397      -307.8260
  40   2.0000     -11.310612      -307.7774
  41   2.0000     -11.310317      -307.7694
  42   2.0000     -11.309560      -307.7488
  43   2.0000     -11.308659      -307.7243
  44   2.0000     -11.308083      -307.7086
  45   2.0000     -11.307819      -307.7014
  46   2.0000     -11.307393      -307.6898
  47   2.0000     -11.305146      -307.6287
  48   2.0000     -11.304371      -307.6076
  49   2.0000     -11.303619      -307.5871
  50   2.0000     -11.301704      -307.5350
  51   2.0000     -11.299742      -307.4816
  52   2.0000     -11.298518      -307.4483
  53   2.0000     -11.298446      -307.4463
  54   2.0000     -11.298189      -307.4393
  55   2.0000     -11.297948      -307.4328
  56   2.0000     -11.297924      -307.4321
  57   2.0000     -11.297036      -307.4080
  58   2.0000     -11.292753      -307.2914
  59   2.0000     -11.291108      -307.2467
  60   2.0000     -11.290315      -307.2251
  61   2.0000     -11.289282      -307.1970
  62   2.0000     -11.284828      -307.0758
  63   2.0000     -11.283019      -307.0266
  64   2.0000     -11.282449      -307.0110
  65   2.0000     -11.279650      -306.9349
  66   2.0000     -11.267192      -306.5959
  67   2.0000     -11.262351      -306.4642
  68   2.0000     -11.258776      -306.3669
  69   2.0000     -11.257529      -306.3329
  70   2.0000     -11.250426      -306.1397
  71   2.0000     -11.246172      -306.0239
  72   2.0000     -11.245399      -306.0029
  73   2.0000      -9.021898      -245.4983
  74   2.0000      -9.014619      -245.3002
  75   2.0000      -9.013006      -245.2564
  76   2.0000      -9.012873      -245.2527
  77   2.0000      -6.709504      -182.5749
  78   2.0000      -6.708342      -182.5433
  79   2.0000      -6.706330      -182.4885
  80   2.0000      -6.701865      -182.3670
  81   2.0000      -6.700654      -182.3341
  82   2.0000      -6.700491      -182.3296
  83   2.0000      -6.700417      -182.3276
  84   2.0000      -6.699651      -182.3068
  85   2.0000      -6.699609      -182.3056
  86   2.0000      -6.698652      -182.2796
  87   2.0000      -6.697307      -182.2430
  88   2.0000      -6.697258      -182.2417
  89   2.0000      -1.650335       -44.9079
  90   2.0000      -1.650018       -44.8993
  91   2.0000      -1.634468       -44.4761
  92   2.0000      -1.634256       -44.4704
  93   2.0000      -1.459627       -39.7185
  94   2.0000      -1.399938       -38.0943
  95   2.0000      -1.398246       -38.0482
  96   2.0000      -1.346084       -36.6288
  97   2.0000      -1.331417       -36.2297
  98   2.0000      -1.247552       -33.9476
  99   2.0000      -1.246392       -33.9160
 100   2.0000      -1.229042       -33.4439
 101   2.0000      -1.228209       -33.4213
 102   2.0000      -1.225717       -33.3535
 103   2.0000      -1.225166       -33.3385
 104   2.0000      -1.221646       -33.2427
 105   2.0000      -1.221528       -33.2395
 106   2.0000      -1.203838       -32.7581
 107   2.0000      -1.186448       -32.2849
 108   2.0000      -1.170096       -31.8399
 109   2.0000      -1.168971       -31.8093
 110   2.0000      -1.153038       -31.3758
 111   2.0000      -1.150308       -31.3015
 112   2.0000      -1.125521       -30.6270
 113   2.0000      -1.107541       -30.1377
 114   2.0000      -1.097733       -29.8708
 115   2.0000      -1.094838       -29.7921
 116   2.0000      -1.088656       -29.6238
 117   2.0000      -1.085217       -29.5302
 118   2.0000      -1.077230       -29.3129
 119   2.0000      -1.068910       -29.0865
 120   2.0000      -1.068146       -29.0657
 121   2.0000      -1.064757       -28.9735
 122   2.0000      -1.059548       -28.8318
 123   2.0000      -1.030998       -28.0549
 124   2.0000      -1.029872       -28.0242
 125   2.0000      -1.011345       -27.5201
 126   2.0000      -1.009465       -27.4689
 127   2.0000      -1.001649       -27.2562
 128   2.0000      -0.992670       -27.0119
 129   2.0000      -0.973144       -26.4806
 130   2.0000      -0.962766       -26.1982
 131   2.0000      -0.956133       -26.0177
 132   2.0000      -0.939218       -25.5574
 133   2.0000      -0.938116       -25.5274
 134   2.0000      -0.933935       -25.4137
 135   2.0000      -0.928051       -25.2536
 136   2.0000      -0.909453       -24.7475
 137   2.0000      -0.904355       -24.6088
 138   2.0000      -0.890214       -24.2239
 139   2.0000      -0.882384       -24.0109
 140   2.0000      -0.874672       -23.8010
 141   2.0000      -0.864120       -23.5139
 142   2.0000      -0.860337       -23.4109
 143   2.0000      -0.858383       -23.3578
 144   2.0000      -0.851890       -23.1811
 145   2.0000      -0.849753       -23.1229
 146   2.0000      -0.836460       -22.7612
 147   2.0000      -0.830700       -22.6045
 148   2.0000      -0.811205       -22.0740
 149   2.0000      -0.804424       -21.8895
 150   2.0000      -0.800700       -21.7882
 151   2.0000      -0.795000       -21.6330
 152   2.0000      -0.786434       -21.4000
 153   2.0000      -0.786014       -21.3885
 154   2.0000      -0.781819       -21.2744
 155   2.0000      -0.778356       -21.1801
 156   2.0000      -0.776370       -21.1261
 157   2.0000      -0.769196       -20.9309
 158   2.0000      -0.755774       -20.5656
 159   2.0000      -0.751264       -20.4429
 160   2.0000      -0.750048       -20.4098
 161   2.0000      -0.744977       -20.2719
 162   2.0000      -0.744743       -20.2655
 163   2.0000      -0.740195       -20.1417
 164   2.0000      -0.732681       -19.9373
 165   2.0000      -0.725372       -19.7384
 166   2.0000      -0.724989       -19.7280
 167   2.0000      -0.718744       -19.5580
 168   2.0000      -0.716734       -19.5033
 169   2.0000      -0.716670       -19.5016
 170   2.0000      -0.714578       -19.4446
 171   2.0000      -0.704734       -19.1768
 172   2.0000      -0.698287       -19.0013
 173   2.0000      -0.697761       -18.9870
 174   2.0000      -0.691094       -18.8056
 175   2.0000      -0.690363       -18.7857
 176   2.0000      -0.682263       -18.5653
 177   2.0000      -0.673069       -18.3151
 178   2.0000      -0.669911       -18.2292
 179   2.0000      -0.666054       -18.1242
 180   2.0000      -0.663411       -18.0523
 181   2.0000      -0.663221       -18.0472
 182   2.0000      -0.657445       -17.8900
 183   2.0000      -0.654662       -17.8143
 184   2.0000      -0.649914       -17.6851
 185   2.0000      -0.645831       -17.5740
 186   2.0000      -0.641594       -17.4587
 187   2.0000      -0.639685       -17.4067
 188   2.0000      -0.636664       -17.3245
 189   2.0000      -0.633861       -17.2482
 190   2.0000      -0.630787       -17.1646
 191   2.0000      -0.627597       -17.0778
 192   2.0000      -0.625104       -17.0099
 193   2.0000      -0.622975       -16.9520
 194   2.0000      -0.622040       -16.9266
 195   2.0000      -0.621671       -16.9165
 196   2.0000      -0.620109       -16.8740
 197   2.0000      -0.616988       -16.7891
 198   2.0000      -0.612433       -16.6651
 199   2.0000      -0.610213       -16.6047
 200   2.0000      -0.608294       -16.5525
 201   2.0000      -0.601940       -16.3796
 202   2.0000      -0.593718       -16.1559
 203   2.0000      -0.588884       -16.0244
 204   2.0000      -0.586505       -15.9596
 205   2.0000      -0.583133       -15.8678
 206   2.0000      -0.582173       -15.8417
 207   2.0000      -0.580319       -15.7913
 208   2.0000      -0.579575       -15.7710
 209   2.0000      -0.576847       -15.6968
 210   2.0000      -0.574663       -15.6374
 211   2.0000      -0.574239       -15.6258
 212   2.0000      -0.573569       -15.6076
 213   2.0000      -0.570163       -15.5149
 214   2.0000      -0.569372       -15.4934
 215   2.0000      -0.566346       -15.4110
 216   2.0000      -0.562135       -15.2965
 217   2.0000      -0.561786       -15.2870
 218   2.0000      -0.558645       -15.2015
 219   2.0000      -0.556349       -15.1390
 220   2.0000      -0.556140       -15.1333
 221   2.0000      -0.547733       -14.9046
 222   2.0000      -0.545564       -14.8455
 223   2.0000      -0.543833       -14.7984
 224   2.0000      -0.540129       -14.6977
 225   2.0000      -0.538223       -14.6458
 226   2.0000      -0.535276       -14.5656
 227   2.0000      -0.530317       -14.4306
 228   2.0000      -0.525683       -14.3046
 229   2.0000      -0.524044       -14.2600
 230   2.0000      -0.520897       -14.1743
 231   2.0000      -0.517596       -14.0845
 232   2.0000      -0.513602       -13.9758
 233   2.0000      -0.506819       -13.7912
 234   2.0000      -0.504631       -13.7317
 235   2.0000      -0.503117       -13.6905
 236   2.0000      -0.499306       -13.5868
 237   2.0000      -0.499191       -13.5837
 238   2.0000      -0.498160       -13.5556
 239   2.0000      -0.497040       -13.5252
 240   2.0000      -0.492678       -13.4065
 241   2.0000      -0.490542       -13.3483
 242   2.0000      -0.486019       -13.2253
 243   2.0000      -0.484606       -13.1868
 244   2.0000      -0.483290       -13.1510
 245   2.0000      -0.478749       -13.0274
 246   2.0000      -0.477533       -12.9943
 247   2.0000      -0.469888       -12.7863
 248   2.0000      -0.467999       -12.7349
 249   2.0000      -0.458481       -12.4759
 250   2.0000      -0.449533       -12.2324
 251   2.0000      -0.447554       -12.1786
 252   2.0000      -0.443272       -12.0621
 253   2.0000      -0.417323       -11.3559
 254   2.0000      -0.414477       -11.2785
 255   2.0000      -0.394747       -10.7416
 256   2.0000      -0.390728       -10.6322
 257   2.0000      -0.384715       -10.4686
 258   2.0000      -0.382949       -10.4206
 259   2.0000      -0.361496        -9.8368
 260   2.0000      -0.358055        -9.7432
 261   2.0000      -0.355557        -9.6752
 262   2.0000      -0.341717        -9.2986
 263   2.0000      -0.333193        -9.0667
 264   2.0000      -0.311222        -8.4688
 265   2.0000      -0.308086        -8.3834
 266   2.0000      -0.260767        -7.0958
 267   0.0000      -0.035470        -0.9652
 268   0.0000      -0.019297        -0.5251
 269   0.0000       0.009965         0.2712
 270   0.0000       0.015770         0.4291
 271   0.0000       0.046629         1.2689

MULLIKEN ATOMIC CHARGES
-----------------------
   0 C :    0.515262
   1 O :   -0.390038
   2 C :   -0.182013
   3 C :   -0.037231
   4 C :    0.343218
   5 F :   -0.305035
   6 C :    0.343560
   7 F :   -0.302038
   8 C :   -0.056811
   9 C :   -0.026545
  10 C :    0.249552
  11 C :   -0.358515
  12 C :    0.055990
  13 N :   -0.106438
  14 C :    0.043593
  15 N :   -0.087060
  16 C :   -0.319334
  17 C :    0.083709
  18 C :   -0.170123
  19 S :    0.241168
  20 C :   -0.004195
  21 C :   -0.106348
  22 C :   -0.089122
  23 C :   -0.024038
  24 C :   -0.022745
  25 S :    0.232298
  26 C :    0.022415
  27 C :    0.120799
  28 N :   -0.597088
  29 C :    0.121733
  30 C :   -0.052471
  31 C :    0.239079
  32 C :   -0.235018
  33 C :    0.110284
  34 N :   -0.178584
  35 N :   -0.237333
  36 C :    0.189529
  37 C :   -0.067220
  38 N :   -0.180998
  39 C :    0.116232
  40 C :   -0.241446
  41 C :    0.256564
  42 N :   -0.608335
  43 C :    0.101568
  44 C :   -0.054797
  45 C :    0.132686
  46 C :    0.029563
  47 S :    0.220178
  48 C :   -0.152599
  49 C :   -0.007999
  50 S :    0.179423
  51 C :   -0.238081
  52 C :   -0.032356
  53 C :   -0.014789
  54 C :   -0.044758
  55 C :    0.136987
  56 C :   -0.303148
  57 C :    0.231201
  58 C :   -0.345915
  59 C :    0.042268
  60 N :   -0.084633
  61 C :    0.028936
  62 N :   -0.081584
  63 C :   -0.028493
  64 C :   -0.056167
  65 C :    0.344118
  66 F :   -0.302918
  67 C :    0.342757
  68 F :   -0.304139
  69 C :   -0.040364
  70 C :   -0.179331
  71 C :    0.493136
  72 O :   -0.375864
  73 H :    0.086096
  74 H :    0.106430
  75 H :    0.080012
  76 H :    0.064832
  77 H :    0.067937
  78 H :    0.045057
  79 H :    0.059637
  80 H :    0.045955
  81 H :    0.040003
  82 H :    0.072460
  83 H :    0.053251
  84 H :    0.055421
  85 H :    0.061618
  86 H :    0.064950
  87 H :    0.064889
  88 H :    0.055333
  89 H :    0.049364
  90 H :    0.055436
  91 H :    0.066927
  92 H :    0.068466
  93 H :    0.064805
  94 H :    0.055452
  95 H :    0.048430
  96 H :    0.124237
  97 H :    0.056161
  98 H :    0.055920
  99 H :    0.049363
 100 H :    0.051793
 101 H :    0.103169
 102 H :    0.106062
 103 H :    0.086791
Sum of atomic charges:   -0.0000000

LOEWDIN ATOMIC CHARGES
----------------------
   0 C :    0.168967
   1 O :   -0.256436
   2 C :   -0.052877
   3 C :    0.003060
   4 C :    0.120475
   5 F :   -0.103584
   6 C :    0.119623
   7 F :   -0.101973
   8 C :   -0.006533
   9 C :   -0.023335
  10 C :    0.130079
  11 C :   -0.186321
  12 C :    0.025520
  13 N :   -0.110644
  14 C :    0.017688
  15 N :   -0.101524
  16 C :   -0.180066
  17 C :    0.116958
  18 C :   -0.220590
  19 S :    0.451504
  20 C :   -0.159548
  21 C :   -0.209845
  22 C :    0.031127
  23 C :   -0.018241
  24 C :   -0.023080
  25 S :    0.387894
  26 C :   -0.156871
  27 C :   -0.025221
  28 N :   -0.046869
  29 C :    0.073901
  30 C :   -0.041022
  31 C :    0.039708
  32 C :   -0.071411
  33 C :   -0.043537
  34 N :   -0.109064
  35 N :    0.108324
  36 C :    0.075701
  37 C :   -0.038342
  38 N :   -0.111084
  39 C :   -0.040407
  40 C :   -0.077780
  41 C :    0.045585
  42 N :   -0.039949
  43 C :    0.071386
  44 C :   -0.046943
  45 C :   -0.024976
  46 C :   -0.160558
  47 S :    0.407474
  48 C :   -0.203899
  49 C :   -0.160500
  50 S :    0.412861
  51 C :   -0.212969
  52 C :    0.040882
  53 C :   -0.022350
  54 C :   -0.041556
  55 C :    0.110658
  56 C :   -0.171247
  57 C :    0.122830
  58 C :   -0.178157
  59 C :    0.017379
  60 N :   -0.099115
  61 C :    0.012055
  62 N :   -0.100697
  63 C :   -0.026331
  64 C :   -0.006298
  65 C :    0.119146
  66 F :   -0.102889
  67 C :    0.121111
  68 F :   -0.102783
  69 C :    0.000715
  70 C :   -0.051345
  71 C :    0.167576
  72 O :   -0.235592
  73 H :    0.058198
  74 H :    0.057339
  75 H :    0.048266
  76 H :    0.033285
  77 H :    0.029924
  78 H :    0.016579
  79 H :    0.029472
  80 H :    0.023594
  81 H :    0.017713
  82 H :    0.021359
  83 H :    0.022794
  84 H :    0.029440
  85 H :    0.026506
  86 H :    0.031470
  87 H :    0.031486
  88 H :    0.026969
  89 H :    0.027142
  90 H :    0.026969
  91 H :    0.024120
  92 H :    0.024470
  93 H :    0.019978
  94 H :    0.030205
  95 H :    0.022917
  96 H :    0.050388
  97 H :    0.030866
  98 H :    0.013351
  99 H :    0.027531
 100 H :    0.020315
 101 H :    0.046032
 102 H :    0.057317
 103 H :    0.058184

  Mayer bond orders larger than 0.100000
B(  0-C ,  1-O ) :   2.0334 B(  0-C ,  2-C ) :   0.9815 B(  0-C , 16-C ) :   0.9877
B(  2-C ,  3-C ) :   1.3795 B(  2-C ,  9-C ) :   1.3894 B(  3-C ,  4-C ) :   1.3921
B(  3-C , 73-H ) :   1.0066 B(  4-C ,  5-F ) :   0.9414 B(  4-C ,  6-C ) :   1.3251
B(  6-C ,  7-F ) :   0.9478 B(  6-C ,  8-C ) :   1.4211 B(  8-C ,  9-C ) :   1.3643
B(  8-C , 74-H ) :   0.9846 B(  9-C , 10-C ) :   1.0372 B( 10-C , 11-C ) :   1.6517
B( 10-C , 16-C ) :   1.1367 B( 11-C , 12-C ) :   1.0657 B( 11-C , 14-C ) :   1.0579
B( 12-C , 13-N ) :   2.9656 B( 14-C , 15-N ) :   2.9786 B( 16-C , 17-C ) :   1.5638
B( 17-C , 18-C ) :   1.3411 B( 17-C , 75-H ) :   0.9563 B( 18-C , 19-S ) :   1.0265
B( 18-C , 22-C ) :   1.4538 B( 19-S , 20-C ) :   1.0325 B( 20-C , 21-C ) :   1.4697
B( 20-C , 27-C ) :   1.3516 B( 21-C , 22-C ) :   1.4806 B( 21-C , 25-S ) :   0.9862
B( 22-C , 23-C ) :   0.9790 B( 23-C , 24-C ) :   1.0370 B( 23-C , 76-H ) :   0.9652
B( 23-C , 77-H ) :   0.9630 B( 24-C , 78-H ) :   0.9840 B( 24-C , 79-H ) :   0.9854
B( 24-C , 80-H ) :   0.9812 B( 25-S , 26-C ) :   0.9748 B( 26-C , 27-C ) :   1.4720
B( 26-C , 32-C ) :   1.4202 B( 27-C , 28-N ) :   1.0799 B( 28-N , 29-C ) :   0.8613
B( 28-N , 31-C ) :   1.0734 B( 29-C , 30-C ) :   1.0372 B( 29-C , 81-H ) :   0.9838
B( 29-C , 82-H ) :   0.9736 B( 30-C , 83-H ) :   0.9766 B( 30-C , 84-H ) :   0.9818
B( 30-C , 85-H ) :   0.9780 B( 31-C , 32-C ) :   1.4592 B( 31-C , 41-C ) :   1.1844
B( 32-C , 33-C ) :   1.1243 B( 33-C , 34-N ) :   1.5082 B( 33-C , 39-C ) :   1.2652
B( 34-N , 35-N ) :   1.2140 B( 34-N , 38-N ) :   0.1314 B( 35-N , 36-C ) :   0.8199
B( 35-N , 38-N ) :   1.2108 B( 36-C , 37-C ) :   1.0450 B( 36-C , 86-H ) :   0.9738
B( 36-C , 87-H ) :   0.9737 B( 37-C , 88-H ) :   0.9809 B( 37-C , 89-H ) :   0.9841
B( 37-C , 90-H ) :   0.9810 B( 38-N , 39-C ) :   1.5110 B( 39-C , 40-C ) :   1.1268
B( 40-C , 41-C ) :   1.4457 B( 40-C , 46-C ) :   1.4224 B( 41-C , 42-N ) :   1.0833
B( 42-N , 43-C ) :   0.8375 B( 42-N , 45-C ) :   1.0787 B( 43-C , 44-C ) :   1.0310
B( 43-C , 91-H ) :   0.9782 B( 43-C , 92-H ) :   0.9856 B( 44-C , 93-H ) :   0.9759
B( 44-C , 94-H ) :   0.9816 B( 44-C , 95-H ) :   0.9813 B( 45-C , 46-C ) :   1.4623
B( 45-C , 49-C ) :   1.3362 B( 46-C , 47-S ) :   0.9823 B( 47-S , 48-C ) :   1.0004
B( 48-C , 49-C ) :   1.4798 B( 48-C , 52-C ) :   1.4310 B( 49-C , 50-S ) :   1.0634
B( 50-S , 51-C ) :   1.0690 B( 51-C , 52-C ) :   1.4822 B( 51-C , 55-C ) :   1.2557
B( 52-C , 53-C ) :   0.9722 B( 53-C , 54-C ) :   1.0491 B( 53-C , 96-H ) :   0.9296
B( 53-C , 97-H ) :   0.9598 B( 54-C , 98-H ) :   0.9739 B( 54-C , 99-H ) :   0.9825
B( 54-C ,100-H ) :   0.9844 B( 55-C , 56-C ) :   1.6145 B( 55-C ,101-H ) :   0.9412
B( 56-C , 57-C ) :   1.1152 B( 56-C , 71-C ) :   0.9998 B( 57-C , 58-C ) :   1.6704
B( 57-C , 63-C ) :   1.0400 B( 58-C , 59-C ) :   1.0558 B( 58-C , 61-C ) :   1.0599
B( 59-C , 60-N ) :   2.9805 B( 61-C , 62-N ) :   2.9897 B( 63-C , 64-C ) :   1.3602
B( 63-C , 70-C ) :   1.3871 B( 64-C , 65-C ) :   1.4227 B( 64-C ,102-H ) :   0.9842
B( 65-C , 66-F ) :   0.9485 B( 65-C , 67-C ) :   1.3251 B( 67-C , 68-F ) :   0.9418
B( 67-C , 69-C ) :   1.3932 B( 69-C , 70-C ) :   1.3839 B( 69-C ,103-H ) :   1.0064
B( 70-C , 71-C ) :   0.9583 B( 71-C , 72-O ) :   2.0418

-----------------------------------------------------------------------------
         ABSORPTION SPECTRUM VIA TRANSITION ELECTRIC DIPOLE MOMENTS
-----------------------------------------------------------------------------
State   Energy    Wavelength  fosc         T2        TX        TY        TZ
        (cm-1)      (nm)                 (au**2)    (au)      (au)      (au)
-----------------------------------------------------------------------------
   1   21531.7    464.4   2.789239293  42.64638  -6.51008   0.47690  -0.19453
   2   26565.7    376.4   0.869971427  10.78099   0.08983  -2.35667   2.28452
   3   34327.8    291.3   0.069833949   0.66973   0.20756   0.08564   0.78696

FINAL SINGLE POINT ENERGY     -4687.390988628292

DIPOLE MOMENT
-------------
                                X             Y             Z
Electronic contribution:     18.09787      50.57016     -25.64678
Nuclear contribution   :    -17.72723     -53.05106      28.32428
                        -----------------------------------------
Total Dipole Moment    :      0.37064      -2.48090       2.67750
                        -----------------------------------------
Magnitude (a.u.)       :      3.66896
Magnitude (Debye)      :      9.32574

Rotational constants in cm-1:     0.001428     0.000259     0.000223
Rotational constants in MHz :    42.811414     7.765148     6.677639

                             ****ORCA TERMINATED NORMALLY****
TOTAL RUN TIME: 0 days 14 hours 54 minutes 55 seconds 525 msec
