                         Program Version 4.2.0 -  RELEASE  -
|  1> # ORCA input file
|  2> # Y14.out: Geometry 33
|  3> ! Engrad Keepdens
|  4> %maxcore 1000
|  5> %tddft
|  6>   nroots 3
|  7>   # nroots is the number of states to be computed
|  8>   Iroot 1
|  9>   end
| 10> * xyz 0 1
| 11>    C        0.07812        -2.84523        -1.00073
| 12>    O       -0.56363        -3.85769        -1.22758
| 13>    C        1.38276        -2.49451        -1.62240
| 14>    C        2.12213        -3.25056        -2.52124
| 15>    C        3.33128        -2.70508        -2.95162
| 16>    C        3.78017        -1.45624        -2.51274
| 17>    C        3.02096        -0.71008        -1.60707
| 18>    C        1.80550        -1.23773        -1.14603
| 19>    C        0.79889        -0.73226        -0.17850
| 20>    C        0.88930         0.48523         0.48011
| 21>    C        1.94407         1.42115         0.24694
| 22>    N        2.78039         2.20796         0.06610
| 23>    C       -0.06363         0.94412         1.44153
| 24>    N       -0.82014         1.33971         2.23168
| 25>    C       -0.26062        -1.73911        -0.07902
| 26>    C       -1.38018        -1.66747         0.73314
| 27>    C       -2.50063        -2.49819         0.95498
| 28>    S       -2.85244        -4.04066         0.12953
| 29>    C       -4.31234        -4.21328         1.03787
| 30>    C       -4.51208        -3.14573         1.93927
| 31>    C       -3.50999        -2.16532         1.90319
| 32>    C       -3.53199        -0.96437         2.80951
| 33>    C       -3.24191        -1.33473         4.27277
| 34>    S       -5.98352        -3.31577         2.90743
| 35>    C       -6.31432        -4.82657         2.09351
| 36>    C       -5.35061        -5.16393         1.13246
| 37>    N       -5.70635        -6.33791         0.49451
| 38>    C       -5.12083        -6.64501        -0.80831
| 39>    C       -6.04890        -6.43438        -2.01688
| 40>    C       -6.90962        -6.78179         1.06056
| 41>    C       -7.30969        -5.82338         2.05406
| 42>    C       -8.57264        -5.95103         2.69815
| 43>    N       -9.18257        -5.17305         3.60441
| 44>    N      -10.35693        -5.76987         3.77858
| 45>    C      -11.39502        -5.16722         4.60294
| 46>    C      -12.32883        -4.28478         3.78008
| 47>    N      -10.58612        -6.86063         3.05639
| 48>    C       -9.45307        -7.01018         2.35182
| 49>    C       -9.03592        -8.01430         1.42874
| 50>    C       -7.74308        -7.92373         0.80693
| 51>    N       -7.55921        -9.07121         0.02090
| 52>    C       -6.31514        -9.67833        -0.44393
| 53>    C       -5.34338       -10.14282         0.65542
| 54>    C       -8.70172        -9.84201         0.12915
| 55>    C       -9.62419        -9.21681         0.98037
| 56>    S      -11.08889       -10.14113         1.20905
| 57>    C      -10.45181       -11.39272         0.13553
| 58>    C       -9.17647       -11.07402        -0.37506
| 59>    S       -8.64020       -12.26963        -1.49901
| 60>    C      -10.12409       -13.22101        -1.26026
| 61>    C      -10.99934       -12.60571        -0.34343
| 62>    C      -12.39473       -13.05434        -0.00478
| 63>    C      -12.61286       -13.32704         1.49097
| 64>    C      -10.29040       -14.32870        -2.14188
| 65>    C      -11.04420       -15.47960        -2.10681
| 66>    C      -11.71079       -16.23985        -1.06054
| 67>    C      -11.36624       -16.25981         0.27947
| 68>    C      -12.06790       -17.05043         1.23953
| 69>    N      -12.65954       -17.67166         2.02378
| 70>    C      -10.22393       -15.56312         0.77533
| 71>    N       -9.28614       -15.01712         1.19128
| 72>    C      -12.64590       -17.18335        -1.72055
| 73>    C      -13.63219       -18.04202        -1.21557
| 74>    C      -14.32418       -18.87185        -2.10319
| 75>    C      -14.01906       -18.85638        -3.46910
| 76>    C      -13.04406       -18.01100        -3.99912
| 77>    C      -12.38348       -17.17833        -3.10742
| 78>    C      -11.33527       -16.16472        -3.41241
| 79>    O      -10.85264       -15.91878        -4.49821
| 80>    F      -14.68573       -19.67434        -4.28728
| 81>    F        4.09185        -3.39544        -3.80503
| 82>    C       -5.95523       -11.20484         1.59872
| 83>    C       -6.70404       -10.65452         2.81469
| 84>    C       -4.07457       -10.66585        -0.03114
| 85>    C       -6.56152        -4.98295        -2.17040
| 86>    C       -7.78484        -4.59639        -1.33764
| 87>    C       -5.28575        -6.86438        -3.27589
| 88>    H        1.77582        -4.22240        -2.87450
| 89>    H        4.73005        -1.07804        -2.89382
| 90>    H        3.39590         0.25450        -1.27494
| 91>    H       -1.43351        -0.77807         1.35540
| 92>    H       -4.53652        -0.51153         2.74212
| 93>    H       -2.82688        -0.18949         2.48270
| 94>    H       -3.95482        -2.08432         4.64714
| 95>    H       -3.31472        -0.44267         4.91230
| 96>    H       -2.22991        -1.75605         4.37734
| 97>    H       -4.70734        -7.65994        -0.80146
| 98>    H       -4.25085        -5.98459        -0.91942
| 99>    H       -6.92604        -7.09446        -1.89384
|100>    H      -10.87108        -4.58793         5.37480
|101>    H      -11.94014        -5.99057         5.08516
|102>    H      -11.75632        -3.50116         3.26175
|103>    H      -13.06868        -3.80004         4.43534
|104>    H      -12.86518        -4.88364         3.02881
|105>    H       -5.81363        -9.00165        -1.13973
|106>    H       -6.60397       -10.54919        -1.04825
|107>    H       -5.06508        -9.25845         1.25649
|108>    H      -12.66080       -13.93707        -0.59730
|109>    H      -13.08483       -12.25303        -0.32506
|110>    H      -13.63667       -13.68796         1.67180
|111>    H      -12.46379       -12.41480         2.08747
|112>    H      -11.91269       -14.07740         1.87690
|113>    H       -9.76520       -14.22493        -3.10205
|114>    H      -13.87988       -18.07433        -0.15577
|115>    H      -15.10394       -19.54690        -1.74606
|116>    H      -12.80578       -18.00598        -5.06417
|117>    H       -5.13865       -11.85036         1.96323
|118>    H       -6.61532       -11.87188         1.01704
|119>    H       -6.02672       -10.07248         3.46087
|120>    H       -7.11875       -11.47659         3.41834
|121>    H       -7.54151        -9.99987         2.54022
|122>    H       -4.29688       -11.54759        -0.65501
|123>    H       -3.32337       -10.96707         0.71372
|124>    H       -3.61404        -9.90425        -0.68187
|125>    H       -6.81968        -4.83970        -3.23371
|126>    H       -5.72912        -4.28445        -1.97232
|127>    H       -8.59622        -5.33225        -1.46461
|128>    H       -8.17352        -3.61891        -1.66401
|129>    H       -7.57092        -4.51891        -0.26381
|130>    H       -4.43519        -6.18920        -3.46322
|131>    H       -5.94011        -6.83055        -4.15947
|132>    H       -4.88373        -7.88753        -3.19336
|133> *
|134>
|135>                          ****END OF INPUT****

CARTESIAN COORDINATES (ANGSTROEM)
---------------------------------
  C      0.078120   -2.845230   -1.000730
  O     -0.563630   -3.857690   -1.227580
  C      1.382760   -2.494510   -1.622400
  C      2.122130   -3.250560   -2.521240
  C      3.331280   -2.705080   -2.951620
  C      3.780170   -1.456240   -2.512740
  C      3.020960   -0.710080   -1.607070
  C      1.805500   -1.237730   -1.146030
  C      0.798890   -0.732260   -0.178500
  C      0.889300    0.485230    0.480110
  C      1.944070    1.421150    0.246940
  N      2.780390    2.207960    0.066100
  C     -0.063630    0.944120    1.441530
  N     -0.820140    1.339710    2.231680
  C     -0.260620   -1.739110   -0.079020
  C     -1.380180   -1.667470    0.733140
  C     -2.500630   -2.498190    0.954980
  S     -2.852440   -4.040660    0.129530
  C     -4.312340   -4.213280    1.037870
  C     -4.512080   -3.145730    1.939270
  C     -3.509990   -2.165320    1.903190
  C     -3.531990   -0.964370    2.809510
  C     -3.241910   -1.334730    4.272770
  S     -5.983520   -3.315770    2.907430
  C     -6.314320   -4.826570    2.093510
  C     -5.350610   -5.163930    1.132460
  N     -5.706350   -6.337910    0.494510
  C     -5.120830   -6.645010   -0.808310
  C     -6.048900   -6.434380   -2.016880
  C     -6.909620   -6.781790    1.060560
  C     -7.309690   -5.823380    2.054060
  C     -8.572640   -5.951030    2.698150
  N     -9.182570   -5.173050    3.604410
  N    -10.356930   -5.769870    3.778580
  C    -11.395020   -5.167220    4.602940
  C    -12.328830   -4.284780    3.780080
  N    -10.586120   -6.860630    3.056390
  C     -9.453070   -7.010180    2.351820
  C     -9.035920   -8.014300    1.428740
  C     -7.743080   -7.923730    0.806930
  N     -7.559210   -9.071210    0.020900
  C     -6.315140   -9.678330   -0.443930
  C     -5.343380  -10.142820    0.655420
  C     -8.701720   -9.842010    0.129150
  C     -9.624190   -9.216810    0.980370
  S    -11.088890  -10.141130    1.209050
  C    -10.451810  -11.392720    0.135530
  C     -9.176470  -11.074020   -0.375060
  S     -8.640200  -12.269630   -1.499010
  C    -10.124090  -13.221010   -1.260260
  C    -10.999340  -12.605710   -0.343430
  C    -12.394730  -13.054340   -0.004780
  C    -12.612860  -13.327040    1.490970
  C    -10.290400  -14.328700   -2.141880
  C    -11.044200  -15.479600   -2.106810
  C    -11.710790  -16.239850   -1.060540
  C    -11.366240  -16.259810    0.279470
  C    -12.067900  -17.050430    1.239530
  N    -12.659540  -17.671660    2.023780
  C    -10.223930  -15.563120    0.775330
  N     -9.286140  -15.017120    1.191280
  C    -12.645900  -17.183350   -1.720550
  C    -13.632190  -18.042020   -1.215570
  C    -14.324180  -18.871850   -2.103190
  C    -14.019060  -18.856380   -3.469100
  C    -13.044060  -18.011000   -3.999120
  C    -12.383480  -17.178330   -3.107420
  C    -11.335270  -16.164720   -3.412410
  O    -10.852640  -15.918780   -4.498210
  F    -14.685730  -19.674340   -4.287280
  F      4.091850   -3.395440   -3.805030
  C     -5.955230  -11.204840    1.598720
  C     -6.704040  -10.654520    2.814690
  C     -4.074570  -10.665850   -0.031140
  C     -6.561520   -4.982950   -2.170400
  C     -7.784840   -4.596390   -1.337640
  C     -5.285750   -6.864380   -3.275890
  H      1.775820   -4.222400   -2.874500
  H      4.730050   -1.078040   -2.893820
  H      3.395900    0.254500   -1.274940
  H     -1.433510   -0.778070    1.355400
  H     -4.536520   -0.511530    2.742120
  H     -2.826880   -0.189490    2.482700
  H     -3.954820   -2.084320    4.647140
  H     -3.314720   -0.442670    4.912300
  H     -2.229910   -1.756050    4.377340
  H     -4.707340   -7.659940   -0.801460
  H     -4.250850   -5.984590   -0.919420
  H     -6.926040   -7.094460   -1.893840
  H    -10.871080   -4.587930    5.374800
  H    -11.940140   -5.990570    5.085160
  H    -11.756320   -3.501160    3.261750
  H    -13.068680   -3.800040    4.435340
  H    -12.865180   -4.883640    3.028810
  H     -5.813630   -9.001650   -1.139730
  H     -6.603970  -10.549190   -1.048250
  H     -5.065080   -9.258450    1.256490
  H    -12.660800  -13.937070   -0.597300
  H    -13.084830  -12.253030   -0.325060
  H    -13.636670  -13.687960    1.671800
  H    -12.463790  -12.414800    2.087470
  H    -11.912690  -14.077400    1.876900
  H     -9.765200  -14.224930   -3.102050
  H    -13.879880  -18.074330   -0.155770
  H    -15.103940  -19.546900   -1.746060
  H    -12.805780  -18.005980   -5.064170
  H     -5.138650  -11.850360    1.963230
  H     -6.615320  -11.871880    1.017040
  H     -6.026720  -10.072480    3.460870
  H     -7.118750  -11.476590    3.418340
  H     -7.541510   -9.999870    2.540220
  H     -4.296880  -11.547590   -0.655010
  H     -3.323370  -10.967070    0.713720
  H     -3.614040   -9.904250   -0.681870
  H     -6.819680   -4.839700   -3.233710
  H     -5.729120   -4.284450   -1.972320
  H     -8.596220   -5.332250   -1.464610
  H     -8.173520   -3.618910   -1.664010
  H     -7.570920   -4.518910   -0.263810
  H     -4.435190   -6.189200   -3.463220
  H     -5.940110   -6.830550   -4.159470
  H     -4.883730   -7.887530   -3.193360

 Total Charge           Charge          ....    0
 Multiplicity           Mult            ....    1
 Number of Electrons    NEL             ....  566
 Basis Dimension        Dim             .... 1319

ORBITAL ENERGIES
----------------

  NO   OCC          E(Eh)            E(eV)
   0   2.0000     -91.981915     -2502.9552
   1   2.0000     -91.976436     -2502.8061
   2   2.0000     -91.973923     -2502.7377
   3   2.0000     -91.973153     -2502.7167
   4   2.0000     -26.329902      -716.4731
   5   2.0000     -26.326754      -716.3874
   6   2.0000     -20.568868      -559.7074
   7   2.0000     -20.565580      -559.6179
   8   2.0000     -15.700415      -427.2300
   9   2.0000     -15.646188      -425.7544
  10   2.0000     -15.646115      -425.7524
  11   2.0000     -15.621410      -425.0802
  12   2.0000     -15.620927      -425.0670
  13   2.0000     -15.596345      -424.3981
  14   2.0000     -15.594978      -424.3609
  15   2.0000     -15.593337      -424.3163
  16   2.0000     -15.587564      -424.1592
  17   2.0000     -11.372999      -309.4750
  18   2.0000     -11.369005      -309.3663
  19   2.0000     -11.367515      -309.3258
  20   2.0000     -11.363686      -309.2216
  21   2.0000     -11.347498      -308.7811
  22   2.0000     -11.344819      -308.7082
  23   2.0000     -11.327026      -308.2240
  24   2.0000     -11.326317      -308.2047
  25   2.0000     -11.325374      -308.1791
  26   2.0000     -11.323997      -308.1416
  27   2.0000     -11.319747      -308.0260
  28   2.0000     -11.318538      -307.9931
  29   2.0000     -11.314444      -307.8817
  30   2.0000     -11.312769      -307.8361
  31   2.0000     -11.309719      -307.7531
  32   2.0000     -11.308317      -307.7149
  33   2.0000     -11.308307      -307.7147
  34   2.0000     -11.306949      -307.6777
  35   2.0000     -11.305838      -307.6475
  36   2.0000     -11.305772      -307.6457
  37   2.0000     -11.303088      -307.5727
  38   2.0000     -11.302929      -307.5683
  39   2.0000     -11.302525      -307.5573
  40   2.0000     -11.301811      -307.5379
  41   2.0000     -11.301534      -307.5304
  42   2.0000     -11.299320      -307.4701
  43   2.0000     -11.299037      -307.4624
  44   2.0000     -11.297995      -307.4341
  45   2.0000     -11.295700      -307.3716
  46   2.0000     -11.295053      -307.3540
  47   2.0000     -11.292663      -307.2890
  48   2.0000     -11.292166      -307.2755
  49   2.0000     -11.290664      -307.2346
  50   2.0000     -11.290372      -307.2267
  51   2.0000     -11.290167      -307.2211
  52   2.0000     -11.289459      -307.2018
  53   2.0000     -11.287711      -307.1542
  54   2.0000     -11.287407      -307.1459
  55   2.0000     -11.285593      -307.0966
  56   2.0000     -11.285209      -307.0862
  57   2.0000     -11.283957      -307.0521
  58   2.0000     -11.283200      -307.0315
  59   2.0000     -11.281570      -306.9871
  60   2.0000     -11.281497      -306.9851
  61   2.0000     -11.277645      -306.8803
  62   2.0000     -11.275037      -306.8094
  63   2.0000     -11.272825      -306.7492
  64   2.0000     -11.266884      -306.5875
  65   2.0000     -11.261130      -306.4309
  66   2.0000     -11.256494      -306.3048
  67   2.0000     -11.253511      -306.2236
  68   2.0000     -11.246924      -306.0444
  69   2.0000     -11.245159      -305.9963
  70   2.0000     -11.244888      -305.9889
  71   2.0000     -11.243839      -305.9604
  72   2.0000     -11.242676      -305.9288
  73   2.0000     -11.240558      -305.8711
  74   2.0000     -11.234652      -305.7104
  75   2.0000     -11.227962      -305.5284
  76   2.0000     -11.222687      -305.3848
  77   2.0000      -9.016385      -245.3483
  78   2.0000      -9.009543      -245.1621
  79   2.0000      -9.007522      -245.1071
  80   2.0000      -9.006807      -245.0877
  81   2.0000      -6.704006      -182.4253
  82   2.0000      -6.702904      -182.3953
  83   2.0000      -6.700859      -182.3396
  84   2.0000      -6.696797      -182.2291
  85   2.0000      -6.695599      -182.1965
  86   2.0000      -6.695090      -182.1827
  87   2.0000      -6.694371      -182.1631
  88   2.0000      -6.694264      -182.1602
  89   2.0000      -6.693606      -182.1423
  90   2.0000      -6.693553      -182.1408
  91   2.0000      -6.691940      -182.0969
  92   2.0000      -6.691208      -182.0770
  93   2.0000      -1.634973       -44.4899
  94   2.0000      -1.631858       -44.4051
  95   2.0000      -1.454437       -39.5772
  96   2.0000      -1.397388       -38.0249
  97   2.0000      -1.393676       -37.9238
  98   2.0000      -1.339018       -36.4365
  99   2.0000      -1.324412       -36.0391
 100   2.0000      -1.243622       -33.8407
 101   2.0000      -1.240409       -33.7532
 102   2.0000      -1.223769       -33.3004
 103   2.0000      -1.220674       -33.2162
 104   2.0000      -1.219663       -33.1887
 105   2.0000      -1.219179       -33.1755
 106   2.0000      -1.218420       -33.1549
 107   2.0000      -1.213656       -33.0252
 108   2.0000      -1.198748       -32.6196
 109   2.0000      -1.181299       -32.1448
 110   2.0000      -1.164004       -31.6742
 111   2.0000      -1.159870       -31.5617
 112   2.0000      -1.147414       -31.2227
 113   2.0000      -1.145080       -31.1592
 114   2.0000      -1.122823       -30.5536
 115   2.0000      -1.109456       -30.1898
 116   2.0000      -1.096438       -29.8356
 117   2.0000      -1.092949       -29.7407
 118   2.0000      -1.090305       -29.6687
 119   2.0000      -1.086394       -29.5623
 120   2.0000      -1.080912       -29.4131
 121   2.0000      -1.077230       -29.3129
 122   2.0000      -1.071144       -29.1473
 123   2.0000      -1.058595       -28.8058
 124   2.0000      -1.053840       -28.6764
 125   2.0000      -1.051009       -28.5994
 126   2.0000      -1.026191       -27.9241
 127   2.0000      -1.022383       -27.8205
 128   2.0000      -1.012376       -27.5481
 129   2.0000      -1.002760       -27.2865
 130   2.0000      -0.997448       -27.1419
 131   2.0000      -0.994237       -27.0546
 132   2.0000      -0.985003       -26.8033
 133   2.0000      -0.970307       -26.4034
 134   2.0000      -0.967522       -26.3276
 135   2.0000      -0.952478       -25.9182
 136   2.0000      -0.943648       -25.6780
 137   2.0000      -0.939376       -25.5617
 138   2.0000      -0.932876       -25.3848
 139   2.0000      -0.929219       -25.2853
 140   2.0000      -0.922697       -25.1079
 141   2.0000      -0.901145       -24.5214
 142   2.0000      -0.888095       -24.1663
 143   2.0000      -0.875994       -23.8370
 144   2.0000      -0.872463       -23.7409
 145   2.0000      -0.868719       -23.6390
 146   2.0000      -0.862002       -23.4563
 147   2.0000      -0.857392       -23.3308
 148   2.0000      -0.854299       -23.2467
 149   2.0000      -0.846714       -23.0403
 150   2.0000      -0.846348       -23.0303
 151   2.0000      -0.834406       -22.7053
 152   2.0000      -0.830755       -22.6060
 153   2.0000      -0.817783       -22.2530
 154   2.0000      -0.811195       -22.0737
 155   2.0000      -0.798623       -21.7316
 156   2.0000      -0.794873       -21.6296
 157   2.0000      -0.792547       -21.5663
 158   2.0000      -0.789279       -21.4774
 159   2.0000      -0.781270       -21.2594
 160   2.0000      -0.776487       -21.1293
 161   2.0000      -0.767493       -20.8846
 162   2.0000      -0.764866       -20.8130
 163   2.0000      -0.762224       -20.7412
 164   2.0000      -0.746180       -20.3046
 165   2.0000      -0.743856       -20.2413
 166   2.0000      -0.738931       -20.1073
 167   2.0000      -0.734826       -19.9956
 168   2.0000      -0.727779       -19.8039
 169   2.0000      -0.724345       -19.7104
 170   2.0000      -0.721240       -19.6259
 171   2.0000      -0.720586       -19.6081
 172   2.0000      -0.719742       -19.5852
 173   2.0000      -0.710491       -19.3335
 174   2.0000      -0.706548       -19.2261
 175   2.0000      -0.700047       -19.0493
 176   2.0000      -0.697435       -18.9782
 177   2.0000      -0.695014       -18.9123
 178   2.0000      -0.688276       -18.7289
 179   2.0000      -0.680606       -18.5202
 180   2.0000      -0.676701       -18.4140
 181   2.0000      -0.675403       -18.3787
 182   2.0000      -0.672177       -18.2909
 183   2.0000      -0.665106       -18.0984
 184   2.0000      -0.656707       -17.8699
 185   2.0000      -0.650827       -17.7099
 186   2.0000      -0.649607       -17.6767
 187   2.0000      -0.647233       -17.6121
 188   2.0000      -0.645034       -17.5523
 189   2.0000      -0.642202       -17.4752
 190   2.0000      -0.641412       -17.4537
 191   2.0000      -0.637351       -17.3432
 192   2.0000      -0.631805       -17.1923
 193   2.0000      -0.628276       -17.0962
 194   2.0000      -0.625052       -17.0085
 195   2.0000      -0.623070       -16.9546
 196   2.0000      -0.621501       -16.9119
 197   2.0000      -0.618486       -16.8299
 198   2.0000      -0.617000       -16.7894
 199   2.0000      -0.615374       -16.7452
 200   2.0000      -0.614587       -16.7238
 201   2.0000      -0.612892       -16.6776
 202   2.0000      -0.605405       -16.4739
 203   2.0000      -0.604054       -16.4372
 204   2.0000      -0.601388       -16.3646
 205   2.0000      -0.598856       -16.2957
 206   2.0000      -0.589761       -16.0482
 207   2.0000      -0.587748       -15.9934
 208   2.0000      -0.586820       -15.9682
 209   2.0000      -0.585225       -15.9248
 210   2.0000      -0.583150       -15.8683
 211   2.0000      -0.581745       -15.8301
 212   2.0000      -0.578729       -15.7480
 213   2.0000      -0.577967       -15.7273
 214   2.0000      -0.576243       -15.6804
 215   2.0000      -0.575425       -15.6581
 216   2.0000      -0.574027       -15.6201
 217   2.0000      -0.572593       -15.5811
 218   2.0000      -0.571255       -15.5446
 219   2.0000      -0.569814       -15.5054
 220   2.0000      -0.567552       -15.4439
 221   2.0000      -0.566268       -15.4089
 222   2.0000      -0.564874       -15.3710
 223   2.0000      -0.562394       -15.3035
 224   2.0000      -0.561404       -15.2766
 225   2.0000      -0.556864       -15.1530
 226   2.0000      -0.555409       -15.1135
 227   2.0000      -0.551276       -15.0010
 228   2.0000      -0.550101       -14.9690
 229   2.0000      -0.547404       -14.8956
 230   2.0000      -0.544007       -14.8032
 231   2.0000      -0.540081       -14.6963
 232   2.0000      -0.534290       -14.5388
 233   2.0000      -0.532933       -14.5019
 234   2.0000      -0.532325       -14.4853
 235   2.0000      -0.529994       -14.4219
 236   2.0000      -0.528995       -14.3947
 237   2.0000      -0.527977       -14.3670
 238   2.0000      -0.521964       -14.2034
 239   2.0000      -0.520131       -14.1535
 240   2.0000      -0.517213       -14.0741
 241   2.0000      -0.515427       -14.0255
 242   2.0000      -0.507931       -13.8215
 243   2.0000      -0.505147       -13.7458
 244   2.0000      -0.501095       -13.6355
 245   2.0000      -0.499966       -13.6048
 246   2.0000      -0.498520       -13.5654
 247   2.0000      -0.494149       -13.4465
 248   2.0000      -0.493704       -13.4344
 249   2.0000      -0.493252       -13.4221
 250   2.0000      -0.490943       -13.3592
 251   2.0000      -0.490315       -13.3421
 252   2.0000      -0.487740       -13.2721
 253   2.0000      -0.487110       -13.2549
 254   2.0000      -0.484499       -13.1839
 255   2.0000      -0.483005       -13.1432
 256   2.0000      -0.478506       -13.0208
 257   2.0000      -0.478039       -13.0081
 258   2.0000      -0.476197       -12.9580
 259   2.0000      -0.473904       -12.8956
 260   2.0000      -0.470942       -12.8150
 261   2.0000      -0.470148       -12.7934
 262   2.0000      -0.466076       -12.6826
 263   2.0000      -0.460641       -12.5347
 264   2.0000      -0.459169       -12.4946
 265   2.0000      -0.450641       -12.2626
 266   2.0000      -0.447097       -12.1661
 267   2.0000      -0.439881       -11.9698
 268   2.0000      -0.436863       -11.8876
 269   2.0000      -0.410540       -11.1714
 270   2.0000      -0.404976       -11.0200
 271   2.0000      -0.388541       -10.5727
 272   2.0000      -0.384354       -10.4588
 273   2.0000      -0.382276       -10.4022
 274   2.0000      -0.376698       -10.2505
 275   2.0000      -0.354238        -9.6393
 276   2.0000      -0.351745        -9.5715
 277   2.0000      -0.348760        -9.4902
 278   2.0000      -0.338781        -9.2187
 279   2.0000      -0.328171        -8.9300
 280   2.0000      -0.306538        -8.3413
 281   2.0000      -0.303533        -8.2596
 282   2.0000      -0.255312        -6.9474
 283   0.0000      -0.026606        -0.7240
 284   0.0000      -0.012319        -0.3352
 285   0.0000       0.016280         0.4430
 286   0.0000       0.021152         0.5756
 287   0.0000       0.049785         1.3547

MULLIKEN ATOMIC CHARGES
-----------------------
   0 C :    0.512450
   1 O :   -0.388733
   2 C :   -0.162405
   3 C :   -0.064583
   4 C :    0.421087
   5 C :   -0.095078
   6 C :    0.021476
   7 C :   -0.065732
   8 C :    0.261613
   9 C :   -0.372293
  10 C :    0.047619
  11 N :   -0.094940
  12 C :    0.066269
  13 N :   -0.115411
  14 C :   -0.319002
  15 C :    0.089143
  16 C :   -0.167223
  17 S :    0.237064
  18 C :    0.002876
  19 C :   -0.107707
  20 C :   -0.095850
  21 C :   -0.019001
  22 C :   -0.039239
  23 S :    0.227060
  24 C :    0.005710
  25 C :    0.117365
  26 N :   -0.615807
  27 C :    0.259277
  28 C :   -0.284112
  29 C :    0.247206
  30 C :   -0.248470
  31 C :    0.118432
  32 N :   -0.182454
  33 N :   -0.237357
  34 C :    0.190254
  35 C :   -0.068580
  36 N :   -0.183070
  37 C :    0.124174
  38 C :   -0.242851
  39 C :    0.238705
  40 N :   -0.615174
  41 C :    0.258581
  42 C :   -0.259365
  43 C :    0.142310
  44 C :   -0.004136
  45 S :    0.222219
  46 C :   -0.114910
  47 C :   -0.017443
  48 S :    0.177861
  49 C :   -0.234572
  50 C :   -0.059078
  51 C :    0.007518
  52 C :   -0.053651
  53 C :    0.191287
  54 C :   -0.338462
  55 C :    0.212526
  56 C :   -0.359232
  57 C :    0.058353
  58 N :   -0.086452
  59 C :    0.043332
  60 N :   -0.066175
  61 C :   -0.073534
  62 C :    0.018551
  63 C :   -0.094826
  64 C :    0.418349
  65 C :   -0.061179
  66 C :   -0.141120
  67 C :    0.458581
  68 O :   -0.355032
  69 F :   -0.318322
  70 F :   -0.319832
  71 C :   -0.065658
  72 C :   -0.034018
  73 C :    0.000260
  74 C :   -0.061279
  75 C :   -0.027854
  76 C :    0.000925
  77 H :    0.077870
  78 H :    0.077565
  79 H :    0.093274
  80 H :    0.065530
  81 H :    0.064624
  82 H :    0.085263
  83 H :    0.050060
  84 H :    0.058611
  85 H :    0.042336
  86 H :    0.047630
  87 H :    0.062047
  88 H :    0.056320
  89 H :    0.064592
  90 H :    0.064242
  91 H :    0.053736
  92 H :    0.048560
  93 H :    0.056841
  94 H :    0.040699
  95 H :    0.049811
  96 H :    0.051162
  97 H :    0.061469
  98 H :    0.069834
  99 H :    0.051856
 100 H :    0.055774
 101 H :    0.059836
 102 H :    0.098629
 103 H :    0.090233
 104 H :    0.079760
 105 H :    0.082573
 106 H :    0.038768
 107 H :    0.046337
 108 H :    0.029363
 109 H :    0.046228
 110 H :    0.064278
 111 H :    0.036958
 112 H :    0.050809
 113 H :    0.028185
 114 H :    0.037533
 115 H :    0.035688
 116 H :    0.031066
 117 H :    0.037837
 118 H :    0.068729
 119 H :    0.043060
 120 H :    0.048718
 121 H :    0.028477
Sum of atomic charges:   -0.0000000

LOEWDIN ATOMIC CHARGES
----------------------
   0 C :    0.168850
   1 O :   -0.254511
   2 C :   -0.034850
   3 C :   -0.014979
   4 C :    0.153297
   5 C :   -0.034503
   6 C :    0.030953
   7 C :   -0.044277
   8 C :    0.133941
   9 C :   -0.194164
  10 C :    0.019814
  11 N :   -0.109205
  12 C :    0.028089
  13 N :   -0.116134
  14 C :   -0.180593
  15 C :    0.116535
  16 C :   -0.220406
  17 S :    0.447331
  18 C :   -0.158268
  19 C :   -0.211624
  20 C :    0.029725
  21 C :   -0.018527
  22 C :   -0.025392
  23 S :    0.390800
  24 C :   -0.161882
  25 C :   -0.027324
  26 N :   -0.037103
  27 C :    0.083765
  28 C :   -0.043621
  29 C :    0.043718
  30 C :   -0.079772
  31 C :   -0.040850
  32 N :   -0.110589
  33 N :    0.106691
  34 C :    0.076017
  35 C :   -0.038758
  36 N :   -0.110547
  37 C :   -0.041464
  38 C :   -0.072288
  39 C :    0.033073
  40 N :   -0.036755
  41 C :    0.083127
  42 C :   -0.040601
  43 C :   -0.016887
  44 C :   -0.173295
  45 S :    0.396776
  46 C :   -0.194459
  47 C :   -0.169152
  48 S :    0.407052
  49 C :   -0.206126
  50 C :    0.011974
  51 C :   -0.017076
  52 C :   -0.029221
  53 C :    0.107221
  54 C :   -0.156554
  55 C :    0.111047
  56 C :   -0.174736
  57 C :    0.017835
  58 N :   -0.101467
  59 C :    0.011167
  60 N :   -0.091147
  61 C :   -0.040596
  62 C :    0.025465
  63 C :   -0.030589
  64 C :    0.152134
  65 C :   -0.011035
  66 C :   -0.039773
  67 C :    0.170695
  68 O :   -0.230790
  69 F :   -0.116812
  70 F :   -0.117897
  71 C :   -0.021782
  72 C :   -0.037740
  73 C :   -0.026759
  74 C :   -0.020394
  75 C :   -0.039364
  76 C :   -0.025911
  77 H :    0.053696
  78 H :    0.048040
  79 H :    0.047333
  80 H :    0.047881
  81 H :    0.033326
  82 H :    0.031061
  83 H :    0.015219
  84 H :    0.028106
  85 H :    0.022248
  86 H :    0.013830
  87 H :    0.018125
  88 H :    0.013713
  89 H :    0.031514
  90 H :    0.030602
  91 H :    0.026651
  92 H :    0.026416
  93 H :    0.026988
  94 H :    0.013681
  95 H :    0.015883
  96 H :    0.014949
  97 H :    0.024020
  98 H :    0.035625
  99 H :    0.025904
 100 H :    0.016556
 101 H :    0.023803
 102 H :    0.055323
 103 H :    0.047041
 104 H :    0.048732
 105 H :    0.055693
 106 H :    0.019223
 107 H :    0.015376
 108 H :    0.015165
 109 H :    0.024176
 110 H :    0.018797
 111 H :    0.019543
 112 H :    0.024385
 113 H :    0.012894
 114 H :    0.018784
 115 H :    0.014912
 116 H :    0.016585
 117 H :    0.020513
 118 H :    0.020477
 119 H :    0.022148
 120 H :    0.023393
 121 H :    0.013125

  Mayer bond orders larger than 0.100000
B(  0-C ,  1-O ) :   2.0342 B(  0-C ,  2-C ) :   0.9731 B(  0-C , 14-C ) :   0.9896
B(  2-C ,  3-C ) :   1.4014 B(  2-C ,  7-C ) :   1.3711 B(  3-C ,  4-C ) :   1.3745
B(  3-C , 77-H ) :   1.0080 B(  4-C ,  5-C ) :   1.3926 B(  4-C , 70-F ) :   0.9061
B(  5-C ,  6-C ) :   1.4131 B(  5-C , 78-H ) :   0.9932 B(  6-C ,  7-C ) :   1.4010
B(  6-C , 79-H ) :   0.9817 B(  7-C ,  8-C ) :   1.0396 B(  8-C ,  9-C ) :   1.6397
B(  8-C , 14-C ) :   1.1322 B(  9-C , 10-C ) :   1.0607 B(  9-C , 12-C ) :   1.0687
B( 10-C , 11-N ) :   2.9750 B( 12-C , 13-N ) :   2.9625 B( 14-C , 15-C ) :   1.5669
B( 15-C , 16-C ) :   1.3428 B( 15-C , 80-H ) :   0.9541 B( 16-C , 17-S ) :   1.0246
B( 16-C , 20-C ) :   1.4579 B( 17-S , 18-C ) :   1.0303 B( 18-C , 19-C ) :   1.4746
B( 18-C , 25-C ) :   1.3479 B( 19-C , 20-C ) :   1.4775 B( 19-C , 23-S ) :   0.9855
B( 20-C , 21-C ) :   0.9803 B( 21-C , 22-C ) :   1.0356 B( 21-C , 81-H ) :   0.9635
B( 21-C , 82-H ) :   0.9593 B( 22-C , 83-H ) :   0.9841 B( 22-C , 84-H ) :   0.9858
B( 22-C , 85-H ) :   0.9807 B( 23-S , 24-C ) :   0.9719 B( 24-C , 25-C ) :   1.4725
B( 24-C , 30-C ) :   1.4356 B( 25-C , 26-N ) :   1.0845 B( 26-N , 27-C ) :   0.8478
B( 26-N , 29-C ) :   1.0748 B( 27-C , 28-C ) :   0.9863 B( 27-C , 86-H ) :   0.9862
B( 27-C , 87-H ) :   0.9717 B( 28-C , 74-C ) :   0.9741 B( 28-C , 76-C ) :   1.0300
B( 28-C , 88-H ) :   0.9584 B( 29-C , 30-C ) :   1.4631 B( 29-C , 39-C ) :   1.1904
B( 30-C , 31-C ) :   1.1182 B( 31-C , 32-N ) :   1.5109 B( 31-C , 37-C ) :   1.2657
B( 32-N , 33-N ) :   1.2095 B( 32-N , 36-N ) :   0.1310 B( 33-N , 34-C ) :   0.8248
B( 33-N , 36-N ) :   1.2100 B( 34-C , 35-C ) :   1.0433 B( 34-C , 89-H ) :   0.9734
B( 34-C , 90-H ) :   0.9737 B( 35-C , 91-H ) :   0.9808 B( 35-C , 92-H ) :   0.9844
B( 35-C , 93-H ) :   0.9812 B( 36-N , 37-C ) :   1.5075 B( 37-C , 38-C ) :   1.1141
B( 38-C , 39-C ) :   1.4733 B( 38-C , 44-C ) :   1.4244 B( 39-C , 40-N ) :   1.0663
B( 40-N , 41-C ) :   0.8555 B( 40-N , 43-C ) :   1.0874 B( 41-C , 42-C ) :   0.9883
B( 41-C , 94-H ) :   0.9867 B( 41-C , 95-H ) :   0.9718 B( 42-C , 71-C ) :   0.9587
B( 42-C , 73-C ) :   1.0323 B( 42-C , 96-H ) :   0.9590 B( 43-C , 44-C ) :   1.4808
B( 43-C , 47-C ) :   1.3267 B( 44-C , 45-S ) :   0.9748 B( 45-S , 46-C ) :   1.0028
B( 46-C , 47-C ) :   1.5182 B( 46-C , 50-C ) :   1.3910 B( 47-C , 48-S ) :   1.0533
B( 48-S , 49-C ) :   1.0745 B( 49-C , 50-C ) :   1.5652 B( 49-C , 53-C ) :   1.1497
B( 50-C , 51-C ) :   0.9725 B( 51-C , 52-C ) :   1.0331 B( 51-C , 97-H ) :   0.9703
B( 51-C , 98-H ) :   0.9631 B( 52-C , 99-H ) :   0.9849 B( 52-C ,100-H ) :   0.9807
B( 52-C ,101-H ) :   0.9819 B( 53-C , 54-C ) :   1.7157 B( 53-C ,102-H ) :   0.9352
B( 54-C , 55-C ) :   1.0838 B( 54-C , 67-C ) :   0.9977 B( 55-C , 56-C ) :   1.6868
B( 55-C , 61-C ) :   1.0400 B( 56-C , 57-C ) :   1.0425 B( 56-C , 59-C ) :   1.0840
B( 57-C , 58-N ) :   2.9870 B( 59-C , 60-N ) :   2.9877 B( 61-C , 62-C ) :   1.4079
B( 61-C , 66-C ) :   1.3627 B( 62-C , 63-C ) :   1.4117 B( 62-C ,103-H ) :   0.9854
B( 63-C , 64-C ) :   1.3908 B( 63-C ,104-H ) :   0.9933 B( 64-C , 65-C ) :   1.3774
B( 64-C , 69-F ) :   0.9084 B( 65-C , 66-C ) :   1.3997 B( 65-C ,105-H ) :   1.0069
B( 66-C , 67-C ) :   0.9460 B( 67-C , 68-O ) :   2.0850 B( 71-C , 72-C ) :   1.0414
B( 71-C ,106-H ) :   0.9818 B( 71-C ,107-H ) :   0.9713 B( 72-C ,108-H ) :   0.9831
B( 72-C ,109-H ) :   0.9853 B( 72-C ,110-H ) :   0.9887 B( 73-C ,111-H ) :   0.9803
B( 73-C ,112-H ) :   0.9832 B( 73-C ,113-H ) :   0.9884 B( 74-C , 75-C ) :   1.0436
B( 74-C ,114-H ) :   0.9822 B( 74-C ,115-H ) :   0.9692 B( 75-C ,116-H ) :   0.9830
B( 75-C ,117-H ) :   0.9854 B( 75-C ,118-H ) :   0.9853 B( 76-C ,119-H ) :   0.9810
B( 76-C ,120-H ) :   0.9832 B( 76-C ,121-H ) :   0.9886

-----------------------------------------------------------------------------
         ABSORPTION SPECTRUM VIA TRANSITION ELECTRIC DIPOLE MOMENTS
-----------------------------------------------------------------------------
State   Energy    Wavelength  fosc         T2        TX        TY        TZ
        (cm-1)      (nm)                 (au**2)    (au)      (au)      (au)
-----------------------------------------------------------------------------
   1   22162.2    451.2   2.825006813  41.96453  -4.09372  -5.01771  -0.16914
   2   26678.7    374.8   0.403726384   4.98194   1.82437  -0.72444  -1.06246
   3   34599.3    289.0   0.071174852   0.67723   0.12499   0.04136   0.81234

FINAL SINGLE POINT ENERGY     -4723.900058307149

DIPOLE MOMENT
-------------
                                X             Y             Z
Electronic contribution:     15.78991     -17.30974     -21.43640
Nuclear contribution   :    -18.07379      17.27343      21.06537
                        -----------------------------------------
Total Dipole Moment    :     -2.28388      -0.03631      -0.37102
                        -----------------------------------------
Magnitude (a.u.)       :      2.31411
Magnitude (Debye)      :      5.88200

Rotational constants in cm-1:     0.001606     0.000272     0.000244
Rotational constants in MHz :    48.157021     8.166577     7.301503

                             ****ORCA TERMINATED NORMALLY****
TOTAL RUN TIME: 0 days 23 hours 5 minutes 6 seconds 696 msec
