                         Program Version 4.2.0 -  RELEASE  -
|  1> # ORCA input file
|  2> # Y14.out
|  3> ! Engrad Keepdens
|  4> %maxcore 1000
|  5> %tddft
|  6>   nroots 3
|  7>   # nroots is the number of states to be computed
|  8>   Iroot 1
|  9>   end
| 10> * xyz 0 1
| 11>    C       -1.57745        -2.83812        -0.68476
| 12>    O       -1.87636        -4.01850        -0.61336
| 13>    C       -0.21997        -2.30162        -0.90861
| 14>    C        0.96123        -2.99671        -1.06554
| 15>    C        2.10823        -2.24082        -1.25700
| 16>    C        2.08707        -0.85499        -1.29194
| 17>    C        0.89073        -0.17043        -1.13462
| 18>    C       -0.27472        -0.89742        -0.94172
| 19>    C       -1.66357        -0.47800        -0.74741
| 20>    C       -2.09972         0.82262        -0.74596
| 21>    C       -1.25780         1.94015        -0.92730
| 22>    N       -0.63328         2.89347        -1.06635
| 23>    C       -3.43299         1.24849        -0.57258
| 24>    N       -4.49029         1.67940        -0.44093
| 25>    C       -2.45869        -1.67696        -0.57354
| 26>    C       -3.81258        -1.70089        -0.32743
| 27>    C       -4.68796        -2.76920        -0.12707
| 28>    S       -4.22869        -4.47085        -0.18391
| 29>    C       -5.84725        -4.93791         0.17408
| 30>    C       -6.68815        -3.82180         0.33878
| 31>    C       -6.05598        -2.60045         0.15928
| 32>    C       -6.75623        -1.29276         0.33120
| 33>    C       -6.57000        -0.76036         1.75491
| 34>    S       -8.33435        -4.23962         0.77287
| 35>    C       -7.87465        -5.90849         0.75528
| 36>    C       -6.54224        -6.13316         0.38802
| 37>    N       -6.25903        -7.47141         0.44285
| 38>    C       -4.87213        -7.87814         0.40058
| 39>    C       -4.23258        -8.12582        -0.99050
| 40>    C       -7.39685        -8.13064         0.88890
| 41>    C       -8.41359        -7.14673         1.10723
| 42>    C       -9.64928        -7.46794         1.70667
| 43>    N      -10.72606        -6.74526         2.02489
| 44>    N      -11.51494        -7.59933         2.62469
| 45>    C      -12.81008        -7.22295         3.11039
| 46>    C      -12.85291        -7.28867         4.63231
| 47>    N      -11.07097        -8.82381         2.74196
| 48>    C       -9.87238        -8.78874         2.15992
| 49>    C       -8.93429        -9.79045         1.83821
| 50>    C       -7.71365        -9.49767         1.14772
| 51>    N       -7.13182       -10.70000         0.80425
| 52>    C       -5.99490       -10.98539        -0.03291
| 53>    C       -4.67549       -11.37498         0.68108
| 54>    C       -7.96104       -11.72011         1.21124
| 55>    C       -9.05329       -11.17409         1.89683
| 56>    S      -10.22750       -12.31144         2.43741
| 57>    C       -9.39015       -13.58602         1.41687
| 58>    C       -8.07511       -13.09304         0.93424
| 59>    S       -7.10759       -14.08360         0.02503
| 60>    C      -10.16032       -14.41440         0.37726
| 61>    C       -9.79894       -15.01304         1.49290
| 62>    C       -9.88143       -16.13159         2.42321
| 63>    C      -10.77054       -17.24464         1.87943
| 64>    C      -10.36494       -14.26961        -1.00104
| 65>    C      -10.56364       -13.06828        -1.60616
| 66>    C      -10.98518       -11.81500        -1.01023
| 67>    C      -11.92901       -11.70019        -0.02842
| 68>    C      -12.47614       -10.47055         0.38854
| 69>    N      -12.96362        -9.48888         0.72728
| 70>    C      -12.52966       -12.83541         0.56139
| 71>    N      -13.04596       -13.75391         1.01481
| 72>    C      -10.44768       -10.74463        -1.83726
| 73>    C      -10.36220        -9.37911        -1.61522
| 74>    C       -9.80206        -8.58263        -2.60119
| 75>    C       -9.35138        -9.15631        -3.78233
| 76>    C       -9.41230       -10.52077        -4.02590
| 77>    C       -9.96099       -11.30757        -3.03283
| 78>    C      -10.12501       -12.78435        -2.99816
| 79>    O       -9.89662       -13.57856        -3.87639
| 80>    F       -8.82989        -8.35387        -4.72463
| 81>    F        3.28414        -2.87186        -1.41299
| 82>    C       -4.86881       -12.08537         2.02610
| 83>    C       -5.12617       -11.13275         3.18957
| 84>    C       -3.87802       -12.25845        -0.27880
| 85>    C       -4.92454        -7.39617        -2.14773
| 86>    C       -6.19683        -8.08054        -2.63768
| 87>    C       -2.75927        -7.72205        -0.90927
| 88>    H        0.99158        -4.07422        -1.03949
| 89>    H        3.01080        -0.31902        -1.44255
| 90>    H        0.88904         0.90640        -1.16357
| 91>    H       -4.29567        -0.73564        -0.26447
| 92>    H       -7.82095        -1.44884         0.14667
| 93>    H       -6.38998        -0.55371        -0.38269
| 94>    H       -6.97152        -1.46640         2.47813
| 95>    H       -7.09066         0.18647         1.86415
| 96>    H       -5.51634        -0.60114         1.97220
| 97>    H       -4.75902        -8.75626         1.03474
| 98>    H       -4.31041        -7.06121         0.86648
| 99>    H       -4.25448        -9.19480        -1.22015
|100>    H      -13.53835        -7.91490         2.67985
|101>    H      -12.99774        -6.21080         2.74948
|102>    H      -12.60450        -8.29370         4.96348
|103>    H      -13.84888        -7.03718         4.98466
|104>    H      -12.14132        -6.58907         5.06499
|105>    H       -5.83814       -10.13253        -0.68928
|106>    H       -6.28548       -11.84017        -0.65191
|107>    H       -4.07628       -10.48003         0.87299
|108>    H      -10.26340       -15.76149         3.38052
|109>    H       -8.86507       -16.49933         2.60318
|110>    H      -11.77011       -16.86312         1.68800
|111>    H      -10.83612       -18.05530         2.59989
|112>    H      -10.36500       -17.63584         0.95013
|113>    H      -10.15980       -15.13293        -1.62388
|114>    H      -10.71077        -8.93785        -0.69504
|115>    H       -9.71651        -7.51581        -2.46630
|116>    H       -9.04900       -10.94358        -4.94888
|117>    H       -3.95523       -12.64324         2.24216
|118>    H       -5.67540       -12.81227         1.95251
|119>    H       -4.30080       -10.43047         3.29704
|120>    H       -5.21169       -11.69542         4.11618
|121>    H       -6.04370       -10.56475         3.05947
|122>    H       -4.38496       -13.20845        -0.42573
|123>    H       -2.88656       -12.45386         0.12145
|124>    H       -3.76488       -11.77297        -1.24585
|125>    H       -4.22065        -7.35409        -2.98099
|126>    H       -5.14503        -6.36885        -1.86430
|127>    H       -5.98269        -9.09361        -2.97568
|128>    H       -6.61070        -7.52849        -3.47780
|129>    H       -6.95661        -8.13110        -1.86074
|130>    H       -2.65550        -6.64645        -0.79061
|131>    H       -2.24005        -8.01808        -1.81717
|132>    H       -2.27530        -8.21373        -0.06802
|133> *
|134>
|135>                          ****END OF INPUT****

CARTESIAN COORDINATES (ANGSTROEM)
---------------------------------
  C     -1.577450   -2.838120   -0.684760
  O     -1.876360   -4.018500   -0.613360
  C     -0.219970   -2.301620   -0.908610
  C      0.961230   -2.996710   -1.065540
  C      2.108230   -2.240820   -1.257000
  C      2.087070   -0.854990   -1.291940
  C      0.890730   -0.170430   -1.134620
  C     -0.274720   -0.897420   -0.941720
  C     -1.663570   -0.478000   -0.747410
  C     -2.099720    0.822620   -0.745960
  C     -1.257800    1.940150   -0.927300
  N     -0.633280    2.893470   -1.066350
  C     -3.432990    1.248490   -0.572580
  N     -4.490290    1.679400   -0.440930
  C     -2.458690   -1.676960   -0.573540
  C     -3.812580   -1.700890   -0.327430
  C     -4.687960   -2.769200   -0.127070
  S     -4.228690   -4.470850   -0.183910
  C     -5.847250   -4.937910    0.174080
  C     -6.688150   -3.821800    0.338780
  C     -6.055980   -2.600450    0.159280
  C     -6.756230   -1.292760    0.331200
  C     -6.570000   -0.760360    1.754910
  S     -8.334350   -4.239620    0.772870
  C     -7.874650   -5.908490    0.755280
  C     -6.542240   -6.133160    0.388020
  N     -6.259030   -7.471410    0.442850
  C     -4.872130   -7.878140    0.400580
  C     -4.232580   -8.125820   -0.990500
  C     -7.396850   -8.130640    0.888900
  C     -8.413590   -7.146730    1.107230
  C     -9.649280   -7.467940    1.706670
  N    -10.726060   -6.745260    2.024890
  N    -11.514940   -7.599330    2.624690
  C    -12.810080   -7.222950    3.110390
  C    -12.852910   -7.288670    4.632310
  N    -11.070970   -8.823810    2.741960
  C     -9.872380   -8.788740    2.159920
  C     -8.934290   -9.790450    1.838210
  C     -7.713650   -9.497670    1.147720
  N     -7.131820  -10.700000    0.804250
  C     -5.994900  -10.985390   -0.032910
  C     -4.675490  -11.374980    0.681080
  C     -7.961040  -11.720110    1.211240
  C     -9.053290  -11.174090    1.896830
  S    -10.227500  -12.311440    2.437410
  C     -9.390150  -13.586020    1.416870
  C     -8.075110  -13.093040    0.934240
  S     -7.107590  -14.083600    0.025030
  C    -10.160320  -14.414400    0.377260
  C     -9.798940  -15.013040    1.492900
  C     -9.881430  -16.131590    2.423210
  C    -10.770540  -17.244640    1.879430
  C    -10.364940  -14.269610   -1.001040
  C    -10.563640  -13.068280   -1.606160
  C    -10.985180  -11.815000   -1.010230
  C    -11.929010  -11.700190   -0.028420
  C    -12.476140  -10.470550    0.388540
  N    -12.963620   -9.488880    0.727280
  C    -12.529660  -12.835410    0.561390
  N    -13.045960  -13.753910    1.014810
  C    -10.447680  -10.744630   -1.837260
  C    -10.362200   -9.379110   -1.615220
  C     -9.802060   -8.582630   -2.601190
  C     -9.351380   -9.156310   -3.782330
  C     -9.412300  -10.520770   -4.025900
  C     -9.960990  -11.307570   -3.032830
  C    -10.125010  -12.784350   -2.998160
  O     -9.896620  -13.578560   -3.876390
  F     -8.829890   -8.353870   -4.724630
  F      3.284140   -2.871860   -1.412990
  C     -4.868810  -12.085370    2.026100
  C     -5.126170  -11.132750    3.189570
  C     -3.878020  -12.258450   -0.278800
  C     -4.924540   -7.396170   -2.147730
  C     -6.196830   -8.080540   -2.637680
  C     -2.759270   -7.722050   -0.909270
  H      0.991580   -4.074220   -1.039490
  H      3.010800   -0.319020   -1.442550
  H      0.889040    0.906400   -1.163570
  H     -4.295670   -0.735640   -0.264470
  H     -7.820950   -1.448840    0.146670
  H     -6.389980   -0.553710   -0.382690
  H     -6.971520   -1.466400    2.478130
  H     -7.090660    0.186470    1.864150
  H     -5.516340   -0.601140    1.972200
  H     -4.759020   -8.756260    1.034740
  H     -4.310410   -7.061210    0.866480
  H     -4.254480   -9.194800   -1.220150
  H    -13.538350   -7.914900    2.679850
  H    -12.997740   -6.210800    2.749480
  H    -12.604500   -8.293700    4.963480
  H    -13.848880   -7.037180    4.984660
  H    -12.141320   -6.589070    5.064990
  H     -5.838140  -10.132530   -0.689280
  H     -6.285480  -11.840170   -0.651910
  H     -4.076280  -10.480030    0.872990
  H    -10.263400  -15.761490    3.380520
  H     -8.865070  -16.499330    2.603180
  H    -11.770110  -16.863120    1.688000
  H    -10.836120  -18.055300    2.599890
  H    -10.365000  -17.635840    0.950130
  H    -10.159800  -15.132930   -1.623880
  H    -10.710770   -8.937850   -0.695040
  H     -9.716510   -7.515810   -2.466300
  H     -9.049000  -10.943580   -4.948880
  H     -3.955230  -12.643240    2.242160
  H     -5.675400  -12.812270    1.952510
  H     -4.300800  -10.430470    3.297040
  H     -5.211690  -11.695420    4.116180
  H     -6.043700  -10.564750    3.059470
  H     -4.384960  -13.208450   -0.425730
  H     -2.886560  -12.453860    0.121450
  H     -3.764880  -11.772970   -1.245850
  H     -4.220650   -7.354090   -2.980990
  H     -5.145030   -6.368850   -1.864300
  H     -5.982690   -9.093610   -2.975680
  H     -6.610700   -7.528490   -3.477800
  H     -6.956610   -8.131100   -1.860740
  H     -2.655500   -6.646450   -0.790610
  H     -2.240050   -8.018080   -1.817170
  H     -2.275300   -8.213730   -0.068020

 Total Charge           Charge          ....    0
 Multiplicity           Mult            ....    1
 Number of Electrons    NEL             ....  566
 Basis Dimension        Dim             .... 1319

ORBITAL ENERGIES
----------------

  NO   OCC          E(Eh)            E(eV)
   0   2.0000     -91.976429     -2502.8059
   1   2.0000     -91.975290     -2502.7749
   2   2.0000     -91.950696     -2502.1057
   3   2.0000     -91.879900     -2500.1792
   4   2.0000     -26.328686      -716.4400
   5   2.0000     -26.327725      -716.4138
   6   2.0000     -20.572748      -559.8129
   7   2.0000     -20.572122      -559.7959
   8   2.0000     -15.699259      -427.1986
   9   2.0000     -15.651164      -425.8898
  10   2.0000     -15.649572      -425.8465
  11   2.0000     -15.618129      -424.9909
  12   2.0000     -15.613040      -424.8524
  13   2.0000     -15.593784      -424.3284
  14   2.0000     -15.593729      -424.3269
  15   2.0000     -15.589205      -424.2038
  16   2.0000     -15.585979      -424.1160
  17   2.0000     -11.370693      -309.4123
  18   2.0000     -11.369935      -309.3917
  19   2.0000     -11.369757      -309.3868
  20   2.0000     -11.369691      -309.3850
  21   2.0000     -11.341670      -308.6225
  22   2.0000     -11.337177      -308.5003
  23   2.0000     -11.335690      -308.4598
  24   2.0000     -11.330368      -308.3150
  25   2.0000     -11.328199      -308.2560
  26   2.0000     -11.327930      -308.2487
  27   2.0000     -11.321981      -308.0868
  28   2.0000     -11.320154      -308.0371
  29   2.0000     -11.318198      -307.9838
  30   2.0000     -11.316473      -307.9369
  31   2.0000     -11.311591      -307.8040
  32   2.0000     -11.310054      -307.7622
  33   2.0000     -11.308566      -307.7217
  34   2.0000     -11.306041      -307.6530
  35   2.0000     -11.303495      -307.5837
  36   2.0000     -11.303397      -307.5811
  37   2.0000     -11.300481      -307.5017
  38   2.0000     -11.299867      -307.4850
  39   2.0000     -11.298281      -307.4418
  40   2.0000     -11.298105      -307.4371
  41   2.0000     -11.296931      -307.4051
  42   2.0000     -11.296608      -307.3963
  43   2.0000     -11.294462      -307.3379
  44   2.0000     -11.293363      -307.3080
  45   2.0000     -11.292761      -307.2917
  46   2.0000     -11.291568      -307.2592
  47   2.0000     -11.291521      -307.2579
  48   2.0000     -11.290880      -307.2405
  49   2.0000     -11.290578      -307.2322
  50   2.0000     -11.289809      -307.2113
  51   2.0000     -11.288027      -307.1628
  52   2.0000     -11.286504      -307.1214
  53   2.0000     -11.286392      -307.1183
  54   2.0000     -11.285792      -307.1020
  55   2.0000     -11.284309      -307.0616
  56   2.0000     -11.283595      -307.0422
  57   2.0000     -11.282951      -307.0247
  58   2.0000     -11.281298      -306.9797
  59   2.0000     -11.280977      -306.9710
  60   2.0000     -11.280314      -306.9530
  61   2.0000     -11.279222      -306.9232
  62   2.0000     -11.273244      -306.7606
  63   2.0000     -11.269780      -306.6663
  64   2.0000     -11.268335      -306.6270
  65   2.0000     -11.262965      -306.4808
  66   2.0000     -11.249472      -306.1137
  67   2.0000     -11.242311      -305.9188
  68   2.0000     -11.242019      -305.9109
  69   2.0000     -11.240682      -305.8745
  70   2.0000     -11.233505      -305.6792
  71   2.0000     -11.233245      -305.6721
  72   2.0000     -11.229138      -305.5604
  73   2.0000     -11.226926      -305.5002
  74   2.0000     -11.223863      -305.4168
  75   2.0000     -11.222445      -305.3783
  76   2.0000     -11.222054      -305.3676
  77   2.0000      -9.009913      -245.1722
  78   2.0000      -9.009846      -245.1704
  79   2.0000      -8.986360      -244.5313
  80   2.0000      -8.916301      -242.6249
  81   2.0000      -6.697438      -182.2466
  82   2.0000      -6.697063      -182.2364
  83   2.0000      -6.696623      -182.2244
  84   2.0000      -6.695699      -182.1992
  85   2.0000      -6.694248      -182.1597
  86   2.0000      -6.693639      -182.1432
  87   2.0000      -6.673958      -181.6076
  88   2.0000      -6.672836      -181.5771
  89   2.0000      -6.670456      -181.5123
  90   2.0000      -6.604511      -179.7179
  91   2.0000      -6.602211      -179.6553
  92   2.0000      -6.600703      -179.6143
  93   2.0000      -1.630868       -44.3782
  94   2.0000      -1.629973       -44.3538
  95   2.0000      -1.469980       -40.0002
  96   2.0000      -1.405785       -38.2534
  97   2.0000      -1.404038       -38.2058
  98   2.0000      -1.353393       -36.8277
  99   2.0000      -1.338442       -36.4209
 100   2.0000      -1.256502       -34.1911
 101   2.0000      -1.252525       -34.0829
 102   2.0000      -1.240334       -33.7512
 103   2.0000      -1.232903       -33.5490
 104   2.0000      -1.230326       -33.4789
 105   2.0000      -1.229102       -33.4456
 106   2.0000      -1.227598       -33.4046
 107   2.0000      -1.224787       -33.3282
 108   2.0000      -1.204921       -32.7876
 109   2.0000      -1.191568       -32.4242
 110   2.0000      -1.172426       -31.9033
 111   2.0000      -1.170124       -31.8407
 112   2.0000      -1.157300       -31.4917
 113   2.0000      -1.154462       -31.4145
 114   2.0000      -1.132077       -30.8054
 115   2.0000      -1.114891       -30.3377
 116   2.0000      -1.105834       -30.0913
 117   2.0000      -1.101907       -29.9844
 118   2.0000      -1.095373       -29.8066
 119   2.0000      -1.089853       -29.6564
 120   2.0000      -1.084499       -29.5107
 121   2.0000      -1.083761       -29.4906
 122   2.0000      -1.072176       -29.1754
 123   2.0000      -1.065323       -28.9889
 124   2.0000      -1.064206       -28.9585
 125   2.0000      -1.057682       -28.7810
 126   2.0000      -1.039304       -28.2809
 127   2.0000      -1.027472       -27.9589
 128   2.0000      -1.023128       -27.8407
 129   2.0000      -1.010443       -27.4955
 130   2.0000      -1.002868       -27.2894
 131   2.0000      -0.996099       -27.1052
 132   2.0000      -0.983302       -26.7570
 133   2.0000      -0.975269       -26.5384
 134   2.0000      -0.970756       -26.4156
 135   2.0000      -0.951746       -25.8983
 136   2.0000      -0.946847       -25.7650
 137   2.0000      -0.942036       -25.6341
 138   2.0000      -0.940434       -25.5905
 139   2.0000      -0.931541       -25.3485
 140   2.0000      -0.902713       -24.5641
 141   2.0000      -0.900042       -24.4914
 142   2.0000      -0.898424       -24.4474
 143   2.0000      -0.883166       -24.0322
 144   2.0000      -0.877071       -23.8663
 145   2.0000      -0.873779       -23.7767
 146   2.0000      -0.865733       -23.5578
 147   2.0000      -0.860248       -23.4085
 148   2.0000      -0.856847       -23.3160
 149   2.0000      -0.856090       -23.2954
 150   2.0000      -0.855729       -23.2856
 151   2.0000      -0.840140       -22.8614
 152   2.0000      -0.834159       -22.6986
 153   2.0000      -0.821922       -22.3656
 154   2.0000      -0.811543       -22.0832
 155   2.0000      -0.802899       -21.8480
 156   2.0000      -0.802361       -21.8334
 157   2.0000      -0.795559       -21.6483
 158   2.0000      -0.790488       -21.5103
 159   2.0000      -0.786105       -21.3910
 160   2.0000      -0.774470       -21.0744
 161   2.0000      -0.773428       -21.0461
 162   2.0000      -0.766164       -20.8484
 163   2.0000      -0.759413       -20.6647
 164   2.0000      -0.755315       -20.5532
 165   2.0000      -0.749517       -20.3954
 166   2.0000      -0.742914       -20.2157
 167   2.0000      -0.740540       -20.1511
 168   2.0000      -0.735459       -20.0129
 169   2.0000      -0.727769       -19.8036
 170   2.0000      -0.722691       -19.6654
 171   2.0000      -0.721570       -19.6349
 172   2.0000      -0.721524       -19.6337
 173   2.0000      -0.718377       -19.5480
 174   2.0000      -0.708226       -19.2718
 175   2.0000      -0.703998       -19.1568
 176   2.0000      -0.698274       -19.0010
 177   2.0000      -0.693449       -18.8697
 178   2.0000      -0.688289       -18.7293
 179   2.0000      -0.683923       -18.6105
 180   2.0000      -0.681948       -18.5568
 181   2.0000      -0.680176       -18.5085
 182   2.0000      -0.678573       -18.4649
 183   2.0000      -0.668331       -18.1862
 184   2.0000      -0.665809       -18.1176
 185   2.0000      -0.658721       -17.9247
 186   2.0000      -0.656881       -17.8746
 187   2.0000      -0.655044       -17.8247
 188   2.0000      -0.654570       -17.8118
 189   2.0000      -0.651154       -17.7188
 190   2.0000      -0.646282       -17.5862
 191   2.0000      -0.641818       -17.4647
 192   2.0000      -0.640318       -17.4239
 193   2.0000      -0.637122       -17.3370
 194   2.0000      -0.630808       -17.1652
 195   2.0000      -0.628288       -17.0966
 196   2.0000      -0.627014       -17.0619
 197   2.0000      -0.626516       -17.0484
 198   2.0000      -0.624203       -16.9854
 199   2.0000      -0.623118       -16.9559
 200   2.0000      -0.621756       -16.9188
 201   2.0000      -0.618597       -16.8329
 202   2.0000      -0.617495       -16.8029
 203   2.0000      -0.613159       -16.6849
 204   2.0000      -0.607123       -16.5207
 205   2.0000      -0.601475       -16.3670
 206   2.0000      -0.594094       -16.1661
 207   2.0000      -0.590950       -16.0806
 208   2.0000      -0.590034       -16.0556
 209   2.0000      -0.587667       -15.9912
 210   2.0000      -0.587013       -15.9734
 211   2.0000      -0.582746       -15.8573
 212   2.0000      -0.581797       -15.8315
 213   2.0000      -0.581535       -15.8244
 214   2.0000      -0.579858       -15.7787
 215   2.0000      -0.578501       -15.7418
 216   2.0000      -0.578097       -15.7308
 217   2.0000      -0.575067       -15.6484
 218   2.0000      -0.574522       -15.6335
 219   2.0000      -0.573815       -15.6143
 220   2.0000      -0.570833       -15.5331
 221   2.0000      -0.567355       -15.4385
 222   2.0000      -0.561831       -15.2882
 223   2.0000      -0.561109       -15.2686
 224   2.0000      -0.558884       -15.2080
 225   2.0000      -0.557741       -15.1769
 226   2.0000      -0.554503       -15.0888
 227   2.0000      -0.551465       -15.0061
 228   2.0000      -0.542787       -14.7700
 229   2.0000      -0.541748       -14.7417
 230   2.0000      -0.539354       -14.6766
 231   2.0000      -0.538633       -14.6570
 232   2.0000      -0.537587       -14.6285
 233   2.0000      -0.531759       -14.4699
 234   2.0000      -0.530515       -14.4361
 235   2.0000      -0.529086       -14.3972
 236   2.0000      -0.524598       -14.2750
 237   2.0000      -0.523229       -14.2378
 238   2.0000      -0.523019       -14.2321
 239   2.0000      -0.520548       -14.1648
 240   2.0000      -0.519144       -14.1266
 241   2.0000      -0.516965       -14.0673
 242   2.0000      -0.515701       -14.0329
 243   2.0000      -0.512346       -13.9417
 244   2.0000      -0.511216       -13.9109
 245   2.0000      -0.506745       -13.7892
 246   2.0000      -0.502749       -13.6805
 247   2.0000      -0.501669       -13.6511
 248   2.0000      -0.499663       -13.5965
 249   2.0000      -0.499368       -13.5885
 250   2.0000      -0.490621       -13.3505
 251   2.0000      -0.488190       -13.2843
 252   2.0000      -0.486429       -13.2364
 253   2.0000      -0.485406       -13.2086
 254   2.0000      -0.480763       -13.0822
 255   2.0000      -0.478897       -13.0314
 256   2.0000      -0.478363       -13.0169
 257   2.0000      -0.476326       -12.9615
 258   2.0000      -0.474330       -12.9072
 259   2.0000      -0.470900       -12.8138
 260   2.0000      -0.467330       -12.7167
 261   2.0000      -0.464862       -12.6495
 262   2.0000      -0.460939       -12.5428
 263   2.0000      -0.454822       -12.3763
 264   2.0000      -0.450269       -12.2524
 265   2.0000      -0.446868       -12.1599
 266   2.0000      -0.433946       -11.8083
 267   2.0000      -0.424060       -11.5393
 268   2.0000      -0.414342       -11.2748
 269   2.0000      -0.412226       -11.2173
 270   2.0000      -0.401327       -10.9207
 271   2.0000      -0.392079       -10.6690
 272   2.0000      -0.391311       -10.6481
 273   2.0000      -0.379505       -10.3268
 274   2.0000      -0.357691        -9.7333
 275   2.0000      -0.353919        -9.6306
 276   2.0000      -0.349966        -9.5231
 277   2.0000      -0.340603        -9.2683
 278   2.0000      -0.336366        -9.1530
 279   2.0000      -0.328587        -8.9413
 280   2.0000      -0.315239        -8.5781
 281   2.0000      -0.300114        -8.1665
 282   2.0000      -0.266743        -7.2584
 283   0.0000      -0.029548        -0.8040
 284   0.0000      -0.010330        -0.2811
 285   0.0000       0.009895         0.2693
 286   0.0000       0.018326         0.4987
 287   0.0000       0.024663         0.6711

MULLIKEN ATOMIC CHARGES
-----------------------
   0 C :    0.533255
   1 O :   -0.404075
   2 C :   -0.154327
   3 C :   -0.057664
   4 C :    0.427486
   5 C :   -0.079867
   6 C :    0.021956
   7 C :   -0.064919
   8 C :    0.275777
   9 C :   -0.392999
  10 C :    0.035427
  11 N :   -0.073014
  12 C :    0.038952
  13 N :   -0.084827
  14 C :   -0.327904
  15 C :    0.087685
  16 C :   -0.163407
  17 S :    0.228271
  18 C :   -0.009076
  19 C :   -0.098997
  20 C :   -0.104652
  21 C :   -0.013140
  22 C :   -0.000575
  23 S :    0.226706
  24 C :    0.017658
  25 C :    0.124974
  26 N :   -0.605005
  27 C :    0.279687
  28 C :   -0.334215
  29 C :    0.239507
  30 C :   -0.240967
  31 C :    0.078045
  32 N :   -0.175598
  33 N :   -0.203817
  34 C :    0.190303
  35 C :   -0.062468
  36 N :   -0.171023
  37 C :    0.125018
  38 C :   -0.259833
  39 C :    0.274434
  40 N :   -0.599971
  41 C :    0.289269
  42 C :   -0.305018
  43 C :    0.123908
  44 C :    0.059626
  45 S :    0.130135
  46 C :   -0.260243
  47 C :    0.096361
  48 S :   -0.243659
  49 C :   -0.053773
  50 C :    0.069042
  51 C :   -0.000733
  52 C :   -0.049099
  53 C :    0.133489
  54 C :   -0.258899
  55 C :    0.205849
  56 C :   -0.302645
  57 C :    0.063361
  58 N :   -0.070623
  59 C :    0.031578
  60 N :   -0.060327
  61 C :   -0.057607
  62 C :    0.013000
  63 C :   -0.079960
  64 C :    0.424142
  65 C :   -0.057521
  66 C :   -0.160227
  67 C :    0.484104
  68 O :   -0.327970
  69 F :   -0.330109
  70 F :   -0.327343
  71 C :   -0.042500
  72 C :   -0.019661
  73 C :    0.034114
  74 C :   -0.023235
  75 C :   -0.048423
  76 C :    0.021135
  77 H :    0.069326
  78 H :    0.070716
  79 H :    0.084654
  80 H :    0.080532
  81 H :    0.056096
  82 H :    0.074761
  83 H :    0.039533
  84 H :    0.057295
  85 H :    0.033667
  86 H :    0.050488
  87 H :    0.057007
  88 H :    0.052579
  89 H :    0.082626
  90 H :    0.057403
  91 H :    0.058602
  92 H :    0.041595
  93 H :    0.039441
  94 H :    0.029090
  95 H :    0.070385
  96 H :    0.034712
  97 H :    0.070680
  98 H :    0.072300
  99 H :    0.062680
 100 H :    0.045527
 101 H :    0.041892
 102 H :    0.094278
 103 H :    0.094791
 104 H :    0.073433
 105 H :    0.072664
 106 H :    0.027665
 107 H :    0.053048
 108 H :    0.018901
 109 H :    0.034528
 110 H :    0.038270
 111 H :    0.053172
 112 H :    0.029193
 113 H :    0.017727
 114 H :    0.034430
 115 H :    0.044742
 116 H :    0.026859
 117 H :    0.050258
 118 H :    0.047751
 119 H :    0.073843
 120 H :    0.033930
 121 H :    0.024587
Sum of atomic charges:   -0.0000000

LOEWDIN ATOMIC CHARGES
----------------------
   0 C :    0.171532
   1 O :   -0.259837
   2 C :   -0.035157
   3 C :   -0.007363
   4 C :    0.156448
   5 C :   -0.026737
   6 C :    0.032340
   7 C :   -0.041092
   8 C :    0.126609
   9 C :   -0.188428
  10 C :    0.013758
  11 N :   -0.100053
  12 C :    0.016626
  13 N :   -0.105245
  14 C :   -0.177502
  15 C :    0.118825
  16 C :   -0.221771
  17 S :    0.486483
  18 C :   -0.167169
  19 C :   -0.208496
  20 C :    0.020942
  21 C :   -0.014244
  22 C :   -0.016038
  23 S :    0.397623
  24 C :   -0.168835
  25 C :   -0.022401
  26 N :   -0.018208
  27 C :    0.082695
  28 C :   -0.042799
  29 C :    0.024128
  30 C :   -0.066257
  31 C :   -0.060423
  32 N :   -0.105800
  33 N :    0.132982
  34 C :    0.073364
  35 C :   -0.034440
  36 N :   -0.095803
  37 C :   -0.047112
  38 C :   -0.105380
  39 C :    0.067217
  40 N :   -0.003945
  41 C :    0.074690
  42 C :   -0.036426
  43 C :   -0.068816
  44 C :   -0.123298
  45 S :    0.341934
  46 C :   -0.151284
  47 C :   -0.096999
  48 S :   -0.091007
  49 C :   -0.019778
  50 C :    0.080095
  51 C :   -0.017255
  52 C :   -0.022097
  53 C :    0.106616
  54 C :   -0.094935
  55 C :    0.092102
  56 C :   -0.148781
  57 C :    0.024025
  58 N :   -0.086360
  59 C :    0.005369
  60 N :   -0.093469
  61 C :   -0.034115
  62 C :    0.027876
  63 C :   -0.018092
  64 C :    0.152831
  65 C :   -0.004716
  66 C :   -0.041038
  67 C :    0.167197
  68 O :   -0.209201
  69 F :   -0.122011
  70 F :   -0.125212
  71 C :   -0.019898
  72 C :   -0.037531
  73 C :   -0.022295
  74 C :   -0.018252
  75 C :   -0.040940
  76 C :   -0.023244
  77 H :    0.051065
  78 H :    0.046249
  79 H :    0.045508
  80 H :    0.047960
  81 H :    0.026675
  82 H :    0.033190
  83 H :    0.019370
  84 H :    0.027031
  85 H :    0.017031
  86 H :    0.021243
  87 H :    0.021132
  88 H :    0.010380
  89 H :    0.031742
  90 H :    0.029342
  91 H :    0.025769
  92 H :    0.023084
  93 H :    0.020004
  94 H :    0.013689
  95 H :    0.017873
  96 H :    0.003577
  97 H :    0.041918
  98 H :    0.044721
  99 H :    0.028645
 100 H :    0.022818
 101 H :    0.021194
 102 H :    0.061601
 103 H :    0.043447
 104 H :    0.046636
 105 H :    0.052148
 106 H :    0.016016
 107 H :    0.010012
 108 H :    0.008834
 109 H :    0.018539
 110 H :    0.011316
 111 H :    0.016553
 112 H :    0.015242
 113 H :    0.009036
 114 H :    0.019142
 115 H :    0.005496
 116 H :    0.011653
 117 H :    0.020049
 118 H :    0.008281
 119 H :    0.017183
 120 H :    0.018463
 121 H :    0.012424

  Mayer bond orders larger than 0.100000
B(  0-C ,  1-O ) :   1.9759 B(  0-C ,  2-C ) :   0.9857 B(  0-C , 14-C ) :   1.0009
B(  2-C ,  3-C ) :   1.4036 B(  2-C ,  7-C ) :   1.3599 B(  3-C ,  4-C ) :   1.3668
B(  3-C , 77-H ) :   1.0151 B(  4-C ,  5-C ) :   1.3993 B(  4-C , 70-F ) :   0.8993
B(  5-C ,  6-C ) :   1.4000 B(  5-C , 78-H ) :   0.9976 B(  6-C ,  7-C ) :   1.4130
B(  6-C , 79-H ) :   0.9851 B(  7-C ,  8-C ) :   1.0379 B(  8-C ,  9-C ) :   1.6496
B(  8-C , 14-C ) :   1.1288 B(  9-C , 10-C ) :   1.0693 B(  9-C , 12-C ) :   1.0740
B( 10-C , 11-N ) :   2.9806 B( 12-C , 13-N ) :   2.9716 B( 14-C , 15-C ) :   1.5556
B( 15-C , 16-C ) :   1.3416 B( 15-C , 80-H ) :   0.9574 B( 16-C , 17-S ) :   1.0338
B( 16-C , 20-C ) :   1.4481 B( 17-S , 18-C ) :   1.0384 B( 18-C , 19-C ) :   1.4592
B( 18-C , 25-C ) :   1.3432 B( 19-C , 20-C ) :   1.5084 B( 19-C , 23-S ) :   0.9799
B( 20-C , 21-C ) :   0.9812 B( 21-C , 22-C ) :   1.0395 B( 21-C , 81-H ) :   0.9668
B( 21-C , 82-H ) :   0.9578 B( 22-C , 83-H ) :   0.9818 B( 22-C , 84-H ) :   0.9862
B( 22-C , 85-H ) :   0.9854 B( 23-S , 24-C ) :   0.9726 B( 24-C , 25-C ) :   1.4504
B( 24-C , 30-C ) :   1.4442 B( 25-C , 26-N ) :   1.1110 B( 26-N , 27-C ) :   0.8270
B( 26-N , 29-C ) :   1.0920 B( 27-C , 28-C ) :   0.9592 B( 27-C , 86-H ) :   0.9801
B( 27-C , 87-H ) :   0.9781 B( 28-C , 74-C ) :   0.9933 B( 28-C , 76-C ) :   1.0324
B( 28-C , 88-H ) :   0.9614 B( 29-C , 30-C ) :   1.4482 B( 29-C , 39-C ) :   1.1704
B( 30-C , 31-C ) :   1.1133 B( 31-C , 32-N ) :   1.5019 B( 31-C , 37-C ) :   1.2859
B( 32-N , 33-N ) :   1.2386 B( 32-N , 36-N ) :   0.1232 B( 33-N , 34-C ) :   0.8229
B( 33-N , 36-N ) :   1.2289 B( 34-C , 35-C ) :   1.0472 B( 34-C , 89-H ) :   0.9681
B( 34-C , 90-H ) :   0.9734 B( 35-C , 91-H ) :   0.9828 B( 35-C , 92-H ) :   0.9860
B( 35-C , 93-H ) :   0.9800 B( 36-N , 37-C ) :   1.5026 B( 37-C , 38-C ) :   1.1092
B( 38-C , 39-C ) :   1.3899 B( 38-C , 44-C ) :   1.4852 B( 39-C , 40-N ) :   1.1647
B( 40-N , 41-C ) :   0.8212 B( 40-N , 43-C ) :   1.0606 B( 41-C , 42-C ) :   0.9677
B( 41-C , 94-H ) :   0.9804 B( 41-C , 95-H ) :   0.9559 B( 42-C , 71-C ) :   0.9938
B( 42-C , 73-C ) :   1.0333 B( 42-C , 96-H ) :   0.9633 B( 43-C , 44-C ) :   1.4016
B( 43-C , 47-C ) :   1.2434 B( 44-C , 45-S ) :   0.9426 B( 45-S , 46-C ) :   0.9313
B( 46-C , 47-C ) :   0.9239 B( 46-C , 49-C ) :   0.9446 B( 46-C , 50-C ) :   0.9599
B( 47-C , 48-S ) :   1.5900 B( 49-C , 50-C ) :   1.7213 B( 49-C , 53-C ) :   1.0338
B( 50-C , 51-C ) :   0.9665 B( 51-C , 52-C ) :   1.0423 B( 51-C , 97-H ) :   0.9617
B( 51-C , 98-H ) :   0.9454 B( 52-C , 99-H ) :   0.9846 B( 52-C ,100-H ) :   0.9855
B( 52-C ,101-H ) :   0.9853 B( 53-C , 54-C ) :   1.8019 B( 53-C ,102-H ) :   0.9729
B( 54-C , 55-C ) :   1.0487 B( 54-C , 67-C ) :   0.9691 B( 55-C , 56-C ) :   1.7467
B( 55-C , 61-C ) :   1.0380 B( 56-C , 57-C ) :   1.0596 B( 56-C , 59-C ) :   1.0546
B( 57-C , 58-N ) :   2.9768 B( 59-C , 60-N ) :   3.0104 B( 61-C , 62-C ) :   1.4107
B( 61-C , 66-C ) :   1.3507 B( 62-C , 63-C ) :   1.4046 B( 62-C ,103-H ) :   0.9945
B( 63-C , 64-C ) :   1.3923 B( 63-C ,104-H ) :   0.9975 B( 64-C , 65-C ) :   1.3844
B( 64-C , 69-F ) :   0.8822 B( 65-C , 66-C ) :   1.3959 B( 65-C ,105-H ) :   1.0143
B( 66-C , 67-C ) :   0.9362 B( 67-C , 68-O ) :   2.1341 B( 71-C , 72-C ) :   1.0385
B( 71-C ,106-H ) :   0.9783 B( 71-C ,107-H ) :   0.9653 B( 72-C ,108-H ) :   0.9825
B( 72-C ,109-H ) :   0.9868 B( 72-C ,110-H ) :   0.9871 B( 73-C ,111-H ) :   0.9767
B( 73-C ,112-H ) :   0.9826 B( 73-C ,113-H ) :   0.9878 B( 74-C , 75-C ) :   1.0497
B( 74-C ,114-H ) :   0.9778 B( 74-C ,115-H ) :   0.9654 B( 75-C ,116-H ) :   0.9773
B( 75-C ,117-H ) :   0.9843 B( 75-C ,118-H ) :   0.9835 B( 76-C ,119-H ) :   0.9796
B( 76-C ,120-H ) :   0.9824 B( 76-C ,121-H ) :   0.9863

-----------------------------------------------------------------------------
         ABSORPTION SPECTRUM VIA TRANSITION ELECTRIC DIPOLE MOMENTS
-----------------------------------------------------------------------------
State   Energy    Wavelength  fosc         T2        TX        TY        TZ
        (cm-1)      (nm)                 (au**2)    (au)      (au)      (au)
-----------------------------------------------------------------------------
   1   23240.2    430.3   1.948063595  27.59554  -2.68512  -4.49338   0.44185
   2   26490.3    377.5   0.025287457   0.31426  -0.51147  -0.20467   0.10378
   3   29837.9    335.1   0.360977837   3.98279  -1.83782   0.15875   0.76158

FINAL SINGLE POINT ENERGY     -4723.779727757785

DIPOLE MOMENT
-------------
                                X             Y             Z
Electronic contribution:     -7.01298      38.19175     -23.70665
Nuclear contribution   :      6.93609     -40.66764      24.88500
                        -----------------------------------------
Total Dipole Moment    :     -0.07689      -2.47589       1.17835
                        -----------------------------------------
Magnitude (a.u.)       :      2.74307
Magnitude (Debye)      :      6.97234

Rotational constants in cm-1:     0.001659     0.000422     0.000385
Rotational constants in MHz :    49.722820    12.665846    11.535841

                             ****ORCA TERMINATED NORMALLY****
TOTAL RUN TIME: 1 days 4 hours 34 minutes 42 seconds 219 msec
