                         Program Version 4.2.0 -  RELEASE  -
|  1> # ORCA input file
|  2> # Y15.out
|  3> ! Engrad Keepdens
|  4> %maxcore 1000
|  5> %tddft
|  6>   nroots 3
|  7>   # nroots is the number of states to be computed
|  8>   Iroot 1
|  9>   end
| 10> * xyz 0 1
| 11>    C        4.80123         3.56747         0.79132
| 12>    O        6.00162         3.68995         0.61660
| 13>    C        3.85957         4.64994         1.13971
| 14>    C        4.12006         5.99036         1.33294
| 15>    C        3.05910         6.82546         1.66139
| 16>   Cl        3.34002         8.50131         1.91118
| 17>    C        1.76723         6.30556         1.78877
| 18>   Cl        0.46413         7.34795         2.19539
| 19>    C        1.51062         4.95205         1.59252
| 20>    C        2.56523         4.11666         1.26549
| 21>    C        2.62142         2.67784         1.00425
| 22>    C        1.54517         1.82764         1.05133
| 23>    C        1.57771         0.43856         0.81068
| 24>    N        1.51848        -0.69508         0.63207
| 25>    C        0.22962         2.23448         1.35868
| 26>    N       -0.86236         2.49418         1.59907
| 27>    C        3.99995         2.34666         0.70822
| 28>    C        4.46588         1.08669         0.40603
| 29>    C        5.75357         0.62728         0.12545
| 30>    S        7.20304         1.63366         0.09494
| 31>    C        8.16619         0.25257        -0.27180
| 32>    C        7.39315        -0.92019        -0.37189
| 33>    C        6.03910        -0.72518        -0.15054
| 34>    C        5.03366        -1.82429        -0.25731
| 35>    C        4.38810        -1.83632        -1.64603
| 36>    S        8.33309        -2.35516        -0.73693
| 37>    C        9.76362        -1.37871        -0.75188
| 38>    C        9.51681        -0.01309        -0.49024
| 39>    N       10.68799         0.68073        -0.53725
| 40>    C       10.77719         2.09846        -0.29499
| 41>    C       10.56125         2.42912         1.18003
| 42>    C       11.69391        -0.20698        -0.84760
| 43>    C       11.12727        -1.51868        -0.98185
| 44>    C       11.96068        -2.64338        -1.22637
| 45>    N       11.69649        -3.94870        -1.20287
| 46>    N       12.83628        -4.51966        -1.49010
| 47>    C       13.01474        -5.94710        -1.48103
| 48>    C       11.67815        -6.66602        -1.50197
| 49>    N       13.84640        -3.70681        -1.71478
| 50>    C       13.33593        -2.49514        -1.53677
| 51>    C       13.87884        -1.16284        -1.67335
| 52>    C       13.04642        -0.04549        -1.13751
| 53>    N       14.15011         0.70298        -0.84935
| 54>    C       14.44276         2.05984        -0.48294
| 55>    C       14.39412         2.26461         1.02938
| 56>    C       15.05897        -0.33107        -1.15198
| 57>    C       14.67089        -0.79547        -2.92755
| 58>    S       14.33384         0.75598        -3.72639
| 59>    C       16.01066         0.92178        -3.18828
| 60>    C       16.00416        -0.27673        -2.35737
| 61>    S       17.48758        -1.21990        -2.01176
| 62>    C       17.13388         0.30464        -5.02709
| 63>    C       17.00397         1.32766        -4.21002
| 64>    C       17.56241         2.70188        -4.29805
| 65>    C       18.42095         2.89140        -5.54093
| 66>    C       16.75325        -0.87702        -5.39497
| 67>    C       16.26827        -2.01011        -5.62267
| 68>    C       14.98629        -5.22562        -5.15606
| 69>    C       15.21723        -6.57281        -4.99651
| 70>    C       14.18935        -7.46953        -4.67027
| 71>    N       13.36756        -8.21825        -4.37895
| 72>    C       16.50626        -7.12165        -5.13656
| 73>    N       17.54967        -7.58348        -5.25471
| 74>    C       13.75673        -4.48208        -5.05060
| 75>    C       12.46410        -4.82603        -4.67575
| 76>    C       11.53894        -3.80847        -4.51943
| 77>   Cl        9.94437        -4.18256        -3.99483
| 78>    C       11.88842        -2.46872        -4.76322
| 79>   Cl       10.73430        -1.22836        -4.47224
| 80>    C       13.14818        -2.12450        -5.21165
| 81>    C       14.08758        -3.14067        -5.34406
| 82>    C       15.50348        -3.10616        -5.55256
| 83>    O       15.99821        -4.38029        -5.43553
| 84>    H        5.12152         6.37759         1.23182
| 85>    H        0.50146         4.59021         1.70005
| 86>    H        3.72002         0.30434         0.38300
| 87>    H        4.25691        -1.72304         0.50196
| 88>    H        5.54816        -2.77369        -0.09596
| 89>    H        3.87124        -0.89924        -1.83941
| 90>    H        3.66693        -2.64602        -1.70851
| 91>    H        5.14468        -1.98117        -2.41369
| 92>    H       10.00945         2.60058        -0.89274
| 93>    H       11.75658         2.43833        -0.62921
| 94>    H       11.22336         1.83827         1.80946
| 95>    H        9.53489         2.21992         1.46835
| 96>    H       10.75659         3.48339         1.35266
| 97>    H       13.58004        -6.21552        -0.58146
| 98>    H       13.62357        -6.21172        -2.34859
| 99>    H       11.12116        -6.45766        -0.59326
|100>    H       11.84680        -7.73525        -1.58626
|101>    H       11.08037        -6.33818        -2.34678
|102>    H       13.75068         2.73718        -0.99287
|103>    H       15.45252         2.27280        -0.84649
|104>    H       13.41200         2.01851         1.42169
|105>    H       14.61775         3.30029         1.26890
|106>    H       15.12949         1.62601         1.51245
|107>    H       18.15153         2.89368        -3.39474
|108>    H       16.73107         3.41447        -4.29500
|109>    H       19.25172         2.18913        -5.53875
|110>    H       18.82118         3.90131        -5.57336
|111>    H       17.83104         2.72256        -6.43903
|112>    H       17.96920        -1.21602        -3.25338
|113>    H       12.18422        -5.84991        -4.48914
|114>    H       13.39608        -1.10080        -5.43566
|115> *
|116>
|117>                          ****END OF INPUT****

CARTESIAN COORDINATES (ANGSTROEM)
---------------------------------
  C      4.801230    3.567470    0.791320
  O      6.001620    3.689950    0.616600
  C      3.859570    4.649940    1.139710
  C      4.120060    5.990360    1.332940
  C      3.059100    6.825460    1.661390
  Cl     3.340020    8.501310    1.911180
  C      1.767230    6.305560    1.788770
  Cl     0.464130    7.347950    2.195390
  C      1.510620    4.952050    1.592520
  C      2.565230    4.116660    1.265490
  C      2.621420    2.677840    1.004250
  C      1.545170    1.827640    1.051330
  C      1.577710    0.438560    0.810680
  N      1.518480   -0.695080    0.632070
  C      0.229620    2.234480    1.358680
  N     -0.862360    2.494180    1.599070
  C      3.999950    2.346660    0.708220
  C      4.465880    1.086690    0.406030
  C      5.753570    0.627280    0.125450
  S      7.203040    1.633660    0.094940
  C      8.166190    0.252570   -0.271800
  C      7.393150   -0.920190   -0.371890
  C      6.039100   -0.725180   -0.150540
  C      5.033660   -1.824290   -0.257310
  C      4.388100   -1.836320   -1.646030
  S      8.333090   -2.355160   -0.736930
  C      9.763620   -1.378710   -0.751880
  C      9.516810   -0.013090   -0.490240
  N     10.687990    0.680730   -0.537250
  C     10.777190    2.098460   -0.294990
  C     10.561250    2.429120    1.180030
  C     11.693910   -0.206980   -0.847600
  C     11.127270   -1.518680   -0.981850
  C     11.960680   -2.643380   -1.226370
  N     11.696490   -3.948700   -1.202870
  N     12.836280   -4.519660   -1.490100
  C     13.014740   -5.947100   -1.481030
  C     11.678150   -6.666020   -1.501970
  N     13.846400   -3.706810   -1.714780
  C     13.335930   -2.495140   -1.536770
  C     13.878840   -1.162840   -1.673350
  C     13.046420   -0.045490   -1.137510
  N     14.150110    0.702980   -0.849350
  C     14.442760    2.059840   -0.482940
  C     14.394120    2.264610    1.029380
  C     15.058970   -0.331070   -1.151980
  C     14.670890   -0.795470   -2.927550
  S     14.333840    0.755980   -3.726390
  C     16.010660    0.921780   -3.188280
  C     16.004160   -0.276730   -2.357370
  S     17.487580   -1.219900   -2.011760
  C     17.133880    0.304640   -5.027090
  C     17.003970    1.327660   -4.210020
  C     17.562410    2.701880   -4.298050
  C     18.420950    2.891400   -5.540930
  C     16.753250   -0.877020   -5.394970
  C     16.268270   -2.010110   -5.622670
  C     14.986290   -5.225620   -5.156060
  C     15.217230   -6.572810   -4.996510
  C     14.189350   -7.469530   -4.670270
  N     13.367560   -8.218250   -4.378950
  C     16.506260   -7.121650   -5.136560
  N     17.549670   -7.583480   -5.254710
  C     13.756730   -4.482080   -5.050600
  C     12.464100   -4.826030   -4.675750
  C     11.538940   -3.808470   -4.519430
  Cl     9.944370   -4.182560   -3.994830
  C     11.888420   -2.468720   -4.763220
  Cl    10.734300   -1.228360   -4.472240
  C     13.148180   -2.124500   -5.211650
  C     14.087580   -3.140670   -5.344060
  C     15.503480   -3.106160   -5.552560
  O     15.998210   -4.380290   -5.435530
  H      5.121520    6.377590    1.231820
  H      0.501460    4.590210    1.700050
  H      3.720020    0.304340    0.383000
  H      4.256910   -1.723040    0.501960
  H      5.548160   -2.773690   -0.095960
  H      3.871240   -0.899240   -1.839410
  H      3.666930   -2.646020   -1.708510
  H      5.144680   -1.981170   -2.413690
  H     10.009450    2.600580   -0.892740
  H     11.756580    2.438330   -0.629210
  H     11.223360    1.838270    1.809460
  H      9.534890    2.219920    1.468350
  H     10.756590    3.483390    1.352660
  H     13.580040   -6.215520   -0.581460
  H     13.623570   -6.211720   -2.348590
  H     11.121160   -6.457660   -0.593260
  H     11.846800   -7.735250   -1.586260
  H     11.080370   -6.338180   -2.346780
  H     13.750680    2.737180   -0.992870
  H     15.452520    2.272800   -0.846490
  H     13.412000    2.018510    1.421690
  H     14.617750    3.300290    1.268900
  H     15.129490    1.626010    1.512450
  H     18.151530    2.893680   -3.394740
  H     16.731070    3.414470   -4.295000
  H     19.251720    2.189130   -5.538750
  H     18.821180    3.901310   -5.573360
  H     17.831040    2.722560   -6.439030
  H     17.969200   -1.216020   -3.253380
  H     12.184220   -5.849910   -4.489140
  H     13.396080   -1.100800   -5.435660

 Total Charge           Charge          ....    0
 Multiplicity           Mult            ....    1
 Number of Electrons    NEL             ....  566
 Basis Dimension        Dim             .... 1209

ORBITAL ENERGIES
----------------

  NO   OCC          E(Eh)            E(eV)
   0   2.0000    -104.830100     -2852.5721
   1   2.0000    -104.829646     -2852.5597
   2   2.0000    -104.827227     -2852.4939
   3   2.0000    -104.821524     -2852.3387
   4   2.0000     -91.987915     -2503.1184
   5   2.0000     -91.982662     -2502.9755
   6   2.0000     -91.960062     -2502.3605
   7   2.0000     -91.918848     -2501.2390
   8   2.0000     -20.659247      -562.1667
   9   2.0000     -20.580570      -560.0258
  10   2.0000     -15.700586      -427.2347
  11   2.0000     -15.666674      -426.3119
  12   2.0000     -15.656565      -426.0368
  13   2.0000     -15.626708      -425.2243
  14   2.0000     -15.619443      -425.0267
  15   2.0000     -15.603264      -424.5864
  16   2.0000     -15.594785      -424.3557
  17   2.0000     -15.586747      -424.1369
  18   2.0000     -15.569803      -423.6759
  19   2.0000     -11.396402      -310.1119
  20   2.0000     -11.378269      -309.6184
  21   2.0000     -11.355397      -308.9961
  22   2.0000     -11.352517      -308.9177
  23   2.0000     -11.352227      -308.9098
  24   2.0000     -11.351413      -308.8877
  25   2.0000     -11.350830      -308.8718
  26   2.0000     -11.348832      -308.8174
  27   2.0000     -11.339678      -308.5683
  28   2.0000     -11.331306      -308.3405
  29   2.0000     -11.329029      -308.2786
  30   2.0000     -11.328387      -308.2611
  31   2.0000     -11.327521      -308.2375
  32   2.0000     -11.321547      -308.0750
  33   2.0000     -11.317952      -307.9771
  34   2.0000     -11.317658      -307.9691
  35   2.0000     -11.314535      -307.8841
  36   2.0000     -11.311729      -307.8078
  37   2.0000     -11.308808      -307.7283
  38   2.0000     -11.308651      -307.7240
  39   2.0000     -11.308620      -307.7232
  40   2.0000     -11.306805      -307.6738
  41   2.0000     -11.305639      -307.6421
  42   2.0000     -11.303571      -307.5858
  43   2.0000     -11.302652      -307.5608
  44   2.0000     -11.302647      -307.5607
  45   2.0000     -11.302608      -307.5596
  46   2.0000     -11.302091      -307.5455
  47   2.0000     -11.301453      -307.5282
  48   2.0000     -11.301406      -307.5269
  49   2.0000     -11.300162      -307.4930
  50   2.0000     -11.300073      -307.4906
  51   2.0000     -11.298738      -307.4543
  52   2.0000     -11.296969      -307.4062
  53   2.0000     -11.295725      -307.3723
  54   2.0000     -11.294657      -307.3432
  55   2.0000     -11.294198      -307.3308
  56   2.0000     -11.291757      -307.2643
  57   2.0000     -11.291161      -307.2481
  58   2.0000     -11.290528      -307.2309
  59   2.0000     -11.290061      -307.2182
  60   2.0000     -11.289537      -307.2039
  61   2.0000     -11.289205      -307.1949
  62   2.0000     -11.288444      -307.1742
  63   2.0000     -11.287431      -307.1466
  64   2.0000     -11.284248      -307.0600
  65   2.0000     -11.281583      -306.9875
  66   2.0000     -11.269668      -306.6633
  67   2.0000     -11.261079      -306.4295
  68   2.0000     -11.260739      -306.4203
  69   2.0000     -11.253984      -306.2365
  70   2.0000     -11.247862      -306.0699
  71   2.0000     -11.239151      -305.8328
  72   2.0000     -11.230937      -305.6093
  73   2.0000     -10.593865      -288.2737
  74   2.0000     -10.593219      -288.2561
  75   2.0000     -10.591007      -288.1959
  76   2.0000     -10.585060      -288.0341
  77   2.0000      -9.021271      -245.4813
  78   2.0000      -9.017266      -245.3723
  79   2.0000      -8.994818      -244.7614
  80   2.0000      -8.954352      -243.6603
  81   2.0000      -8.068965      -219.5677
  82   2.0000      -8.068316      -219.5500
  83   2.0000      -8.066102      -219.4898
  84   2.0000      -8.065173      -219.4645
  85   2.0000      -8.065169      -219.4644
  86   2.0000      -8.064590      -219.4487
  87   2.0000      -8.064577      -219.4483
  88   2.0000      -8.062300      -219.3863
  89   2.0000      -8.062289      -219.3860
  90   2.0000      -8.060167      -219.3283
  91   2.0000      -8.056451      -219.2272
  92   2.0000      -8.056345      -219.2243
  93   2.0000      -6.708440      -182.5459
  94   2.0000      -6.707076      -182.5088
  95   2.0000      -6.705049      -182.4537
  96   2.0000      -6.704823      -182.4475
  97   2.0000      -6.704011      -182.4254
  98   2.0000      -6.701599      -182.3598
  99   2.0000      -6.681699      -181.8183
 100   2.0000      -6.681305      -181.8076
 101   2.0000      -6.679221      -181.7509
 102   2.0000      -6.642241      -180.7446
 103   2.0000      -6.640784      -180.7049
 104   2.0000      -6.638572      -180.6447
 105   2.0000      -1.502510       -40.8854
 106   2.0000      -1.473957       -40.1084
 107   2.0000      -1.413897       -38.4741
 108   2.0000      -1.377775       -37.4912
 109   2.0000      -1.360803       -37.0293
 110   2.0000      -1.265769       -34.4433
 111   2.0000      -1.252998       -34.0958
 112   2.0000      -1.248370       -33.9699
 113   2.0000      -1.242843       -33.8195
 114   2.0000      -1.236411       -33.6445
 115   2.0000      -1.234950       -33.6047
 116   2.0000      -1.224833       -33.3294
 117   2.0000      -1.218392       -33.1541
 118   2.0000      -1.210875       -32.9496
 119   2.0000      -1.209562       -32.9138
 120   2.0000      -1.192833       -32.4586
 121   2.0000      -1.174158       -31.9505
 122   2.0000      -1.171135       -31.8682
 123   2.0000      -1.167507       -31.7695
 124   2.0000      -1.163803       -31.6687
 125   2.0000      -1.152727       -31.3673
 126   2.0000      -1.144868       -31.1534
 127   2.0000      -1.140511       -31.0349
 128   2.0000      -1.133629       -30.8476
 129   2.0000      -1.113831       -30.3089
 130   2.0000      -1.104324       -30.0502
 131   2.0000      -1.095414       -29.8077
 132   2.0000      -1.092082       -29.7171
 133   2.0000      -1.069376       -29.0992
 134   2.0000      -1.065034       -28.9811
 135   2.0000      -1.059488       -28.8301
 136   2.0000      -1.057368       -28.7724
 137   2.0000      -1.051384       -28.6096
 138   2.0000      -1.046278       -28.4707
 139   2.0000      -1.031116       -28.0581
 140   2.0000      -1.028791       -27.9948
 141   2.0000      -1.024481       -27.8775
 142   2.0000      -1.010258       -27.4905
 143   2.0000      -1.003404       -27.3040
 144   2.0000      -0.986026       -26.8311
 145   2.0000      -0.978760       -26.6334
 146   2.0000      -0.971046       -26.4235
 147   2.0000      -0.943802       -25.6821
 148   2.0000      -0.935282       -25.4503
 149   2.0000      -0.929725       -25.2991
 150   2.0000      -0.920795       -25.0561
 151   2.0000      -0.915566       -24.9138
 152   2.0000      -0.907480       -24.6938
 153   2.0000      -0.900716       -24.5097
 154   2.0000      -0.891226       -24.2515
 155   2.0000      -0.883503       -24.0413
 156   2.0000      -0.874602       -23.7991
 157   2.0000      -0.870119       -23.6771
 158   2.0000      -0.863149       -23.4875
 159   2.0000      -0.858532       -23.3619
 160   2.0000      -0.846406       -23.0319
 161   2.0000      -0.840048       -22.8589
 162   2.0000      -0.837474       -22.7888
 163   2.0000      -0.828378       -22.5413
 164   2.0000      -0.810844       -22.0642
 165   2.0000      -0.804442       -21.8900
 166   2.0000      -0.797151       -21.6916
 167   2.0000      -0.791331       -21.5332
 168   2.0000      -0.786261       -21.3953
 169   2.0000      -0.781672       -21.2704
 170   2.0000      -0.768506       -20.9121
 171   2.0000      -0.761135       -20.7115
 172   2.0000      -0.758900       -20.6507
 173   2.0000      -0.746150       -20.3038
 174   2.0000      -0.735913       -20.0252
 175   2.0000      -0.732954       -19.9447
 176   2.0000      -0.723272       -19.6812
 177   2.0000      -0.717294       -19.5186
 178   2.0000      -0.716441       -19.4953
 179   2.0000      -0.714385       -19.4394
 180   2.0000      -0.712817       -19.3967
 181   2.0000      -0.707588       -19.2545
 182   2.0000      -0.702542       -19.1171
 183   2.0000      -0.696744       -18.9594
 184   2.0000      -0.696521       -18.9533
 185   2.0000      -0.691924       -18.8282
 186   2.0000      -0.684810       -18.6346
 187   2.0000      -0.676670       -18.4131
 188   2.0000      -0.672151       -18.2902
 189   2.0000      -0.664333       -18.0774
 190   2.0000      -0.662658       -18.0318
 191   2.0000      -0.661599       -18.0030
 192   2.0000      -0.658986       -17.9319
 193   2.0000      -0.655419       -17.8348
 194   2.0000      -0.653047       -17.7703
 195   2.0000      -0.648392       -17.6436
 196   2.0000      -0.646979       -17.6052
 197   2.0000      -0.643019       -17.4974
 198   2.0000      -0.641381       -17.4529
 199   2.0000      -0.637849       -17.3568
 200   2.0000      -0.633971       -17.2512
 201   2.0000      -0.626304       -17.0426
 202   2.0000      -0.623358       -16.9624
 203   2.0000      -0.621165       -16.9028
 204   2.0000      -0.618733       -16.8366
 205   2.0000      -0.615095       -16.7376
 206   2.0000      -0.601774       -16.3751
 207   2.0000      -0.598074       -16.2744
 208   2.0000      -0.595678       -16.2092
 209   2.0000      -0.595018       -16.1913
 210   2.0000      -0.593828       -16.1589
 211   2.0000      -0.588609       -16.0169
 212   2.0000      -0.586380       -15.9562
 213   2.0000      -0.586022       -15.9465
 214   2.0000      -0.582635       -15.8543
 215   2.0000      -0.580998       -15.8098
 216   2.0000      -0.577228       -15.7072
 217   2.0000      -0.574080       -15.6215
 218   2.0000      -0.573274       -15.5996
 219   2.0000      -0.571134       -15.5413
 220   2.0000      -0.570856       -15.5338
 221   2.0000      -0.570161       -15.5149
 222   2.0000      -0.568966       -15.4823
 223   2.0000      -0.566838       -15.4245
 224   2.0000      -0.563727       -15.3398
 225   2.0000      -0.560923       -15.2635
 226   2.0000      -0.555935       -15.1278
 227   2.0000      -0.555659       -15.1203
 228   2.0000      -0.553343       -15.0572
 229   2.0000      -0.547869       -14.9083
 230   2.0000      -0.547129       -14.8881
 231   2.0000      -0.543146       -14.7797
 232   2.0000      -0.540029       -14.6949
 233   2.0000      -0.535610       -14.5747
 234   2.0000      -0.530748       -14.4424
 235   2.0000      -0.529729       -14.4147
 236   2.0000      -0.526139       -14.3170
 237   2.0000      -0.523746       -14.2518
 238   2.0000      -0.523383       -14.2420
 239   2.0000      -0.519525       -14.1370
 240   2.0000      -0.518943       -14.1212
 241   2.0000      -0.516631       -14.0582
 242   2.0000      -0.512699       -13.9513
 243   2.0000      -0.511708       -13.9243
 244   2.0000      -0.509538       -13.8652
 245   2.0000      -0.508337       -13.8326
 246   2.0000      -0.506599       -13.7853
 247   2.0000      -0.502865       -13.6836
 248   2.0000      -0.501167       -13.6375
 249   2.0000      -0.497838       -13.5469
 250   2.0000      -0.495628       -13.4867
 251   2.0000      -0.492318       -13.3966
 252   2.0000      -0.491747       -13.3811
 253   2.0000      -0.490581       -13.3494
 254   2.0000      -0.488511       -13.2931
 255   2.0000      -0.485094       -13.2001
 256   2.0000      -0.484118       -13.1735
 257   2.0000      -0.480583       -13.0773
 258   2.0000      -0.473030       -12.8718
 259   2.0000      -0.469708       -12.7814
 260   2.0000      -0.468713       -12.7543
 261   2.0000      -0.467642       -12.7252
 262   2.0000      -0.463572       -12.6144
 263   2.0000      -0.452561       -12.3148
 264   2.0000      -0.444095       -12.0844
 265   2.0000      -0.439721       -11.9654
 266   2.0000      -0.423349       -11.5199
 267   2.0000      -0.420902       -11.4533
 268   2.0000      -0.414048       -11.2668
 269   2.0000      -0.396969       -10.8021
 270   2.0000      -0.392496       -10.6803
 271   2.0000      -0.390563       -10.6278
 272   2.0000      -0.384419       -10.4606
 273   2.0000      -0.369525       -10.0553
 274   2.0000      -0.364081        -9.9072
 275   2.0000      -0.360502        -9.8097
 276   2.0000      -0.358327        -9.7506
 277   2.0000      -0.350608        -9.5405
 278   2.0000      -0.327753        -8.9186
 279   2.0000      -0.320866        -8.7312
 280   2.0000      -0.314277        -8.5519
 281   2.0000      -0.289300        -7.8723
 282   2.0000      -0.252685        -6.8759
 283   0.0000      -0.050086        -1.3629
 284   0.0000      -0.016855        -0.4586
 285   0.0000      -0.001806        -0.0492
 286   0.0000       0.013289         0.3616
 287   0.0000       0.038465         1.0467

MULLIKEN ATOMIC CHARGES
-----------------------
   0 C :    0.537610
   1 O :   -0.403535
   2 C :   -0.178562
   3 C :    0.056350
   4 C :    0.049521
   5 Cl:   -0.076028
   6 C :    0.039715
   7 Cl:   -0.068116
   8 C :    0.038789
   9 C :   -0.035334
  10 C :    0.266575
  11 C :   -0.378183
  12 C :    0.037961
  13 N :   -0.077678
  14 C :    0.031085
  15 N :   -0.062489
  16 C :   -0.322826
  17 C :    0.082017
  18 C :   -0.163170
  19 S :    0.259252
  20 C :   -0.005580
  21 C :   -0.091473
  22 C :   -0.110643
  23 C :   -0.012984
  24 C :   -0.001056
  25 S :    0.238071
  26 C :    0.011221
  27 C :    0.132168
  28 N :   -0.561993
  29 C :    0.140916
  30 C :   -0.053335
  31 C :    0.173653
  32 C :   -0.169867
  33 C :    0.038805
  34 N :   -0.147103
  35 N :   -0.242804
  36 C :    0.182876
  37 C :   -0.049372
  38 N :   -0.160923
  39 C :    0.198754
  40 C :   -0.442776
  41 C :    0.339753
  42 N :   -0.499468
  43 C :    0.133125
  44 C :   -0.017089
  45 C :    0.271992
  46 C :   -0.010048
  47 S :    0.098810
  48 C :   -0.163114
  49 C :   -0.272956
  50 S :    0.067360
  51 C :   -0.118515
  52 C :   -0.138944
  53 C :    0.043773
  54 C :   -0.027866
  55 C :    0.128939
  56 C :   -0.030560
  57 C :    0.548638
  58 C :   -0.500256
  59 C :    0.042517
  60 N :   -0.080543
  61 C :    0.096686
  62 N :   -0.051721
  63 C :   -0.149432
  64 C :    0.043388
  65 C :    0.029748
  66 Cl:   -0.071849
  67 C :    0.053550
  68 Cl:   -0.081896
  69 C :    0.050965
  70 C :   -0.001834
  71 C :    0.258726
  72 O :   -0.447776
  73 H :    0.063781
  74 H :    0.082453
  75 H :    0.082322
  76 H :    0.074612
  77 H :    0.058285
  78 H :    0.033805
  79 H :    0.059938
  80 H :    0.040539
  81 H :    0.068647
  82 H :    0.042114
  83 H :    0.052104
  84 H :    0.061827
  85 H :    0.050703
  86 H :    0.065653
  87 H :    0.063455
  88 H :    0.049278
  89 H :    0.061411
  90 H :    0.038501
  91 H :    0.049469
  92 H :    0.077330
  93 H :    0.020662
  94 H :    0.042011
  95 H :    0.056581
  96 H :    0.057937
  97 H :    0.049189
  98 H :    0.044196
  99 H :    0.040590
 100 H :    0.041144
 101 H :    0.082130
 102 H :    0.082412
 103 H :    0.063307
Sum of atomic charges:    0.0000000

LOEWDIN ATOMIC CHARGES
----------------------
   0 C :    0.169398
   1 O :   -0.259003
   2 C :   -0.051141
   3 C :    0.015369
   4 C :   -0.116902
   5 Cl:    0.133510
   6 C :   -0.113951
   7 Cl:    0.137588
   8 C :    0.004845
   9 C :   -0.021685
  10 C :    0.121248
  11 C :   -0.177788
  12 C :    0.015807
  13 N :   -0.097625
  14 C :    0.010846
  15 N :   -0.089533
  16 C :   -0.170787
  17 C :    0.118095
  18 C :   -0.213851
  19 S :    0.479953
  20 C :   -0.178521
  21 C :   -0.197475
  22 C :    0.017750
  23 C :   -0.014019
  24 C :   -0.015521
  25 S :    0.403600
  26 C :   -0.172949
  27 C :    0.001191
  28 N :   -0.005037
  29 C :    0.077831
  30 C :   -0.035560
  31 C :   -0.012671
  32 C :   -0.029651
  33 C :   -0.071620
  34 N :   -0.081056
  35 N :    0.106519
  36 C :    0.073393
  37 C :   -0.031999
  38 N :   -0.089136
  39 C :   -0.026307
  40 C :   -0.086061
  41 C :    0.095639
  42 N :   -0.004386
  43 C :    0.065201
  44 C :   -0.034415
  45 C :   -0.064470
  46 C :   -0.196975
  47 S :    0.343100
  48 C :   -0.223568
  49 C :   -0.177644
  50 S :    0.211535
  51 C :   -0.034104
  52 C :   -0.016438
  53 C :   -0.011802
  54 C :   -0.029079
  55 C :   -0.026736
  56 C :   -0.023660
  57 C :    0.220872
  58 C :   -0.214511
  59 C :    0.014182
  60 N :   -0.107932
  61 C :    0.010744
  62 N :   -0.087211
  63 C :   -0.064051
  64 C :    0.015837
  65 C :   -0.136237
  66 Cl:    0.138611
  67 C :   -0.104414
  68 Cl:    0.133633
  69 C :   -0.006730
  70 C :    0.013467
  71 C :    0.065127
  72 O :   -0.073010
  73 H :    0.048279
  74 H :    0.047670
  75 H :    0.048479
  76 H :    0.033192
  77 H :    0.027331
  78 H :    0.016852
  79 H :    0.028261
  80 H :    0.020187
  81 H :    0.026285
  82 H :    0.020552
  83 H :    0.020563
  84 H :    0.016267
  85 H :    0.027307
  86 H :    0.029177
  87 H :    0.022464
  88 H :    0.023788
  89 H :    0.031230
  90 H :    0.012876
  91 H :    0.013756
  92 H :    0.031749
  93 H :    0.013121
  94 H :    0.023639
  95 H :    0.028880
  96 H :    0.033867
  97 H :    0.029260
  98 H :    0.022491
  99 H :    0.020854
 100 H :    0.021257
 101 H :   -0.033878
 102 H :    0.045846
 103 H :    0.030726

  Mayer bond orders larger than 0.100000
B(  0-C ,  1-O ) :   1.9897 B(  0-C ,  2-C ) :   0.9860 B(  0-C , 16-C ) :   0.9954
B(  2-C ,  3-C ) :   1.4209 B(  2-C ,  9-C ) :   1.3531 B(  3-C ,  4-C ) :   1.3929
B(  3-C , 73-H ) :   1.0158 B(  4-C ,  5-Cl) :   1.0146 B(  4-C ,  6-C ) :   1.4253
B(  6-C ,  7-Cl) :   1.0427 B(  6-C ,  8-C ) :   1.4131 B(  8-C ,  9-C ) :   1.4157
B(  8-C , 74-H ) :   0.9907 B(  9-C , 10-C ) :   1.0338 B( 10-C , 11-C ) :   1.6629
B( 10-C , 16-C ) :   1.1264 B( 11-C , 12-C ) :   1.0742 B( 11-C , 14-C ) :   1.0674
B( 12-C , 13-N ) :   2.9703 B( 14-C , 15-N ) :   2.9794 B( 16-C , 17-C ) :   1.5694
B( 17-C , 18-C ) :   1.3316 B( 17-C , 75-H ) :   0.9580 B( 18-C , 19-S ) :   1.0353
B( 18-C , 22-C ) :   1.4565 B( 19-S , 20-C ) :   1.0202 B( 20-C , 21-C ) :   1.4688
B( 20-C , 27-C ) :   1.3594 B( 21-C , 22-C ) :   1.5070 B( 21-C , 25-S ) :   0.9848
B( 22-C , 23-C ) :   0.9798 B( 23-C , 24-C ) :   1.0392 B( 23-C , 76-H ) :   0.9575
B( 23-C , 77-H ) :   0.9668 B( 24-C , 78-H ) :   0.9858 B( 24-C , 79-H ) :   0.9860
B( 24-C , 80-H ) :   0.9816 B( 25-S , 26-C ) :   0.9584 B( 26-C , 27-C ) :   1.4038
B( 26-C , 32-C ) :   1.5326 B( 27-C , 28-N ) :   1.1404 B( 28-N , 29-C ) :   0.8450
B( 28-N , 31-C ) :   1.0856 B( 29-C , 30-C ) :   1.0393 B( 29-C , 81-H ) :   0.9762
B( 29-C , 82-H ) :   0.9822 B( 30-C , 83-H ) :   0.9788 B( 30-C , 84-H ) :   0.9771
B( 30-C , 85-H ) :   0.9841 B( 31-C , 32-C ) :   1.3878 B( 31-C , 41-C ) :   1.2383
B( 32-C , 33-C ) :   1.0663 B( 33-C , 34-N ) :   1.5318 B( 33-C , 39-C ) :   1.3135
B( 34-N , 35-N ) :   1.2329 B( 34-N , 38-N ) :   0.1108 B( 35-N , 36-C ) :   0.8125
B( 35-N , 38-N ) :   1.1861 B( 36-C , 37-C ) :   1.0605 B( 36-C , 86-H ) :   0.9690
B( 36-C , 87-H ) :   0.9799 B( 37-C , 88-H ) :   0.9747 B( 37-C , 89-H ) :   0.9798
B( 37-C , 90-H ) :   0.9779 B( 38-N , 39-C ) :   1.5897 B( 39-C , 40-C ) :   1.0104
B( 40-C , 41-C ) :   1.0718 B( 40-C , 45-C ) :   1.0992 B( 40-C , 46-C ) :   0.9498
B( 41-C , 42-N ) :   1.2525 B( 42-N , 43-C ) :   0.8225 B( 42-N , 45-C ) :   1.0194
B( 43-C , 44-C ) :   1.0397 B( 43-C , 91-H ) :   0.9780 B( 43-C , 92-H ) :   0.9704
B( 44-C , 93-H ) :   0.9834 B( 44-C , 94-H ) :   0.9837 B( 44-C , 95-H ) :   0.9785
B( 45-C , 46-C ) :   0.1367 B( 45-C , 49-C ) :   0.9550 B( 46-C , 47-S ) :   1.1882
B( 46-C , 49-C ) :   1.0258 B( 47-S , 48-C ) :   1.1507 B( 48-C , 49-C ) :   1.2280
B( 48-C , 52-C ) :   0.9641 B( 49-C , 50-S ) :   1.0058 B( 50-S ,101-H ) :   0.9495
B( 51-C , 52-C ) :   1.9421 B( 51-C , 55-C ) :   1.6819 B( 52-C , 53-C ) :   0.9455
B( 53-C , 54-C ) :   1.0755 B( 53-C , 96-H ) :   0.9533 B( 53-C , 97-H ) :   0.9603
B( 54-C , 98-H ) :   0.9791 B( 54-C , 99-H ) :   0.9845 B( 54-C ,100-H ) :   0.9809
B( 55-C , 56-C ) :   1.9783 B( 56-C , 71-C ) :   1.6849 B( 57-C , 58-C ) :   1.6478
B( 57-C , 63-C ) :   1.0556 B( 57-C , 72-O ) :   1.0996 B( 58-C , 59-C ) :   1.0889
B( 58-C , 61-C ) :   1.0408 B( 59-C , 60-N ) :   2.9654 B( 61-C , 62-N ) :   3.0293
B( 63-C , 64-C ) :   1.3368 B( 63-C , 70-C ) :   1.3617 B( 64-C , 65-C ) :   1.4720
B( 64-C ,102-H ) :   0.9979 B( 65-C , 66-Cl) :   1.0274 B( 65-C , 67-C ) :   1.3772
B( 67-C , 68-Cl) :   1.0210 B( 67-C , 69-C ) :   1.4641 B( 69-C , 70-C ) :   1.3497
B( 69-C ,103-H ) :   0.9958 B( 70-C , 71-C ) :   1.0864 B( 71-C , 72-O ) :   0.9285

-----------------------------------------------------------------------------
         ABSORPTION SPECTRUM VIA TRANSITION ELECTRIC DIPOLE MOMENTS
-----------------------------------------------------------------------------
State   Energy    Wavelength  fosc         T2        TX        TY        TZ
        (cm-1)      (nm)                 (au**2)    (au)      (au)      (au)
-----------------------------------------------------------------------------
   1   16623.4    601.6   0.989440182  19.59498  -3.79476   1.30016   1.87200
   2   21507.6    465.0   0.336001999   5.14309   2.17725   0.60093  -0.20383
   3   24808.3    403.1   0.240612049   3.19297   1.64436  -0.32989  -0.61662

FINAL SINGLE POINT ENERGY     -6126.948765209097

DIPOLE MOMENT
-------------
                                X             Y             Z
Electronic contribution:    -58.39382      14.07603      -2.97682
Nuclear contribution   :     59.53947      -9.36795       3.86053
                        -----------------------------------------
Total Dipole Moment    :      1.14565       4.70808       0.88372
                        -----------------------------------------
Magnitude (a.u.)       :      4.92540
Magnitude (Debye)      :     12.51936

Rotational constants in cm-1:     0.001601     0.000363     0.000315
Rotational constants in MHz :    47.996926    10.894608     9.453128

                             ****ORCA TERMINATED NORMALLY****
TOTAL RUN TIME: 0 days 20 hours 40 minutes 37 seconds 692 msec
