                         Program Version 4.2.0 -  RELEASE  -
|  1> # ORCA input file
|  2> # Y15.out: Geometry 34
|  3> ! Engrad Keepdens
|  4> %maxcore 1000
|  5> %tddft
|  6>   nroots 3
|  7>   # nroots is the number of states to be computed
|  8>   Iroot 1
|  9>   end
| 10> * xyz 0 1
| 11>    C        6.50516         4.64265        -0.80217
| 12>    O        7.24309         3.73449        -1.14794
| 13>    C        6.63929         6.06734        -1.19586
| 14>    C        7.61541         6.64225        -1.99343
| 15>    C        7.55750         8.02116        -2.22366
| 16>   Cl        8.77433         8.76595        -3.20340
| 17>    C        6.51537         8.78472        -1.65479
| 18>   Cl        6.42279        10.49065        -1.94003
| 19>    C        5.53438         8.19027        -0.84900
| 20>    C        5.59695         6.81504        -0.61412
| 21>    C        4.73801         5.90186         0.18353
| 22>    C        3.61689         6.30086         0.89679
| 23>    C        2.79674         5.41120         1.65901
| 24>    N        2.11018         4.71151         2.28555
| 25>    C        3.16779         7.65706         0.94724
| 26>    N        2.77823         8.75064         1.00938
| 27>    C        5.31171         4.56286         0.06860
| 28>    C        4.82398         3.41614         0.66993
| 29>    C        5.25717         2.07732         0.74575
| 30>    S        6.75274         1.38922         0.06283
| 31>    C        6.38285        -0.14574         0.77014
| 32>    C        5.14860        -0.13549         1.46126
| 33>    C        4.51125         1.10892         1.47592
| 34>    C        3.19512         1.36233         2.15824
| 35>    C        1.99664         1.33727         1.20061
| 36>    S        4.74135        -1.69201         2.19556
| 37>    C        6.24872        -2.33739         1.59265
| 38>    C        7.00805        -1.40502         0.86994
| 39>    N        8.19680        -1.97689         0.45221
| 40>    C        8.87030        -1.39514        -0.71056
| 41>    C        8.22181        -1.76728        -2.04010
| 42>    C        8.21652        -3.29927         0.92456
| 43>    C        6.98211        -3.54115         1.62251
| 44>    C        6.71145        -4.82554         2.17655
| 45>    N        5.65010        -5.29708         2.84993
| 46>    N        5.98138        -6.55872         3.09626
| 47>    C        5.05301        -7.48067         3.73506
| 48>    C        4.23099        -8.26355         2.71788
| 49>    N        7.15681        -6.97025         2.63679
| 50>    C        7.65613        -5.87559         2.04138
| 51>    C        8.91465        -5.63179         1.41922
| 52>    C        9.22016        -4.32693         0.89258
| 53>    N       10.55794        -4.33681         0.47808
| 54>    C       11.46563        -3.24645         0.13357
| 55>    C       11.78458        -3.17044        -1.35857
| 56>    C       11.06463        -5.60036         0.70854
| 57>    C       10.07523        -6.41727         1.27745
| 58>    S       10.63841        -8.02263         1.66909
| 59>    C       12.24628        -7.57516         1.08641
| 60>    C       12.30930        -6.25307         0.59386
| 61>    S       13.88603        -5.89507         0.00068
| 62>    C       14.48408        -7.51960         0.46673
| 63>    C       13.44536        -8.30952         1.02212
| 64>    C       13.46973        -9.76590         1.38397
| 65>    C       13.83824       -10.68529         0.21662
| 66>    C       15.84319        -7.71808         0.10496
| 67>    C       16.83113        -8.58202         0.54375
| 68>    C       18.15430        -8.75055        -0.07026
| 69>    C       18.62664        -8.19857        -1.24927
| 70>    C       19.95480        -8.41946        -1.73192
| 71>    N       21.03036        -8.57865        -2.14317
| 72>    C       17.85092        -7.35329        -2.10319
| 73>    N       17.24935        -6.66286        -2.81956
| 74>    C       18.93707        -9.66322         0.80112
| 75>    C       20.23852       -10.16612         0.70972
| 76>    C       20.69653       -11.03916         1.70640
| 77>   Cl       22.31133       -11.65489         1.59234
| 78>    C       19.86916       -11.41477         2.78696
| 79>   Cl       20.43442       -12.50915         4.00113
| 80>    C       18.57545       -10.89581         2.88850
| 81>    C       18.13660       -10.03423         1.89667
| 82>    C       16.82765        -9.34103         1.82210
| 83>    O       15.99066        -9.33762         2.70718
| 84>    H        8.41093         6.03636        -2.42923
| 85>    H        4.75793         8.82600        -0.43192
| 86>    H        3.90535         3.55182         1.23386
| 87>    H        3.21217         2.33001         2.68151
| 88>    H        3.05976         0.59699         2.93859
| 89>    H        2.08774         2.11975         0.43224
| 90>    H        1.06579         1.52110         1.75727
| 91>    H        1.91655         0.36710         0.68625
| 92>    H        9.91841        -1.68523        -0.70954
| 93>    H        8.85970        -0.30422        -0.56766
| 94>    H        8.22011        -2.85862        -2.18515
| 95>    H        8.78192        -1.30648        -2.86814
| 96>    H        7.18375        -1.40663        -2.09056
| 97>    H        4.41234        -6.86981         4.38514
| 98>    H        5.65666        -8.15248         4.36136
| 99>    H        3.63719        -7.58154         2.09001
|100>    H        3.54276        -8.94636         3.23977
|101>    H        4.88742        -8.85950         2.06580
|102>    H       12.39461        -3.41023         0.70157
|103>    H       11.04539        -2.31408         0.52737
|104>    H       12.27675        -4.09335        -1.69920
|105>    H       12.46812        -2.33236        -1.56316
|106>    H       10.87778        -3.03440        -1.96491
|107>    H       12.47095       -10.03960         1.75931
|108>    H       14.17270        -9.91376         2.21503
|109>    H       13.14993       -10.54752        -0.63134
|110>    H       13.78314       -11.73720         0.53734
|111>    H       14.85866       -10.49262        -0.14743
|112>    H       16.16218        -7.01283        -0.66559
|113>    H       20.91840        -9.90667        -0.09753
|114>    H       17.92738       -11.16479         3.72348
|115> *
|116>
|117>                          ****END OF INPUT****

CARTESIAN COORDINATES (ANGSTROEM)
---------------------------------
  C      6.505160    4.642650   -0.802170
  O      7.243090    3.734490   -1.147940
  C      6.639290    6.067340   -1.195860
  C      7.615410    6.642250   -1.993430
  C      7.557500    8.021160   -2.223660
  Cl     8.774330    8.765950   -3.203400
  C      6.515370    8.784720   -1.654790
  Cl     6.422790   10.490650   -1.940030
  C      5.534380    8.190270   -0.849000
  C      5.596950    6.815040   -0.614120
  C      4.738010    5.901860    0.183530
  C      3.616890    6.300860    0.896790
  C      2.796740    5.411200    1.659010
  N      2.110180    4.711510    2.285550
  C      3.167790    7.657060    0.947240
  N      2.778230    8.750640    1.009380
  C      5.311710    4.562860    0.068600
  C      4.823980    3.416140    0.669930
  C      5.257170    2.077320    0.745750
  S      6.752740    1.389220    0.062830
  C      6.382850   -0.145740    0.770140
  C      5.148600   -0.135490    1.461260
  C      4.511250    1.108920    1.475920
  C      3.195120    1.362330    2.158240
  C      1.996640    1.337270    1.200610
  S      4.741350   -1.692010    2.195560
  C      6.248720   -2.337390    1.592650
  C      7.008050   -1.405020    0.869940
  N      8.196800   -1.976890    0.452210
  C      8.870300   -1.395140   -0.710560
  C      8.221810   -1.767280   -2.040100
  C      8.216520   -3.299270    0.924560
  C      6.982110   -3.541150    1.622510
  C      6.711450   -4.825540    2.176550
  N      5.650100   -5.297080    2.849930
  N      5.981380   -6.558720    3.096260
  C      5.053010   -7.480670    3.735060
  C      4.230990   -8.263550    2.717880
  N      7.156810   -6.970250    2.636790
  C      7.656130   -5.875590    2.041380
  C      8.914650   -5.631790    1.419220
  C      9.220160   -4.326930    0.892580
  N     10.557940   -4.336810    0.478080
  C     11.465630   -3.246450    0.133570
  C     11.784580   -3.170440   -1.358570
  C     11.064630   -5.600360    0.708540
  C     10.075230   -6.417270    1.277450
  S     10.638410   -8.022630    1.669090
  C     12.246280   -7.575160    1.086410
  C     12.309300   -6.253070    0.593860
  S     13.886030   -5.895070    0.000680
  C     14.484080   -7.519600    0.466730
  C     13.445360   -8.309520    1.022120
  C     13.469730   -9.765900    1.383970
  C     13.838240  -10.685290    0.216620
  C     15.843190   -7.718080    0.104960
  C     16.831130   -8.582020    0.543750
  C     18.154300   -8.750550   -0.070260
  C     18.626640   -8.198570   -1.249270
  C     19.954800   -8.419460   -1.731920
  N     21.030360   -8.578650   -2.143170
  C     17.850920   -7.353290   -2.103190
  N     17.249350   -6.662860   -2.819560
  C     18.937070   -9.663220    0.801120
  C     20.238520  -10.166120    0.709720
  C     20.696530  -11.039160    1.706400
  Cl    22.311330  -11.654890    1.592340
  C     19.869160  -11.414770    2.786960
  Cl    20.434420  -12.509150    4.001130
  C     18.575450  -10.895810    2.888500
  C     18.136600  -10.034230    1.896670
  C     16.827650   -9.341030    1.822100
  O     15.990660   -9.337620    2.707180
  H      8.410930    6.036360   -2.429230
  H      4.757930    8.826000   -0.431920
  H      3.905350    3.551820    1.233860
  H      3.212170    2.330010    2.681510
  H      3.059760    0.596990    2.938590
  H      2.087740    2.119750    0.432240
  H      1.065790    1.521100    1.757270
  H      1.916550    0.367100    0.686250
  H      9.918410   -1.685230   -0.709540
  H      8.859700   -0.304220   -0.567660
  H      8.220110   -2.858620   -2.185150
  H      8.781920   -1.306480   -2.868140
  H      7.183750   -1.406630   -2.090560
  H      4.412340   -6.869810    4.385140
  H      5.656660   -8.152480    4.361360
  H      3.637190   -7.581540    2.090010
  H      3.542760   -8.946360    3.239770
  H      4.887420   -8.859500    2.065800
  H     12.394610   -3.410230    0.701570
  H     11.045390   -2.314080    0.527370
  H     12.276750   -4.093350   -1.699200
  H     12.468120   -2.332360   -1.563160
  H     10.877780   -3.034400   -1.964910
  H     12.470950  -10.039600    1.759310
  H     14.172700   -9.913760    2.215030
  H     13.149930  -10.547520   -0.631340
  H     13.783140  -11.737200    0.537340
  H     14.858660  -10.492620   -0.147430
  H     16.162180   -7.012830   -0.665590
  H     20.918400   -9.906670   -0.097530
  H     17.927380  -11.164790    3.723480

 Total Charge           Charge          ....    0
 Multiplicity           Mult            ....    1
 Number of Electrons    NEL             ....  566
 Basis Dimension        Dim             .... 1209

ORBITAL ENERGIES
----------------

  NO   OCC          E(Eh)            E(eV)
   0   2.0000    -104.824904     -2852.4307
   1   2.0000    -104.823733     -2852.3988
   2   2.0000    -104.822003     -2852.3517
   3   2.0000    -104.820438     -2852.3091
   4   2.0000     -91.987085     -2503.0958
   5   2.0000     -91.981613     -2502.9469
   6   2.0000     -91.978166     -2502.8531
   7   2.0000     -91.978134     -2502.8523
   8   2.0000     -20.571640      -559.7828
   9   2.0000     -20.569048      -559.7123
  10   2.0000     -15.705640      -427.3722
  11   2.0000     -15.654302      -425.9752
  12   2.0000     -15.649541      -425.8457
  13   2.0000     -15.626326      -425.2139
  14   2.0000     -15.625216      -425.1838
  15   2.0000     -15.600279      -424.5052
  16   2.0000     -15.599873      -424.4941
  17   2.0000     -15.595869      -424.3852
  18   2.0000     -15.592020      -424.2804
  19   2.0000     -11.370939      -309.4190
  20   2.0000     -11.367775      -309.3329
  21   2.0000     -11.352136      -308.9073
  22   2.0000     -11.349973      -308.8485
  23   2.0000     -11.349837      -308.8448
  24   2.0000     -11.348446      -308.8069
  25   2.0000     -11.348419      -308.8062
  26   2.0000     -11.346726      -308.7601
  27   2.0000     -11.334182      -308.4188
  28   2.0000     -11.332896      -308.3838
  29   2.0000     -11.330240      -308.3115
  30   2.0000     -11.330190      -308.3102
  31   2.0000     -11.325287      -308.1767
  32   2.0000     -11.323351      -308.1240
  33   2.0000     -11.323137      -308.1182
  34   2.0000     -11.318618      -307.9953
  35   2.0000     -11.318527      -307.9928
  36   2.0000     -11.314363      -307.8795
  37   2.0000     -11.313294      -307.8504
  38   2.0000     -11.311908      -307.8127
  39   2.0000     -11.311484      -307.8011
  40   2.0000     -11.311480      -307.8010
  41   2.0000     -11.310502      -307.7744
  42   2.0000     -11.310225      -307.7669
  43   2.0000     -11.308260      -307.7134
  44   2.0000     -11.307170      -307.6837
  45   2.0000     -11.306839      -307.6747
  46   2.0000     -11.305158      -307.6290
  47   2.0000     -11.304646      -307.6151
  48   2.0000     -11.301506      -307.5296
  49   2.0000     -11.301470      -307.5286
  50   2.0000     -11.299445      -307.4735
  51   2.0000     -11.299236      -307.4678
  52   2.0000     -11.298921      -307.4593
  53   2.0000     -11.298161      -307.4386
  54   2.0000     -11.297232      -307.4133
  55   2.0000     -11.297079      -307.4092
  56   2.0000     -11.297007      -307.4072
  57   2.0000     -11.295714      -307.3720
  58   2.0000     -11.289882      -307.2133
  59   2.0000     -11.289307      -307.1977
  60   2.0000     -11.288710      -307.1814
  61   2.0000     -11.287606      -307.1514
  62   2.0000     -11.284347      -307.0627
  63   2.0000     -11.283084      -307.0283
  64   2.0000     -11.281559      -306.9868
  65   2.0000     -11.276285      -306.8433
  66   2.0000     -11.265491      -306.5496
  67   2.0000     -11.264401      -306.5199
  68   2.0000     -11.258090      -306.3482
  69   2.0000     -11.253354      -306.2193
  70   2.0000     -11.250226      -306.1342
  71   2.0000     -11.246067      -306.0210
  72   2.0000     -11.246025      -306.0199
  73   2.0000     -10.588291      -288.1221
  74   2.0000     -10.587080      -288.0891
  75   2.0000     -10.585350      -288.0420
  76   2.0000     -10.583788      -287.9995
  77   2.0000      -9.021665      -245.4920
  78   2.0000      -9.014716      -245.3029
  79   2.0000      -9.011970      -245.2282
  80   2.0000      -9.011955      -245.2278
  81   2.0000      -8.063377      -219.4156
  82   2.0000      -8.062167      -219.3827
  83   2.0000      -8.060432      -219.3355
  84   2.0000      -8.059607      -219.3131
  85   2.0000      -8.059606      -219.3130
  86   2.0000      -8.058870      -219.2930
  87   2.0000      -8.058402      -219.2803
  88   2.0000      -8.058399      -219.2802
  89   2.0000      -8.056665      -219.2330
  90   2.0000      -8.056644      -219.2324
  91   2.0000      -8.055105      -219.1906
  92   2.0000      -8.055085      -219.1900
  93   2.0000      -6.709255      -182.5681
  94   2.0000      -6.708089      -182.5364
  95   2.0000      -6.706098      -182.4822
  96   2.0000      -6.701972      -182.3699
  97   2.0000      -6.700799      -182.3380
  98   2.0000      -6.699516      -182.3031
  99   2.0000      -6.699482      -182.3022
 100   2.0000      -6.698808      -182.2838
 101   2.0000      -6.698690      -182.2806
 102   2.0000      -6.698653      -182.2796
 103   2.0000      -6.696346      -182.2169
 104   2.0000      -6.696319      -182.2161
 105   2.0000      -1.459798       -39.7231
 106   2.0000      -1.400786       -38.1173
 107   2.0000      -1.397099       -38.0170
 108   2.0000      -1.345182       -36.6043
 109   2.0000      -1.330380       -36.2015
 110   2.0000      -1.250986       -34.0411
 111   2.0000      -1.249118       -33.9902
 112   2.0000      -1.238355       -33.6974
 113   2.0000      -1.237626       -33.6775
 114   2.0000      -1.228043       -33.4168
 115   2.0000      -1.225105       -33.3368
 116   2.0000      -1.223333       -33.2886
 117   2.0000      -1.221646       -33.2427
 118   2.0000      -1.203832       -32.7579
 119   2.0000      -1.203163       -32.7397
 120   2.0000      -1.201101       -32.6836
 121   2.0000      -1.186398       -32.2835
 122   2.0000      -1.158141       -31.5146
 123   2.0000      -1.156670       -31.4746
 124   2.0000      -1.156396       -31.4671
 125   2.0000      -1.154731       -31.4218
 126   2.0000      -1.132807       -30.8253
 127   2.0000      -1.130399       -30.7597
 128   2.0000      -1.123124       -30.5618
 129   2.0000      -1.106337       -30.1050
 130   2.0000      -1.093905       -29.7667
 131   2.0000      -1.088282       -29.6137
 132   2.0000      -1.084328       -29.5061
 133   2.0000      -1.078620       -29.3507
 134   2.0000      -1.061501       -28.8849
 135   2.0000      -1.055008       -28.7082
 136   2.0000      -1.050229       -28.5782
 137   2.0000      -1.048335       -28.5267
 138   2.0000      -1.046418       -28.4745
 139   2.0000      -1.030089       -28.0301
 140   2.0000      -1.028722       -27.9929
 141   2.0000      -1.010443       -27.4955
 142   2.0000      -1.004521       -27.3344
 143   2.0000      -0.995903       -27.0999
 144   2.0000      -0.979274       -26.6474
 145   2.0000      -0.967589       -26.3294
 146   2.0000      -0.960762       -26.1437
 147   2.0000      -0.945460       -25.7273
 148   2.0000      -0.928602       -25.2685
 149   2.0000      -0.927411       -25.2361
 150   2.0000      -0.925603       -25.1869
 151   2.0000      -0.918991       -25.0070
 152   2.0000      -0.907053       -24.6822
 153   2.0000      -0.887080       -24.1387
 154   2.0000      -0.881722       -23.9929
 155   2.0000      -0.876981       -23.8639
 156   2.0000      -0.870551       -23.6889
 157   2.0000      -0.862407       -23.4673
 158   2.0000      -0.849992       -23.1295
 159   2.0000      -0.844076       -22.9685
 160   2.0000      -0.835428       -22.7332
 161   2.0000      -0.833058       -22.6687
 162   2.0000      -0.831365       -22.6226
 163   2.0000      -0.822026       -22.3685
 164   2.0000      -0.807114       -21.9627
 165   2.0000      -0.794645       -21.6234
 166   2.0000      -0.781192       -21.2573
 167   2.0000      -0.778177       -21.1753
 168   2.0000      -0.777218       -21.1492
 169   2.0000      -0.775301       -21.0970
 170   2.0000      -0.752606       -20.4794
 171   2.0000      -0.749242       -20.3879
 172   2.0000      -0.748516       -20.3682
 173   2.0000      -0.742674       -20.2092
 174   2.0000      -0.737503       -20.0685
 175   2.0000      -0.725575       -19.7439
 176   2.0000      -0.716721       -19.5030
 177   2.0000      -0.711696       -19.3662
 178   2.0000      -0.703176       -19.1344
 179   2.0000      -0.698332       -19.0026
 180   2.0000      -0.696855       -18.9624
 181   2.0000      -0.693078       -18.8596
 182   2.0000      -0.687972       -18.7207
 183   2.0000      -0.682449       -18.5704
 184   2.0000      -0.678180       -18.4542
 185   2.0000      -0.670011       -18.2319
 186   2.0000      -0.667813       -18.1721
 187   2.0000      -0.666604       -18.1392
 188   2.0000      -0.659203       -17.9378
 189   2.0000      -0.655766       -17.8443
 190   2.0000      -0.653880       -17.7930
 191   2.0000      -0.651594       -17.7308
 192   2.0000      -0.651402       -17.7255
 193   2.0000      -0.648368       -17.6430
 194   2.0000      -0.644076       -17.5262
 195   2.0000      -0.642534       -17.4842
 196   2.0000      -0.636689       -17.3252
 197   2.0000      -0.634456       -17.2644
 198   2.0000      -0.629695       -17.1349
 199   2.0000      -0.627275       -17.0690
 200   2.0000      -0.625294       -17.0151
 201   2.0000      -0.624803       -17.0018
 202   2.0000      -0.620620       -16.8879
 203   2.0000      -0.619245       -16.8505
 204   2.0000      -0.617106       -16.7923
 205   2.0000      -0.611019       -16.6267
 206   2.0000      -0.608381       -16.5549
 207   2.0000      -0.602405       -16.3923
 208   2.0000      -0.594250       -16.1704
 209   2.0000      -0.591375       -16.0921
 210   2.0000      -0.586116       -15.9490
 211   2.0000      -0.583482       -15.8773
 212   2.0000      -0.583229       -15.8705
 213   2.0000      -0.581874       -15.8336
 214   2.0000      -0.581582       -15.8257
 215   2.0000      -0.578046       -15.7294
 216   2.0000      -0.576733       -15.6937
 217   2.0000      -0.576075       -15.6758
 218   2.0000      -0.573787       -15.6135
 219   2.0000      -0.572317       -15.5735
 220   2.0000      -0.571689       -15.5564
 221   2.0000      -0.570182       -15.5155
 222   2.0000      -0.569328       -15.4922
 223   2.0000      -0.568223       -15.4621
 224   2.0000      -0.563696       -15.3389
 225   2.0000      -0.563535       -15.3346
 226   2.0000      -0.561248       -15.2723
 227   2.0000      -0.559472       -15.2240
 228   2.0000      -0.558210       -15.1897
 229   2.0000      -0.555930       -15.1276
 230   2.0000      -0.548655       -14.9297
 231   2.0000      -0.547225       -14.8908
 232   2.0000      -0.545750       -14.8506
 233   2.0000      -0.544054       -14.8045
 234   2.0000      -0.538736       -14.6598
 235   2.0000      -0.535352       -14.5677
 236   2.0000      -0.528913       -14.3925
 237   2.0000      -0.525805       -14.3079
 238   2.0000      -0.523092       -14.2340
 239   2.0000      -0.515225       -14.0200
 240   2.0000      -0.513456       -13.9719
 241   2.0000      -0.509457       -13.8630
 242   2.0000      -0.509123       -13.8539
 243   2.0000      -0.508301       -13.8316
 244   2.0000      -0.505399       -13.7526
 245   2.0000      -0.503848       -13.7104
 246   2.0000      -0.500546       -13.6205
 247   2.0000      -0.500185       -13.6107
 248   2.0000      -0.498702       -13.5704
 249   2.0000      -0.497873       -13.5478
 250   2.0000      -0.495799       -13.4914
 251   2.0000      -0.494822       -13.4648
 252   2.0000      -0.492948       -13.4138
 253   2.0000      -0.492786       -13.4094
 254   2.0000      -0.492155       -13.3922
 255   2.0000      -0.488935       -13.3046
 256   2.0000      -0.488510       -13.2930
 257   2.0000      -0.482324       -13.1247
 258   2.0000      -0.480089       -13.0639
 259   2.0000      -0.478671       -13.0253
 260   2.0000      -0.475293       -12.9334
 261   2.0000      -0.466644       -12.6980
 262   2.0000      -0.465831       -12.6759
 263   2.0000      -0.464331       -12.6351
 264   2.0000      -0.463677       -12.6173
 265   2.0000      -0.452899       -12.3240
 266   2.0000      -0.447796       -12.1851
 267   2.0000      -0.443862       -12.0781
 268   2.0000      -0.441154       -12.0044
 269   2.0000      -0.413206       -11.2439
 270   2.0000      -0.411504       -11.1976
 271   2.0000      -0.389520       -10.5994
 272   2.0000      -0.383466       -10.4346
 273   2.0000      -0.379222       -10.3192
 274   2.0000      -0.375885       -10.2283
 275   2.0000      -0.356757        -9.7078
 276   2.0000      -0.354317        -9.6415
 277   2.0000      -0.351538        -9.5658
 278   2.0000      -0.341206        -9.2847
 279   2.0000      -0.332590        -9.0502
 280   2.0000      -0.310842        -8.4584
 281   2.0000      -0.306989        -8.3536
 282   2.0000      -0.259338        -7.0569
 283   0.0000      -0.035848        -0.9755
 284   0.0000      -0.019700        -0.5361
 285   0.0000       0.007902         0.2150
 286   0.0000       0.013581         0.3695
 287   0.0000       0.045074         1.2265

MULLIKEN ATOMIC CHARGES
-----------------------
   0 C :    0.520619
   1 O :   -0.388545
   2 C :   -0.185604
   3 C :    0.051634
   4 C :    0.046101
   5 Cl:   -0.078513
   6 C :    0.027793
   7 Cl:   -0.072190
   8 C :    0.036765
   9 C :   -0.034520
  10 C :    0.258655
  11 C :   -0.362017
  12 C :    0.059788
  13 N :   -0.109633
  14 C :    0.043534
  15 N :   -0.087310
  16 C :   -0.320322
  17 C :    0.072045
  18 C :   -0.163849
  19 S :    0.252500
  20 C :    0.000373
  21 C :   -0.116610
  22 C :   -0.084755
  23 C :   -0.032619
  24 C :   -0.015416
  25 S :    0.232261
  26 C :    0.024580
  27 C :    0.112690
  28 N :   -0.602316
  29 C :    0.124684
  30 C :   -0.049455
  31 C :    0.252099
  32 C :   -0.242230
  33 C :    0.115438
  34 N :   -0.178806
  35 N :   -0.236096
  36 C :    0.189737
  37 C :   -0.068875
  38 N :   -0.183014
  39 C :    0.116933
  40 C :   -0.234729
  41 C :    0.247103
  42 N :   -0.608503
  43 C :    0.102655
  44 C :   -0.052281
  45 C :    0.133839
  46 C :    0.017436
  47 S :    0.228219
  48 C :   -0.165230
  49 C :   -0.009465
  50 S :    0.177337
  51 C :   -0.252971
  52 C :   -0.006045
  53 C :    0.005288
  54 C :   -0.052368
  55 C :    0.141394
  56 C :   -0.298408
  57 C :    0.240104
  58 C :   -0.345685
  59 C :    0.043509
  60 N :   -0.084421
  61 C :    0.040234
  62 N :   -0.086572
  63 C :   -0.030023
  64 C :    0.035172
  65 C :    0.027474
  66 Cl:   -0.071245
  67 C :    0.048419
  68 Cl:   -0.077348
  69 C :    0.050190
  70 C :   -0.181856
  71 C :    0.502989
  72 O :   -0.382037
  73 H :    0.074010
  74 H :    0.090931
  75 H :    0.078273
  76 H :    0.083468
  77 H :    0.058128
  78 H :    0.037916
  79 H :    0.063736
  80 H :    0.041426
  81 H :    0.038785
  82 H :    0.070326
  83 H :    0.051942
  84 H :    0.053174
  85 H :    0.059877
  86 H :    0.065248
  87 H :    0.064892
  88 H :    0.054127
  89 H :    0.049459
  90 H :    0.057350
  91 H :    0.067587
  92 H :    0.069228
  93 H :    0.060507
  94 H :    0.057006
  95 H :    0.049335
  96 H :    0.044811
  97 H :    0.122439
  98 H :    0.045212
  99 H :    0.048869
 100 H :    0.047268
 101 H :    0.100342
 102 H :    0.091701
 103 H :    0.074919
Sum of atomic charges:    0.0000000

LOEWDIN ATOMIC CHARGES
----------------------
   0 C :    0.169151
   1 O :   -0.256337
   2 C :   -0.051705
   3 C :    0.011189
   4 C :   -0.111677
   5 Cl:    0.124381
   6 C :   -0.110952
   7 Cl:    0.126289
   8 C :    0.002508
   9 C :   -0.022665
  10 C :    0.129585
  11 C :   -0.187751
  12 C :    0.026566
  13 N :   -0.111227
  14 C :    0.017059
  15 N :   -0.101970
  16 C :   -0.180930
  17 C :    0.117000
  18 C :   -0.221742
  19 S :    0.447681
  20 C :   -0.157137
  21 C :   -0.212224
  22 C :    0.031007
  23 C :   -0.019921
  24 C :   -0.021203
  25 S :    0.391344
  26 C :   -0.155496
  27 C :   -0.025224
  28 N :   -0.048422
  29 C :    0.074359
  30 C :   -0.040154
  31 C :    0.041444
  32 C :   -0.073541
  33 C :   -0.043561
  34 N :   -0.108943
  35 N :    0.108863
  36 C :    0.075836
  37 C :   -0.038562
  38 N :   -0.111636
  39 C :   -0.039818
  40 C :   -0.077160
  41 C :    0.043564
  42 N :   -0.040026
  43 C :    0.072260
  44 C :   -0.044785
  45 C :   -0.022250
  46 C :   -0.160689
  47 S :    0.398447
  48 C :   -0.202226
  49 C :   -0.166442
  50 S :    0.406941
  51 C :   -0.209225
  52 C :    0.037150
  53 C :   -0.022748
  54 C :   -0.027804
  55 C :    0.109070
  56 C :   -0.167157
  57 C :    0.124330
  58 C :   -0.176650
  59 C :    0.017970
  60 N :   -0.097639
  61 C :    0.015827
  62 N :   -0.099926
  63 C :   -0.024286
  64 C :    0.002938
  65 C :   -0.111242
  66 Cl:    0.126898
  67 C :   -0.110885
  68 Cl:    0.125867
  69 C :    0.010507
  70 C :   -0.051560
  71 C :    0.169472
  72 O :   -0.231676
  73 H :    0.051565
  74 H :    0.049418
  75 H :    0.048180
  76 H :    0.035456
  77 H :    0.027769
  78 H :    0.018430
  79 H :    0.030814
  80 H :    0.020168
  81 H :    0.017567
  82 H :    0.022803
  83 H :    0.023489
  84 H :    0.028712
  85 H :    0.026664
  86 H :    0.031819
  87 H :    0.031146
  88 H :    0.026660
  89 H :    0.027116
  90 H :    0.027350
  91 H :    0.024007
  92 H :    0.024508
  93 H :    0.022838
  94 H :    0.030762
  95 H :    0.022095
  96 H :    0.018426
  97 H :    0.043790
  98 H :    0.021532
  99 H :    0.024765
 100 H :    0.016737
 101 H :    0.045768
 102 H :    0.049494
 103 H :    0.051822

  Mayer bond orders larger than 0.100000
B(  0-C ,  1-O ) :   2.0402 B(  0-C ,  2-C ) :   0.9713 B(  0-C , 16-C ) :   0.9878
B(  2-C ,  3-C ) :   1.4226 B(  2-C ,  9-C ) :   1.3630 B(  3-C ,  4-C ) :   1.3955
B(  3-C , 73-H ) :   1.0083 B(  4-C ,  5-Cl) :   1.0145 B(  4-C ,  6-C ) :   1.4227
B(  6-C ,  7-Cl) :   1.0403 B(  6-C ,  8-C ) :   1.4182 B(  8-C ,  9-C ) :   1.4144
B(  8-C , 74-H ) :   0.9857 B(  9-C , 10-C ) :   1.0300 B( 10-C , 11-C ) :   1.6447
B( 10-C , 16-C ) :   1.1404 B( 11-C , 12-C ) :   1.0690 B( 11-C , 14-C ) :   1.0600
B( 12-C , 13-N ) :   2.9567 B( 14-C , 15-N ) :   2.9737 B( 16-C , 17-C ) :   1.5561
B( 17-C , 18-C ) :   1.3576 B( 17-C , 75-H ) :   0.9563 B( 18-C , 19-S ) :   1.0214
B( 18-C , 22-C ) :   1.4395 B( 19-S , 20-C ) :   1.0283 B( 20-C , 21-C ) :   1.4607
B( 20-C , 27-C ) :   1.3654 B( 21-C , 22-C ) :   1.5049 B( 21-C , 25-S ) :   0.9849
B( 22-C , 23-C ) :   0.9742 B( 23-C , 24-C ) :   1.0378 B( 23-C , 76-H ) :   0.9571
B( 23-C , 77-H ) :   0.9684 B( 24-C , 78-H ) :   0.9855 B( 24-C , 79-H ) :   0.9849
B( 24-C , 80-H ) :   0.9815 B( 25-S , 26-C ) :   0.9787 B( 26-C , 27-C ) :   1.4698
B( 26-C , 32-C ) :   1.4200 B( 27-C , 28-N ) :   1.0730 B( 28-N , 29-C ) :   0.8622
B( 28-N , 31-C ) :   1.0700 B( 29-C , 30-C ) :   1.0390 B( 29-C , 81-H ) :   0.9836
B( 29-C , 82-H ) :   0.9736 B( 30-C , 83-H ) :   0.9781 B( 30-C , 84-H ) :   0.9821
B( 30-C , 85-H ) :   0.9790 B( 31-C , 32-C ) :   1.4578 B( 31-C , 41-C ) :   1.1847
B( 32-C , 33-C ) :   1.1244 B( 33-C , 34-N ) :   1.5053 B( 33-C , 39-C ) :   1.2686
B( 34-N , 35-N ) :   1.2149 B( 34-N , 38-N ) :   0.1318 B( 35-N , 36-C ) :   0.8215
B( 35-N , 38-N ) :   1.2108 B( 36-C , 37-C ) :   1.0443 B( 36-C , 86-H ) :   0.9734
B( 36-C , 87-H ) :   0.9738 B( 37-C , 88-H ) :   0.9806 B( 37-C , 89-H ) :   0.9842
B( 37-C , 90-H ) :   0.9812 B( 38-N , 39-C ) :   1.5062 B( 39-C , 40-C ) :   1.1255
B( 40-C , 41-C ) :   1.4440 B( 40-C , 46-C ) :   1.4295 B( 41-C , 42-N ) :   1.0844
B( 42-N , 43-C ) :   0.8375 B( 42-N , 45-C ) :   1.0818 B( 43-C , 44-C ) :   1.0328
B( 43-C , 91-H ) :   0.9779 B( 43-C , 92-H ) :   0.9852 B( 44-C , 93-H ) :   0.9777
B( 44-C , 94-H ) :   0.9823 B( 44-C , 95-H ) :   0.9802 B( 45-C , 46-C ) :   1.4650
B( 45-C , 49-C ) :   1.3317 B( 46-C , 47-S ) :   0.9817 B( 47-S , 48-C ) :   1.0032
B( 48-C , 49-C ) :   1.4770 B( 48-C , 52-C ) :   1.4439 B( 49-C , 50-S ) :   1.0582
B( 50-S , 51-C ) :   1.0721 B( 51-C , 52-C ) :   1.4732 B( 51-C , 55-C ) :   1.2536
B( 52-C , 53-C ) :   0.9616 B( 53-C , 54-C ) :   1.0444 B( 53-C , 96-H ) :   0.9687
B( 53-C , 97-H ) :   0.9316 B( 54-C , 98-H ) :   0.9820 B( 54-C , 99-H ) :   0.9864
B( 54-C ,100-H ) :   0.9849 B( 55-C , 56-C ) :   1.6258 B( 55-C ,101-H ) :   0.9350
B( 56-C , 57-C ) :   1.1075 B( 56-C , 71-C ) :   1.0008 B( 57-C , 58-C ) :   1.6737
B( 57-C , 63-C ) :   1.0335 B( 58-C , 59-C ) :   1.0571 B( 58-C , 61-C ) :   1.0603
B( 59-C , 60-N ) :   2.9756 B( 61-C , 62-N ) :   2.9740 B( 63-C , 64-C ) :   1.4064
B( 63-C , 70-C ) :   1.3629 B( 64-C , 65-C ) :   1.4250 B( 64-C ,102-H ) :   0.9862
B( 65-C , 66-Cl) :   1.0409 B( 65-C , 67-C ) :   1.4165 B( 67-C , 68-Cl) :   1.0160
B( 67-C , 69-C ) :   1.4002 B( 69-C , 70-C ) :   1.4191 B( 69-C ,103-H ) :   1.0084
B( 70-C , 71-C ) :   0.9592 B( 71-C , 72-O ) :   2.0211

-----------------------------------------------------------------------------
         ABSORPTION SPECTRUM VIA TRANSITION ELECTRIC DIPOLE MOMENTS
-----------------------------------------------------------------------------
State   Energy    Wavelength  fosc         T2        TX        TY        TZ
        (cm-1)      (nm)                 (au**2)    (au)      (au)      (au)
-----------------------------------------------------------------------------
   1   21322.6    469.0   2.959909778  45.69966   4.44953  -5.08926   0.02877
   2   26482.7    377.6   0.834158297  10.36959   2.26343   2.10987  -0.89159
   3   34312.4    291.4   0.070935424   0.68059   0.16729   0.39615  -0.70404

FINAL SINGLE POINT ENERGY     -6127.393589458694

DIPOLE MOMENT
-------------
                                X             Y             Z
Electronic contribution:     64.77043      36.57540      -0.28869
Nuclear contribution   :    -66.61034     -39.44914       1.12018
                        -----------------------------------------
Total Dipole Moment    :     -1.83991      -2.87374       0.83149
                        -----------------------------------------
Magnitude (a.u.)       :      3.51212
Magnitude (Debye)      :      8.92711

Rotational constants in cm-1:     0.001235     0.000215     0.000188
Rotational constants in MHz :    37.030059     6.437481     5.639241

                             ****ORCA TERMINATED NORMALLY****
TOTAL RUN TIME: 0 days 14 hours 59 minutes 44 seconds 451 msec
