                         Program Version 4.2.0 -  RELEASE  -
|  1> # ORCA input file
|  2> # Y16.out
|  3> ! Engrad Keepdens
|  4> %maxcore 1000
|  5> %tddft
|  6>   nroots 3
|  7>   # nroots is the number of states to be computed
|  8>   Iroot 1
|  9>   end
| 10> * xyz 0 1
| 11>    C       -0.53189        -0.50916        -0.80644
| 12>    O       -0.75401         0.52403        -1.39625
| 13>    C        0.76986        -1.17339        -0.58637
| 14>    C        2.02025        -0.81278        -1.04912
| 15>    C        3.10014        -1.62039        -0.71972
| 16>    C        2.92051        -2.76078         0.05026
| 17>    C        1.66699        -3.12449         0.52495
| 18>    C        0.58445        -2.32188         0.20626
| 19>    C       -0.82423        -2.40427         0.58647
| 20>    C       -1.31657        -3.06851         1.67958
| 21>    C       -2.61238        -2.84307         2.18933
| 22>    N       -3.63972        -2.63542         2.65759
| 23>    C       -0.56494        -3.96708         2.46099
| 24>    N       -0.00508        -4.72887         3.11210
| 25>    C       -1.53679        -1.42138        -0.19807
| 26>    C       -2.85410        -1.27992        -0.51414
| 27>    C       -3.90069        -2.22407        -0.43756
| 28>    S       -3.57441        -3.95792        -0.38263
| 29>    C       -5.26122        -4.30503        -0.44385
| 30>    C       -6.01792        -3.12708        -0.50996
| 31>    C       -5.26127        -1.95229        -0.51451
| 32>    C       -5.86697        -0.59015        -0.59852
| 33>    C       -6.11658        -0.20277        -2.05871
| 34>    S       -7.74031        -3.41492        -0.58488
| 35>    C       -7.43177        -5.11500        -0.52544
| 36>    C       -6.07258        -5.44226        -0.43919
| 37>    N       -5.91420        -6.80131        -0.37842
| 38>    C       -4.63732        -7.34631        -0.78965
| 39>    C       -4.58508        -7.52456        -2.30587
| 40>    C       -7.18184        -7.37117        -0.44003
| 41>    C       -8.13941        -6.32179        -0.56152
| 42>    C       -9.50684        -6.60050        -0.76817
| 43>    N      -10.57034        -5.81781        -0.95279
| 44>    N      -11.55258        -6.65920        -1.16171
| 45>    C      -12.89950        -6.20928        -1.36273
| 46>    C      -13.54333        -5.83759        -0.03033
| 47>    N      -11.24917        -7.93243        -1.13185
| 48>    C       -9.93825        -7.94717        -0.88291
| 49>    C       -9.01790        -8.99023        -0.65654
| 50>    C       -7.64425        -8.71237        -0.35497
| 51>    N       -7.03959        -9.89594         0.00223
| 52>    C       -5.76864       -10.13206         0.64701
| 53>    C       -4.75328       -10.76604        -0.30291
| 54>    C       -7.96556       -10.90238        -0.10450
| 55>    C       -9.18202       -10.36817        -0.52322
| 56>    S      -10.43006       -11.56369        -0.67089
| 57>    C       -9.31317       -12.78896        -0.12545
| 58>    C       -8.01636       -12.28767         0.18728
| 59>    S       -6.81203       -13.26510         0.83079
| 60>    C      -10.65934       -14.07658         0.96991
| 61>    C       -9.73248       -14.17349         0.05341
| 62>    C       -9.09827       -15.36038        -0.58187
| 63>    C       -8.72965       -16.42296         0.44900
| 64>    C      -11.45274       -13.63092         1.94423
| 65>    C      -12.83108       -13.40128         1.91609
| 66>    C      -13.79647       -13.61599         0.89176
| 67>    C      -13.68759       -14.46632        -0.18665
| 68>    C      -14.64929       -14.56937        -1.20931
| 69>    N      -15.38395       -14.68027        -2.08561
| 70>    C      -12.67120       -15.42442        -0.34718
| 71>    N      -11.95341       -16.30442        -0.52792
| 72>    C      -14.99027       -12.84143         1.25382
| 73>    C      -16.17904       -12.62400         0.58100
| 74>    C      -17.16084       -11.85870         1.20139
| 75>    C      -16.96956       -11.32107         2.46442
| 76>    C      -15.77676       -11.52928         3.14583
| 77>    C      -14.79920       -12.28554         2.53259
| 78>    C      -13.45035       -12.64328         3.02083
| 79>    O      -12.93070       -12.34824         4.07716
| 80>    H        2.14042         0.07716        -1.64754
| 81>    H        4.08922        -1.36068        -1.06581
| 82>    H        3.77205        -3.38017         0.28898
| 83>    H        1.54857        -4.01759         1.11760
| 84>    H       -3.10947        -0.33379        -0.98140
| 85>    H       -5.21623         0.14350        -0.12315
| 86>    H       -6.81905        -0.60312        -0.06420
| 87>    H       -5.18268        -0.17884        -2.61583
| 88>    H       -6.57474         0.78121        -2.10794
| 89>    H       -6.78362        -0.92003        -2.53120
| 90>    H       -4.43200        -8.28926        -0.29632
| 91>    H       -3.87418        -6.62949        -0.47503
| 92>    H       -3.61878        -7.92592        -2.59824
| 93>    H       -4.73001        -6.56961        -2.80596
| 94>    H       -5.36592        -8.20676        -2.63678
| 95>    H      -13.44146        -7.02605        -1.84219
| 96>    H      -12.86844        -5.33904        -2.02216
| 97>    H      -13.57411        -6.70272         0.62774
| 98>    H      -14.55776        -5.48638        -0.19508
| 99>    H      -12.97056        -5.04871         0.45085
|100>    H       -5.94698       -10.83165         1.47080
|101>    H       -5.41725        -9.19554         1.08200
|102>    H       -4.69783       -10.23295        -1.24831
|103>    H       -5.04280       -11.79326        -0.50922
|104>    H       -3.77066       -10.77828         0.16042
|105>    H       -8.21648       -15.04061        -1.13872
|106>    H       -9.82548       -15.78613        -1.28046
|107>    H       -8.02164       -16.02225         1.17055
|108>    H       -8.27668       -17.27697        -0.04669
|109>    H       -9.62160       -16.75581         0.97257
|110>    H      -10.98931       -13.38592         2.89979
|111>    H      -16.35362       -13.02832        -0.40282
|112>    H      -18.09238       -11.68401         0.68404
|113>    H      -17.75345       -10.73578         2.92120
|114>    H      -15.60789       -11.11873         4.12953
|115> *
|116>
|117>                          ****END OF INPUT****

CARTESIAN COORDINATES (ANGSTROEM)
---------------------------------
  C     -0.531890   -0.509160   -0.806440
  O     -0.754010    0.524030   -1.396250
  C      0.769860   -1.173390   -0.586370
  C      2.020250   -0.812780   -1.049120
  C      3.100140   -1.620390   -0.719720
  C      2.920510   -2.760780    0.050260
  C      1.666990   -3.124490    0.524950
  C      0.584450   -2.321880    0.206260
  C     -0.824230   -2.404270    0.586470
  C     -1.316570   -3.068510    1.679580
  C     -2.612380   -2.843070    2.189330
  N     -3.639720   -2.635420    2.657590
  C     -0.564940   -3.967080    2.460990
  N     -0.005080   -4.728870    3.112100
  C     -1.536790   -1.421380   -0.198070
  C     -2.854100   -1.279920   -0.514140
  C     -3.900690   -2.224070   -0.437560
  S     -3.574410   -3.957920   -0.382630
  C     -5.261220   -4.305030   -0.443850
  C     -6.017920   -3.127080   -0.509960
  C     -5.261270   -1.952290   -0.514510
  C     -5.866970   -0.590150   -0.598520
  C     -6.116580   -0.202770   -2.058710
  S     -7.740310   -3.414920   -0.584880
  C     -7.431770   -5.115000   -0.525440
  C     -6.072580   -5.442260   -0.439190
  N     -5.914200   -6.801310   -0.378420
  C     -4.637320   -7.346310   -0.789650
  C     -4.585080   -7.524560   -2.305870
  C     -7.181840   -7.371170   -0.440030
  C     -8.139410   -6.321790   -0.561520
  C     -9.506840   -6.600500   -0.768170
  N    -10.570340   -5.817810   -0.952790
  N    -11.552580   -6.659200   -1.161710
  C    -12.899500   -6.209280   -1.362730
  C    -13.543330   -5.837590   -0.030330
  N    -11.249170   -7.932430   -1.131850
  C     -9.938250   -7.947170   -0.882910
  C     -9.017900   -8.990230   -0.656540
  C     -7.644250   -8.712370   -0.354970
  N     -7.039590   -9.895940    0.002230
  C     -5.768640  -10.132060    0.647010
  C     -4.753280  -10.766040   -0.302910
  C     -7.965560  -10.902380   -0.104500
  C     -9.182020  -10.368170   -0.523220
  S    -10.430060  -11.563690   -0.670890
  C     -9.313170  -12.788960   -0.125450
  C     -8.016360  -12.287670    0.187280
  S     -6.812030  -13.265100    0.830790
  C    -10.659340  -14.076580    0.969910
  C     -9.732480  -14.173490    0.053410
  C     -9.098270  -15.360380   -0.581870
  C     -8.729650  -16.422960    0.449000
  C    -11.452740  -13.630920    1.944230
  C    -12.831080  -13.401280    1.916090
  C    -13.796470  -13.615990    0.891760
  C    -13.687590  -14.466320   -0.186650
  C    -14.649290  -14.569370   -1.209310
  N    -15.383950  -14.680270   -2.085610
  C    -12.671200  -15.424420   -0.347180
  N    -11.953410  -16.304420   -0.527920
  C    -14.990270  -12.841430    1.253820
  C    -16.179040  -12.624000    0.581000
  C    -17.160840  -11.858700    1.201390
  C    -16.969560  -11.321070    2.464420
  C    -15.776760  -11.529280    3.145830
  C    -14.799200  -12.285540    2.532590
  C    -13.450350  -12.643280    3.020830
  O    -12.930700  -12.348240    4.077160
  H      2.140420    0.077160   -1.647540
  H      4.089220   -1.360680   -1.065810
  H      3.772050   -3.380170    0.288980
  H      1.548570   -4.017590    1.117600
  H     -3.109470   -0.333790   -0.981400
  H     -5.216230    0.143500   -0.123150
  H     -6.819050   -0.603120   -0.064200
  H     -5.182680   -0.178840   -2.615830
  H     -6.574740    0.781210   -2.107940
  H     -6.783620   -0.920030   -2.531200
  H     -4.432000   -8.289260   -0.296320
  H     -3.874180   -6.629490   -0.475030
  H     -3.618780   -7.925920   -2.598240
  H     -4.730010   -6.569610   -2.805960
  H     -5.365920   -8.206760   -2.636780
  H    -13.441460   -7.026050   -1.842190
  H    -12.868440   -5.339040   -2.022160
  H    -13.574110   -6.702720    0.627740
  H    -14.557760   -5.486380   -0.195080
  H    -12.970560   -5.048710    0.450850
  H     -5.946980  -10.831650    1.470800
  H     -5.417250   -9.195540    1.082000
  H     -4.697830  -10.232950   -1.248310
  H     -5.042800  -11.793260   -0.509220
  H     -3.770660  -10.778280    0.160420
  H     -8.216480  -15.040610   -1.138720
  H     -9.825480  -15.786130   -1.280460
  H     -8.021640  -16.022250    1.170550
  H     -8.276680  -17.276970   -0.046690
  H     -9.621600  -16.755810    0.972570
  H    -10.989310  -13.385920    2.899790
  H    -16.353620  -13.028320   -0.402820
  H    -18.092380  -11.684010    0.684040
  H    -17.753450  -10.735780    2.921200
  H    -15.607890  -11.118730    4.129530

 Total Charge           Charge          ....    0
 Multiplicity           Mult            ....    1
 Number of Electrons    NEL             ....  502
 Basis Dimension        Dim             .... 1157

ORBITAL ENERGIES
----------------

  NO   OCC          E(Eh)            E(eV)
   0   2.0000     -91.984881     -2503.0359
   1   2.0000     -91.982178     -2502.9623
   2   2.0000     -91.978632     -2502.8658
   3   2.0000     -91.904936     -2500.8604
   4   2.0000     -20.561899      -559.5177
   5   2.0000     -20.547973      -559.1388
   6   2.0000     -15.708270      -427.4438
   7   2.0000     -15.655609      -426.0108
   8   2.0000     -15.650802      -425.8800
   9   2.0000     -15.625386      -425.1884
  10   2.0000     -15.624704      -425.1698
  11   2.0000     -15.589428      -424.2099
  12   2.0000     -15.583800      -424.0567
  13   2.0000     -15.576358      -423.8542
  14   2.0000     -15.572888      -423.7598
  15   2.0000     -11.359580      -309.1099
  16   2.0000     -11.355365      -308.9952
  17   2.0000     -11.344484      -308.6991
  18   2.0000     -11.340211      -308.5828
  19   2.0000     -11.337317      -308.5041
  20   2.0000     -11.337215      -308.5013
  21   2.0000     -11.326274      -308.2036
  22   2.0000     -11.322220      -308.0933
  23   2.0000     -11.319844      -308.0286
  24   2.0000     -11.316811      -307.9461
  25   2.0000     -11.314034      -307.8705
  26   2.0000     -11.312796      -307.8368
  27   2.0000     -11.310413      -307.7720
  28   2.0000     -11.307182      -307.6841
  29   2.0000     -11.305611      -307.6413
  30   2.0000     -11.304721      -307.6171
  31   2.0000     -11.302777      -307.5642
  32   2.0000     -11.302696      -307.5620
  33   2.0000     -11.301360      -307.5256
  34   2.0000     -11.299991      -307.4884
  35   2.0000     -11.299748      -307.4818
  36   2.0000     -11.299732      -307.4813
  37   2.0000     -11.298055      -307.4357
  38   2.0000     -11.297615      -307.4237
  39   2.0000     -11.295380      -307.3629
  40   2.0000     -11.293980      -307.3248
  41   2.0000     -11.291547      -307.2586
  42   2.0000     -11.291423      -307.2552
  43   2.0000     -11.290136      -307.2202
  44   2.0000     -11.289068      -307.1912
  45   2.0000     -11.287867      -307.1585
  46   2.0000     -11.285531      -307.0949
  47   2.0000     -11.285099      -307.0832
  48   2.0000     -11.280155      -306.9486
  49   2.0000     -11.278353      -306.8996
  50   2.0000     -11.278188      -306.8951
  51   2.0000     -11.276971      -306.8620
  52   2.0000     -11.276550      -306.8505
  53   2.0000     -11.275671      -306.8266
  54   2.0000     -11.274565      -306.7965
  55   2.0000     -11.273310      -306.7624
  56   2.0000     -11.266055      -306.5650
  57   2.0000     -11.265707      -306.5555
  58   2.0000     -11.265345      -306.5456
  59   2.0000     -11.264478      -306.5220
  60   2.0000     -11.263637      -306.4992
  61   2.0000     -11.261684      -306.4460
  62   2.0000     -11.261174      -306.4321
  63   2.0000     -11.254432      -306.2487
  64   2.0000     -11.247480      -306.0595
  65   2.0000     -11.244116      -305.9679
  66   2.0000     -11.242083      -305.9126
  67   2.0000     -11.234593      -305.7088
  68   2.0000     -11.211304      -305.0751
  69   2.0000      -9.020433      -245.4585
  70   2.0000      -9.016990      -245.3648
  71   2.0000      -9.013129      -245.2597
  72   2.0000      -8.940041      -243.2709
  73   2.0000      -6.707867      -182.5303
  74   2.0000      -6.706866      -182.5031
  75   2.0000      -6.704655      -182.4429
  76   2.0000      -6.704442      -182.4371
  77   2.0000      -6.703562      -182.4132
  78   2.0000      -6.701496      -182.3570
  79   2.0000      -6.700715      -182.3357
  80   2.0000      -6.699911      -182.3138
  81   2.0000      -6.697567      -182.2501
  82   2.0000      -6.627838      -180.3527
  83   2.0000      -6.626002      -180.3027
  84   2.0000      -6.624108      -180.2511
  85   2.0000      -1.477907       -40.2159
  86   2.0000      -1.393684       -37.9241
  87   2.0000      -1.378201       -37.5028
  88   2.0000      -1.359113       -36.9833
  89   2.0000      -1.343541       -36.5596
  90   2.0000      -1.249327       -33.9959
  91   2.0000      -1.237378       -33.6708
  92   2.0000      -1.234860       -33.6022
  93   2.0000      -1.224681       -33.3253
  94   2.0000      -1.222885       -33.2764
  95   2.0000      -1.220791       -33.2194
  96   2.0000      -1.213347       -33.0168
  97   2.0000      -1.212753       -33.0007
  98   2.0000      -1.208413       -32.8826
  99   2.0000      -1.197111       -32.5750
 100   2.0000      -1.169080       -31.8123
 101   2.0000      -1.158174       -31.5155
 102   2.0000      -1.154206       -31.4076
 103   2.0000      -1.143315       -31.1112
 104   2.0000      -1.134340       -30.8670
 105   2.0000      -1.113995       -30.3133
 106   2.0000      -1.098840       -29.9009
 107   2.0000      -1.092446       -29.7270
 108   2.0000      -1.085999       -29.5515
 109   2.0000      -1.074873       -29.2488
 110   2.0000      -1.067852       -29.0577
 111   2.0000      -1.062332       -28.9075
 112   2.0000      -1.059348       -28.8263
 113   2.0000      -1.053243       -28.6602
 114   2.0000      -1.040492       -28.3132
 115   2.0000      -1.038919       -28.2704
 116   2.0000      -1.026840       -27.9417
 117   2.0000      -1.017507       -27.6878
 118   2.0000      -1.007395       -27.4126
 119   2.0000      -1.000101       -27.2141
 120   2.0000      -0.985247       -26.8099
 121   2.0000      -0.969468       -26.3806
 122   2.0000      -0.960903       -26.1475
 123   2.0000      -0.942650       -25.6508
 124   2.0000      -0.933693       -25.4071
 125   2.0000      -0.928739       -25.2723
 126   2.0000      -0.919451       -25.0195
 127   2.0000      -0.913654       -24.8618
 128   2.0000      -0.907385       -24.6912
 129   2.0000      -0.883188       -24.0328
 130   2.0000      -0.880541       -23.9607
 131   2.0000      -0.877115       -23.8675
 132   2.0000      -0.867637       -23.6096
 133   2.0000      -0.858536       -23.3619
 134   2.0000      -0.850328       -23.1386
 135   2.0000      -0.844972       -22.9928
 136   2.0000      -0.841608       -22.9013
 137   2.0000      -0.832992       -22.6669
 138   2.0000      -0.824335       -22.4313
 139   2.0000      -0.815091       -22.1798
 140   2.0000      -0.800922       -21.7942
 141   2.0000      -0.798412       -21.7259
 142   2.0000      -0.786313       -21.3967
 143   2.0000      -0.783154       -21.3107
 144   2.0000      -0.778940       -21.1960
 145   2.0000      -0.765519       -20.8308
 146   2.0000      -0.760159       -20.6850
 147   2.0000      -0.752495       -20.4764
 148   2.0000      -0.746726       -20.3194
 149   2.0000      -0.734253       -19.9801
 150   2.0000      -0.732540       -19.9334
 151   2.0000      -0.722789       -19.6681
 152   2.0000      -0.722533       -19.6611
 153   2.0000      -0.707960       -19.2646
 154   2.0000      -0.702733       -19.1223
 155   2.0000      -0.695577       -18.9276
 156   2.0000      -0.693606       -18.8740
 157   2.0000      -0.692273       -18.8377
 158   2.0000      -0.683280       -18.5930
 159   2.0000      -0.678653       -18.4671
 160   2.0000      -0.675569       -18.3832
 161   2.0000      -0.669618       -18.2212
 162   2.0000      -0.663522       -18.0554
 163   2.0000      -0.661942       -18.0124
 164   2.0000      -0.657869       -17.9015
 165   2.0000      -0.657535       -17.8924
 166   2.0000      -0.652606       -17.7583
 167   2.0000      -0.645695       -17.5702
 168   2.0000      -0.643298       -17.5050
 169   2.0000      -0.640618       -17.4321
 170   2.0000      -0.639326       -17.3970
 171   2.0000      -0.635163       -17.2837
 172   2.0000      -0.634036       -17.2530
 173   2.0000      -0.631183       -17.1754
 174   2.0000      -0.629462       -17.1285
 175   2.0000      -0.626127       -17.0378
 176   2.0000      -0.625763       -17.0279
 177   2.0000      -0.620857       -16.8944
 178   2.0000      -0.617935       -16.8149
 179   2.0000      -0.616805       -16.7841
 180   2.0000      -0.611166       -16.6307
 181   2.0000      -0.608605       -16.5610
 182   2.0000      -0.604542       -16.4504
 183   2.0000      -0.600620       -16.3437
 184   2.0000      -0.598068       -16.2743
 185   2.0000      -0.592741       -16.1293
 186   2.0000      -0.585294       -15.9267
 187   2.0000      -0.579548       -15.7703
 188   2.0000      -0.576978       -15.7004
 189   2.0000      -0.574841       -15.6422
 190   2.0000      -0.572214       -15.5707
 191   2.0000      -0.568911       -15.4809
 192   2.0000      -0.567471       -15.4417
 193   2.0000      -0.566064       -15.4034
 194   2.0000      -0.563162       -15.3244
 195   2.0000      -0.560608       -15.2549
 196   2.0000      -0.558574       -15.1996
 197   2.0000      -0.557193       -15.1620
 198   2.0000      -0.555602       -15.1187
 199   2.0000      -0.553669       -15.0661
 200   2.0000      -0.550318       -14.9749
 201   2.0000      -0.549187       -14.9441
 202   2.0000      -0.545931       -14.8556
 203   2.0000      -0.543416       -14.7871
 204   2.0000      -0.541981       -14.7481
 205   2.0000      -0.539184       -14.6719
 206   2.0000      -0.536360       -14.5951
 207   2.0000      -0.532660       -14.4944
 208   2.0000      -0.531825       -14.4717
 209   2.0000      -0.531369       -14.4593
 210   2.0000      -0.530082       -14.4243
 211   2.0000      -0.524056       -14.2603
 212   2.0000      -0.522831       -14.2270
 213   2.0000      -0.520824       -14.1723
 214   2.0000      -0.515241       -14.0204
 215   2.0000      -0.512455       -13.9446
 216   2.0000      -0.507476       -13.8091
 217   2.0000      -0.506799       -13.7907
 218   2.0000      -0.501517       -13.6470
 219   2.0000      -0.499665       -13.5966
 220   2.0000      -0.497303       -13.5323
 221   2.0000      -0.496243       -13.5035
 222   2.0000      -0.493879       -13.4391
 223   2.0000      -0.491519       -13.3749
 224   2.0000      -0.489971       -13.3328
 225   2.0000      -0.487471       -13.2648
 226   2.0000      -0.480661       -13.0795
 227   2.0000      -0.473911       -12.8958
 228   2.0000      -0.472970       -12.8702
 229   2.0000      -0.467734       -12.7277
 230   2.0000      -0.465866       -12.6768
 231   2.0000      -0.463186       -12.6039
 232   2.0000      -0.451586       -12.2883
 233   2.0000      -0.441369       -12.0102
 234   2.0000      -0.432000       -11.7553
 235   2.0000      -0.426855       -11.6153
 236   2.0000      -0.414835       -11.2882
 237   2.0000      -0.412786       -11.2325
 238   2.0000      -0.394029       -10.7221
 239   2.0000      -0.382680       -10.4133
 240   2.0000      -0.378071       -10.2878
 241   2.0000      -0.366999        -9.9865
 242   2.0000      -0.363862        -9.9012
 243   2.0000      -0.353116        -9.6088
 244   2.0000      -0.350927        -9.5492
 245   2.0000      -0.343360        -9.3433
 246   2.0000      -0.339123        -9.2280
 247   2.0000      -0.323832        -8.8119
 248   2.0000      -0.314954        -8.5703
 249   2.0000      -0.268860        -7.3160
 250   2.0000      -0.266241        -7.2448
 251   0.0000      -0.078212        -2.1283
 252   0.0000      -0.021329        -0.5804
 253   0.0000       0.020567         0.5597
 254   0.0000       0.026127         0.7110
 255   0.0000       0.046190         1.2569

MULLIKEN ATOMIC CHARGES
-----------------------
   0 C :    0.473627
   1 O :   -0.357419
   2 C :   -0.174200
   3 C :    0.020148
   4 C :   -0.012269
   5 C :   -0.002545
   6 C :   -0.015796
   7 C :   -0.057081
   8 C :    0.230618
   9 C :   -0.344186
  10 C :    0.038672
  11 N :   -0.056853
  12 C :    0.039369
  13 N :   -0.069193
  14 C :   -0.321219
  15 C :    0.133631
  16 C :   -0.197556
  17 S :    0.174046
  18 C :   -0.001929
  19 C :   -0.105240
  20 C :   -0.065697
  21 C :    0.008323
  22 C :   -0.014508
  23 S :    0.233649
  24 C :    0.008430
  25 C :    0.119124
  26 N :   -0.579093
  27 C :    0.124259
  28 C :   -0.039334
  29 C :    0.223138
  30 C :   -0.218602
  31 C :    0.109049
  32 N :   -0.176638
  33 N :   -0.217180
  34 C :    0.187323
  35 C :   -0.055645
  36 N :   -0.174840
  37 C :    0.116489
  38 C :   -0.256118
  39 C :    0.268217
  40 N :   -0.575193
  41 C :    0.114815
  42 C :   -0.036734
  43 C :    0.132782
  44 C :    0.047660
  45 S :    0.265887
  46 C :   -0.176383
  47 C :    0.036722
  48 S :   -0.147056
  49 C :    0.096236
  50 C :   -0.133729
  51 C :    0.070005
  52 C :   -0.032280
  53 C :    0.064253
  54 C :   -0.333602
  55 C :    0.253584
  56 C :   -0.387050
  57 C :    0.040194
  58 N :   -0.083457
  59 C :    0.055038
  60 N :   -0.099774
  61 C :   -0.043511
  62 C :   -0.025540
  63 C :   -0.003694
  64 C :   -0.013337
  65 C :    0.014497
  66 C :   -0.177656
  67 C :    0.474615
  68 O :   -0.367624
  69 H :    0.058801
  70 H :    0.055632
  71 H :    0.055959
  72 H :    0.071529
  73 H :    0.083194
  74 H :    0.058340
  75 H :    0.061632
  76 H :    0.037548
  77 H :    0.050070
  78 H :    0.043036
  79 H :    0.052074
  80 H :    0.064389
  81 H :    0.048867
  82 H :    0.051640
  83 H :    0.050460
  84 H :    0.065567
  85 H :    0.061715
  86 H :    0.049794
  87 H :    0.044183
  88 H :    0.054834
  89 H :    0.076447
  90 H :    0.060872
  91 H :    0.029467
  92 H :    0.062998
  93 H :    0.043107
  94 H :    0.033037
  95 H :    0.087891
  96 H :    0.038543
  97 H :    0.032929
  98 H :    0.048591
  99 H :    0.114201
 100 H :    0.072691
 101 H :    0.050664
 102 H :    0.050359
 103 H :    0.054306
Sum of atomic charges:    0.0000000

LOEWDIN ATOMIC CHARGES
----------------------
   0 C :    0.166122
   1 O :   -0.234885
   2 C :   -0.057455
   3 C :    0.024602
   4 C :    0.000110
   5 C :    0.006802
   6 C :    0.005486
   7 C :   -0.021264
   8 C :    0.101413
   9 C :   -0.171279
  10 C :   -0.003054
  11 N :   -0.091060
  12 C :    0.013105
  13 N :   -0.094892
  14 C :   -0.148600
  15 C :    0.105416
  16 C :   -0.207625
  17 S :    0.422183
  18 C :   -0.171904
  19 C :   -0.195523
  20 C :    0.012832
  21 C :   -0.010571
  22 C :   -0.020795
  23 S :    0.409973
  24 C :   -0.177538
  25 C :   -0.007104
  26 N :   -0.030060
  27 C :    0.077424
  28 C :   -0.034944
  29 C :    0.017424
  30 C :   -0.053470
  31 C :   -0.047284
  32 N :   -0.104770
  33 N :    0.120835
  34 C :    0.072975
  35 C :   -0.032548
  36 N :   -0.106379
  37 C :   -0.042026
  38 C :   -0.090197
  39 C :    0.070785
  40 N :   -0.009305
  41 C :    0.071069
  42 C :   -0.043640
  43 C :   -0.051133
  44 C :   -0.137934
  45 S :    0.427644
  46 C :   -0.055875
  47 C :   -0.151720
  48 S :   -0.012087
  49 C :    0.048891
  50 C :   -0.021934
  51 C :   -0.015154
  52 C :   -0.021702
  53 C :    0.053872
  54 C :   -0.147882
  55 C :    0.110248
  56 C :   -0.192983
  57 C :    0.014939
  58 N :   -0.108875
  59 C :    0.023362
  60 N :   -0.105735
  61 C :   -0.019412
  62 C :    0.004532
  63 C :    0.000820
  64 C :   -0.004563
  65 C :    0.019772
  66 C :   -0.054529
  67 C :    0.160137
  68 O :   -0.244364
  69 H :    0.041949
  70 H :    0.034237
  71 H :    0.035671
  72 H :    0.040116
  73 H :    0.052835
  74 H :    0.029114
  75 H :    0.030191
  76 H :    0.018768
  77 H :    0.023159
  78 H :    0.019250
  79 H :    0.020208
  80 H :    0.018896
  81 H :    0.025219
  82 H :    0.023909
  83 H :    0.021196
  84 H :    0.032036
  85 H :    0.029309
  86 H :    0.024708
  87 H :    0.023902
  88 H :    0.025372
  89 H :    0.023031
  90 H :    0.018817
  91 H :    0.012893
  92 H :    0.016138
  93 H :    0.024257
  94 H :    0.018119
  95 H :    0.038129
  96 H :    0.011044
  97 H :    0.018315
  98 H :    0.019701
  99 H :    0.075392
 100 H :    0.039994
 101 H :    0.033397
 102 H :    0.031860
 103 H :    0.040152

  Mayer bond orders larger than 0.100000
B(  0-C ,  1-O ) :   2.0930 B(  0-C ,  2-C ) :   0.9519 B(  0-C , 14-C ) :   0.9893
B(  2-C ,  3-C ) :   1.4396 B(  2-C ,  7-C ) :   1.3449 B(  3-C ,  4-C ) :   1.3949
B(  3-C , 69-H ) :   1.0069 B(  4-C ,  5-C ) :   1.4084 B(  4-C , 70-H ) :   1.0004
B(  5-C ,  6-C ) :   1.4146 B(  5-C , 71-H ) :   0.9969 B(  6-C ,  7-C ) :   1.4289
B(  6-C , 72-H ) :   0.9919 B(  7-C ,  8-C ) :   1.0390 B(  8-C ,  9-C ) :   1.7031
B(  8-C , 14-C ) :   1.0605 B(  9-C , 10-C ) :   1.0653 B(  9-C , 12-C ) :   1.0586
B( 10-C , 11-N ) :   3.0228 B( 12-C , 13-N ) :   2.9971 B( 14-C , 15-C ) :   1.7256
B( 15-C , 16-C ) :   1.1820 B( 15-C , 73-H ) :   0.9566 B( 16-C , 17-S ) :   1.0551
B( 16-C , 20-C ) :   1.5619 B( 17-S , 18-C ) :   1.0271 B( 18-C , 19-C ) :   1.5218
B( 18-C , 25-C ) :   1.3620 B( 19-C , 20-C ) :   1.4110 B( 19-C , 23-S ) :   1.0022
B( 20-C , 21-C ) :   0.9791 B( 21-C , 22-C ) :   1.0380 B( 21-C , 74-H ) :   0.9648
B( 21-C , 75-H ) :   0.9669 B( 22-C , 76-H ) :   0.9840 B( 22-C , 77-H ) :   0.9869
B( 22-C , 78-H ) :   0.9830 B( 23-S , 24-C ) :   0.9758 B( 24-C , 25-C ) :   1.4588
B( 24-C , 30-C ) :   1.4302 B( 25-C , 26-N ) :   1.1050 B( 26-N , 27-C ) :   0.8657
B( 26-N , 29-C ) :   1.0683 B( 27-C , 28-C ) :   1.0408 B( 27-C , 79-H ) :   0.9795
B( 27-C , 80-H ) :   0.9768 B( 28-C , 81-H ) :   0.9847 B( 28-C , 82-H ) :   0.9799
B( 28-C , 83-H ) :   0.9776 B( 29-C , 30-C ) :   1.4575 B( 29-C , 39-C ) :   1.1850
B( 30-C , 31-C ) :   1.1189 B( 31-C , 32-N ) :   1.5141 B( 31-C , 37-C ) :   1.2740
B( 32-N , 33-N ) :   1.2220 B( 32-N , 36-N ) :   0.1248 B( 33-N , 34-C ) :   0.8302
B( 33-N , 36-N ) :   1.2202 B( 34-C , 35-C ) :   1.0481 B( 34-C , 84-H ) :   0.9724
B( 34-C , 85-H ) :   0.9739 B( 35-C , 86-H ) :   0.9806 B( 35-C , 87-H ) :   0.9858
B( 35-C , 88-H ) :   0.9824 B( 36-N , 37-C ) :   1.5216 B( 37-C , 38-C ) :   1.1190
B( 38-C , 39-C ) :   1.3775 B( 38-C , 44-C ) :   1.5164 B( 39-C , 40-N ) :   1.1625
B( 40-N , 41-C ) :   0.8297 B( 40-N , 43-C ) :   1.0746 B( 41-C , 42-C ) :   1.0355
B( 41-C , 89-H ) :   0.9639 B( 41-C , 90-H ) :   0.9865 B( 42-C , 91-H ) :   0.9815
B( 42-C , 92-H ) :   0.9701 B( 42-C , 93-H ) :   0.9838 B( 43-C , 44-C ) :   1.4225
B( 43-C , 47-C ) :   1.2342 B( 44-C , 45-S ) :   0.9030 B( 45-S , 46-C ) :   1.0995
B( 46-C , 47-C ) :   1.0815 B( 46-C , 49-C ) :   0.3301 B( 46-C , 50-C ) :   1.1928
B( 47-C , 48-S ) :   1.5252 B( 49-C , 50-C ) :   1.7279 B( 49-C , 53-C ) :   1.3877
B( 50-C , 51-C ) :   0.9509 B( 51-C , 52-C ) :   1.0453 B( 51-C , 94-H ) :   0.9596
B( 51-C , 95-H ) :   0.9436 B( 52-C , 96-H ) :   0.9820 B( 52-C , 97-H ) :   0.9868
B( 52-C , 98-H ) :   0.9810 B( 53-C , 54-C ) :   1.4261 B( 53-C , 99-H ) :   0.9531
B( 54-C , 55-C ) :   1.1959 B( 54-C , 67-C ) :   1.0244 B( 55-C , 56-C ) :   1.5934
B( 55-C , 61-C ) :   1.0256 B( 56-C , 57-C ) :   1.0688 B( 56-C , 59-C ) :   1.0993
B( 57-C , 58-N ) :   2.9811 B( 59-C , 60-N ) :   2.9285 B( 61-C , 62-C ) :   1.4450
B( 61-C , 66-C ) :   1.3457 B( 62-C , 63-C ) :   1.4003 B( 62-C ,100-H ) :   0.9891
B( 63-C , 64-C ) :   1.4235 B( 63-C ,101-H ) :   0.9971 B( 64-C , 65-C ) :   1.3779
B( 64-C ,102-H ) :   1.0007 B( 65-C , 66-C ) :   1.4574 B( 65-C ,103-H ) :   1.0071
B( 66-C , 67-C ) :   0.9484 B( 67-C , 68-O ) :   2.0786

-----------------------------------------------------------------------------
         ABSORPTION SPECTRUM VIA TRANSITION ELECTRIC DIPOLE MOMENTS
-----------------------------------------------------------------------------
State   Energy    Wavelength  fosc         T2        TX        TY        TZ
        (cm-1)      (nm)                 (au**2)    (au)      (au)      (au)
-----------------------------------------------------------------------------
   1   12246.8    816.5   0.663569096  17.83767   3.68060   1.95774  -0.67687
   2   16598.3    602.5   0.005433590   0.10777   0.29485   0.14225  -0.02445
   3   17367.3    575.8   0.498191420   9.44366  -0.83639  -2.93393   0.36899

FINAL SINGLE POINT ENERGY     -4292.241770375156

DIPOLE MOMENT
-------------
                                X             Y             Z
Electronic contribution:     -4.29829      -0.91605      11.43641
Nuclear contribution   :      4.80031       3.44657     -13.18724
                        -----------------------------------------
Total Dipole Moment    :      0.50202       2.53052      -1.75083
                        -----------------------------------------
Magnitude (a.u.)       :      3.11785
Magnitude (Debye)      :      7.92494

Rotational constants in cm-1:     0.002076     0.000383     0.000345
Rotational constants in MHz :    62.245435    11.483157    10.346391

                             ****ORCA TERMINATED NORMALLY****
TOTAL RUN TIME: 0 days 14 hours 46 minutes 39 seconds 373 msec
