                         Program Version 4.2.0 -  RELEASE  -
|  1> # ORCA input file
|  2> # Y16.out: Geometry 139
|  3> ! Engrad Keepdens
|  4> %maxcore 1000
|  5> %tddft
|  6>   nroots 3
|  7>   # nroots is the number of states to be computed
|  8>   Iroot 1
|  9>   end
| 10> * xyz 0 1
| 11>    C       -3.86936         2.67291        -6.89513
| 12>    O       -4.85091         3.14394        -6.34363
| 13>    C       -2.82319         3.44305        -7.61425
| 14>    C       -2.72849         4.82073        -7.76741
| 15>    C       -1.63324         5.33169        -8.47302
| 16>    C       -0.67240         4.46261        -9.00690
| 17>    C       -0.77157         3.07401        -8.85087
| 18>    C       -1.86284         2.55505        -8.14016
| 19>    C       -2.25241         1.16514        -7.78119
| 20>    C       -1.55243         0.03148        -8.16621
| 21>    C       -1.94996        -1.30419        -7.84793
| 22>    N       -2.23705        -2.40557        -7.60772
| 23>    C       -0.34068         0.08687        -8.92310
| 24>    N        0.65191         0.10444        -9.52772
| 25>    C       -3.47320         1.24644        -6.97690
| 26>    C       -4.09937         0.19059        -6.33786
| 27>    C       -5.21880         0.06446        -5.48343
| 28>    S       -6.32064         1.36361        -4.96260
| 29>    C       -7.21694         0.24478        -3.98746
| 30>    C       -6.68812        -1.06558        -4.07090
| 31>    C       -5.56873        -1.18795        -4.90526
| 32>    C       -4.88385        -2.49780        -5.19475
| 33>    C       -5.36256        -3.14934        -6.50231
| 34>    S       -7.56163        -2.23650        -3.07577
| 35>    C       -8.63861        -0.96251        -2.56045
| 36>    C       -8.32892         0.29359        -3.11525
| 37>    N       -9.26731         1.22961        -2.70241
| 38>    C       -9.53905         2.42826        -3.50136
| 39>    C       -8.53268         3.55415        -3.30674
| 40>    C      -10.18003         0.56957        -1.87305
| 41>    C       -9.81157        -0.81283        -1.78732
| 42>    C      -10.67569        -1.72006        -1.10540
| 43>    N      -10.60074        -3.04739        -0.92440
| 44>    N      -11.72834        -3.33567        -0.28616
| 45>    C      -12.11932        -4.71524        -0.02847
| 46>    C      -12.72870        -5.36318        -1.26896
| 47>    N      -12.55283        -2.32562        -0.04005
| 48>    C      -11.90458        -1.26462        -0.54657
| 49>    C      -12.24059         0.12107        -0.57587
| 50>    C      -11.35032         1.04335        -1.20316
| 51>    N      -11.86029         2.34899        -1.06860
| 52>    C      -10.99302         3.50958        -0.79731
| 53>    C      -11.33871         4.77081        -1.57169
| 54>    C      -13.08692         2.23154        -0.41515
| 55>    C      -13.32919         0.88585        -0.09030
| 56>    S      -14.83246         0.62697         0.75338
| 57>    C      -15.15839         2.35967         0.66848
| 58>    C      -14.14641         3.07614        -0.01078
| 59>    S      -14.61747         4.72376        -0.22471
| 60>    C      -16.15640         4.45122         0.63028
| 61>    C      -16.28137         3.11460         1.06715
| 62>    C      -17.48169         2.48595         1.71731
| 63>    C      -18.67111         2.31324         0.76199
| 64>    C      -17.08816         5.52120         0.52777
| 65>    C      -18.13744         5.91807         1.33188
| 66>    C      -19.15882         6.89181         0.94931
| 67>    C      -19.50459         7.25458        -0.34074
| 68>    C      -20.51682         8.22142        -0.63311
| 69>    N      -21.33226         9.00772        -0.89359
| 70>    C      -18.90802         6.66759        -1.50278
| 71>    N      -18.44296         6.20443        -2.46240
| 72>    C      -19.82001         7.36064         2.18921
| 73>    C      -20.82226         8.31260         2.41380
| 74>    C      -21.22846         8.55564         3.73178
| 75>    C      -20.65898         7.86714         4.81224
| 76>    C      -19.66599         6.90492         4.59260
| 77>    C      -19.26551         6.66506         3.28362
| 78>    C      -18.23173         5.70471         2.80367
| 79>    O      -17.55815         4.97095         3.50407
| 80>    H       -3.49479         5.46753        -7.33538
| 81>    H       -1.52074         6.40957        -8.61287
| 82>    H        0.17774         4.87464        -9.55570
| 83>    H       -0.00328         2.43436        -9.27718
| 84>    H       -3.62261        -0.77560        -6.48656
| 85>    H       -5.07067        -3.18165        -4.35095
| 86>    H       -3.79234        -2.36191        -5.24286
| 87>    H       -6.43725        -3.38370        -6.45966
| 88>    H       -4.80601        -4.07854        -6.69090
| 89>    H       -5.18941        -2.48203        -7.35838
| 90>    H      -10.55819         2.75394        -3.26667
| 91>    H       -9.55047         2.12181        -4.56116
| 92>    H       -8.79321         4.39731        -3.96329
| 93>    H       -7.51367         3.23609        -3.56779
| 94>    H       -8.51331         3.91826        -2.26973
| 95>    H      -12.83602        -4.68118         0.80251
| 96>    H      -11.21825        -5.24964         0.30371
| 97>    H      -13.59296        -4.77954        -1.61981
| 98>    H      -13.07178        -6.38241        -1.03510
| 99>    H      -11.98853        -5.41655        -2.08095
|100>    H       -9.96497         3.19626        -1.00616
|101>    H      -11.03518         3.71599         0.28605
|102>    H      -10.62323         5.56554        -1.31091
|103>    H      -12.34103         5.14166        -1.31909
|104>    H      -11.29955         4.61397        -2.65915
|105>    H      -17.76705         3.08772         2.59018
|106>    H      -17.17730         1.50073         2.10676
|107>    H      -19.02342         3.28209         0.37815
|108>    H      -19.51163         1.82811         1.28201
|109>    H      -18.39879         1.68839        -0.10238
|110>    H      -16.92158         6.14185        -0.35646
|111>    H      -21.27889         8.86671         1.59711
|112>    H      -22.00516         9.30041         3.92029
|113>    H      -21.00068         8.08630         5.82663
|114>    H      -19.20527         6.34570         5.40957
|115> *
|116>
|117>                          ****END OF INPUT****

CARTESIAN COORDINATES (ANGSTROEM)
---------------------------------
  C     -3.869360    2.672910   -6.895130
  O     -4.850910    3.143940   -6.343630
  C     -2.823190    3.443050   -7.614250
  C     -2.728490    4.820730   -7.767410
  C     -1.633240    5.331690   -8.473020
  C     -0.672400    4.462610   -9.006900
  C     -0.771570    3.074010   -8.850870
  C     -1.862840    2.555050   -8.140160
  C     -2.252410    1.165140   -7.781190
  C     -1.552430    0.031480   -8.166210
  C     -1.949960   -1.304190   -7.847930
  N     -2.237050   -2.405570   -7.607720
  C     -0.340680    0.086870   -8.923100
  N      0.651910    0.104440   -9.527720
  C     -3.473200    1.246440   -6.976900
  C     -4.099370    0.190590   -6.337860
  C     -5.218800    0.064460   -5.483430
  S     -6.320640    1.363610   -4.962600
  C     -7.216940    0.244780   -3.987460
  C     -6.688120   -1.065580   -4.070900
  C     -5.568730   -1.187950   -4.905260
  C     -4.883850   -2.497800   -5.194750
  C     -5.362560   -3.149340   -6.502310
  S     -7.561630   -2.236500   -3.075770
  C     -8.638610   -0.962510   -2.560450
  C     -8.328920    0.293590   -3.115250
  N     -9.267310    1.229610   -2.702410
  C     -9.539050    2.428260   -3.501360
  C     -8.532680    3.554150   -3.306740
  C    -10.180030    0.569570   -1.873050
  C     -9.811570   -0.812830   -1.787320
  C    -10.675690   -1.720060   -1.105400
  N    -10.600740   -3.047390   -0.924400
  N    -11.728340   -3.335670   -0.286160
  C    -12.119320   -4.715240   -0.028470
  C    -12.728700   -5.363180   -1.268960
  N    -12.552830   -2.325620   -0.040050
  C    -11.904580   -1.264620   -0.546570
  C    -12.240590    0.121070   -0.575870
  C    -11.350320    1.043350   -1.203160
  N    -11.860290    2.348990   -1.068600
  C    -10.993020    3.509580   -0.797310
  C    -11.338710    4.770810   -1.571690
  C    -13.086920    2.231540   -0.415150
  C    -13.329190    0.885850   -0.090300
  S    -14.832460    0.626970    0.753380
  C    -15.158390    2.359670    0.668480
  C    -14.146410    3.076140   -0.010780
  S    -14.617470    4.723760   -0.224710
  C    -16.156400    4.451220    0.630280
  C    -16.281370    3.114600    1.067150
  C    -17.481690    2.485950    1.717310
  C    -18.671110    2.313240    0.761990
  C    -17.088160    5.521200    0.527770
  C    -18.137440    5.918070    1.331880
  C    -19.158820    6.891810    0.949310
  C    -19.504590    7.254580   -0.340740
  C    -20.516820    8.221420   -0.633110
  N    -21.332260    9.007720   -0.893590
  C    -18.908020    6.667590   -1.502780
  N    -18.442960    6.204430   -2.462400
  C    -19.820010    7.360640    2.189210
  C    -20.822260    8.312600    2.413800
  C    -21.228460    8.555640    3.731780
  C    -20.658980    7.867140    4.812240
  C    -19.665990    6.904920    4.592600
  C    -19.265510    6.665060    3.283620
  C    -18.231730    5.704710    2.803670
  O    -17.558150    4.970950    3.504070
  H     -3.494790    5.467530   -7.335380
  H     -1.520740    6.409570   -8.612870
  H      0.177740    4.874640   -9.555700
  H     -0.003280    2.434360   -9.277180
  H     -3.622610   -0.775600   -6.486560
  H     -5.070670   -3.181650   -4.350950
  H     -3.792340   -2.361910   -5.242860
  H     -6.437250   -3.383700   -6.459660
  H     -4.806010   -4.078540   -6.690900
  H     -5.189410   -2.482030   -7.358380
  H    -10.558190    2.753940   -3.266670
  H     -9.550470    2.121810   -4.561160
  H     -8.793210    4.397310   -3.963290
  H     -7.513670    3.236090   -3.567790
  H     -8.513310    3.918260   -2.269730
  H    -12.836020   -4.681180    0.802510
  H    -11.218250   -5.249640    0.303710
  H    -13.592960   -4.779540   -1.619810
  H    -13.071780   -6.382410   -1.035100
  H    -11.988530   -5.416550   -2.080950
  H     -9.964970    3.196260   -1.006160
  H    -11.035180    3.715990    0.286050
  H    -10.623230    5.565540   -1.310910
  H    -12.341030    5.141660   -1.319090
  H    -11.299550    4.613970   -2.659150
  H    -17.767050    3.087720    2.590180
  H    -17.177300    1.500730    2.106760
  H    -19.023420    3.282090    0.378150
  H    -19.511630    1.828110    1.282010
  H    -18.398790    1.688390   -0.102380
  H    -16.921580    6.141850   -0.356460
  H    -21.278890    8.866710    1.597110
  H    -22.005160    9.300410    3.920290
  H    -21.000680    8.086300    5.826630
  H    -19.205270    6.345700    5.409570

 Total Charge           Charge          ....    0
 Multiplicity           Mult            ....    1
 Number of Electrons    NEL             ....  502
 Basis Dimension        Dim             .... 1157

ORBITAL ENERGIES
----------------

  NO   OCC          E(Eh)            E(eV)
   0   2.0000     -91.978374     -2502.8588
   1   2.0000     -91.974229     -2502.7460
   2   2.0000     -91.974193     -2502.7450
   3   2.0000     -91.971974     -2502.6847
   4   2.0000     -20.561386      -559.5038
   5   2.0000     -20.559200      -559.4443
   6   2.0000     -15.701688      -427.2646
   7   2.0000     -15.642985      -425.6673
   8   2.0000     -15.638870      -425.5553
   9   2.0000     -15.622584      -425.1121
  10   2.0000     -15.620709      -425.0611
  11   2.0000     -15.592427      -424.2915
  12   2.0000     -15.589719      -424.2178
  13   2.0000     -15.588705      -424.1902
  14   2.0000     -15.584287      -424.0700
  15   2.0000     -11.361701      -309.1676
  16   2.0000     -11.357108      -309.0426
  17   2.0000     -11.340372      -308.5872
  18   2.0000     -11.339712      -308.5692
  19   2.0000     -11.323482      -308.1276
  20   2.0000     -11.322867      -308.1109
  21   2.0000     -11.321335      -308.0692
  22   2.0000     -11.321050      -308.0614
  23   2.0000     -11.316271      -307.9314
  24   2.0000     -11.316024      -307.9247
  25   2.0000     -11.315431      -307.9085
  26   2.0000     -11.311945      -307.8137
  27   2.0000     -11.308202      -307.7118
  28   2.0000     -11.307399      -307.6900
  29   2.0000     -11.306591      -307.6680
  30   2.0000     -11.306235      -307.6583
  31   2.0000     -11.305703      -307.6438
  32   2.0000     -11.302932      -307.5684
  33   2.0000     -11.302201      -307.5485
  34   2.0000     -11.302080      -307.5452
  35   2.0000     -11.301532      -307.5303
  36   2.0000     -11.298349      -307.4437
  37   2.0000     -11.298305      -307.4425
  38   2.0000     -11.297325      -307.4158
  39   2.0000     -11.295287      -307.3604
  40   2.0000     -11.295113      -307.3556
  41   2.0000     -11.294379      -307.3357
  42   2.0000     -11.292739      -307.2910
  43   2.0000     -11.289848      -307.2124
  44   2.0000     -11.289756      -307.2099
  45   2.0000     -11.287758      -307.1555
  46   2.0000     -11.287247      -307.1416
  47   2.0000     -11.286039      -307.1087
  48   2.0000     -11.279162      -306.9216
  49   2.0000     -11.279144      -306.9211
  50   2.0000     -11.278792      -306.9115
  51   2.0000     -11.277781      -306.8840
  52   2.0000     -11.276662      -306.8536
  53   2.0000     -11.276524      -306.8498
  54   2.0000     -11.276169      -306.8402
  55   2.0000     -11.275804      -306.8302
  56   2.0000     -11.275150      -306.8124
  57   2.0000     -11.274775      -306.8022
  58   2.0000     -11.274443      -306.7932
  59   2.0000     -11.273813      -306.7761
  60   2.0000     -11.270721      -306.6919
  61   2.0000     -11.269536      -306.6597
  62   2.0000     -11.260734      -306.4202
  63   2.0000     -11.256604      -306.3078
  64   2.0000     -11.252498      -306.1960
  65   2.0000     -11.249276      -306.1084
  66   2.0000     -11.246553      -306.0343
  67   2.0000     -11.238997      -305.8287
  68   2.0000     -11.238045      -305.8028
  69   2.0000      -9.012972      -245.2554
  70   2.0000      -9.008103      -245.1229
  71   2.0000      -9.007201      -245.0984
  72   2.0000      -9.005846      -245.0615
  73   2.0000      -6.700575      -182.3319
  74   2.0000      -6.699443      -182.3011
  75   2.0000      -6.697418      -182.2460
  76   2.0000      -6.695630      -182.1974
  77   2.0000      -6.694799      -182.1748
  78   2.0000      -6.694426      -182.1646
  79   2.0000      -6.693405      -182.1368
  80   2.0000      -6.693267      -182.1331
  81   2.0000      -6.692574      -182.1142
  82   2.0000      -6.692522      -182.1128
  83   2.0000      -6.691273      -182.0788
  84   2.0000      -6.690252      -182.0510
  85   2.0000      -1.455912       -39.6174
  86   2.0000      -1.389448       -37.8088
  87   2.0000      -1.386832       -37.7376
  88   2.0000      -1.336089       -36.3568
  89   2.0000      -1.318892       -35.8889
  90   2.0000      -1.236831       -33.6559
  91   2.0000      -1.236553       -33.6483
  92   2.0000      -1.220793       -33.2195
  93   2.0000      -1.217302       -33.1245
  94   2.0000      -1.215520       -33.0760
  95   2.0000      -1.215019       -33.0624
  96   2.0000      -1.209613       -32.9152
  97   2.0000      -1.206398       -32.8278
  98   2.0000      -1.199773       -32.6475
  99   2.0000      -1.180465       -32.1221
 100   2.0000      -1.156033       -31.4573
 101   2.0000      -1.153384       -31.3852
 102   2.0000      -1.141864       -31.0717
 103   2.0000      -1.139894       -31.0181
 104   2.0000      -1.117555       -30.4102
 105   2.0000      -1.097814       -29.8731
 106   2.0000      -1.086501       -29.5652
 107   2.0000      -1.082374       -29.4529
 108   2.0000      -1.077945       -29.3324
 109   2.0000      -1.075242       -29.2588
 110   2.0000      -1.066023       -29.0080
 111   2.0000      -1.055353       -28.7176
 112   2.0000      -1.053054       -28.6551
 113   2.0000      -1.043325       -28.3903
 114   2.0000      -1.040507       -28.3136
 115   2.0000      -1.025037       -27.8927
 116   2.0000      -1.023762       -27.8580
 117   2.0000      -1.003308       -27.3014
 118   2.0000      -1.001835       -27.2613
 119   2.0000      -0.993846       -27.0439
 120   2.0000      -0.979707       -26.6592
 121   2.0000      -0.961618       -26.1670
 122   2.0000      -0.953451       -25.9447
 123   2.0000      -0.942666       -25.6512
 124   2.0000      -0.921817       -25.0839
 125   2.0000      -0.919188       -25.0124
 126   2.0000      -0.918360       -24.9898
 127   2.0000      -0.914597       -24.8874
 128   2.0000      -0.894010       -24.3273
 129   2.0000      -0.876104       -23.8400
 130   2.0000      -0.871693       -23.7200
 131   2.0000      -0.866414       -23.5763
 132   2.0000      -0.862808       -23.4782
 133   2.0000      -0.855954       -23.2917
 134   2.0000      -0.840991       -22.8845
 135   2.0000      -0.833353       -22.6767
 136   2.0000      -0.830799       -22.6072
 137   2.0000      -0.828661       -22.5490
 138   2.0000      -0.822022       -22.3684
 139   2.0000      -0.810550       -22.0562
 140   2.0000      -0.799431       -21.7536
 141   2.0000      -0.784905       -21.3584
 142   2.0000      -0.773103       -21.0372
 143   2.0000      -0.769068       -20.9274
 144   2.0000      -0.768741       -20.9185
 145   2.0000      -0.767740       -20.8913
 146   2.0000      -0.748809       -20.3761
 147   2.0000      -0.745124       -20.2759
 148   2.0000      -0.735263       -20.0075
 149   2.0000      -0.732504       -19.9325
 150   2.0000      -0.730265       -19.8715
 151   2.0000      -0.722825       -19.6691
 152   2.0000      -0.714074       -19.4309
 153   2.0000      -0.700042       -19.0491
 154   2.0000      -0.693013       -18.8578
 155   2.0000      -0.690307       -18.7842
 156   2.0000      -0.683242       -18.5920
 157   2.0000      -0.682626       -18.5752
 158   2.0000      -0.675354       -18.3773
 159   2.0000      -0.674387       -18.3510
 160   2.0000      -0.671183       -18.2638
 161   2.0000      -0.661463       -17.9993
 162   2.0000      -0.658747       -17.9254
 163   2.0000      -0.656336       -17.8598
 164   2.0000      -0.649026       -17.6609
 165   2.0000      -0.648365       -17.6429
 166   2.0000      -0.644443       -17.5362
 167   2.0000      -0.639674       -17.4064
 168   2.0000      -0.636105       -17.3093
 169   2.0000      -0.634636       -17.2693
 170   2.0000      -0.633829       -17.2474
 171   2.0000      -0.631535       -17.1850
 172   2.0000      -0.628621       -17.1056
 173   2.0000      -0.624404       -16.9909
 174   2.0000      -0.622285       -16.9332
 175   2.0000      -0.618438       -16.8286
 176   2.0000      -0.616128       -16.7657
 177   2.0000      -0.615620       -16.7519
 178   2.0000      -0.612443       -16.6654
 179   2.0000      -0.611021       -16.6267
 180   2.0000      -0.607947       -16.5431
 181   2.0000      -0.603488       -16.4218
 182   2.0000      -0.601406       -16.3651
 183   2.0000      -0.598961       -16.2986
 184   2.0000      -0.583879       -15.8882
 185   2.0000      -0.580244       -15.7892
 186   2.0000      -0.579407       -15.7665
 187   2.0000      -0.575464       -15.6592
 188   2.0000      -0.572930       -15.5902
 189   2.0000      -0.571505       -15.5515
 190   2.0000      -0.567124       -15.4322
 191   2.0000      -0.566956       -15.4277
 192   2.0000      -0.565261       -15.3815
 193   2.0000      -0.564840       -15.3701
 194   2.0000      -0.563239       -15.3265
 195   2.0000      -0.561148       -15.2696
 196   2.0000      -0.560057       -15.2399
 197   2.0000      -0.554309       -15.0835
 198   2.0000      -0.552545       -15.0355
 199   2.0000      -0.551228       -14.9997
 200   2.0000      -0.549476       -14.9520
 201   2.0000      -0.548237       -14.9183
 202   2.0000      -0.546715       -14.8769
 203   2.0000      -0.542234       -14.7549
 204   2.0000      -0.537593       -14.6286
 205   2.0000      -0.536153       -14.5895
 206   2.0000      -0.534671       -14.5491
 207   2.0000      -0.534479       -14.5439
 208   2.0000      -0.532070       -14.4784
 209   2.0000      -0.528646       -14.3852
 210   2.0000      -0.527067       -14.3422
 211   2.0000      -0.524964       -14.2850
 212   2.0000      -0.522586       -14.2203
 213   2.0000      -0.521443       -14.1892
 214   2.0000      -0.514636       -14.0040
 215   2.0000      -0.507620       -13.8130
 216   2.0000      -0.503835       -13.7100
 217   2.0000      -0.499651       -13.5962
 218   2.0000      -0.499248       -13.5852
 219   2.0000      -0.495370       -13.4797
 220   2.0000      -0.493116       -13.4184
 221   2.0000      -0.490309       -13.3420
 222   2.0000      -0.489564       -13.3217
 223   2.0000      -0.488108       -13.2821
 224   2.0000      -0.487286       -13.2597
 225   2.0000      -0.484699       -13.1893
 226   2.0000      -0.481774       -13.1097
 227   2.0000      -0.473670       -12.8892
 228   2.0000      -0.473006       -12.8712
 229   2.0000      -0.471194       -12.8218
 230   2.0000      -0.467438       -12.7196
 231   2.0000      -0.461741       -12.5646
 232   2.0000      -0.458583       -12.4787
 233   2.0000      -0.451099       -12.2750
 234   2.0000      -0.441758       -12.0209
 235   2.0000      -0.438874       -11.9424
 236   2.0000      -0.431157       -11.7324
 237   2.0000      -0.408674       -11.1206
 238   2.0000      -0.406867       -11.0714
 239   2.0000      -0.380835       -10.3631
 240   2.0000      -0.378191       -10.2911
 241   2.0000      -0.371834       -10.1181
 242   2.0000      -0.369534       -10.0555
 243   2.0000      -0.352785        -9.5998
 244   2.0000      -0.350020        -9.5245
 245   2.0000      -0.346622        -9.4321
 246   2.0000      -0.334626        -9.1056
 247   2.0000      -0.327778        -8.9193
 248   2.0000      -0.308049        -8.3824
 249   2.0000      -0.300322        -8.1722
 250   2.0000      -0.253676        -6.9029
 251   0.0000      -0.026427        -0.7191
 252   0.0000      -0.009947        -0.2707
 253   0.0000       0.019357         0.5267
 254   0.0000       0.026038         0.7085
 255   0.0000       0.053747         1.4625

MULLIKEN ATOMIC CHARGES
-----------------------
   0 C :    0.515593
   1 O :   -0.392381
   2 C :   -0.192454
   3 C :    0.011892
   4 C :   -0.014584
   5 C :   -0.017246
   6 C :   -0.018456
   7 C :   -0.043103
   8 C :    0.255357
   9 C :   -0.366228
  10 C :    0.052600
  11 N :   -0.108505
  12 C :    0.049399
  13 N :   -0.096317
  14 C :   -0.312506
  15 C :    0.072849
  16 C :   -0.168697
  17 S :    0.247818
  18 C :   -0.003864
  19 C :   -0.117331
  20 C :   -0.085686
  21 C :   -0.027583
  22 C :   -0.011415
  23 S :    0.226973
  24 C :    0.011718
  25 C :    0.126269
  26 N :   -0.602575
  27 C :    0.105507
  28 C :   -0.044941
  29 C :    0.228003
  30 C :   -0.215377
  31 C :    0.111431
  32 N :   -0.182972
  33 N :   -0.235810
  34 C :    0.189536
  35 C :   -0.069449
  36 N :   -0.177674
  37 C :    0.103018
  38 C :   -0.203549
  39 C :    0.216676
  40 N :   -0.602404
  41 C :    0.105783
  42 C :   -0.039412
  43 C :    0.135826
  44 C :    0.003717
  45 S :    0.229638
  46 C :   -0.153816
  47 C :   -0.005271
  48 S :    0.156223
  49 C :   -0.212489
  50 C :   -0.035750
  51 C :   -0.004550
  52 C :   -0.040851
  53 C :    0.133377
  54 C :   -0.296850
  55 C :    0.233368
  56 C :   -0.346816
  57 C :    0.048958
  58 N :   -0.091059
  59 C :    0.027936
  60 N :   -0.080578
  61 C :   -0.038429
  62 C :   -0.016783
  63 C :   -0.017260
  64 C :   -0.014966
  65 C :    0.011160
  66 C :   -0.195102
  67 C :    0.499146
  68 O :   -0.377065
  69 H :    0.064424
  70 H :    0.062224
  71 H :    0.062604
  72 H :    0.086635
  73 H :    0.078912
  74 H :    0.056831
  75 H :    0.072937
  76 H :    0.039851
  77 H :    0.063159
  78 H :    0.040556
  79 H :    0.066787
  80 H :    0.066869
  81 H :    0.053027
  82 H :    0.069191
  83 H :    0.037615
  84 H :    0.064576
  85 H :    0.064680
  86 H :    0.053759
  87 H :    0.048798
  88 H :    0.058992
  89 H :    0.059886
  90 H :    0.062395
  91 H :    0.051316
  92 H :    0.060412
  93 H :    0.045028
  94 H :    0.106706
  95 H :    0.044952
  96 H :    0.051471
  97 H :    0.047027
  98 H :    0.044558
  99 H :    0.103305
 100 H :    0.085281
 101 H :    0.063473
 102 H :    0.063443
 103 H :    0.066703
Sum of atomic charges:   -0.0000000

LOEWDIN ATOMIC CHARGES
----------------------
   0 C :    0.169144
   1 O :   -0.258938
   2 C :   -0.054292
   3 C :    0.015896
   4 C :    0.000411
   5 C :   -0.001831
   6 C :    0.009368
   7 C :   -0.027225
   8 C :    0.132245
   9 C :   -0.191607
  10 C :    0.024359
  11 N :   -0.113596
  12 C :    0.021124
  13 N :   -0.109679
  14 C :   -0.174994
  15 C :    0.113198
  16 C :   -0.221919
  17 S :    0.454317
  18 C :   -0.160953
  19 C :   -0.212006
  20 C :    0.025307
  21 C :   -0.018861
  22 C :   -0.020966
  23 S :    0.389529
  24 C :   -0.156690
  25 C :   -0.023169
  26 N :   -0.050497
  27 C :    0.075331
  28 C :   -0.041322
  29 C :    0.044920
  30 C :   -0.078462
  31 C :   -0.037570
  32 N :   -0.112184
  33 N :    0.108151
  34 C :    0.076383
  35 C :   -0.038467
  36 N :   -0.108349
  37 C :   -0.043814
  38 C :   -0.069023
  39 C :    0.038026
  40 N :   -0.070666
  41 C :    0.078682
  42 C :   -0.041251
  43 C :   -0.018065
  44 C :   -0.160623
  45 S :    0.401046
  46 C :   -0.203684
  47 C :   -0.167244
  48 S :    0.407246
  49 C :   -0.207754
  50 C :    0.030930
  51 C :   -0.021023
  52 C :   -0.026955
  53 C :    0.111996
  54 C :   -0.161239
  55 C :    0.123012
  56 C :   -0.179174
  57 C :    0.019722
  58 N :   -0.104029
  59 C :    0.010532
  60 N :   -0.102117
  61 C :   -0.028480
  62 C :    0.008995
  63 C :   -0.001104
  64 C :    0.001009
  65 C :    0.016277
  66 C :   -0.053887
  67 C :    0.169219
  68 O :   -0.236714
  69 H :    0.043490
  70 H :    0.036171
  71 H :    0.037743
  72 H :    0.043347
  73 H :    0.047903
  74 H :    0.027035
  75 H :    0.032986
  76 H :    0.019053
  77 H :    0.030339
  78 H :    0.019164
  79 H :    0.022252
  80 H :    0.025500
  81 H :    0.030060
  82 H :    0.016978
  83 H :    0.018007
  84 H :    0.031457
  85 H :    0.030593
  86 H :    0.026789
  87 H :    0.026438
  88 H :    0.027631
  89 H :    0.020476
  90 H :    0.023920
  91 H :    0.030136
  92 H :    0.010920
  93 H :    0.021354
  94 H :    0.039145
  95 H :    0.021796
  96 H :    0.019252
  97 H :    0.023216
  98 H :    0.021334
  99 H :    0.047197
 100 H :    0.043385
 101 H :    0.038006
 102 H :    0.036647
 103 H :    0.044323

  Mayer bond orders larger than 0.100000
B(  0-C ,  1-O ) :   2.0335 B(  0-C ,  2-C ) :   0.9778 B(  0-C , 14-C ) :   0.9790
B(  2-C ,  3-C ) :   1.4411 B(  2-C ,  7-C ) :   1.3633 B(  3-C ,  4-C ) :   1.3918
B(  3-C , 69-H ) :   1.0013 B(  4-C ,  5-C ) :   1.4084 B(  4-C , 70-H ) :   0.9963
B(  5-C ,  6-C ) :   1.4244 B(  5-C , 71-H ) :   0.9931 B(  6-C ,  7-C ) :   1.4162
B(  6-C , 72-H ) :   0.9845 B(  7-C ,  8-C ) :   1.0320 B(  8-C ,  9-C ) :   1.6428
B(  8-C , 14-C ) :   1.1287 B(  9-C , 10-C ) :   1.0683 B(  9-C , 12-C ) :   1.0601
B( 10-C , 11-N ) :   2.9628 B( 12-C , 13-N ) :   2.9758 B( 14-C , 15-C ) :   1.5863
B( 15-C , 16-C ) :   1.3311 B( 15-C , 73-H ) :   0.9578 B( 16-C , 17-S ) :   1.0316
B( 16-C , 20-C ) :   1.4534 B( 17-S , 18-C ) :   1.0257 B( 18-C , 19-C ) :   1.4650
B( 18-C , 25-C ) :   1.3612 B( 19-C , 20-C ) :   1.4890 B( 19-C , 23-S ) :   0.9885
B( 20-C , 21-C ) :   0.9794 B( 21-C , 22-C ) :   1.0375 B( 21-C , 74-H ) :   0.9678
B( 21-C , 75-H ) :   0.9589 B( 22-C , 76-H ) :   0.9813 B( 22-C , 77-H ) :   0.9844
B( 22-C , 78-H ) :   0.9849 B( 23-S , 24-C ) :   0.9830 B( 24-C , 25-C ) :   1.4744
B( 24-C , 30-C ) :   1.4072 B( 25-C , 26-N ) :   1.0710 B( 26-N , 27-C ) :   0.8280
B( 26-N , 29-C ) :   1.0892 B( 27-C , 28-C ) :   1.0403 B( 27-C , 79-H ) :   0.9804
B( 27-C , 80-H ) :   0.9773 B( 28-C , 81-H ) :   0.9821 B( 28-C , 82-H ) :   0.9766
B( 28-C , 83-H ) :   0.9799 B( 29-C , 30-C ) :   1.4551 B( 29-C , 39-C ) :   1.2089
B( 30-C , 31-C ) :   1.1266 B( 31-C , 32-N ) :   1.5086 B( 31-C , 37-C ) :   1.2617
B( 32-N , 33-N ) :   1.2067 B( 32-N , 36-N ) :   0.1315 B( 33-N , 34-C ) :   0.8244
B( 33-N , 36-N ) :   1.2161 B( 34-C , 35-C ) :   1.0424 B( 34-C , 84-H ) :   0.9733
B( 34-C , 85-H ) :   0.9739 B( 35-C , 86-H ) :   0.9808 B( 35-C , 87-H ) :   0.9845
B( 35-C , 88-H ) :   0.9813 B( 36-N , 37-C ) :   1.5046 B( 37-C , 38-C ) :   1.1269
B( 38-C , 39-C ) :   1.4904 B( 38-C , 44-C ) :   1.3691 B( 39-C , 40-N ) :   1.0605
B( 40-N , 41-C ) :   0.8332 B( 40-N , 43-C ) :   1.0607 B( 41-C , 42-C ) :   1.0421
B( 41-C , 89-H ) :   0.9823 B( 41-C , 90-H ) :   0.9751 B( 42-C , 91-H ) :   0.9816
B( 42-C , 92-H ) :   0.9787 B( 42-C , 93-H ) :   0.9800 B( 43-C , 44-C ) :   1.4969
B( 43-C , 47-C ) :   1.3536 B( 44-C , 45-S ) :   0.9931 B( 45-S , 46-C ) :   1.0063
B( 46-C , 47-C ) :   1.4884 B( 46-C , 50-C ) :   1.4198 B( 47-C , 48-S ) :   1.0527
B( 48-S , 49-C ) :   1.0743 B( 49-C , 50-C ) :   1.5160 B( 49-C , 53-C ) :   1.2034
B( 50-C , 51-C ) :   0.9656 B( 51-C , 52-C ) :   1.0377 B( 51-C , 94-H ) :   0.9460
B( 51-C , 95-H ) :   0.9679 B( 52-C , 96-H ) :   0.9850 B( 52-C , 97-H ) :   0.9863
B( 52-C , 98-H ) :   0.9816 B( 53-C , 54-C ) :   1.6603 B( 53-C , 99-H ) :   0.9463
B( 54-C , 55-C ) :   1.0962 B( 54-C , 67-C ) :   0.9858 B( 55-C , 56-C ) :   1.6794
B( 55-C , 61-C ) :   1.0327 B( 56-C , 57-C ) :   1.0554 B( 56-C , 59-C ) :   1.0576
B( 57-C , 58-N ) :   2.9806 B( 59-C , 60-N ) :   2.9956 B( 61-C , 62-C ) :   1.4160
B( 61-C , 66-C ) :   1.3556 B( 62-C , 63-C ) :   1.4226 B( 62-C ,100-H ) :   0.9856
B( 63-C , 64-C ) :   1.4086 B( 63-C ,101-H ) :   0.9932 B( 64-C , 65-C ) :   1.3929
B( 64-C ,102-H ) :   0.9962 B( 65-C , 66-C ) :   1.4427 B( 65-C ,103-H ) :   1.0012
B( 66-C , 67-C ) :   0.9646 B( 67-C , 68-O ) :   2.0258

-----------------------------------------------------------------------------
         ABSORPTION SPECTRUM VIA TRANSITION ELECTRIC DIPOLE MOMENTS
-----------------------------------------------------------------------------
State   Energy    Wavelength  fosc         T2        TX        TY        TZ
        (cm-1)      (nm)                 (au**2)    (au)      (au)      (au)
-----------------------------------------------------------------------------
   1   21653.4    461.8   2.806608163  42.67093   5.56985  -1.75189  -2.92891
   2   26653.9    375.2   0.765055757   9.44947  -0.36860  -2.61922   1.56630
   3   34513.0    289.7   0.051864869   0.49473  -0.10095   0.23546  -0.65505

FINAL SINGLE POINT ENERGY     -4292.339327164507

DIPOLE MOMENT
-------------
                                X             Y             Z
Electronic contribution:      6.52237       8.35559      -1.96477
Nuclear contribution   :     -7.02668      -8.52039       4.93897
                        -----------------------------------------
Total Dipole Moment    :     -0.50432      -0.16481       2.97419
                        -----------------------------------------
Magnitude (a.u.)       :      3.02115
Magnitude (Debye)      :      7.67914

Rotational constants in cm-1:     0.001769     0.000307     0.000269
Rotational constants in MHz :    53.020371     9.211679     8.078137

                             ****ORCA TERMINATED NORMALLY****
TOTAL RUN TIME: 0 days 12 hours 33 minutes 4 seconds 684 msec
