                         Program Version 4.2.0 -  RELEASE  -
|  1> # ORCA input file
|  2> # Y2.out
|  3> ! Engrad Keepdens
|  4> %maxcore 1000
|  5> %tddft
|  6>   nroots 3
|  7>   # nroots is the number of states to be computed
|  8>   Iroot 1
|  9>   end
| 10> * xyz 0 1
| 11>    C        4.48978         1.94151        -0.72963
| 12>    O        5.42205         2.62976        -1.07605
| 13>    C        3.06089         2.28321        -0.67749
| 14>    C        2.27182         3.34007        -0.99445
| 15>    S        0.61747         2.99500        -0.64613
| 16>    C        0.99212         1.41719        -0.05621
| 17>    C        2.32774         1.17535        -0.13773
| 18>    C        3.25754         0.11769         0.21433
| 19>    C        2.96746        -0.90630         1.08128
| 20>    C        1.65805        -1.11452         1.55719
| 21>    N        0.59053        -1.30372         1.93416
| 22>    C        3.92564        -1.76931         1.64160
| 23>    N        4.68217        -2.46816         2.14916
| 24>    C        4.55050         0.51233        -0.30160
| 25>    C        5.70758        -0.18270        -0.50877
| 26>    C        5.90786        -1.57483        -0.57834
| 27>    S        7.54361        -2.19985        -0.41220
| 28>    C        6.99016        -3.81111        -0.65983
| 29>    C        5.60365        -3.83893        -0.90029
| 30>    C        5.00220        -2.58958        -0.84450
| 31>    S        4.97882        -5.44590        -1.17726
| 32>    C        6.57533        -6.07516        -0.94480
| 33>    C        7.54027        -5.09438        -0.68535
| 34>    N        8.75788        -5.68086        -0.47960
| 35>    C        9.85090        -4.85763        -0.01737
| 36>    C       10.50215        -4.08025        -1.16170
| 37>    C        8.60574        -7.05272        -0.61170
| 38>    C        7.22603        -7.31034        -0.88640
| 39>    C        6.72608        -8.62435        -0.98067
| 40>    N        5.50803        -9.11465        -1.21624
| 41>    N        5.66792       -10.41210        -1.13494
| 42>    C        4.56892       -11.31838        -1.30395
| 43>    C        3.62931       -11.25160        -0.10455
| 44>    N        6.87694       -10.83803        -0.86644
| 45>    C        7.59723        -9.71960        -0.75974
| 46>    C        8.96875        -9.48139        -0.53981
| 47>    C        9.50337        -8.15305        -0.51997
| 48>    N       10.87955        -8.25699        -0.40571
| 49>    C       11.94877        -7.29353        -0.53033
| 50>    C       12.59477        -6.97590         0.81864
| 51>    C       11.20320        -9.58310        -0.32042
| 52>    C       10.04180       -10.36283        -0.39144
| 53>    S       10.33785       -12.06859        -0.31718
| 54>    C       12.05341       -11.73221        -0.20803
| 55>    C       12.36263       -10.35541        -0.22676
| 56>    S       14.06133       -10.07172        -0.13746
| 57>    C       14.36180       -11.80450        -0.06438
| 58>    C       13.17108       -12.53574        -0.11286
| 59>    C       15.61191       -12.42655         0.02896
| 60>    C       16.87705       -11.89252         0.07214
| 61>    C       18.10217       -12.66637         0.16299
| 62>    C       18.25960       -14.02602         0.25232
| 63>    C       19.54223       -14.60579         0.33538
| 64>    N       20.57948       -15.09277         0.40179
| 65>    C       17.22976       -14.98506         0.27728
| 66>    N       16.44091       -15.82030         0.30291
| 67>    C       19.20069       -11.71835         0.14935
| 68>    C       20.56028       -11.73828         0.19244
| 69>    S       21.20100       -10.13704         0.12997
| 70>    C       19.62925        -9.43048         0.04427
| 71>    C       18.67078       -10.39032         0.06417
| 72>    C       17.20642       -10.45924         0.01957
| 73>    O       16.42847        -9.52280        -0.04726
| 74>    H        2.54814         4.29094        -1.40371
| 75>    H        0.20295         0.78362         0.29614
| 76>    H        6.57591         0.43497        -0.71893
| 77>    H        3.95883        -2.41648        -1.03533
| 78>    H       10.56996        -5.47272         0.51450
| 79>    H        9.43692        -4.13952         0.69900
| 80>    H       11.38266        -3.55846        -0.79778
| 81>    H        9.80722        -3.34502        -1.55851
| 82>    H       10.79385        -4.73845        -1.97769
| 83>    H        4.99731       -12.31585        -1.41368
| 84>    H        4.03363       -11.03893        -2.21508
| 85>    H        4.15168       -11.54494         0.80278
| 86>    H        2.78790       -11.92134        -0.25653
| 87>    H        3.25686       -10.23745         0.01573
| 88>    H       11.57624        -6.40060        -1.02344
| 89>    H       12.71158        -7.73693        -1.17949
| 90>    H       11.85188        -6.70526         1.56642
| 91>    H       13.29809        -6.15605         0.70467
| 92>    H       13.13908        -7.84186         1.18465
| 93>    H       13.15345       -13.61009        -0.08042
| 94>    H       15.54313       -13.50735         0.06785
| 95>    H       21.23168       -12.57087         0.25564
| 96>    H       19.51990        -8.36621        -0.01419
| 97> *
| 98>
| 99>                          ****END OF INPUT****

CARTESIAN COORDINATES (ANGSTROEM)
---------------------------------
  C      4.489780    1.941510   -0.729630
  O      5.422050    2.629760   -1.076050
  C      3.060890    2.283210   -0.677490
  C      2.271820    3.340070   -0.994450
  S      0.617470    2.995000   -0.646130
  C      0.992120    1.417190   -0.056210
  C      2.327740    1.175350   -0.137730
  C      3.257540    0.117690    0.214330
  C      2.967460   -0.906300    1.081280
  C      1.658050   -1.114520    1.557190
  N      0.590530   -1.303720    1.934160
  C      3.925640   -1.769310    1.641600
  N      4.682170   -2.468160    2.149160
  C      4.550500    0.512330   -0.301600
  C      5.707580   -0.182700   -0.508770
  C      5.907860   -1.574830   -0.578340
  S      7.543610   -2.199850   -0.412200
  C      6.990160   -3.811110   -0.659830
  C      5.603650   -3.838930   -0.900290
  C      5.002200   -2.589580   -0.844500
  S      4.978820   -5.445900   -1.177260
  C      6.575330   -6.075160   -0.944800
  C      7.540270   -5.094380   -0.685350
  N      8.757880   -5.680860   -0.479600
  C      9.850900   -4.857630   -0.017370
  C     10.502150   -4.080250   -1.161700
  C      8.605740   -7.052720   -0.611700
  C      7.226030   -7.310340   -0.886400
  C      6.726080   -8.624350   -0.980670
  N      5.508030   -9.114650   -1.216240
  N      5.667920  -10.412100   -1.134940
  C      4.568920  -11.318380   -1.303950
  C      3.629310  -11.251600   -0.104550
  N      6.876940  -10.838030   -0.866440
  C      7.597230   -9.719600   -0.759740
  C      8.968750   -9.481390   -0.539810
  C      9.503370   -8.153050   -0.519970
  N     10.879550   -8.256990   -0.405710
  C     11.948770   -7.293530   -0.530330
  C     12.594770   -6.975900    0.818640
  C     11.203200   -9.583100   -0.320420
  C     10.041800  -10.362830   -0.391440
  S     10.337850  -12.068590   -0.317180
  C     12.053410  -11.732210   -0.208030
  C     12.362630  -10.355410   -0.226760
  S     14.061330  -10.071720   -0.137460
  C     14.361800  -11.804500   -0.064380
  C     13.171080  -12.535740   -0.112860
  C     15.611910  -12.426550    0.028960
  C     16.877050  -11.892520    0.072140
  C     18.102170  -12.666370    0.162990
  C     18.259600  -14.026020    0.252320
  C     19.542230  -14.605790    0.335380
  N     20.579480  -15.092770    0.401790
  C     17.229760  -14.985060    0.277280
  N     16.440910  -15.820300    0.302910
  C     19.200690  -11.718350    0.149350
  C     20.560280  -11.738280    0.192440
  S     21.201000  -10.137040    0.129970
  C     19.629250   -9.430480    0.044270
  C     18.670780  -10.390320    0.064170
  C     17.206420  -10.459240    0.019570
  O     16.428470   -9.522800   -0.047260
  H      2.548140    4.290940   -1.403710
  H      0.202950    0.783620    0.296140
  H      6.575910    0.434970   -0.718930
  H      3.958830   -2.416480   -1.035330
  H     10.569960   -5.472720    0.514500
  H      9.436920   -4.139520    0.699000
  H     11.382660   -3.558460   -0.797780
  H      9.807220   -3.345020   -1.558510
  H     10.793850   -4.738450   -1.977690
  H      4.997310  -12.315850   -1.413680
  H      4.033630  -11.038930   -2.215080
  H      4.151680  -11.544940    0.802780
  H      2.787900  -11.921340   -0.256530
  H      3.256860  -10.237450    0.015730
  H     11.576240   -6.400600   -1.023440
  H     12.711580   -7.736930   -1.179490
  H     11.851880   -6.705260    1.566420
  H     13.298090   -6.156050    0.704670
  H     13.139080   -7.841860    1.184650
  H     13.153450  -13.610090   -0.080420
  H     15.543130  -13.507350    0.067850
  H     21.231680  -12.570870    0.255640
  H     19.519900   -8.366210   -0.014190

 Total Charge           Charge          ....    0
 Multiplicity           Mult            ....    1
 Number of Electrons    NEL             ....  474
 Basis Dimension        Dim             .... 1021

ORBITAL ENERGIES
----------------

  NO   OCC          E(Eh)            E(eV)
   0   2.0000     -91.990195     -2503.1805
   1   2.0000     -91.989329     -2503.1569
   2   2.0000     -91.985634     -2503.0563
   3   2.0000     -91.976496     -2502.8077
   4   2.0000     -91.971634     -2502.6754
   5   2.0000     -91.969731     -2502.6236
   6   2.0000     -20.563801      -559.5695
   7   2.0000     -20.558914      -559.4365
   8   2.0000     -15.699489      -427.2048
   9   2.0000     -15.647478      -425.7895
  10   2.0000     -15.646386      -425.7598
  11   2.0000     -15.615235      -424.9122
  12   2.0000     -15.614106      -424.8814
  13   2.0000     -15.586561      -424.1319
  14   2.0000     -15.586442      -424.1286
  15   2.0000     -15.586307      -424.1250
  16   2.0000     -15.580148      -423.9574
  17   2.0000     -11.365645      -309.2749
  18   2.0000     -11.361138      -309.1523
  19   2.0000     -11.339500      -308.5635
  20   2.0000     -11.336340      -308.4775
  21   2.0000     -11.325172      -308.1736
  22   2.0000     -11.323362      -308.1243
  23   2.0000     -11.319067      -308.0075
  24   2.0000     -11.318881      -308.0024
  25   2.0000     -11.315918      -307.9218
  26   2.0000     -11.313045      -307.8436
  27   2.0000     -11.310725      -307.7805
  28   2.0000     -11.309385      -307.7440
  29   2.0000     -11.309244      -307.7402
  30   2.0000     -11.308848      -307.7294
  31   2.0000     -11.308836      -307.7291
  32   2.0000     -11.308441      -307.7183
  33   2.0000     -11.308102      -307.7091
  34   2.0000     -11.305815      -307.6469
  35   2.0000     -11.303504      -307.5840
  36   2.0000     -11.300048      -307.4899
  37   2.0000     -11.299432      -307.4732
  38   2.0000     -11.298080      -307.4364
  39   2.0000     -11.297751      -307.4274
  40   2.0000     -11.297399      -307.4179
  41   2.0000     -11.296648      -307.3974
  42   2.0000     -11.296592      -307.3959
  43   2.0000     -11.295027      -307.3533
  44   2.0000     -11.293308      -307.3065
  45   2.0000     -11.292204      -307.2765
  46   2.0000     -11.291374      -307.2539
  47   2.0000     -11.289451      -307.2016
  48   2.0000     -11.287034      -307.1358
  49   2.0000     -11.285208      -307.0861
  50   2.0000     -11.283861      -307.0495
  51   2.0000     -11.281345      -306.9810
  52   2.0000     -11.277844      -306.8857
  53   2.0000     -11.276484      -306.8487
  54   2.0000     -11.274478      -306.7942
  55   2.0000     -11.270912      -306.6971
  56   2.0000     -11.270909      -306.6970
  57   2.0000     -11.270070      -306.6742
  58   2.0000     -11.269697      -306.6640
  59   2.0000     -11.268764      -306.6387
  60   2.0000     -11.257404      -306.3295
  61   2.0000     -11.252168      -306.1871
  62   2.0000     -11.237876      -305.7982
  63   2.0000      -9.026441      -245.6219
  64   2.0000      -9.025613      -245.5994
  65   2.0000      -9.020610      -245.4633
  66   2.0000      -9.009873      -245.1711
  67   2.0000      -9.006320      -245.0744
  68   2.0000      -9.004413      -245.0225
  69   2.0000      -6.713768      -182.6909
  70   2.0000      -6.712946      -182.6686
  71   2.0000      -6.712584      -182.6587
  72   2.0000      -6.711755      -182.6361
  73   2.0000      -6.711052      -182.6170
  74   2.0000      -6.710221      -182.5944
  75   2.0000      -6.708199      -182.5394
  76   2.0000      -6.707188      -182.5119
  77   2.0000      -6.705146      -182.4563
  78   2.0000      -6.697007      -182.2348
  79   2.0000      -6.695684      -182.1988
  80   2.0000      -6.693880      -182.1497
  81   2.0000      -6.693665      -182.1439
  82   2.0000      -6.693054      -182.1272
  83   2.0000      -6.691983      -182.0981
  84   2.0000      -6.691158      -182.0757
  85   2.0000      -6.690686      -182.0628
  86   2.0000      -6.688773      -182.0108
  87   2.0000      -1.468287       -39.9541
  88   2.0000      -1.397849       -38.0374
  89   2.0000      -1.392016       -37.8787
  90   2.0000      -1.351153       -36.7667
  91   2.0000      -1.336868       -36.3780
  92   2.0000      -1.250481       -34.0273
  93   2.0000      -1.247651       -33.9503
  94   2.0000      -1.231154       -33.5014
  95   2.0000      -1.229729       -33.4626
  96   2.0000      -1.229566       -33.4582
  97   2.0000      -1.226009       -33.3614
  98   2.0000      -1.221942       -33.2507
  99   2.0000      -1.219684       -33.1893
 100   2.0000      -1.203127       -32.7388
 101   2.0000      -1.188723       -32.3468
 102   2.0000      -1.172455       -31.9041
 103   2.0000      -1.170630       -31.8545
 104   2.0000      -1.152796       -31.3692
 105   2.0000      -1.149935       -31.2913
 106   2.0000      -1.127286       -30.6750
 107   2.0000      -1.108329       -30.1592
 108   2.0000      -1.095600       -29.8128
 109   2.0000      -1.088460       -29.6185
 110   2.0000      -1.069206       -29.0946
 111   2.0000      -1.064269       -28.9602
 112   2.0000      -1.060414       -28.8553
 113   2.0000      -1.048783       -28.5388
 114   2.0000      -1.046172       -28.4678
 115   2.0000      -1.027022       -27.9467
 116   2.0000      -1.026091       -27.9213
 117   2.0000      -1.024750       -27.8849
 118   2.0000      -1.009641       -27.4737
 119   2.0000      -1.002017       -27.2663
 120   2.0000      -0.978245       -26.6194
 121   2.0000      -0.972001       -26.4495
 122   2.0000      -0.965254       -26.2659
 123   2.0000      -0.943536       -25.6749
 124   2.0000      -0.927257       -25.2319
 125   2.0000      -0.921593       -25.0778
 126   2.0000      -0.913494       -24.8574
 127   2.0000      -0.912860       -24.8402
 128   2.0000      -0.903083       -24.5741
 129   2.0000      -0.878963       -23.9178
 130   2.0000      -0.868834       -23.6422
 131   2.0000      -0.856764       -23.3137
 132   2.0000      -0.839137       -22.8341
 133   2.0000      -0.836374       -22.7589
 134   2.0000      -0.823738       -22.4150
 135   2.0000      -0.812354       -22.1053
 136   2.0000      -0.806600       -21.9487
 137   2.0000      -0.805001       -21.9052
 138   2.0000      -0.801595       -21.8125
 139   2.0000      -0.786664       -21.4062
 140   2.0000      -0.781989       -21.2790
 141   2.0000      -0.776372       -21.1262
 142   2.0000      -0.769483       -20.9387
 143   2.0000      -0.761835       -20.7306
 144   2.0000      -0.759979       -20.6801
 145   2.0000      -0.754368       -20.5274
 146   2.0000      -0.744238       -20.2517
 147   2.0000      -0.739994       -20.1363
 148   2.0000      -0.729068       -19.8389
 149   2.0000      -0.725428       -19.7399
 150   2.0000      -0.718424       -19.5493
 151   2.0000      -0.709479       -19.3059
 152   2.0000      -0.707759       -19.2591
 153   2.0000      -0.697760       -18.9870
 154   2.0000      -0.684745       -18.6329
 155   2.0000      -0.679814       -18.4987
 156   2.0000      -0.676292       -18.4029
 157   2.0000      -0.670714       -18.2511
 158   2.0000      -0.661411       -17.9979
 159   2.0000      -0.655565       -17.8388
 160   2.0000      -0.652005       -17.7420
 161   2.0000      -0.648435       -17.6448
 162   2.0000      -0.646022       -17.5792
 163   2.0000      -0.641941       -17.4681
 164   2.0000      -0.639066       -17.3899
 165   2.0000      -0.631663       -17.1884
 166   2.0000      -0.628639       -17.1061
 167   2.0000      -0.626383       -17.0448
 168   2.0000      -0.624286       -16.9877
 169   2.0000      -0.622323       -16.9343
 170   2.0000      -0.617899       -16.8139
 171   2.0000      -0.615439       -16.7469
 172   2.0000      -0.611908       -16.6509
 173   2.0000      -0.604357       -16.4454
 174   2.0000      -0.597007       -16.2454
 175   2.0000      -0.588017       -16.0008
 176   2.0000      -0.587631       -15.9902
 177   2.0000      -0.586781       -15.9671
 178   2.0000      -0.585221       -15.9247
 179   2.0000      -0.581212       -15.8156
 180   2.0000      -0.578112       -15.7312
 181   2.0000      -0.577693       -15.7198
 182   2.0000      -0.573627       -15.6092
 183   2.0000      -0.572298       -15.5730
 184   2.0000      -0.570958       -15.5365
 185   2.0000      -0.570001       -15.5105
 186   2.0000      -0.569171       -15.4879
 187   2.0000      -0.567934       -15.4543
 188   2.0000      -0.566338       -15.4108
 189   2.0000      -0.564020       -15.3478
 190   2.0000      -0.562140       -15.2966
 191   2.0000      -0.555711       -15.1217
 192   2.0000      -0.554402       -15.0861
 193   2.0000      -0.550946       -14.9920
 194   2.0000      -0.549651       -14.9568
 195   2.0000      -0.544706       -14.8222
 196   2.0000      -0.542216       -14.7545
 197   2.0000      -0.539599       -14.6832
 198   2.0000      -0.538452       -14.6520
 199   2.0000      -0.530917       -14.4470
 200   2.0000      -0.524958       -14.2848
 201   2.0000      -0.523359       -14.2413
 202   2.0000      -0.521377       -14.1874
 203   2.0000      -0.520516       -14.1640
 204   2.0000      -0.512782       -13.9535
 205   2.0000      -0.504675       -13.7329
 206   2.0000      -0.501083       -13.6352
 207   2.0000      -0.496722       -13.5165
 208   2.0000      -0.494396       -13.4532
 209   2.0000      -0.494074       -13.4444
 210   2.0000      -0.492802       -13.4098
 211   2.0000      -0.487425       -13.2635
 212   2.0000      -0.485236       -13.2039
 213   2.0000      -0.482118       -13.1191
 214   2.0000      -0.480026       -13.0622
 215   2.0000      -0.475058       -12.9270
 216   2.0000      -0.472696       -12.8627
 217   2.0000      -0.468379       -12.7453
 218   2.0000      -0.467297       -12.7158
 219   2.0000      -0.455849       -12.4043
 220   2.0000      -0.446153       -12.1405
 221   2.0000      -0.439340       -11.9551
 222   2.0000      -0.429392       -11.6843
 223   2.0000      -0.416721       -11.3396
 224   2.0000      -0.412546       -11.2259
 225   2.0000      -0.390704       -10.6316
 226   2.0000      -0.384486       -10.4624
 227   2.0000      -0.376483       -10.2446
 228   2.0000      -0.375963       -10.2305
 229   2.0000      -0.358766        -9.7625
 230   2.0000      -0.354629        -9.6499
 231   2.0000      -0.348974        -9.4961
 232   2.0000      -0.337575        -9.1859
 233   2.0000      -0.327802        -8.9199
 234   2.0000      -0.303590        -8.2611
 235   2.0000      -0.301011        -8.1909
 236   2.0000      -0.250297        -6.8109
 237   0.0000      -0.031265        -0.8508
 238   0.0000      -0.015289        -0.4160
 239   0.0000       0.034786         0.9466
 240   0.0000       0.043983         1.1968
 241   0.0000       0.056338         1.5330

MULLIKEN ATOMIC CHARGES
-----------------------
   0 C :    0.484164
   1 O :   -0.355360
   2 C :   -0.144291
   3 C :   -0.048190
   4 S :    0.113945
   5 C :   -0.059005
   6 C :   -0.086676
   7 C :    0.251023
   8 C :   -0.377232
   9 C :    0.045861
  10 N :   -0.073586
  11 C :    0.036356
  12 N :   -0.051426
  13 C :   -0.343714
  14 C :    0.221374
  15 C :   -0.236935
  16 S :    0.193130
  17 C :   -0.019889
  18 C :   -0.116184
  19 C :    0.060638
  20 S :    0.241937
  21 C :    0.021188
  22 C :    0.114705
  23 N :   -0.593384
  24 C :    0.115936
  25 C :   -0.037646
  26 C :    0.251569
  27 C :   -0.252001
  28 C :    0.117546
  29 N :   -0.185871
  30 N :   -0.216286
  31 C :    0.191693
  32 C :   -0.059701
  33 N :   -0.178658
  34 C :    0.111812
  35 C :   -0.258951
  36 C :    0.257020
  37 N :   -0.591393
  38 C :    0.114664
  39 C :   -0.038227
  40 C :    0.101176
  41 C :    0.029130
  42 S :    0.234129
  43 C :   -0.098429
  44 C :   -0.002619
  45 S :    0.244751
  46 C :   -0.164591
  47 C :    0.016383
  48 C :    0.099323
  49 C :   -0.335705
  50 C :    0.275223
  51 C :   -0.387627
  52 C :    0.036709
  53 N :   -0.079103
  54 C :    0.040744
  55 N :   -0.080781
  56 C :   -0.064486
  57 C :   -0.055924
  58 S :    0.113681
  59 C :   -0.049361
  60 C :   -0.158555
  61 C :    0.552118
  62 O :   -0.410574
  63 H :    0.092125
  64 H :    0.108951
  65 H :    0.085184
  66 H :    0.070680
  67 H :    0.049759
  68 H :    0.068065
  69 H :    0.048725
  70 H :    0.052738
  71 H :    0.049272
  72 H :    0.063136
  73 H :    0.060062
  74 H :    0.046654
  75 H :    0.042333
  76 H :    0.059004
  77 H :    0.045464
  78 H :    0.069746
  79 H :    0.047464
  80 H :    0.047899
  81 H :    0.062708
  82 H :    0.068601
  83 H :    0.084928
  84 H :    0.112833
  85 H :    0.088102
Sum of atomic charges:    0.0000000

LOEWDIN ATOMIC CHARGES
----------------------
   0 C :    0.164341
   1 O :   -0.235102
   2 C :   -0.108030
   3 C :   -0.112287
   4 S :    0.452511
   5 C :   -0.125342
   6 C :   -0.078919
   7 C :    0.109178
   8 C :   -0.180138
   9 C :    0.015221
  10 N :   -0.099983
  11 C :    0.008848
  12 N :   -0.083977
  13 C :   -0.149557
  14 C :    0.109863
  15 C :   -0.211795
  16 S :    0.422597
  17 C :   -0.171808
  18 C :   -0.196823
  19 C :    0.023825
  20 S :    0.412442
  21 C :   -0.165594
  22 C :   -0.022997
  23 N :   -0.026715
  24 C :    0.072280
  25 C :   -0.038673
  26 C :    0.035683
  27 C :   -0.076284
  28 C :   -0.042585
  29 N :   -0.112439
  30 N :    0.120090
  31 C :    0.072959
  32 C :   -0.033095
  33 N :   -0.108751
  34 C :   -0.045562
  35 C :   -0.081615
  36 C :    0.042024
  37 N :   -0.025813
  38 C :    0.071674
  39 C :   -0.038452
  40 C :   -0.032661
  41 C :   -0.157295
  42 S :    0.400826
  43 C :   -0.213177
  44 C :   -0.169088
  45 S :    0.480159
  46 C :   -0.215526
  47 C :    0.026477
  48 C :    0.116939
  49 C :   -0.172194
  50 C :    0.124668
  51 C :   -0.189709
  52 C :    0.018362
  53 N :   -0.106705
  54 C :    0.012118
  55 N :   -0.104108
  56 C :   -0.080028
  57 C :   -0.118826
  58 S :    0.451168
  59 C :   -0.114291
  60 C :   -0.105329
  61 C :    0.170186
  62 O :   -0.266109
  63 H :    0.037470
  64 H :    0.037903
  65 H :    0.052195
  66 H :    0.039868
  67 H :    0.021428
  68 H :    0.023808
  69 H :    0.025764
  70 H :    0.015050
  71 H :    0.019430
  72 H :    0.031202
  73 H :    0.027991
  74 H :    0.023531
  75 H :    0.023108
  76 H :    0.026358
  77 H :    0.019330
  78 H :    0.024303
  79 H :    0.018268
  80 H :    0.025865
  81 H :    0.018304
  82 H :    0.044315
  83 H :    0.052693
  84 H :    0.038711
  85 H :    0.036049

  Mayer bond orders larger than 0.100000
B(  0-C ,  1-O ) :   2.0998 B(  0-C ,  2-C ) :   0.9390 B(  0-C , 13-C ) :   0.9944
B(  2-C ,  3-C ) :   1.6474 B(  2-C ,  6-C ) :   1.1949 B(  3-C ,  4-S ) :   1.1831
B(  3-C , 63-H ) :   0.9729 B(  4-S ,  5-C ) :   1.1740 B(  5-C ,  6-C ) :   1.6244
B(  5-C , 64-H ) :   0.9633 B(  6-C ,  7-C ) :   1.0393 B(  7-C ,  8-C ) :   1.6832
B(  7-C , 13-C ) :   1.0764 B(  8-C ,  9-C ) :   1.0566 B(  8-C , 11-C ) :   1.0795
B(  9-C , 10-N ) :   3.0004 B( 11-C , 12-N ) :   3.0075 B( 13-C , 14-C ) :   1.7009
B( 14-C , 15-C ) :   1.1686 B( 14-C , 65-H ) :   0.9472 B( 15-C , 16-S ) :   1.0632
B( 15-C , 19-C ) :   1.4990 B( 16-S , 17-C ) :   1.0504 B( 17-C , 18-C ) :   1.4591
B( 17-C , 22-C ) :   1.3522 B( 18-C , 19-C ) :   1.4083 B( 18-C , 20-S ) :   1.0111
B( 19-C , 66-H ) :   0.9925 B( 20-S , 21-C ) :   0.9766 B( 21-C , 22-C ) :   1.4589
B( 21-C , 27-C ) :   1.4470 B( 22-C , 23-N ) :   1.0953 B( 23-N , 24-C ) :   0.8440
B( 23-N , 26-C ) :   1.0875 B( 24-C , 25-C ) :   1.0379 B( 24-C , 67-H ) :   0.9847
B( 24-C , 68-H ) :   0.9780 B( 25-C , 69-H ) :   0.9844 B( 25-C , 70-H ) :   0.9767
B( 25-C , 71-H ) :   0.9764 B( 26-C , 27-C ) :   1.4382 B( 26-C , 36-C ) :   1.1749
B( 27-C , 28-C ) :   1.1313 B( 28-C , 29-N ) :   1.5092 B( 28-C , 34-C ) :   1.2710
B( 29-N , 30-N ) :   1.2157 B( 29-N , 33-N ) :   0.1293 B( 30-N , 31-C ) :   0.8314
B( 30-N , 33-N ) :   1.2250 B( 31-C , 32-C ) :   1.0473 B( 31-C , 72-H ) :   0.9726
B( 31-C , 73-H ) :   0.9748 B( 32-C , 74-H ) :   0.9803 B( 32-C , 75-H ) :   0.9856
B( 32-C , 76-H ) :   0.9826 B( 33-N , 34-C ) :   1.5105 B( 34-C , 35-C ) :   1.1309
B( 35-C , 36-C ) :   1.4308 B( 35-C , 41-C ) :   1.4558 B( 36-C , 37-N ) :   1.0985
B( 37-N , 38-C ) :   0.8425 B( 37-N , 40-C ) :   1.0887 B( 38-C , 39-C ) :   1.0379
B( 38-C , 77-H ) :   0.9851 B( 38-C , 78-H ) :   0.9773 B( 39-C , 79-H ) :   0.9762
B( 39-C , 80-H ) :   0.9842 B( 39-C , 81-H ) :   0.9753 B( 40-C , 41-C ) :   1.4496
B( 40-C , 44-C ) :   1.3705 B( 41-C , 42-S ) :   0.9733 B( 42-S , 43-C ) :   0.9940
B( 43-C , 44-C ) :   1.4097 B( 43-C , 47-C ) :   1.4370 B( 44-C , 45-S ) :   1.0260
B( 45-S , 46-C ) :   1.0244 B( 46-C , 47-C ) :   1.4251 B( 46-C , 48-C ) :   1.3275
B( 47-C , 82-H ) :   1.0032 B( 48-C , 49-C ) :   1.5594 B( 48-C , 83-H ) :   0.9614
B( 49-C , 50-C ) :   1.1209 B( 49-C , 61-C ) :   0.9950 B( 50-C , 51-C ) :   1.6512
B( 50-C , 56-C ) :   1.0351 B( 51-C , 52-C ) :   1.0732 B( 51-C , 54-C ) :   1.0709
B( 52-C , 53-N ) :   2.9919 B( 54-C , 55-N ) :   2.9688 B( 56-C , 57-C ) :   1.6214
B( 56-C , 60-C ) :   1.2015 B( 57-C , 58-S ) :   1.1747 B( 57-C , 84-H ) :   0.9603
B( 58-S , 59-C ) :   1.1801 B( 59-C , 60-C ) :   1.6429 B( 59-C , 85-H ) :   0.9736
B( 60-C , 61-C ) :   0.9785 B( 61-C , 62-O ) :   1.9782

-----------------------------------------------------------------------------
         ABSORPTION SPECTRUM VIA TRANSITION ELECTRIC DIPOLE MOMENTS
-----------------------------------------------------------------------------
State   Energy    Wavelength  fosc         T2        TX        TY        TZ
        (cm-1)      (nm)                 (au**2)    (au)      (au)      (au)
-----------------------------------------------------------------------------
   1   20841.0    479.8   2.788295224  44.04493  -5.00444   4.35554   0.17238
   2   25749.5    388.4   0.428049945   5.47269   2.16395   0.32661   0.82665
   3   34696.1    288.2   0.109484326   1.03884  -0.02277   0.83219  -0.58802

FINAL SINGLE POINT ENERGY     -4777.365296258792

DIPOLE MOMENT
-------------
                                X             Y             Z
Electronic contribution:      5.33499       2.77899       0.21138
Nuclear contribution   :     -5.64307      -1.21269      -2.01926
                        -----------------------------------------
Total Dipole Moment    :     -0.30808       1.56630      -1.80788
                        -----------------------------------------
Magnitude (a.u.)       :      2.41177
Magnitude (Debye)      :      6.13023

Rotational constants in cm-1:     0.002349     0.000322     0.000288
Rotational constants in MHz :    70.428933     9.652594     8.620909

                             ****ORCA TERMINATED NORMALLY****
TOTAL RUN TIME: 0 days 11 hours 30 minutes 1 seconds 644 msec
