                         Program Version 4.2.0 -  RELEASE  -
|  1> # ORCA input file
|  2> # Y2.out: Geometry 28
|  3> ! Engrad Keepdens
|  4> %maxcore 1000
|  5> %tddft
|  6>   nroots 3
|  7>   # nroots is the number of states to be computed
|  8>   Iroot 1
|  9>   end
| 10> * xyz 0 1
| 11>    C        4.82402         1.98656        -0.92646
| 12>    O        5.93157         2.44528        -1.11345
| 13>    C        3.50424         2.60185        -1.20098
| 14>    C        3.03899         3.77639        -1.72452
| 15>    S        1.30401         3.78766        -1.71473
| 16>    C        1.20542         2.21048        -0.99684
| 17>    C        2.46596         1.69954        -0.78609
| 18>    C        3.07311         0.49685        -0.18881
| 19>    C        2.37557        -0.42636         0.57687
| 20>    C        0.94906        -0.38913         0.63306
| 21>    N       -0.21277        -0.34731         0.64076
| 22>    C        3.01685        -1.36752         1.43036
| 23>    N        3.54610        -2.11701         2.14453
| 24>    C        4.50856         0.60184        -0.40176
| 25>    C        5.57251        -0.27015        -0.33522
| 26>    C        5.69257        -1.68066        -0.29603
| 27>    S        7.32394        -2.32501        -0.02106
| 28>    C        6.77173        -3.94168        -0.27235
| 29>    C        5.38497        -3.97412        -0.56491
| 30>    C        4.78187        -2.70962        -0.57000
| 31>    S        4.78321        -5.60825        -0.85365
| 32>    C        6.39462        -6.23078        -0.58361
| 33>    C        7.33423        -5.23362        -0.28771
| 34>    N        8.57418        -5.79974        -0.06737
| 35>    C        9.62517        -4.98029         0.52995
| 36>    C       10.38743        -4.12056        -0.47647
| 37>    C        8.45533        -7.18761        -0.24949
| 38>    C        7.07350        -7.46516        -0.54987
| 39>    C        6.62692        -8.80727        -0.71827
| 40>    N        5.40019        -9.31456        -0.91895
| 41>    N        5.61568       -10.62511        -0.96163
| 42>    C        4.51178       -11.57607        -1.00298
| 43>    C        4.06414       -11.98959         0.39837
| 44>    N        6.87003       -11.03008        -0.79492
| 45>    C        7.54799        -9.88213        -0.63965
| 46>    C        8.93421        -9.62480        -0.43260
| 47>    C        9.40374        -8.27451        -0.23285
| 48>    N       10.79970        -8.33221        -0.11955
| 49>    C       11.80712        -7.30630         0.11551
| 50>    C       12.19492        -7.17422         1.58861
| 51>    C       11.18943        -9.65150        -0.22772
| 52>    C       10.06374       -10.46589        -0.42224
| 53>    S       10.46042       -12.15522        -0.64094
| 54>    C       12.17279       -11.75094        -0.46631
| 55>    C       12.40399       -10.37043        -0.24653
| 56>    S       14.09321        -9.99782        -0.09481
| 57>    C       14.51200       -11.70908        -0.34114
| 58>    C       13.35317       -12.49382        -0.51560
| 59>    C       15.79669       -12.30486        -0.40306
| 60>    C       17.08566       -11.82324        -0.28716
| 61>    C       18.31204       -12.62505        -0.38435
| 62>    C       18.46598       -13.96805        -0.68470
| 63>    C       19.76562       -14.55910        -0.72984
| 64>    N       20.82803       -15.02932        -0.76438
| 65>    C       17.39238       -14.85792        -0.99069
| 66>    N       16.53854       -15.60410        -1.24841
| 67>    C       19.43620       -11.71295        -0.12291
| 68>    C       20.80839       -11.77911        -0.02666
| 69>    S       21.46799       -10.20685         0.30083
| 70>    C       19.90529        -9.45292         0.31391
| 71>    C       18.93350       -10.38528         0.07847
| 72>    C       17.45720       -10.40278        -0.01948
| 73>    O       16.69822        -9.45517         0.09585
| 74>    H        3.60569         4.62486        -2.10415
| 75>    H        0.23592         1.77103        -0.77453
| 76>    H        6.52634         0.26576        -0.43834
| 77>    H        3.73900        -2.52298        -0.81725
| 78>    H       10.29075        -5.62653         1.10558
| 79>    H        9.13728        -4.32868         1.27261
| 80>    H       11.15107        -3.52325         0.04603
| 81>    H        9.71249        -3.42399        -0.99588
| 82>    H       10.88487        -4.72861        -1.24660
| 83>    H        4.86403       -12.44151        -1.58100
| 84>    H        3.70126       -11.08404        -1.55717
| 85>    H        4.89705       -12.45529         0.94656
| 86>    H        3.24009       -12.71665         0.33577
| 87>    H        3.71131       -11.11593         0.96696
| 88>    H       11.45845        -6.36579        -0.31311
| 89>    H       12.69158        -7.58469        -0.47761
| 90>    H       11.31589        -6.98464         2.22341
| 91>    H       12.91133        -6.35063         1.73053
| 92>    H       12.67079        -8.09849         1.94771
| 93>    H       13.41523       -13.56895        -0.69066
| 94>    H       15.71096       -13.37685        -0.58849
| 95>    H       21.46940       -12.63604        -0.13228
| 96>    H       19.79391        -8.38630         0.50150
| 97> *
| 98>
| 99>                          ****END OF INPUT****

CARTESIAN COORDINATES (ANGSTROEM)
---------------------------------
  C      4.824020    1.986560   -0.926460
  O      5.931570    2.445280   -1.113450
  C      3.504240    2.601850   -1.200980
  C      3.038990    3.776390   -1.724520
  S      1.304010    3.787660   -1.714730
  C      1.205420    2.210480   -0.996840
  C      2.465960    1.699540   -0.786090
  C      3.073110    0.496850   -0.188810
  C      2.375570   -0.426360    0.576870
  C      0.949060   -0.389130    0.633060
  N     -0.212770   -0.347310    0.640760
  C      3.016850   -1.367520    1.430360
  N      3.546100   -2.117010    2.144530
  C      4.508560    0.601840   -0.401760
  C      5.572510   -0.270150   -0.335220
  C      5.692570   -1.680660   -0.296030
  S      7.323940   -2.325010   -0.021060
  C      6.771730   -3.941680   -0.272350
  C      5.384970   -3.974120   -0.564910
  C      4.781870   -2.709620   -0.570000
  S      4.783210   -5.608250   -0.853650
  C      6.394620   -6.230780   -0.583610
  C      7.334230   -5.233620   -0.287710
  N      8.574180   -5.799740   -0.067370
  C      9.625170   -4.980290    0.529950
  C     10.387430   -4.120560   -0.476470
  C      8.455330   -7.187610   -0.249490
  C      7.073500   -7.465160   -0.549870
  C      6.626920   -8.807270   -0.718270
  N      5.400190   -9.314560   -0.918950
  N      5.615680  -10.625110   -0.961630
  C      4.511780  -11.576070   -1.002980
  C      4.064140  -11.989590    0.398370
  N      6.870030  -11.030080   -0.794920
  C      7.547990   -9.882130   -0.639650
  C      8.934210   -9.624800   -0.432600
  C      9.403740   -8.274510   -0.232850
  N     10.799700   -8.332210   -0.119550
  C     11.807120   -7.306300    0.115510
  C     12.194920   -7.174220    1.588610
  C     11.189430   -9.651500   -0.227720
  C     10.063740  -10.465890   -0.422240
  S     10.460420  -12.155220   -0.640940
  C     12.172790  -11.750940   -0.466310
  C     12.403990  -10.370430   -0.246530
  S     14.093210   -9.997820   -0.094810
  C     14.512000  -11.709080   -0.341140
  C     13.353170  -12.493820   -0.515600
  C     15.796690  -12.304860   -0.403060
  C     17.085660  -11.823240   -0.287160
  C     18.312040  -12.625050   -0.384350
  C     18.465980  -13.968050   -0.684700
  C     19.765620  -14.559100   -0.729840
  N     20.828030  -15.029320   -0.764380
  C     17.392380  -14.857920   -0.990690
  N     16.538540  -15.604100   -1.248410
  C     19.436200  -11.712950   -0.122910
  C     20.808390  -11.779110   -0.026660
  S     21.467990  -10.206850    0.300830
  C     19.905290   -9.452920    0.313910
  C     18.933500  -10.385280    0.078470
  C     17.457200  -10.402780   -0.019480
  O     16.698220   -9.455170    0.095850
  H      3.605690    4.624860   -2.104150
  H      0.235920    1.771030   -0.774530
  H      6.526340    0.265760   -0.438340
  H      3.739000   -2.522980   -0.817250
  H     10.290750   -5.626530    1.105580
  H      9.137280   -4.328680    1.272610
  H     11.151070   -3.523250    0.046030
  H      9.712490   -3.423990   -0.995880
  H     10.884870   -4.728610   -1.246600
  H      4.864030  -12.441510   -1.581000
  H      3.701260  -11.084040   -1.557170
  H      4.897050  -12.455290    0.946560
  H      3.240090  -12.716650    0.335770
  H      3.711310  -11.115930    0.966960
  H     11.458450   -6.365790   -0.313110
  H     12.691580   -7.584690   -0.477610
  H     11.315890   -6.984640    2.223410
  H     12.911330   -6.350630    1.730530
  H     12.670790   -8.098490    1.947710
  H     13.415230  -13.568950   -0.690660
  H     15.710960  -13.376850   -0.588490
  H     21.469400  -12.636040   -0.132280
  H     19.793910   -8.386300    0.501500

 Total Charge           Charge          ....    0
 Multiplicity           Mult            ....    1
 Number of Electrons    NEL             ....  474
 Basis Dimension        Dim             .... 1021

ORBITAL ENERGIES
----------------

  NO   OCC          E(Eh)            E(eV)
   0   2.0000     -91.991473     -2503.2152
   1   2.0000     -91.990884     -2503.1992
   2   2.0000     -91.987951     -2503.1194
   3   2.0000     -91.983467     -2502.9974
   4   2.0000     -91.975288     -2502.7748
   5   2.0000     -91.973950     -2502.7384
   6   2.0000     -20.564886      -559.5990
   7   2.0000     -20.560705      -559.4852
   8   2.0000     -15.699820      -427.2138
   9   2.0000     -15.650896      -425.8825
  10   2.0000     -15.650379      -425.8685
  11   2.0000     -15.621043      -425.0702
  12   2.0000     -15.620315      -425.0504
  13   2.0000     -15.593266      -424.3143
  14   2.0000     -15.591755      -424.2732
  15   2.0000     -15.591273      -424.2601
  16   2.0000     -15.587878      -424.1677
  17   2.0000     -11.367698      -309.3308
  18   2.0000     -11.364512      -309.2441
  19   2.0000     -11.345738      -308.7332
  20   2.0000     -11.344755      -308.7065
  21   2.0000     -11.332212      -308.3652
  22   2.0000     -11.331186      -308.3373
  23   2.0000     -11.324341      -308.1510
  24   2.0000     -11.323001      -308.1145
  25   2.0000     -11.322327      -308.0962
  26   2.0000     -11.320158      -308.0372
  27   2.0000     -11.318522      -307.9927
  28   2.0000     -11.315751      -307.9172
  29   2.0000     -11.315034      -307.8977
  30   2.0000     -11.313672      -307.8607
  31   2.0000     -11.313233      -307.8487
  32   2.0000     -11.312995      -307.8422
  33   2.0000     -11.312851      -307.8383
  34   2.0000     -11.312827      -307.8377
  35   2.0000     -11.309301      -307.7417
  36   2.0000     -11.307625      -307.6961
  37   2.0000     -11.306709      -307.6712
  38   2.0000     -11.306338      -307.6611
  39   2.0000     -11.306297      -307.6600
  40   2.0000     -11.305438      -307.6366
  41   2.0000     -11.304991      -307.6244
  42   2.0000     -11.304292      -307.6054
  43   2.0000     -11.301186      -307.5209
  44   2.0000     -11.300925      -307.5138
  45   2.0000     -11.300815      -307.5108
  46   2.0000     -11.297225      -307.4131
  47   2.0000     -11.297092      -307.4095
  48   2.0000     -11.292967      -307.2973
  49   2.0000     -11.292858      -307.2943
  50   2.0000     -11.288223      -307.1682
  51   2.0000     -11.287134      -307.1385
  52   2.0000     -11.284594      -307.0694
  53   2.0000     -11.283467      -307.0388
  54   2.0000     -11.278895      -306.9143
  55   2.0000     -11.278751      -306.9104
  56   2.0000     -11.278118      -306.8932
  57   2.0000     -11.277094      -306.8653
  58   2.0000     -11.274244      -306.7878
  59   2.0000     -11.273943      -306.7796
  60   2.0000     -11.263937      -306.5073
  61   2.0000     -11.261280      -306.4350
  62   2.0000     -11.245257      -305.9990
  63   2.0000      -9.027079      -245.6393
  64   2.0000      -9.026506      -245.6237
  65   2.0000      -9.022568      -245.5166
  66   2.0000      -9.016335      -245.3469
  67   2.0000      -9.009149      -245.1514
  68   2.0000      -9.007824      -245.1154
  69   2.0000      -6.714386      -182.7077
  70   2.0000      -6.713815      -182.6922
  71   2.0000      -6.713219      -182.6760
  72   2.0000      -6.712648      -182.6604
  73   2.0000      -6.711712      -182.6350
  74   2.0000      -6.711136      -182.6193
  75   2.0000      -6.710123      -182.5917
  76   2.0000      -6.709064      -182.5629
  77   2.0000      -6.707072      -182.5087
  78   2.0000      -6.703512      -182.4118
  79   2.0000      -6.702404      -182.3817
  80   2.0000      -6.700435      -182.3281
  81   2.0000      -6.696659      -182.2254
  82   2.0000      -6.695825      -182.2027
  83   2.0000      -6.695357      -182.1899
  84   2.0000      -6.694519      -182.1671
  85   2.0000      -6.693469      -182.1385
  86   2.0000      -6.692146      -182.1026
  87   2.0000      -1.453607       -39.5547
  88   2.0000      -1.393324       -37.9143
  89   2.0000      -1.390630       -37.8410
  90   2.0000      -1.341647       -36.5081
  91   2.0000      -1.327883       -36.1335
  92   2.0000      -1.241170       -33.7740
  93   2.0000      -1.240922       -33.7672
  94   2.0000      -1.224613       -33.3234
  95   2.0000      -1.223415       -33.2908
  96   2.0000      -1.221590       -33.2412
  97   2.0000      -1.220328       -33.2068
  98   2.0000      -1.216104       -33.0919
  99   2.0000      -1.215648       -33.0795
 100   2.0000      -1.198038       -32.6003
 101   2.0000      -1.181847       -32.1597
 102   2.0000      -1.164261       -31.6811
 103   2.0000      -1.163938       -31.6724
 104   2.0000      -1.147287       -31.2193
 105   2.0000      -1.144429       -31.1415
 106   2.0000      -1.120206       -30.4824
 107   2.0000      -1.102829       -30.0095
 108   2.0000      -1.089042       -29.6343
 109   2.0000      -1.081854       -29.4387
 110   2.0000      -1.064478       -28.9659
 111   2.0000      -1.060526       -28.8584
 112   2.0000      -1.057092       -28.7649
 113   2.0000      -1.044997       -28.4358
 114   2.0000      -1.041850       -28.3502
 115   2.0000      -1.023989       -27.8642
 116   2.0000      -1.019598       -27.7447
 117   2.0000      -1.019525       -27.7427
 118   2.0000      -1.006597       -27.3909
 119   2.0000      -1.000481       -27.2245
 120   2.0000      -0.976153       -26.5625
 121   2.0000      -0.969246       -26.3745
 122   2.0000      -0.963317       -26.2132
 123   2.0000      -0.939538       -25.5661
 124   2.0000      -0.922895       -25.1132
 125   2.0000      -0.918474       -24.9929
 126   2.0000      -0.908727       -24.7277
 127   2.0000      -0.905645       -24.6438
 128   2.0000      -0.898062       -24.4375
 129   2.0000      -0.876708       -23.8564
 130   2.0000      -0.866433       -23.5768
 131   2.0000      -0.852934       -23.2095
 132   2.0000      -0.836454       -22.7611
 133   2.0000      -0.832266       -22.6471
 134   2.0000      -0.818774       -22.2800
 135   2.0000      -0.808958       -22.0129
 136   2.0000      -0.803488       -21.8640
 137   2.0000      -0.799655       -21.7597
 138   2.0000      -0.797150       -21.6916
 139   2.0000      -0.783619       -21.3234
 140   2.0000      -0.779085       -21.2000
 141   2.0000      -0.773556       -21.0495
 142   2.0000      -0.767037       -20.8721
 143   2.0000      -0.759259       -20.6605
 144   2.0000      -0.754338       -20.5266
 145   2.0000      -0.750005       -20.4087
 146   2.0000      -0.738630       -20.0991
 147   2.0000      -0.735876       -20.0242
 148   2.0000      -0.724249       -19.7078
 149   2.0000      -0.720666       -19.6103
 150   2.0000      -0.713177       -19.4065
 151   2.0000      -0.707347       -19.2479
 152   2.0000      -0.702260       -19.1095
 153   2.0000      -0.692381       -18.8406
 154   2.0000      -0.681069       -18.5328
 155   2.0000      -0.676515       -18.4089
 156   2.0000      -0.671876       -18.2827
 157   2.0000      -0.665050       -18.0969
 158   2.0000      -0.659323       -17.9411
 159   2.0000      -0.651669       -17.7328
 160   2.0000      -0.648056       -17.6345
 161   2.0000      -0.645087       -17.5537
 162   2.0000      -0.644031       -17.5250
 163   2.0000      -0.639417       -17.3994
 164   2.0000      -0.637096       -17.3363
 165   2.0000      -0.628149       -17.0928
 166   2.0000      -0.623629       -16.9698
 167   2.0000      -0.620670       -16.8893
 168   2.0000      -0.618084       -16.8189
 169   2.0000      -0.617854       -16.8127
 170   2.0000      -0.613211       -16.6863
 171   2.0000      -0.611828       -16.6487
 172   2.0000      -0.608445       -16.5566
 173   2.0000      -0.600351       -16.3364
 174   2.0000      -0.591617       -16.0987
 175   2.0000      -0.588397       -16.0111
 176   2.0000      -0.587011       -15.9734
 177   2.0000      -0.585498       -15.9322
 178   2.0000      -0.585402       -15.9296
 179   2.0000      -0.580996       -15.8097
 180   2.0000      -0.577630       -15.7181
 181   2.0000      -0.577124       -15.7043
 182   2.0000      -0.574123       -15.6227
 183   2.0000      -0.571316       -15.5463
 184   2.0000      -0.570047       -15.5118
 185   2.0000      -0.568451       -15.4683
 186   2.0000      -0.567550       -15.4438
 187   2.0000      -0.567224       -15.4349
 188   2.0000      -0.566284       -15.4094
 189   2.0000      -0.562818       -15.3151
 190   2.0000      -0.559356       -15.2208
 191   2.0000      -0.554559       -15.0903
 192   2.0000      -0.552887       -15.0448
 193   2.0000      -0.549926       -14.9643
 194   2.0000      -0.546585       -14.8733
 195   2.0000      -0.542059       -14.7502
 196   2.0000      -0.540370       -14.7042
 197   2.0000      -0.538920       -14.6647
 198   2.0000      -0.537333       -14.6216
 199   2.0000      -0.529250       -14.4016
 200   2.0000      -0.523972       -14.2580
 201   2.0000      -0.520579       -14.1657
 202   2.0000      -0.518728       -14.1153
 203   2.0000      -0.518135       -14.0992
 204   2.0000      -0.512262       -13.9394
 205   2.0000      -0.500131       -13.6093
 206   2.0000      -0.498538       -13.5659
 207   2.0000      -0.495498       -13.4832
 208   2.0000      -0.493035       -13.4162
 209   2.0000      -0.492569       -13.4035
 210   2.0000      -0.490802       -13.3554
 211   2.0000      -0.490032       -13.3345
 212   2.0000      -0.484603       -13.1867
 213   2.0000      -0.484075       -13.1724
 214   2.0000      -0.481430       -13.1004
 215   2.0000      -0.474881       -12.9222
 216   2.0000      -0.473567       -12.8864
 217   2.0000      -0.467286       -12.7155
 218   2.0000      -0.465564       -12.6686
 219   2.0000      -0.455170       -12.3858
 220   2.0000      -0.444654       -12.0997
 221   2.0000      -0.438602       -11.9350
 222   2.0000      -0.436924       -11.8893
 223   2.0000      -0.417583       -11.3630
 224   2.0000      -0.412767       -11.2320
 225   2.0000      -0.390251       -10.6193
 226   2.0000      -0.384907       -10.4739
 227   2.0000      -0.374733       -10.1970
 228   2.0000      -0.373885       -10.1739
 229   2.0000      -0.357607        -9.7310
 230   2.0000      -0.356569        -9.7027
 231   2.0000      -0.348175        -9.4743
 232   2.0000      -0.338082        -9.1997
 233   2.0000      -0.330519        -8.9939
 234   2.0000      -0.307353        -8.3635
 235   2.0000      -0.304137        -8.2760
 236   2.0000      -0.254523        -6.9259
 237   0.0000      -0.033331        -0.9070
 238   0.0000      -0.017324        -0.4714
 239   0.0000       0.031650         0.8612
 240   0.0000       0.042794         1.1645
 241   0.0000       0.055018         1.4971

MULLIKEN ATOMIC CHARGES
-----------------------
   0 C :    0.479615
   1 O :   -0.363063
   2 C :   -0.149157
   3 C :   -0.053431
   4 S :    0.113519
   5 C :   -0.067418
   6 C :   -0.088055
   7 C :    0.261919
   8 C :   -0.364304
   9 C :    0.054528
  10 N :   -0.095562
  11 C :    0.032315
  12 N :   -0.066578
  13 C :   -0.349093
  14 C :    0.198689
  15 C :   -0.232603
  16 S :    0.186529
  17 C :   -0.024203
  18 C :   -0.142157
  19 C :    0.099990
  20 S :    0.247131
  21 C :    0.013817
  22 C :    0.134298
  23 N :   -0.615245
  24 C :    0.115180
  25 C :   -0.049958
  26 C :    0.259043
  27 C :   -0.247152
  28 C :    0.114289
  29 N :   -0.179843
  30 N :   -0.237014
  31 C :    0.189185
  32 C :   -0.069296
  33 N :   -0.183012
  34 C :    0.119869
  35 C :   -0.249461
  36 C :    0.260360
  37 N :   -0.611817
  38 C :    0.116746
  39 C :   -0.049142
  40 C :    0.122215
  41 C :    0.016534
  42 S :    0.238661
  43 C :   -0.105113
  44 C :   -0.021071
  45 S :    0.254792
  46 C :   -0.166442
  47 C :    0.008565
  48 C :    0.082061
  49 C :   -0.319057
  50 C :    0.263282
  51 C :   -0.359613
  52 C :    0.048200
  53 N :   -0.095306
  54 C :    0.049518
  55 N :   -0.099928
  56 C :   -0.070334
  57 C :   -0.062609
  58 S :    0.114884
  59 C :   -0.055756
  60 C :   -0.173355
  61 C :    0.538921
  62 O :   -0.390965
  63 H :    0.104426
  64 H :    0.124571
  65 H :    0.096133
  66 H :    0.082271
  67 H :    0.049606
  68 H :    0.067693
  69 H :    0.054712
  70 H :    0.057897
  71 H :    0.053262
  72 H :    0.064047
  73 H :    0.064984
  74 H :    0.057213
  75 H :    0.048819
  76 H :    0.055847
  77 H :    0.047355
  78 H :    0.070833
  79 H :    0.051896
  80 H :    0.054976
  81 H :    0.061539
  82 H :    0.084814
  83 H :    0.091116
  84 H :    0.127018
  85 H :    0.101429
Sum of atomic charges:   -0.0000000

LOEWDIN ATOMIC CHARGES
----------------------
   0 C :    0.171802
   1 O :   -0.239718
   2 C :   -0.109956
   3 C :   -0.116868
   4 S :    0.446278
   5 C :   -0.126869
   6 C :   -0.079471
   7 C :    0.116784
   8 C :   -0.185661
   9 C :    0.021013
  10 N :   -0.107718
  11 C :    0.008821
  12 N :   -0.091166
  13 C :   -0.155840
  14 C :    0.104932
  15 C :   -0.208610
  16 S :    0.415614
  17 C :   -0.169131
  18 C :   -0.197295
  19 C :    0.036604
  20 S :    0.403149
  21 C :   -0.161692
  22 C :   -0.021084
  23 N :   -0.043984
  24 C :    0.071171
  25 C :   -0.043584
  26 C :    0.041221
  27 C :   -0.073951
  28 C :   -0.042805
  29 N :   -0.109392
  30 N :    0.106617
  31 C :    0.076560
  32 C :   -0.038729
  33 N :   -0.111448
  34 C :   -0.040655
  35 C :   -0.078481
  36 C :    0.043997
  37 N :   -0.036156
  38 C :    0.070096
  39 C :   -0.042366
  40 C :   -0.025730
  41 C :   -0.159207
  42 S :    0.393082
  43 C :   -0.210653
  44 C :   -0.165724
  45 S :    0.454191
  46 C :   -0.211354
  47 C :    0.026987
  48 C :    0.114015
  49 C :   -0.167811
  50 C :    0.128782
  51 C :   -0.188147
  52 C :    0.023260
  53 N :   -0.110794
  54 C :    0.018461
  55 N :   -0.110452
  56 C :   -0.081604
  57 C :   -0.121524
  58 S :    0.446642
  59 C :   -0.119339
  60 C :   -0.108025
  61 C :    0.171621
  62 O :   -0.258774
  63 H :    0.044062
  64 H :    0.043969
  65 H :    0.055016
  66 H :    0.045091
  67 H :    0.022876
  68 H :    0.024867
  69 H :    0.029739
  70 H :    0.018419
  71 H :    0.021093
  72 H :    0.030641
  73 H :    0.031465
  74 H :    0.027343
  75 H :    0.026645
  76 H :    0.027197
  77 H :    0.020649
  78 H :    0.024387
  79 H :    0.020438
  80 H :    0.029239
  81 H :    0.025920
  82 H :    0.049310
  83 H :    0.053992
  84 H :    0.044689
  85 H :    0.043018

  Mayer bond orders larger than 0.100000
B(  0-C ,  1-O ) :   2.0723 B(  0-C ,  2-C ) :   0.9442 B(  0-C , 13-C ) :   1.0000
B(  2-C ,  3-C ) :   1.6433 B(  2-C ,  6-C ) :   1.2007 B(  3-C ,  4-S ) :   1.1792
B(  3-C , 63-H ) :   0.9700 B(  4-S ,  5-C ) :   1.1764 B(  5-C ,  6-C ) :   1.6163
B(  5-C , 64-H ) :   0.9581 B(  6-C ,  7-C ) :   1.0397 B(  7-C ,  8-C ) :   1.6579
B(  7-C , 13-C ) :   1.0852 B(  8-C ,  9-C ) :   1.0461 B(  8-C , 11-C ) :   1.0802
B(  9-C , 10-N ) :   2.9905 B( 11-C , 12-N ) :   2.9952 B( 13-C , 14-C ) :   1.6960
B( 14-C , 15-C ) :   1.1919 B( 14-C , 65-H ) :   0.9345 B( 15-C , 16-S ) :   1.0692
B( 15-C , 19-C ) :   1.4780 B( 16-S , 17-C ) :   1.0605 B( 17-C , 18-C ) :   1.4512
B( 17-C , 22-C ) :   1.3366 B( 18-C , 19-C ) :   1.4097 B( 18-C , 20-S ) :   1.0110
B( 19-C , 66-H ) :   0.9850 B( 20-S , 21-C ) :   0.9784 B( 21-C , 22-C ) :   1.4644
B( 21-C , 27-C ) :   1.4396 B( 22-C , 23-N ) :   1.0826 B( 23-N , 24-C ) :   0.8362
B( 23-N , 26-C ) :   1.0726 B( 24-C , 25-C ) :   1.0361 B( 24-C , 67-H ) :   0.9851
B( 24-C , 68-H ) :   0.9792 B( 25-C , 69-H ) :   0.9821 B( 25-C , 70-H ) :   0.9761
B( 25-C , 71-H ) :   0.9751 B( 26-C , 27-C ) :   1.4520 B( 26-C , 36-C ) :   1.1726
B( 27-C , 28-C ) :   1.1245 B( 28-C , 29-N ) :   1.5076 B( 28-C , 34-C ) :   1.2671
B( 29-N , 30-N ) :   1.2114 B( 29-N , 33-N ) :   0.1312 B( 30-N , 31-C ) :   0.8242
B( 30-N , 33-N ) :   1.2086 B( 31-C , 32-C ) :   1.0427 B( 31-C , 72-H ) :   0.9737
B( 31-C , 73-H ) :   0.9733 B( 32-C , 74-H ) :   0.9812 B( 32-C , 75-H ) :   0.9843
B( 32-C , 76-H ) :   0.9807 B( 33-N , 34-C ) :   1.5087 B( 34-C , 35-C ) :   1.1231
B( 35-C , 36-C ) :   1.4383 B( 35-C , 41-C ) :   1.4506 B( 36-C , 37-N ) :   1.0832
B( 37-N , 38-C ) :   0.8459 B( 37-N , 40-C ) :   1.0811 B( 38-C , 39-C ) :   1.0326
B( 38-C , 77-H ) :   0.9844 B( 38-C , 78-H ) :   0.9771 B( 39-C , 79-H ) :   0.9751
B( 39-C , 80-H ) :   0.9832 B( 39-C , 81-H ) :   0.9756 B( 40-C , 41-C ) :   1.4582
B( 40-C , 44-C ) :   1.3544 B( 41-C , 42-S ) :   0.9734 B( 42-S , 43-C ) :   0.9998
B( 43-C , 44-C ) :   1.4346 B( 43-C , 47-C ) :   1.4121 B( 44-C , 45-S ) :   1.0273
B( 45-S , 46-C ) :   1.0261 B( 46-C , 47-C ) :   1.4527 B( 46-C , 48-C ) :   1.3069
B( 47-C , 82-H ) :   0.9953 B( 48-C , 49-C ) :   1.6010 B( 48-C , 83-H ) :   0.9584
B( 49-C , 50-C ) :   1.1116 B( 49-C , 61-C ) :   0.9774 B( 50-C , 51-C ) :   1.6540
B( 50-C , 56-C ) :   1.0386 B( 51-C , 52-C ) :   1.0646 B( 51-C , 54-C ) :   1.0611
B( 52-C , 53-N ) :   2.9854 B( 54-C , 55-N ) :   2.9678 B( 56-C , 57-C ) :   1.6106
B( 56-C , 60-C ) :   1.2072 B( 57-C , 58-S ) :   1.1792 B( 57-C , 84-H ) :   0.9566
B( 58-S , 59-C ) :   1.1786 B( 59-C , 60-C ) :   1.6408 B( 59-C , 85-H ) :   0.9698
B( 60-C , 61-C ) :   0.9656 B( 61-C , 62-O ) :   2.0313

-----------------------------------------------------------------------------
         ABSORPTION SPECTRUM VIA TRANSITION ELECTRIC DIPOLE MOMENTS
-----------------------------------------------------------------------------
State   Energy    Wavelength  fosc         T2        TX        TY        TZ
        (cm-1)      (nm)                 (au**2)    (au)      (au)      (au)
-----------------------------------------------------------------------------
   1   21213.1    471.4   3.017540937  46.82994   5.15193  -4.50173  -0.14822
   2   26279.2    380.5   0.350653076   4.39280  -1.88547  -0.88511  -0.23325
   3   34789.1    287.4   0.097404457   0.92175  -0.34021  -0.59170   0.67520

FINAL SINGLE POINT ENERGY     -4777.364482517332

DIPOLE MOMENT
-------------
                                X             Y             Z
Electronic contribution:      5.25388       5.75055      -7.00794
Nuclear contribution   :     -5.24028      -4.47981       6.58182
                        -----------------------------------------
Total Dipole Moment    :      0.01361       1.27075      -0.42612
                        -----------------------------------------
Magnitude (a.u.)       :      1.34036
Magnitude (Debye)      :      3.40692

Rotational constants in cm-1:     0.002161     0.000311     0.000276
Rotational constants in MHz :    64.784682     9.310306     8.260349

                             ****ORCA TERMINATED NORMALLY****
TOTAL RUN TIME: 0 days 11 hours 29 minutes 45 seconds 4 msec
