                         Program Version 4.2.0 -  RELEASE  -
|  1> # ORCA input file
|  2> # Y5.out
|  3> ! Engrad Keepdens
|  4> %maxcore 1000
|  5> %tddft
|  6>   nroots 3
|  7>   # nroots is the number of states to be computed
|  8>   Iroot 1
|  9>   end
| 10> * xyz 0 1
| 11>    C       -2.26755        -0.67117        -0.92230
| 12>    O       -2.36677         0.21267        -1.74273
| 13>    C       -1.05402        -1.12817        -0.21215
| 14>    C        0.25526        -0.71948        -0.37373
| 15>    C        1.23371        -1.33134         0.39820
| 16>    C        0.89908        -2.32770         1.30426
| 17>    C       -0.41690        -2.73669         1.47788
| 18>    C       -1.39987        -2.13036         0.71410
| 19>    C       -2.84916        -2.31324         0.68382
| 20>    C       -3.61346        -2.82844         1.69803
| 21>    C       -5.01659        -2.68941         1.73604
| 22>    N       -6.15300        -2.54425         1.81247
| 23>    C       -3.08627        -3.46046         2.84047
| 24>    N       -2.71041        -4.00600         3.77806
| 25>    C       -3.34602        -1.58535        -0.46082
| 26>    C       -4.49525        -1.69241        -1.18425
| 27>    C       -5.41757        -2.75662        -1.24857
| 28>    S       -4.99126        -4.38335        -0.71423
| 29>    C       -6.50057        -4.99280        -1.27866
| 30>    C       -7.27718        -3.97663        -1.85268
| 31>    C       -6.67259        -2.71649        -1.84685
| 32>    C       -7.33883        -1.47331        -2.32985
| 33>    C       -7.88817        -0.67132        -1.14808
| 34>    S       -8.80175        -4.54709        -2.49164
| 35>    C       -8.38202        -6.14585        -1.98883
| 36>    C       -7.14460        -6.23135        -1.33830
| 37>    N       -6.90043        -7.52278        -0.95134
| 38>    C       -5.52989        -7.91900        -0.70307
| 39>    C       -4.85966        -8.40579        -1.98552
| 40>    C       -7.97454        -8.29251        -1.37788
| 41>    C       -8.89647        -7.44797        -2.06024
| 42>    C      -10.02008        -7.96243        -2.74894
| 43>    N      -10.92381        -7.31027        -3.46365
| 44>    S      -11.93343        -8.38905        -4.11834
| 45>    N      -11.25049        -9.73033        -3.53151
| 46>    C      -10.21811        -9.37965        -2.78288
| 47>    C       -9.39578       -10.19561        -1.97278
| 48>    C       -8.31357        -9.66137        -1.20859
| 49>    N       -7.85065       -10.64486        -0.36892
| 50>    C       -6.98938       -10.52683         0.78486
| 51>    C       -5.61646       -11.15215         0.54571
| 52>    C       -8.59743       -11.77946        -0.58214
| 53>    C       -9.54367       -11.52748        -1.58380
| 54>    S      -10.63460       -12.81975        -1.89267
| 55>    C       -9.92241       -13.72038        -0.45541
| 56>    C       -8.71194       -13.02774         0.04699
| 57>    S       -7.84528       -13.63990         1.31844
| 58>    C      -10.79381       -14.31161         0.66189
| 59>    C      -10.27266       -15.14628        -0.21386
| 60>    C      -10.15937       -16.46887        -0.81558
| 61>    C      -10.81897       -17.53749         0.05031
| 62>    C      -11.08412       -13.85601         1.95671
| 63>    C      -11.15011       -12.53374         2.26618
| 64>    C      -11.35123       -11.41543         1.36658
| 65>    C      -12.24038       -11.40695         0.32863
| 66>    C      -12.54330       -10.25686        -0.42615
| 67>    N      -12.81793        -9.32834        -1.04213
| 68>    C      -13.00456       -12.55023         0.00390
| 69>    N      -13.64688       -13.47060        -0.23383
| 70>    C      -10.62133       -10.28510         1.92203
| 71>    C      -10.29388        -9.05602         1.37338
| 72>    C       -9.51927        -8.18702         2.12823
| 73>    C       -9.09426        -8.52523         3.40575
| 74>    C       -9.43534        -9.74758         3.97067
| 75>    C      -10.19612       -10.62313         3.22141
| 76>    C      -10.65398       -11.99330         3.56341
| 77>    O      -10.57947       -12.56420         4.62206
| 78>    H        0.49728         0.05578        -1.08429
| 79>    H        2.26542        -1.03165         0.29185
| 80>    H        1.67632        -2.79732         1.88846
| 81>    H       -0.65573        -3.51721         2.18284
| 82>    H       -4.66403        -0.88627        -1.89256
| 83>    H       -8.15787        -1.75126        -2.99534
| 84>    H       -6.63090        -0.85838        -2.88881
| 85>    H       -8.61407        -1.26318        -0.59726
| 86>    H       -8.37292         0.23414        -1.50337
| 87>    H       -7.08588        -0.39673        -0.46686
| 88>    H       -5.47345        -8.68538         0.06312
| 89>    H       -5.01095        -7.03263        -0.32892
| 90>    H       -5.38446        -9.27077        -2.38615
| 91>    H       -3.82911        -8.68199        -1.78086
| 92>    H       -4.86577        -7.62143        -2.73867
| 93>    H       -7.47053       -11.06429         1.60921
| 94>    H       -6.93436        -9.47467         1.06896
| 95>    H       -5.71614       -12.23359         0.50550
| 96>    H       -4.94979       -10.90328         1.36695
| 97>    H       -5.17694       -10.81480        -0.38916
| 98>    H       -9.09696       -16.68682        -0.96566
| 99>    H      -10.62342       -16.43801        -1.80780
|100>    H      -10.34459       -17.57903         1.02859
|101>    H      -10.72555       -18.51096        -0.42333
|102>    H      -11.87496       -17.31360         0.18592
|103>    H      -11.02261       -14.58018         2.76117
|104>    H      -10.61806        -8.78110         0.38187
|105>    H       -9.24207        -7.22940         1.70983
|106>    H       -8.49531        -7.82665         3.96726
|107>    H       -9.11602       -10.01957         4.96442
|108> *
|109>
|110>                          ****END OF INPUT****

CARTESIAN COORDINATES (ANGSTROEM)
---------------------------------
  C     -2.267550   -0.671170   -0.922300
  O     -2.366770    0.212670   -1.742730
  C     -1.054020   -1.128170   -0.212150
  C      0.255260   -0.719480   -0.373730
  C      1.233710   -1.331340    0.398200
  C      0.899080   -2.327700    1.304260
  C     -0.416900   -2.736690    1.477880
  C     -1.399870   -2.130360    0.714100
  C     -2.849160   -2.313240    0.683820
  C     -3.613460   -2.828440    1.698030
  C     -5.016590   -2.689410    1.736040
  N     -6.153000   -2.544250    1.812470
  C     -3.086270   -3.460460    2.840470
  N     -2.710410   -4.006000    3.778060
  C     -3.346020   -1.585350   -0.460820
  C     -4.495250   -1.692410   -1.184250
  C     -5.417570   -2.756620   -1.248570
  S     -4.991260   -4.383350   -0.714230
  C     -6.500570   -4.992800   -1.278660
  C     -7.277180   -3.976630   -1.852680
  C     -6.672590   -2.716490   -1.846850
  C     -7.338830   -1.473310   -2.329850
  C     -7.888170   -0.671320   -1.148080
  S     -8.801750   -4.547090   -2.491640
  C     -8.382020   -6.145850   -1.988830
  C     -7.144600   -6.231350   -1.338300
  N     -6.900430   -7.522780   -0.951340
  C     -5.529890   -7.919000   -0.703070
  C     -4.859660   -8.405790   -1.985520
  C     -7.974540   -8.292510   -1.377880
  C     -8.896470   -7.447970   -2.060240
  C    -10.020080   -7.962430   -2.748940
  N    -10.923810   -7.310270   -3.463650
  S    -11.933430   -8.389050   -4.118340
  N    -11.250490   -9.730330   -3.531510
  C    -10.218110   -9.379650   -2.782880
  C     -9.395780  -10.195610   -1.972780
  C     -8.313570   -9.661370   -1.208590
  N     -7.850650  -10.644860   -0.368920
  C     -6.989380  -10.526830    0.784860
  C     -5.616460  -11.152150    0.545710
  C     -8.597430  -11.779460   -0.582140
  C     -9.543670  -11.527480   -1.583800
  S    -10.634600  -12.819750   -1.892670
  C     -9.922410  -13.720380   -0.455410
  C     -8.711940  -13.027740    0.046990
  S     -7.845280  -13.639900    1.318440
  C    -10.793810  -14.311610    0.661890
  C    -10.272660  -15.146280   -0.213860
  C    -10.159370  -16.468870   -0.815580
  C    -10.818970  -17.537490    0.050310
  C    -11.084120  -13.856010    1.956710
  C    -11.150110  -12.533740    2.266180
  C    -11.351230  -11.415430    1.366580
  C    -12.240380  -11.406950    0.328630
  C    -12.543300  -10.256860   -0.426150
  N    -12.817930   -9.328340   -1.042130
  C    -13.004560  -12.550230    0.003900
  N    -13.646880  -13.470600   -0.233830
  C    -10.621330  -10.285100    1.922030
  C    -10.293880   -9.056020    1.373380
  C     -9.519270   -8.187020    2.128230
  C     -9.094260   -8.525230    3.405750
  C     -9.435340   -9.747580    3.970670
  C    -10.196120  -10.623130    3.221410
  C    -10.653980  -11.993300    3.563410
  O    -10.579470  -12.564200    4.622060
  H      0.497280    0.055780   -1.084290
  H      2.265420   -1.031650    0.291850
  H      1.676320   -2.797320    1.888460
  H     -0.655730   -3.517210    2.182840
  H     -4.664030   -0.886270   -1.892560
  H     -8.157870   -1.751260   -2.995340
  H     -6.630900   -0.858380   -2.888810
  H     -8.614070   -1.263180   -0.597260
  H     -8.372920    0.234140   -1.503370
  H     -7.085880   -0.396730   -0.466860
  H     -5.473450   -8.685380    0.063120
  H     -5.010950   -7.032630   -0.328920
  H     -5.384460   -9.270770   -2.386150
  H     -3.829110   -8.681990   -1.780860
  H     -4.865770   -7.621430   -2.738670
  H     -7.470530  -11.064290    1.609210
  H     -6.934360   -9.474670    1.068960
  H     -5.716140  -12.233590    0.505500
  H     -4.949790  -10.903280    1.366950
  H     -5.176940  -10.814800   -0.389160
  H     -9.096960  -16.686820   -0.965660
  H    -10.623420  -16.438010   -1.807800
  H    -10.344590  -17.579030    1.028590
  H    -10.725550  -18.510960   -0.423330
  H    -11.874960  -17.313600    0.185920
  H    -11.022610  -14.580180    2.761170
  H    -10.618060   -8.781100    0.381870
  H     -9.242070   -7.229400    1.709830
  H     -8.495310   -7.826650    3.967260
  H     -9.116020  -10.019570    4.964420

 Total Charge           Charge          ....    0
 Multiplicity           Mult            ....    1
 Number of Electrons    NEL             ....  494
 Basis Dimension        Dim             .... 1108

ORBITAL ENERGIES
----------------

  NO   OCC          E(Eh)            E(eV)
   0   2.0000     -92.015811     -2503.8775
   1   2.0000     -91.982901     -2502.9820
   2   2.0000     -91.978085     -2502.8509
   3   2.0000     -91.951770     -2502.1349
   4   2.0000     -91.879170     -2500.1593
   5   2.0000     -20.563351      -559.5572
   6   2.0000     -20.561596      -559.5095
   7   2.0000     -15.656281      -426.0291
   8   2.0000     -15.653788      -425.9612
   9   2.0000     -15.607656      -424.7059
  10   2.0000     -15.601869      -424.5484
  11   2.0000     -15.590480      -424.2385
  12   2.0000     -15.589233      -424.2046
  13   2.0000     -15.586198      -424.1220
  14   2.0000     -15.581731      -424.0004
  15   2.0000     -11.361840      -309.1714
  16   2.0000     -11.359569      -309.1096
  17   2.0000     -11.340876      -308.6009
  18   2.0000     -11.338062      -308.5244
  19   2.0000     -11.330140      -308.3088
  20   2.0000     -11.330090      -308.3074
  21   2.0000     -11.328948      -308.2763
  22   2.0000     -11.322780      -308.1085
  23   2.0000     -11.320117      -308.0361
  24   2.0000     -11.316882      -307.9480
  25   2.0000     -11.316472      -307.9369
  26   2.0000     -11.315224      -307.9029
  27   2.0000     -11.314924      -307.8947
  28   2.0000     -11.313715      -307.8618
  29   2.0000     -11.312933      -307.8406
  30   2.0000     -11.312408      -307.8263
  31   2.0000     -11.303027      -307.5710
  32   2.0000     -11.301533      -307.5304
  33   2.0000     -11.301403      -307.5268
  34   2.0000     -11.301053      -307.5173
  35   2.0000     -11.300799      -307.5104
  36   2.0000     -11.298439      -307.4462
  37   2.0000     -11.297453      -307.4193
  38   2.0000     -11.296905      -307.4044
  39   2.0000     -11.296898      -307.4042
  40   2.0000     -11.295206      -307.3582
  41   2.0000     -11.294234      -307.3317
  42   2.0000     -11.293840      -307.3210
  43   2.0000     -11.293187      -307.3032
  44   2.0000     -11.292918      -307.2959
  45   2.0000     -11.290386      -307.2270
  46   2.0000     -11.289102      -307.1921
  47   2.0000     -11.283990      -307.0530
  48   2.0000     -11.281058      -306.9732
  49   2.0000     -11.279080      -306.9194
  50   2.0000     -11.278466      -306.9027
  51   2.0000     -11.277601      -306.8791
  52   2.0000     -11.277413      -306.8740
  53   2.0000     -11.277363      -306.8727
  54   2.0000     -11.276119      -306.8388
  55   2.0000     -11.276047      -306.8368
  56   2.0000     -11.275137      -306.8121
  57   2.0000     -11.274968      -306.8075
  58   2.0000     -11.274626      -306.7982
  59   2.0000     -11.272291      -306.7346
  60   2.0000     -11.269945      -306.6708
  61   2.0000     -11.269451      -306.6573
  62   2.0000     -11.264801      -306.5308
  63   2.0000     -11.255575      -306.2798
  64   2.0000     -11.243041      -305.9387
  65   2.0000     -11.239523      -305.8430
  66   2.0000     -11.237272      -305.7817
  67   2.0000      -9.047451      -246.1937
  68   2.0000      -9.017719      -245.3846
  69   2.0000      -9.012529      -245.2434
  70   2.0000      -8.987189      -244.5539
  71   2.0000      -8.915537      -242.6041
  72   2.0000      -6.734736      -183.2615
  73   2.0000      -6.732892      -183.2113
  74   2.0000      -6.731259      -183.1669
  75   2.0000      -6.705392      -182.4630
  76   2.0000      -6.704294      -182.4331
  77   2.0000      -6.702223      -182.3768
  78   2.0000      -6.700056      -182.3178
  79   2.0000      -6.699249      -182.2958
  80   2.0000      -6.696919      -182.2324
  81   2.0000      -6.674740      -181.6289
  82   2.0000      -6.673582      -181.5974
  83   2.0000      -6.671266      -181.5344
  84   2.0000      -6.603777      -179.6979
  85   2.0000      -6.601455      -179.6347
  86   2.0000      -6.599939      -179.5935
  87   2.0000      -1.396080       -37.9893
  88   2.0000      -1.393490       -37.9188
  89   2.0000      -1.361556       -37.0498
  90   2.0000      -1.346558       -36.6417
  91   2.0000      -1.343160       -36.5493
  92   2.0000      -1.251992       -34.0684
  93   2.0000      -1.250459       -34.0267
  94   2.0000      -1.238574       -33.7033
  95   2.0000      -1.235453       -33.6184
  96   2.0000      -1.224403       -33.3177
  97   2.0000      -1.222505       -33.2661
  98   2.0000      -1.222005       -33.2524
  99   2.0000      -1.219888       -33.1948
 100   2.0000      -1.189867       -32.3779
 101   2.0000      -1.175551       -31.9884
 102   2.0000      -1.165990       -31.7282
 103   2.0000      -1.161109       -31.5954
 104   2.0000      -1.154668       -31.4201
 105   2.0000      -1.149958       -31.2919
 106   2.0000      -1.109016       -30.1779
 107   2.0000      -1.100195       -29.9378
 108   2.0000      -1.097900       -29.8754
 109   2.0000      -1.091439       -29.6996
 110   2.0000      -1.079404       -29.3721
 111   2.0000      -1.074993       -29.2520
 112   2.0000      -1.069093       -29.0915
 113   2.0000      -1.057815       -28.7846
 114   2.0000      -1.053767       -28.6745
 115   2.0000      -1.053145       -28.6575
 116   2.0000      -1.046756       -28.4837
 117   2.0000      -1.034788       -28.1580
 118   2.0000      -1.021755       -27.8034
 119   2.0000      -1.006351       -27.3842
 120   2.0000      -0.994450       -27.0604
 121   2.0000      -0.976601       -26.5747
 122   2.0000      -0.968099       -26.3433
 123   2.0000      -0.963103       -26.2074
 124   2.0000      -0.939733       -25.5714
 125   2.0000      -0.929740       -25.2995
 126   2.0000      -0.927323       -25.2338
 127   2.0000      -0.908955       -24.7339
 128   2.0000      -0.901727       -24.5372
 129   2.0000      -0.897295       -24.4166
 130   2.0000      -0.889965       -24.2172
 131   2.0000      -0.876639       -23.8546
 132   2.0000      -0.868417       -23.6308
 133   2.0000      -0.860858       -23.4251
 134   2.0000      -0.855969       -23.2921
 135   2.0000      -0.847764       -23.0688
 136   2.0000      -0.841490       -22.8981
 137   2.0000      -0.836577       -22.7644
 138   2.0000      -0.820626       -22.3304
 139   2.0000      -0.815330       -22.1862
 140   2.0000      -0.811078       -22.0706
 141   2.0000      -0.794352       -21.6154
 142   2.0000      -0.785071       -21.3629
 143   2.0000      -0.778672       -21.1887
 144   2.0000      -0.770045       -20.9540
 145   2.0000      -0.760666       -20.6988
 146   2.0000      -0.753548       -20.5051
 147   2.0000      -0.750676       -20.4269
 148   2.0000      -0.747066       -20.3287
 149   2.0000      -0.736002       -20.0276
 150   2.0000      -0.725584       -19.7442
 151   2.0000      -0.723884       -19.6979
 152   2.0000      -0.717783       -19.5319
 153   2.0000      -0.708453       -19.2780
 154   2.0000      -0.705655       -19.2018
 155   2.0000      -0.693041       -18.8586
 156   2.0000      -0.691416       -18.8144
 157   2.0000      -0.686166       -18.6715
 158   2.0000      -0.677428       -18.4338
 159   2.0000      -0.674213       -18.3463
 160   2.0000      -0.671168       -18.2634
 161   2.0000      -0.668777       -18.1983
 162   2.0000      -0.661347       -17.9962
 163   2.0000      -0.656677       -17.8691
 164   2.0000      -0.651210       -17.7203
 165   2.0000      -0.648884       -17.6570
 166   2.0000      -0.646546       -17.5934
 167   2.0000      -0.645560       -17.5666
 168   2.0000      -0.643895       -17.5213
 169   2.0000      -0.642842       -17.4926
 170   2.0000      -0.640532       -17.4298
 171   2.0000      -0.638596       -17.3771
 172   2.0000      -0.631691       -17.1892
 173   2.0000      -0.628428       -17.1004
 174   2.0000      -0.624906       -17.0046
 175   2.0000      -0.623305       -16.9610
 176   2.0000      -0.622874       -16.9493
 177   2.0000      -0.619569       -16.8593
 178   2.0000      -0.613752       -16.7010
 179   2.0000      -0.611996       -16.6532
 180   2.0000      -0.606990       -16.5170
 181   2.0000      -0.600773       -16.3479
 182   2.0000      -0.596033       -16.2189
 183   2.0000      -0.590989       -16.0816
 184   2.0000      -0.582480       -15.8501
 185   2.0000      -0.577229       -15.7072
 186   2.0000      -0.576878       -15.6976
 187   2.0000      -0.576486       -15.6870
 188   2.0000      -0.572717       -15.5844
 189   2.0000      -0.572064       -15.5666
 190   2.0000      -0.569670       -15.5015
 191   2.0000      -0.567449       -15.4411
 192   2.0000      -0.563945       -15.3457
 193   2.0000      -0.560112       -15.2414
 194   2.0000      -0.559460       -15.2237
 195   2.0000      -0.556448       -15.1417
 196   2.0000      -0.554739       -15.0952
 197   2.0000      -0.552514       -15.0347
 198   2.0000      -0.550793       -14.9878
 199   2.0000      -0.548793       -14.9334
 200   2.0000      -0.543372       -14.7859
 201   2.0000      -0.542689       -14.7673
 202   2.0000      -0.538883       -14.6638
 203   2.0000      -0.535704       -14.5773
 204   2.0000      -0.534004       -14.5310
 205   2.0000      -0.532409       -14.4876
 206   2.0000      -0.531386       -14.4597
 207   2.0000      -0.529588       -14.4108
 208   2.0000      -0.527039       -14.3415
 209   2.0000      -0.519030       -14.1235
 210   2.0000      -0.518513       -14.1095
 211   2.0000      -0.516568       -14.0565
 212   2.0000      -0.514255       -13.9936
 213   2.0000      -0.511604       -13.9215
 214   2.0000      -0.507570       -13.8117
 215   2.0000      -0.502637       -13.6774
 216   2.0000      -0.499823       -13.6009
 217   2.0000      -0.495303       -13.4779
 218   2.0000      -0.494269       -13.4498
 219   2.0000      -0.492665       -13.4061
 220   2.0000      -0.491080       -13.3630
 221   2.0000      -0.488127       -13.2826
 222   2.0000      -0.480691       -13.0803
 223   2.0000      -0.474739       -12.9183
 224   2.0000      -0.468941       -12.7605
 225   2.0000      -0.464924       -12.6512
 226   2.0000      -0.461835       -12.5672
 227   2.0000      -0.452789       -12.3210
 228   2.0000      -0.451129       -12.2758
 229   2.0000      -0.446218       -12.1422
 230   2.0000      -0.440840       -11.9959
 231   2.0000      -0.426292       -11.6000
 232   2.0000      -0.416369       -11.3300
 233   2.0000      -0.410375       -11.1669
 234   2.0000      -0.402674       -10.9573
 235   2.0000      -0.382565       -10.4101
 236   2.0000      -0.378420       -10.2973
 237   2.0000      -0.378009       -10.2862
 238   2.0000      -0.359141        -9.7727
 239   2.0000      -0.352082        -9.5806
 240   2.0000      -0.348269        -9.4769
 241   2.0000      -0.339971        -9.2511
 242   2.0000      -0.338823        -9.2198
 243   2.0000      -0.329282        -8.9602
 244   2.0000      -0.317715        -8.6455
 245   2.0000      -0.305042        -8.3006
 246   2.0000      -0.268650        -7.3104
 247   0.0000      -0.028047        -0.7632
 248   0.0000      -0.008462        -0.2303
 249   0.0000       0.010703         0.2913
 250   0.0000       0.027450         0.7469
 251   0.0000       0.028486         0.7751

MULLIKEN ATOMIC CHARGES
-----------------------
   0 C :    0.476598
   1 O :   -0.356498
   2 C :   -0.173838
   3 C :    0.019382
   4 C :   -0.011992
   5 C :   -0.003406
   6 C :   -0.014791
   7 C :   -0.057165
   8 C :    0.232941
   9 C :   -0.351349
  10 C :    0.045965
  11 N :   -0.064560
  12 C :    0.038185
  13 N :   -0.069710
  14 C :   -0.327922
  15 C :    0.137344
  16 C :   -0.192363
  17 S :    0.170984
  18 C :   -0.001559
  19 C :   -0.116480
  20 C :   -0.066793
  21 C :    0.009275
  22 C :   -0.011900
  23 S :    0.248390
  24 C :    0.010722
  25 C :    0.110188
  26 N :   -0.577562
  27 C :    0.124810
  28 C :   -0.039329
  29 C :    0.238628
  30 C :   -0.222635
  31 C :    0.150327
  32 N :   -0.473175
  33 S :    0.601761
  34 N :   -0.468341
  35 C :    0.172065
  36 C :   -0.240322
  37 C :    0.256795
  38 N :   -0.574691
  39 C :    0.103637
  40 C :   -0.025509
  41 C :    0.133603
  42 C :    0.060208
  43 S :    0.149661
  44 C :   -0.269708
  45 C :    0.094438
  46 S :   -0.247046
  47 C :   -0.053572
  48 C :    0.064398
  49 C :    0.002918
  50 C :   -0.049150
  51 C :    0.139302
  52 C :   -0.249249
  53 C :    0.190875
  54 C :   -0.312631
  55 C :    0.062741
  56 N :   -0.072489
  57 C :    0.039914
  58 N :   -0.061330
  59 C :   -0.034849
  60 C :   -0.011150
  61 C :   -0.018185
  62 C :   -0.013581
  63 C :    0.010232
  64 C :   -0.195844
  65 C :    0.494904
  66 O :   -0.331744
  67 H :    0.059155
  68 H :    0.055820
  69 H :    0.055822
  70 H :    0.070545
  71 H :    0.081485
  72 H :    0.052737
  73 H :    0.056489
  74 H :    0.050180
  75 H :    0.045388
  76 H :    0.049745
  77 H :    0.054557
  78 H :    0.064175
  79 H :    0.051947
  80 H :    0.050076
  81 H :    0.051867
  82 H :    0.086481
  83 H :    0.058892
  84 H :    0.067168
  85 H :    0.038014
  86 H :    0.025038
  87 H :    0.069486
  88 H :    0.077042
  89 H :    0.046588
  90 H :    0.047142
  91 H :    0.054874
  92 H :    0.089982
  93 H :    0.075611
  94 H :    0.064742
  95 H :    0.059119
  96 H :    0.061059
Sum of atomic charges:   -0.0000000

LOEWDIN ATOMIC CHARGES
----------------------
   0 C :    0.166340
   1 O :   -0.234398
   2 C :   -0.056319
   3 C :    0.024409
   4 C :    0.000654
   5 C :    0.006049
   6 C :    0.005729
   7 C :   -0.022045
   8 C :    0.103743
   9 C :   -0.175714
  10 C :    0.000158
  11 N :   -0.096197
  12 C :    0.012716
  13 N :   -0.096793
  14 C :   -0.152551
  15 C :    0.106070
  16 C :   -0.209346
  17 S :    0.421138
  18 C :   -0.171871
  19 C :   -0.200276
  20 C :    0.015428
  21 C :   -0.012145
  22 C :   -0.016053
  23 S :    0.419910
  24 C :   -0.170660
  25 C :   -0.015759
  26 N :   -0.024724
  27 C :    0.077697
  28 C :   -0.033922
  29 C :    0.020392
  30 C :   -0.066994
  31 C :   -0.036791
  32 N :   -0.315463
  33 S :    0.641469
  34 N :   -0.312892
  35 C :   -0.026220
  36 C :   -0.117468
  37 C :    0.072573
  38 N :    0.000099
  39 C :    0.068876
  40 C :   -0.042815
  41 C :   -0.070942
  42 C :   -0.115199
  43 S :    0.354348
  44 C :   -0.156817
  45 C :   -0.100934
  46 S :   -0.096803
  47 C :   -0.015387
  48 C :    0.080537
  49 C :   -0.016868
  50 C :   -0.022714
  51 C :    0.101799
  52 C :   -0.089105
  53 C :    0.089857
  54 C :   -0.149191
  55 C :    0.020091
  56 N :   -0.089944
  57 C :    0.003530
  58 N :   -0.092879
  59 C :   -0.020772
  60 C :    0.006654
  61 C :    0.003803
  62 C :   -0.001397
  63 C :    0.023789
  64 C :   -0.055032
  65 C :    0.167807
  66 O :   -0.213213
  67 H :    0.042077
  68 H :    0.034309
  69 H :    0.035576
  70 H :    0.039911
  71 H :    0.053491
  72 H :    0.024616
  73 H :    0.028910
  74 H :    0.025610
  75 H :    0.021094
  76 H :    0.021851
  77 H :    0.021375
  78 H :    0.018687
  79 H :    0.021602
  80 H :    0.026069
  81 H :    0.024565
  82 H :    0.020872
  83 H :    0.013308
  84 H :    0.017944
  85 H :    0.022579
  86 H :    0.011016
  87 H :    0.043918
  88 H :    0.045020
  89 H :    0.022952
  90 H :    0.023373
  91 H :    0.026140
  92 H :    0.059092
  93 H :    0.037147
  94 H :    0.037788
  95 H :    0.035380
  96 H :    0.042678

  Mayer bond orders larger than 0.100000
B(  0-C ,  1-O ) :   2.0932 B(  0-C ,  2-C ) :   0.9500 B(  0-C , 14-C ) :   0.9895
B(  2-C ,  3-C ) :   1.4415 B(  2-C ,  7-C ) :   1.3442 B(  3-C ,  4-C ) :   1.3935
B(  3-C , 67-H ) :   1.0069 B(  4-C ,  5-C ) :   1.4100 B(  4-C , 68-H ) :   1.0003
B(  5-C ,  6-C ) :   1.4131 B(  5-C , 69-H ) :   0.9969 B(  6-C ,  7-C ) :   1.4297
B(  6-C , 70-H ) :   0.9924 B(  7-C ,  8-C ) :   1.0381 B(  8-C ,  9-C ) :   1.6963
B(  8-C , 14-C ) :   1.0645 B(  9-C , 10-C ) :   1.0698 B(  9-C , 12-C ) :   1.0591
B( 10-C , 11-N ) :   3.0065 B( 12-C , 13-N ) :   2.9988 B( 14-C , 15-C ) :   1.7119
B( 15-C , 16-C ) :   1.1976 B( 15-C , 71-H ) :   0.9564 B( 16-C , 17-S ) :   1.0510
B( 16-C , 20-C ) :   1.5430 B( 17-S , 18-C ) :   1.0314 B( 18-C , 19-C ) :   1.5189
B( 18-C , 25-C ) :   1.3607 B( 19-C , 20-C ) :   1.4263 B( 19-C , 23-S ) :   0.9980
B( 20-C , 21-C ) :   0.9870 B( 21-C , 22-C ) :   1.0392 B( 21-C , 72-H ) :   0.9673
B( 21-C , 73-H ) :   0.9580 B( 22-C , 74-H ) :   0.9806 B( 22-C , 75-H ) :   0.9864
B( 22-C , 76-H ) :   0.9841 B( 23-S , 24-C ) :   0.9849 B( 24-C , 25-C ) :   1.4574
B( 24-C , 30-C ) :   1.4303 B( 25-C , 26-N ) :   1.0992 B( 26-N , 27-C ) :   0.8599
B( 26-N , 29-C ) :   1.0854 B( 27-C , 28-C ) :   1.0430 B( 27-C , 77-H ) :   0.9777
B( 27-C , 78-H ) :   0.9771 B( 28-C , 79-H ) :   0.9772 B( 28-C , 80-H ) :   0.9844
B( 28-C , 81-H ) :   0.9802 B( 29-C , 30-C ) :   1.4710 B( 29-C , 37-C ) :   1.1487
B( 30-C , 31-C ) :   1.1146 B( 31-C , 32-N ) :   1.5790 B( 31-C , 35-C ) :   1.1506
B( 32-N , 33-S ) :   1.2096 B( 33-S , 34-N ) :   1.2046 B( 34-N , 35-C ) :   1.5808
B( 35-C , 36-C ) :   1.1160 B( 36-C , 37-C ) :   1.3901 B( 36-C , 42-C ) :   1.4791
B( 37-C , 38-N ) :   1.1883 B( 38-N , 39-C ) :   0.8260 B( 38-N , 41-C ) :   1.0479
B( 39-C , 40-C ) :   1.0389 B( 39-C , 82-H ) :   0.9602 B( 39-C , 83-H ) :   0.9831
B( 40-C , 84-H ) :   0.9686 B( 40-C , 85-H ) :   0.9832 B( 40-C , 86-H ) :   0.9807
B( 41-C , 42-C ) :   1.3967 B( 41-C , 45-C ) :   1.2433 B( 42-C , 43-S ) :   0.9650
B( 43-S , 44-C ) :   0.9311 B( 44-C , 45-C ) :   0.9294 B( 44-C , 47-C ) :   0.9361
B( 44-C , 48-C ) :   0.9468 B( 45-C , 46-S ) :   1.5888 B( 47-C , 48-C ) :   1.7324
B( 47-C , 51-C ) :   1.0508 B( 48-C , 49-C ) :   0.9677 B( 49-C , 50-C ) :   1.0426
B( 49-C , 87-H ) :   0.9450 B( 49-C , 88-H ) :   0.9602 B( 50-C , 89-H ) :   0.9859
B( 50-C , 90-H ) :   0.9861 B( 50-C , 91-H ) :   0.9847 B( 51-C , 52-C ) :   1.8038
B( 51-C , 92-H ) :   0.9729 B( 52-C , 53-C ) :   1.0539 B( 52-C , 65-C ) :   0.9637
B( 53-C , 54-C ) :   1.7471 B( 53-C , 59-C ) :   1.0276 B( 54-C , 55-C ) :   1.0634
B( 54-C , 57-C ) :   1.0531 B( 55-C , 56-N ) :   2.9734 B( 57-C , 58-N ) :   3.0100
B( 59-C , 60-C ) :   1.4317 B( 59-C , 64-C ) :   1.3407 B( 60-C , 61-C ) :   1.4180
B( 60-C , 93-H ) :   0.9896 B( 61-C , 62-C ) :   1.4007 B( 61-C , 94-H ) :   0.9978
B( 62-C , 63-C ) :   1.3949 B( 62-C , 95-H ) :   1.0030 B( 63-C , 64-C ) :   1.4420
B( 63-C , 96-H ) :   1.0073 B( 64-C , 65-C ) :   0.9314 B( 65-C , 66-O ) :   2.1321

-----------------------------------------------------------------------------
         ABSORPTION SPECTRUM VIA TRANSITION ELECTRIC DIPOLE MOMENTS
-----------------------------------------------------------------------------
State   Energy    Wavelength  fosc         T2        TX        TY        TZ
        (cm-1)      (nm)                 (au**2)    (au)      (au)      (au)
-----------------------------------------------------------------------------
   1   23085.1    433.2   1.170102327  16.68660   2.26871   3.37578   0.37901
   2   26816.5    372.9   0.003761500   0.04618   0.20110  -0.05495   0.05212
   3   29064.1    344.1   0.422098507   4.78116   0.96209  -0.68062   1.84182

FINAL SINGLE POINT ENERGY     -4556.631520884859

DIPOLE MOMENT
-------------
                                X             Y             Z
Electronic contribution:    -31.03442       5.31963      -9.93794
Nuclear contribution   :     33.46801      -6.27176       8.34519
                        -----------------------------------------
Total Dipole Moment    :      2.43359      -0.95213      -1.59276
                        -----------------------------------------
Magnitude (a.u.)       :      3.06036
Magnitude (Debye)      :      7.77881

Rotational constants in cm-1:     0.002193     0.000544     0.000495
Rotational constants in MHz :    65.731288    16.311078    14.840864

                             ****ORCA TERMINATED NORMALLY****
TOTAL RUN TIME: 0 days 18 hours 39 minutes 49 seconds 132 msec
