                         Program Version 4.2.0 -  RELEASE  -
|  1> # ORCA input file
|  2> # Y5.out: Geometry 23
|  3> ! Engrad Keepdens
|  4> %maxcore 1000
|  5> %tddft
|  6>   nroots 3
|  7>   # nroots is the number of states to be computed
|  8>   Iroot 1
|  9>   end
| 10> * xyz 0 1
| 11>    C        0.76977        -1.75245        -1.34083
| 12>    O        1.24595        -1.57613        -2.44432
| 13>    C        1.49621        -1.92168        -0.05351
| 14>    C        2.86792        -1.97264         0.16100
| 15>    C        3.32491        -2.13666         1.47316
| 16>    C        2.41107        -2.23529         2.53110
| 17>    C        1.02827        -2.17980         2.31484
| 18>    C        0.56390        -2.03143         1.00272
| 19>    C       -0.80636        -1.89844         0.44334
| 20>    C       -1.94894        -1.58564         1.16282
| 21>    C       -3.12015        -1.07338         0.52429
| 22>    N       -4.05023        -0.60604         0.00701
| 23>    C       -1.99392        -1.62101         2.58964
| 24>    N       -2.04122        -1.67553         3.74999
| 25>    C       -0.68161        -1.90323        -1.00289
| 26>    C       -1.55795        -2.10232        -2.04178
| 27>    C       -2.83594        -2.70316        -2.13698
| 28>    S       -3.47587        -3.83302        -0.93077
| 29>    C       -4.84484        -4.16990        -1.93568
| 30>    C       -4.79717        -3.43512        -3.14170
| 31>    C       -3.67018        -2.60445        -3.26725
| 32>    C       -3.39770        -1.66669        -4.40793
| 33>    C       -3.53516        -0.19063        -4.00416
| 34>    S       -6.12108        -3.82192        -4.24376
| 35>    C       -6.71142        -4.98732        -3.09028
| 36>    C       -5.96628        -5.02589        -1.90204
| 37>    N       -6.48290        -5.98931        -1.04945
| 38>    C       -5.57273        -6.62928        -0.09597
| 39>    C       -4.66529        -7.65709        -0.76333
| 40>    C       -7.56058        -6.59287        -1.71099
| 41>    C       -7.69353        -5.99990        -3.00361
| 42>    C       -8.58550        -6.54866        -3.98271
| 43>    N       -8.74365        -6.14535        -5.23636
| 44>    S       -9.79199        -7.20710        -5.95481
| 45>    N      -10.06346        -8.21040        -4.66521
| 46>    C       -9.34959        -7.73935        -3.65116
| 47>    C       -9.30754        -8.24090        -2.30809
| 48>    C       -8.47116        -7.63226        -1.31817
| 49>    N       -8.77181        -8.20294        -0.08188
| 50>    C       -8.37393        -7.79571         1.26165
| 51>    C       -7.42246        -8.78857         1.92576
| 52>    C       -9.73574        -9.17305        -0.28179
| 53>    C      -10.06382        -9.23153        -1.64567
| 54>    S      -11.28126       -10.42209        -2.01196
| 55>    C      -11.37233       -10.83550        -0.29699
| 56>    C      -10.51589       -10.05400         0.50385
| 57>    S      -10.72629       -10.42414         2.18073
| 58>    C      -11.91619       -11.67972         1.79242
| 59>    C      -12.15305       -11.77939         0.41236
| 60>    C      -13.17322       -12.65898        -0.25805
| 61>    C      -12.57996       -13.59221        -1.32320
| 62>    C      -12.55344       -12.31941         2.90097
| 63>    C      -13.05018       -13.58686         3.06213
| 64>    C      -12.85895       -14.84815         2.35606
| 65>    C      -11.76303       -15.20629         1.59309
| 66>    C      -11.65277       -16.47396         0.94165
| 67>    N      -11.55123       -17.48677         0.38062
| 68>    C      -10.60931       -14.37414         1.45776
| 69>    N       -9.64237       -13.73914         1.34817
| 70>    C      -13.93353       -15.77031         2.80278
| 71>    C      -14.31626       -17.04193         2.35952
| 72>    C      -15.35744       -17.69567         3.03076
| 73>    C      -16.00093       -17.11425         4.13333
| 74>    C      -15.62541       -15.84302         4.57857
| 75>    C      -14.60699       -15.18525         3.89812
| 76>    C      -14.06399       -13.82361         4.14739
| 77>    O      -14.40307       -13.04049         5.01007
| 78>    H        3.55205        -1.88090        -0.68526
| 79>    H        4.39680        -2.18628         1.67980
| 80>    H        2.78469        -2.36312         3.54966
| 81>    H        0.34629        -2.25956         3.15931
| 82>    H       -1.11937        -1.82456        -3.00896
| 83>    H       -4.08592        -1.89978        -5.23526
| 84>    H       -2.38063        -1.85129        -4.79581
| 85>    H       -4.54361         0.02031        -3.61647
| 86>    H       -3.34132         0.46653        -4.86536
| 87>    H       -2.82242         0.06948        -3.20868
| 88>    H       -6.14848        -7.08760         0.70632
| 89>    H       -4.98322        -5.82794         0.37421
| 90>    H       -4.00888        -8.13045        -0.01695
| 91>    H       -4.03153        -7.18161        -1.52679
| 92>    H       -5.26163        -8.44518        -1.24872
| 93>    H       -9.29283        -7.69553         1.86206
| 94>    H       -7.94672        -6.78703         1.19749
| 95>    H       -7.92705        -9.74273         2.13678
| 96>    H       -7.04997        -8.38223         2.87880
| 97>    H       -6.56155        -9.00864         1.27902
| 98>    H      -13.91363       -11.99667        -0.74239
| 99>    H      -13.72340       -13.23924         0.49375
|100>    H      -11.82577       -14.26891        -0.90163
|101>    H      -12.08814       -13.02478        -2.12714
|102>    H      -13.37217       -14.20503        -1.77875
|103>    H      -12.74419       -11.67880         3.77392
|104>    H      -13.83343       -17.52388         1.51167
|105>    H      -15.67631       -18.68015         2.68159
|106>    H      -16.79818       -17.65967         4.64325
|107>    H      -16.10895       -15.36167         5.43062
|108> *
|109>
|110>                          ****END OF INPUT****

CARTESIAN COORDINATES (ANGSTROEM)
---------------------------------
  C      0.769770   -1.752450   -1.340830
  O      1.245950   -1.576130   -2.444320
  C      1.496210   -1.921680   -0.053510
  C      2.867920   -1.972640    0.161000
  C      3.324910   -2.136660    1.473160
  C      2.411070   -2.235290    2.531100
  C      1.028270   -2.179800    2.314840
  C      0.563900   -2.031430    1.002720
  C     -0.806360   -1.898440    0.443340
  C     -1.948940   -1.585640    1.162820
  C     -3.120150   -1.073380    0.524290
  N     -4.050230   -0.606040    0.007010
  C     -1.993920   -1.621010    2.589640
  N     -2.041220   -1.675530    3.749990
  C     -0.681610   -1.903230   -1.002890
  C     -1.557950   -2.102320   -2.041780
  C     -2.835940   -2.703160   -2.136980
  S     -3.475870   -3.833020   -0.930770
  C     -4.844840   -4.169900   -1.935680
  C     -4.797170   -3.435120   -3.141700
  C     -3.670180   -2.604450   -3.267250
  C     -3.397700   -1.666690   -4.407930
  C     -3.535160   -0.190630   -4.004160
  S     -6.121080   -3.821920   -4.243760
  C     -6.711420   -4.987320   -3.090280
  C     -5.966280   -5.025890   -1.902040
  N     -6.482900   -5.989310   -1.049450
  C     -5.572730   -6.629280   -0.095970
  C     -4.665290   -7.657090   -0.763330
  C     -7.560580   -6.592870   -1.710990
  C     -7.693530   -5.999900   -3.003610
  C     -8.585500   -6.548660   -3.982710
  N     -8.743650   -6.145350   -5.236360
  S     -9.791990   -7.207100   -5.954810
  N    -10.063460   -8.210400   -4.665210
  C     -9.349590   -7.739350   -3.651160
  C     -9.307540   -8.240900   -2.308090
  C     -8.471160   -7.632260   -1.318170
  N     -8.771810   -8.202940   -0.081880
  C     -8.373930   -7.795710    1.261650
  C     -7.422460   -8.788570    1.925760
  C     -9.735740   -9.173050   -0.281790
  C    -10.063820   -9.231530   -1.645670
  S    -11.281260  -10.422090   -2.011960
  C    -11.372330  -10.835500   -0.296990
  C    -10.515890  -10.054000    0.503850
  S    -10.726290  -10.424140    2.180730
  C    -11.916190  -11.679720    1.792420
  C    -12.153050  -11.779390    0.412360
  C    -13.173220  -12.658980   -0.258050
  C    -12.579960  -13.592210   -1.323200
  C    -12.553440  -12.319410    2.900970
  C    -13.050180  -13.586860    3.062130
  C    -12.858950  -14.848150    2.356060
  C    -11.763030  -15.206290    1.593090
  C    -11.652770  -16.473960    0.941650
  N    -11.551230  -17.486770    0.380620
  C    -10.609310  -14.374140    1.457760
  N     -9.642370  -13.739140    1.348170
  C    -13.933530  -15.770310    2.802780
  C    -14.316260  -17.041930    2.359520
  C    -15.357440  -17.695670    3.030760
  C    -16.000930  -17.114250    4.133330
  C    -15.625410  -15.843020    4.578570
  C    -14.606990  -15.185250    3.898120
  C    -14.063990  -13.823610    4.147390
  O    -14.403070  -13.040490    5.010070
  H      3.552050   -1.880900   -0.685260
  H      4.396800   -2.186280    1.679800
  H      2.784690   -2.363120    3.549660
  H      0.346290   -2.259560    3.159310
  H     -1.119370   -1.824560   -3.008960
  H     -4.085920   -1.899780   -5.235260
  H     -2.380630   -1.851290   -4.795810
  H     -4.543610    0.020310   -3.616470
  H     -3.341320    0.466530   -4.865360
  H     -2.822420    0.069480   -3.208680
  H     -6.148480   -7.087600    0.706320
  H     -4.983220   -5.827940    0.374210
  H     -4.008880   -8.130450   -0.016950
  H     -4.031530   -7.181610   -1.526790
  H     -5.261630   -8.445180   -1.248720
  H     -9.292830   -7.695530    1.862060
  H     -7.946720   -6.787030    1.197490
  H     -7.927050   -9.742730    2.136780
  H     -7.049970   -8.382230    2.878800
  H     -6.561550   -9.008640    1.279020
  H    -13.913630  -11.996670   -0.742390
  H    -13.723400  -13.239240    0.493750
  H    -11.825770  -14.268910   -0.901630
  H    -12.088140  -13.024780   -2.127140
  H    -13.372170  -14.205030   -1.778750
  H    -12.744190  -11.678800    3.773920
  H    -13.833430  -17.523880    1.511670
  H    -15.676310  -18.680150    2.681590
  H    -16.798180  -17.659670    4.643250
  H    -16.108950  -15.361670    5.430620

 Total Charge           Charge          ....    0
 Multiplicity           Mult            ....    1
 Number of Electrons    NEL             ....  494
 Basis Dimension        Dim             .... 1108

ORBITAL ENERGIES
----------------

  NO   OCC          E(Eh)            E(eV)
   0   2.0000     -92.014792     -2503.8498
   1   2.0000     -91.981056     -2502.9318
   2   2.0000     -91.979830     -2502.8984
   3   2.0000     -91.974483     -2502.7529
   4   2.0000     -91.971719     -2502.6777
   5   2.0000     -20.564211      -559.5806
   6   2.0000     -20.556494      -559.3706
   7   2.0000     -15.654322      -425.9758
   8   2.0000     -15.648927      -425.8290
   9   2.0000     -15.616093      -424.9355
  10   2.0000     -15.615296      -424.9138
  11   2.0000     -15.595436      -424.3734
  12   2.0000     -15.592337      -424.2891
  13   2.0000     -15.588394      -424.1818
  14   2.0000     -15.583510      -424.0489
  15   2.0000     -11.362716      -309.1952
  16   2.0000     -11.355761      -309.0060
  17   2.0000     -11.345100      -308.7159
  18   2.0000     -11.338878      -308.5465
  19   2.0000     -11.332598      -308.3757
  20   2.0000     -11.331020      -308.3327
  21   2.0000     -11.328075      -308.2526
  22   2.0000     -11.321598      -308.0763
  23   2.0000     -11.319220      -308.0116
  24   2.0000     -11.315925      -307.9220
  25   2.0000     -11.315744      -307.9171
  26   2.0000     -11.315194      -307.9021
  27   2.0000     -11.312748      -307.8355
  28   2.0000     -11.311883      -307.8120
  29   2.0000     -11.310993      -307.7878
  30   2.0000     -11.310540      -307.7754
  31   2.0000     -11.308256      -307.7133
  32   2.0000     -11.307931      -307.7045
  33   2.0000     -11.306913      -307.6767
  34   2.0000     -11.302228      -307.5493
  35   2.0000     -11.301596      -307.5321
  36   2.0000     -11.301155      -307.5201
  37   2.0000     -11.300647      -307.5062
  38   2.0000     -11.299008      -307.4616
  39   2.0000     -11.296267      -307.3870
  40   2.0000     -11.295316      -307.3612
  41   2.0000     -11.295029      -307.3534
  42   2.0000     -11.294292      -307.3333
  43   2.0000     -11.293291      -307.3061
  44   2.0000     -11.292106      -307.2738
  45   2.0000     -11.289927      -307.2145
  46   2.0000     -11.289448      -307.2015
  47   2.0000     -11.283142      -307.0299
  48   2.0000     -11.282512      -307.0128
  49   2.0000     -11.281722      -306.9913
  50   2.0000     -11.280928      -306.9697
  51   2.0000     -11.280773      -306.9654
  52   2.0000     -11.278426      -306.9016
  53   2.0000     -11.278412      -306.9012
  54   2.0000     -11.277422      -306.8743
  55   2.0000     -11.277076      -306.8648
  56   2.0000     -11.276185      -306.8406
  57   2.0000     -11.275961      -306.8345
  58   2.0000     -11.275428      -306.8200
  59   2.0000     -11.272355      -306.7364
  60   2.0000     -11.268814      -306.6400
  61   2.0000     -11.265729      -306.5561
  62   2.0000     -11.264465      -306.5217
  63   2.0000     -11.259222      -306.3790
  64   2.0000     -11.255703      -306.2832
  65   2.0000     -11.243164      -305.9421
  66   2.0000     -11.241880      -305.9071
  67   2.0000      -9.045966      -246.1532
  68   2.0000      -9.015293      -245.3186
  69   2.0000      -9.014350      -245.2929
  70   2.0000      -9.008312      -245.1286
  71   2.0000      -9.005487      -245.0518
  72   2.0000      -6.733154      -183.2184
  73   2.0000      -6.731438      -183.1717
  74   2.0000      -6.729623      -183.1224
  75   2.0000      -6.702916      -182.3956
  76   2.0000      -6.701983      -182.3702
  77   2.0000      -6.701865      -182.3670
  78   2.0000      -6.700901      -182.3408
  79   2.0000      -6.699798      -182.3108
  80   2.0000      -6.698823      -182.2843
  81   2.0000      -6.695819      -182.2025
  82   2.0000      -6.694992      -182.1800
  83   2.0000      -6.693016      -182.1262
  84   2.0000      -6.692688      -182.1173
  85   2.0000      -6.692182      -182.1035
  86   2.0000      -6.689877      -182.0408
  87   2.0000      -1.392849       -37.9013
  88   2.0000      -1.385280       -37.6954
  89   2.0000      -1.347080       -36.6559
  90   2.0000      -1.333508       -36.2866
  91   2.0000      -1.329217       -36.1698
  92   2.0000      -1.241490       -33.7827
  93   2.0000      -1.234434       -33.5907
  94   2.0000      -1.223035       -33.2805
  95   2.0000      -1.221649       -33.2428
  96   2.0000      -1.216719       -33.1086
  97   2.0000      -1.213695       -33.0263
  98   2.0000      -1.211013       -32.9533
  99   2.0000      -1.207037       -32.8451
 100   2.0000      -1.190009       -32.3818
 101   2.0000      -1.164161       -31.6784
 102   2.0000      -1.157925       -31.5088
 103   2.0000      -1.153007       -31.3749
 104   2.0000      -1.143119       -31.1058
 105   2.0000      -1.136409       -30.9233
 106   2.0000      -1.101357       -29.9694
 107   2.0000      -1.092279       -29.7224
 108   2.0000      -1.085142       -29.5282
 109   2.0000      -1.081393       -29.4262
 110   2.0000      -1.079502       -29.3748
 111   2.0000      -1.070187       -29.1213
 112   2.0000      -1.062585       -28.9144
 113   2.0000      -1.057543       -28.7772
 114   2.0000      -1.047977       -28.5169
 115   2.0000      -1.042006       -28.3544
 116   2.0000      -1.030783       -28.0490
 117   2.0000      -1.025492       -27.9051
 118   2.0000      -1.005442       -27.3595
 119   2.0000      -1.001871       -27.2623
 120   2.0000      -0.994414       -27.0594
 121   2.0000      -0.979207       -26.6456
 122   2.0000      -0.964033       -26.2327
 123   2.0000      -0.957763       -26.0621
 124   2.0000      -0.946301       -25.7502
 125   2.0000      -0.928783       -25.2735
 126   2.0000      -0.919882       -25.0313
 127   2.0000      -0.911416       -24.8009
 128   2.0000      -0.899126       -24.4665
 129   2.0000      -0.894557       -24.3421
 130   2.0000      -0.877859       -23.8878
 131   2.0000      -0.869199       -23.6521
 132   2.0000      -0.867717       -23.6118
 133   2.0000      -0.860758       -23.4224
 134   2.0000      -0.848968       -23.1016
 135   2.0000      -0.843095       -22.9418
 136   2.0000      -0.836098       -22.7514
 137   2.0000      -0.829089       -22.5607
 138   2.0000      -0.812001       -22.0957
 139   2.0000      -0.808843       -22.0097
 140   2.0000      -0.803490       -21.8641
 141   2.0000      -0.788960       -21.4687
 142   2.0000      -0.785286       -21.3687
 143   2.0000      -0.774374       -21.0718
 144   2.0000      -0.767860       -20.8945
 145   2.0000      -0.758314       -20.6348
 146   2.0000      -0.747887       -20.3510
 147   2.0000      -0.741744       -20.1839
 148   2.0000      -0.740081       -20.1386
 149   2.0000      -0.728538       -19.8245
 150   2.0000      -0.719396       -19.5758
 151   2.0000      -0.718430       -19.5495
 152   2.0000      -0.713833       -19.4244
 153   2.0000      -0.703772       -19.1506
 154   2.0000      -0.700541       -19.0627
 155   2.0000      -0.692855       -18.8536
 156   2.0000      -0.683652       -18.6031
 157   2.0000      -0.682399       -18.5690
 158   2.0000      -0.674773       -18.3615
 159   2.0000      -0.672285       -18.2938
 160   2.0000      -0.667520       -18.1641
 161   2.0000      -0.661410       -17.9979
 162   2.0000      -0.656238       -17.8571
 163   2.0000      -0.648794       -17.6546
 164   2.0000      -0.645960       -17.5775
 165   2.0000      -0.642581       -17.4855
 166   2.0000      -0.640649       -17.4330
 167   2.0000      -0.639941       -17.4137
 168   2.0000      -0.637880       -17.3576
 169   2.0000      -0.634421       -17.2635
 170   2.0000      -0.632008       -17.1978
 171   2.0000      -0.629536       -17.1305
 172   2.0000      -0.625396       -17.0179
 173   2.0000      -0.618184       -16.8216
 174   2.0000      -0.616515       -16.7762
 175   2.0000      -0.616014       -16.7626
 176   2.0000      -0.611488       -16.6394
 177   2.0000      -0.607653       -16.5351
 178   2.0000      -0.606566       -16.5055
 179   2.0000      -0.603677       -16.4269
 180   2.0000      -0.600285       -16.3346
 181   2.0000      -0.597173       -16.2499
 182   2.0000      -0.593158       -16.1406
 183   2.0000      -0.585036       -15.9196
 184   2.0000      -0.577479       -15.7140
 185   2.0000      -0.576211       -15.6795
 186   2.0000      -0.574643       -15.6368
 187   2.0000      -0.572436       -15.5768
 188   2.0000      -0.571084       -15.5400
 189   2.0000      -0.569479       -15.4963
 190   2.0000      -0.567875       -15.4527
 191   2.0000      -0.565858       -15.3978
 192   2.0000      -0.564094       -15.3498
 193   2.0000      -0.562459       -15.3053
 194   2.0000      -0.561210       -15.2713
 195   2.0000      -0.557024       -15.1574
 196   2.0000      -0.555712       -15.1217
 197   2.0000      -0.552518       -15.0348
 198   2.0000      -0.547546       -14.8995
 199   2.0000      -0.546055       -14.8589
 200   2.0000      -0.542098       -14.7512
 201   2.0000      -0.541814       -14.7435
 202   2.0000      -0.540345       -14.7035
 203   2.0000      -0.536536       -14.5999
 204   2.0000      -0.535302       -14.5663
 205   2.0000      -0.531584       -14.4651
 206   2.0000      -0.530258       -14.4291
 207   2.0000      -0.528916       -14.3925
 208   2.0000      -0.526878       -14.3371
 209   2.0000      -0.522690       -14.2231
 210   2.0000      -0.521951       -14.2030
 211   2.0000      -0.515346       -14.0233
 212   2.0000      -0.510161       -13.8822
 213   2.0000      -0.506257       -13.7760
 214   2.0000      -0.501720       -13.6525
 215   2.0000      -0.498006       -13.5514
 216   2.0000      -0.493480       -13.4283
 217   2.0000      -0.493279       -13.4228
 218   2.0000      -0.489953       -13.3323
 219   2.0000      -0.488673       -13.2975
 220   2.0000      -0.486650       -13.2424
 221   2.0000      -0.483967       -13.1694
 222   2.0000      -0.482206       -13.1215
 223   2.0000      -0.479625       -13.0512
 224   2.0000      -0.469120       -12.7654
 225   2.0000      -0.468815       -12.7571
 226   2.0000      -0.467593       -12.7239
 227   2.0000      -0.463556       -12.6140
 228   2.0000      -0.458492       -12.4762
 229   2.0000      -0.449680       -12.2364
 230   2.0000      -0.445575       -12.1247
 231   2.0000      -0.441631       -12.0174
 232   2.0000      -0.435703       -11.8561
 233   2.0000      -0.406199       -11.0532
 234   2.0000      -0.402950       -10.9648
 235   2.0000      -0.381872       -10.3913
 236   2.0000      -0.380488       -10.3536
 237   2.0000      -0.375616       -10.2210
 238   2.0000      -0.370663       -10.0863
 239   2.0000      -0.355056        -9.6616
 240   2.0000      -0.351894        -9.5755
 241   2.0000      -0.347725        -9.4621
 242   2.0000      -0.339208        -9.2303
 243   2.0000      -0.328641        -8.9428
 244   2.0000      -0.312375        -8.5001
 245   2.0000      -0.303390        -8.2557
 246   2.0000      -0.255482        -6.9520
 247   0.0000      -0.024388        -0.6636
 248   0.0000      -0.011895        -0.3237
 249   0.0000       0.017375         0.4728
 250   0.0000       0.026834         0.7302
 251   0.0000       0.035944         0.9781

MULLIKEN ATOMIC CHARGES
-----------------------
   0 C :    0.468559
   1 O :   -0.368136
   2 C :   -0.177051
   3 C :    0.015425
   4 C :   -0.019247
   5 C :   -0.016752
   6 C :   -0.021159
   7 C :   -0.054523
   8 C :    0.246110
   9 C :   -0.344640
  10 C :    0.048036
  11 N :   -0.079010
  12 C :    0.050690
  13 N :   -0.097460
  14 C :   -0.339466
  15 C :    0.108839
  16 C :   -0.178054
  17 S :    0.201394
  18 C :   -0.020893
  19 C :   -0.127363
  20 C :   -0.052854
  21 C :   -0.004951
  22 C :   -0.036584
  23 S :    0.242025
  24 C :    0.007904
  25 C :    0.129318
  26 N :   -0.591833
  27 C :    0.123176
  28 C :   -0.053926
  29 C :    0.231096
  30 C :   -0.202274
  31 C :    0.156156
  32 N :   -0.468193
  33 S :    0.539897
  34 N :   -0.468609
  35 C :    0.159327
  36 C :   -0.216119
  37 C :    0.251417
  38 N :   -0.600776
  39 C :    0.104202
  40 C :   -0.065608
  41 C :    0.146569
  42 C :    0.004163
  43 S :    0.226966
  44 C :   -0.114366
  45 C :   -0.016913
  46 S :    0.194385
  47 C :   -0.261709
  48 C :   -0.062269
  49 C :    0.015010
  50 C :   -0.057174
  51 C :    0.189680
  52 C :   -0.336171
  53 C :    0.215549
  54 C :   -0.359671
  55 C :    0.053346
  56 N :   -0.082160
  57 C :    0.049389
  58 N :   -0.062984
  59 C :   -0.051892
  60 C :   -0.018953
  61 C :   -0.015308
  62 C :   -0.017708
  63 C :    0.016168
  64 C :   -0.173103
  65 C :    0.466347
  66 O :   -0.357170
  67 H :    0.067347
  68 H :    0.063073
  69 H :    0.062819
  70 H :    0.082775
  71 H :    0.094000
  72 H :    0.054794
  73 H :    0.066103
  74 H :    0.059782
  75 H :    0.049216
  76 H :    0.052183
  77 H :    0.041440
  78 H :    0.066680
  79 H :    0.053425
  80 H :    0.061129
  81 H :    0.056970
  82 H :    0.068603
  83 H :    0.071986
  84 H :    0.072668
  85 H :    0.055670
  86 H :    0.051047
  87 H :    0.069526
  88 H :    0.060130
  89 H :    0.059242
  90 H :    0.057960
  91 H :    0.050676
  92 H :    0.099866
  93 H :    0.083244
  94 H :    0.065180
  95 H :    0.065140
  96 H :    0.069216
Sum of atomic charges:    0.0000000

LOEWDIN ATOMIC CHARGES
----------------------
   0 C :    0.170514
   1 O :   -0.243467
   2 C :   -0.057501
   3 C :    0.018762
   4 C :   -0.001997
   5 C :    0.000429
   6 C :    0.004313
   7 C :   -0.022961
   8 C :    0.114210
   9 C :   -0.180057
  10 C :    0.004821
  11 N :   -0.101552
  12 C :    0.019625
  13 N :   -0.107763
  14 C :   -0.165046
  15 C :    0.109583
  16 C :   -0.215682
  17 S :    0.415719
  18 C :   -0.161450
  19 C :   -0.204110
  20 C :    0.020361
  21 C :   -0.017215
  22 C :   -0.023312
  23 S :    0.405683
  24 C :   -0.155314
  25 C :   -0.022580
  26 N :   -0.045244
  27 C :    0.075090
  28 C :   -0.040708
  29 C :    0.047328
  30 C :   -0.087842
  31 C :   -0.021441
  32 N :   -0.312439
  33 S :    0.581668
  34 N :   -0.313220
  35 C :   -0.019342
  36 C :   -0.090439
  37 C :    0.042169
  38 N :   -0.029885
  39 C :    0.071975
  40 C :   -0.046048
  41 C :   -0.016363
  42 C :   -0.165192
  43 S :    0.407807
  44 C :   -0.191027
  45 C :   -0.175404
  46 S :    0.409602
  47 C :   -0.205770
  48 C :   -0.001245
  49 C :   -0.016467
  50 C :   -0.030109
  51 C :    0.103552
  52 C :   -0.145188
  53 C :    0.109236
  54 C :   -0.167611
  55 C :    0.017349
  56 N :   -0.097911
  57 C :    0.012069
  58 N :   -0.089821
  59 C :   -0.024034
  60 C :    0.004416
  61 C :    0.003324
  62 C :   -0.000042
  63 C :    0.020921
  64 C :   -0.058802
  65 C :    0.169460
  66 O :   -0.233549
  67 H :    0.044800
  68 H :    0.036487
  69 H :    0.037590
  70 H :    0.042749
  71 H :    0.056075
  72 H :    0.026164
  73 H :    0.033510
  74 H :    0.029346
  75 H :    0.023553
  76 H :    0.022319
  77 H :    0.019087
  78 H :    0.021963
  79 H :    0.028201
  80 H :    0.026423
  81 H :    0.025938
  82 H :    0.025251
  83 H :    0.025573
  84 H :    0.024136
  85 H :    0.029729
  86 H :    0.022326
  87 H :    0.035262
  88 H :    0.024411
  89 H :    0.022330
  90 H :    0.015591
  91 H :    0.025628
  92 H :    0.055829
  93 H :    0.043188
  94 H :    0.038629
  95 H :    0.037427
  96 H :    0.045640

  Mayer bond orders larger than 0.100000
B(  0-C ,  1-O ) :   2.0666 B(  0-C ,  2-C ) :   0.9544 B(  0-C , 14-C ) :   1.0005
B(  2-C ,  3-C ) :   1.4408 B(  2-C ,  7-C ) :   1.3521 B(  3-C ,  4-C ) :   1.3949
B(  3-C , 67-H ) :   1.0010 B(  4-C ,  5-C ) :   1.4089 B(  4-C , 68-H ) :   0.9964
B(  5-C ,  6-C ) :   1.4206 B(  5-C , 69-H ) :   0.9935 B(  6-C ,  7-C ) :   1.4236
B(  6-C , 70-H ) :   0.9868 B(  7-C ,  8-C ) :   1.0352 B(  8-C ,  9-C ) :   1.6782
B(  8-C , 14-C ) :   1.0786 B(  9-C , 10-C ) :   1.0694 B(  9-C , 12-C ) :   1.0482
B( 10-C , 11-N ) :   3.0019 B( 12-C , 13-N ) :   2.9844 B( 14-C , 15-C ) :   1.6861
B( 15-C , 16-C ) :   1.2385 B( 15-C , 71-H ) :   0.9428 B( 16-C , 17-S ) :   1.0426
B( 16-C , 20-C ) :   1.5081 B( 17-S , 18-C ) :   1.0466 B( 18-C , 19-C ) :   1.4990
B( 18-C , 25-C ) :   1.3611 B( 19-C , 20-C ) :   1.4494 B( 19-C , 23-S ) :   0.9959
B( 20-C , 21-C ) :   0.9770 B( 21-C , 22-C ) :   1.0380 B( 21-C , 72-H ) :   0.9699
B( 21-C , 73-H ) :   0.9580 B( 22-C , 74-H ) :   0.9803 B( 22-C , 75-H ) :   0.9855
B( 22-C , 76-H ) :   0.9839 B( 23-S , 24-C ) :   0.9983 B( 24-C , 25-C ) :   1.4731
B( 24-C , 30-C ) :   1.4026 B( 25-C , 26-N ) :   1.0695 B( 26-N , 27-C ) :   0.8606
B( 26-N , 29-C ) :   1.0931 B( 27-C , 28-C ) :   1.0359 B( 27-C , 77-H ) :   0.9842
B( 27-C , 78-H ) :   0.9746 B( 28-C , 79-H ) :   0.9831 B( 28-C , 80-H ) :   0.9790
B( 28-C , 81-H ) :   0.9783 B( 29-C , 30-C ) :   1.4873 B( 29-C , 37-C ) :   1.1404
B( 30-C , 31-C ) :   1.1078 B( 31-C , 32-N ) :   1.6191 B( 31-C , 35-C ) :   1.1023
B( 32-N , 33-S ) :   1.1583 B( 32-N , 34-N ) :   0.1037 B( 33-S , 34-N ) :   1.1575
B( 34-N , 35-C ) :   1.6189 B( 35-C , 36-C ) :   1.1096 B( 36-C , 37-C ) :   1.4579
B( 36-C , 42-C ) :   1.4311 B( 37-C , 38-N ) :   1.1083 B( 38-N , 39-C ) :   0.8373
B( 38-N , 41-C ) :   1.0785 B( 39-C , 40-C ) :   1.0305 B( 39-C , 82-H ) :   0.9781
B( 39-C , 83-H ) :   0.9856 B( 40-C , 84-H ) :   0.9766 B( 40-C , 85-H ) :   0.9829
B( 40-C , 86-H ) :   0.9794 B( 41-C , 42-C ) :   1.4721 B( 41-C , 45-C ) :   1.3232
B( 42-C , 43-S ) :   0.9895 B( 43-S , 44-C ) :   1.0052 B( 44-C , 45-C ) :   1.5328
B( 44-C , 48-C ) :   1.3725 B( 45-C , 46-S ) :   1.0406 B( 46-S , 47-C ) :   1.0763
B( 47-C , 48-C ) :   1.6003 B( 47-C , 51-C ) :   1.1092 B( 48-C , 49-C ) :   0.9746
B( 49-C , 50-C ) :   1.0348 B( 49-C , 87-H ) :   0.9636 B( 49-C , 88-H ) :   0.9681
B( 50-C , 89-H ) :   0.9816 B( 50-C , 90-H ) :   0.9805 B( 50-C , 91-H ) :   0.9851
B( 51-C , 52-C ) :   1.7573 B( 51-C , 92-H ) :   0.9376 B( 52-C , 53-C ) :   1.0699
B( 52-C , 65-C ) :   0.9822 B( 53-C , 54-C ) :   1.7003 B( 53-C , 59-C ) :   1.0366
B( 54-C , 55-C ) :   1.0459 B( 54-C , 57-C ) :   1.0780 B( 55-C , 56-N ) :   2.9858
B( 57-C , 58-N ) :   3.0065 B( 59-C , 60-C ) :   1.4180 B( 59-C , 64-C ) :   1.3553
B( 60-C , 61-C ) :   1.4260 B( 60-C , 93-H ) :   0.9877 B( 61-C , 62-C ) :   1.4028
B( 61-C , 94-H ) :   0.9932 B( 62-C , 63-C ) :   1.4003 B( 62-C , 95-H ) :   0.9963
B( 63-C , 64-C ) :   1.4333 B( 63-C , 96-H ) :   1.0017 B( 64-C , 65-C ) :   0.9541
B( 65-C , 66-O ) :   2.0882

-----------------------------------------------------------------------------
         ABSORPTION SPECTRUM VIA TRANSITION ELECTRIC DIPOLE MOMENTS
-----------------------------------------------------------------------------
State   Energy    Wavelength  fosc         T2        TX        TY        TZ
        (cm-1)      (nm)                 (au**2)    (au)      (au)      (au)
-----------------------------------------------------------------------------
   1   21972.8    455.1   1.980050771  29.66653   3.80605   3.89531  -0.08385
   2   26232.1    381.2   0.614335709   7.70989   0.44852  -1.33848   2.39106
   3   32120.0    311.3   0.239296237   2.45265   1.09733   0.30555  -1.07479

FINAL SINGLE POINT ENERGY     -4556.731222275306

DIPOLE MOMENT
-------------
                                X             Y             Z
Electronic contribution:    -13.57197       5.44769     -12.81465
Nuclear contribution   :     12.53580      -6.95489      12.70517
                        -----------------------------------------
Total Dipole Moment    :     -1.03617      -1.50720      -0.10948
                        -----------------------------------------
Magnitude (a.u.)       :      1.83229
Magnitude (Debye)      :      4.65731

Rotational constants in cm-1:     0.002015     0.000338     0.000306
Rotational constants in MHz :    60.402937    10.141615     9.165439

                             ****ORCA TERMINATED NORMALLY****
TOTAL RUN TIME: 0 days 10 hours 8 minutes 1 seconds 487 msec
