                         Program Version 4.2.0 -  RELEASE  -
|  1> # ORCA input file
|  2> # Y6.out
|  3> ! Engrad Keepdens
|  4> %maxcore 1000
|  5> %tddft
|  6>   nroots 3
|  7>   # nroots is the number of states to be computed
|  8>   Iroot 1
|  9>   end
| 10> * xyz 0 1
| 11>    C        1.95345         3.55773         2.60812
| 12>    O        1.74284         4.44788         1.81814
| 13>    C        1.17119         3.21481         3.81942
| 14>    C        0.07405         3.86372         4.35066
| 15>    C       -0.47182         3.35467         5.51877
| 16>    F       -1.53421         3.95349         6.06906
| 17>    C        0.07599         2.22576         6.12965
| 18>    F       -0.46401         1.76586         7.26321
| 19>    C        1.17186         1.56702         5.59173
| 20>    C        1.72047         2.06983         4.42325
| 21>    C        2.83472         1.59404         3.60289
| 22>    C        3.34229         0.32168         3.62394
| 23>    C        4.22489        -0.18794         2.64994
| 24>    N        4.90873        -0.67238         1.86552
| 25>    C        2.97926        -0.65423         4.57530
| 26>    N        2.73476        -1.47700         5.33673
| 27>    C        3.08896         2.60142         2.59829
| 28>    C        4.12881         2.79885         1.73775
| 29>    C        5.44414         2.28007         1.76098
| 30>    S        6.20723         2.03645         0.19092
| 31>    C        7.64112         1.46999         0.94983
| 32>    C        7.54462         1.54631         2.34724
| 33>    C        6.30193         1.98972         2.81750
| 34>    C        6.02519         2.25972         4.26381
| 35>    C        6.26803         1.04061         5.15458
| 36>    S        9.00881         1.03735         3.15917
| 37>    C        9.71593         0.68099         1.62414
| 38>    C        8.87227         0.95348         0.54051
| 39>    N        9.49002         0.61307        -0.63496
| 40>    C        9.07825         1.26061        -1.86225
| 41>    C        9.29361         2.77213        -1.78576
| 42>    C       10.73152         0.09308        -0.31305
| 43>    C       10.91199         0.17167         1.09711
| 44>    C       12.14343        -0.16564         1.70300
| 45>    N       12.48605        -0.08172         2.97843
| 46>    S       14.03639        -0.52094         3.12534
| 47>    N       14.33083        -0.84110         1.56601
| 48>    C       13.22577        -0.61548         0.87437
| 49>    C       12.98555        -0.84213        -0.50057
| 50>    C       11.72076        -0.55510        -1.09318
| 51>    N       11.71195        -1.05365        -2.37896
| 52>    C       10.59408        -1.34161        -3.25215
| 53>    C       10.64143        -0.52532        -4.54429
| 54>    C       12.93680        -1.62032        -2.61616
| 55>    C       13.75029        -1.48618        -1.48070
| 56>    S       15.30812        -2.21651        -1.64460
| 57>    C       14.85204        -2.74954        -3.25239
| 58>    C       13.55580        -2.35066        -3.63234
| 59>    S       13.15073        -2.90408        -5.21172
| 60>    C       14.71522        -3.71008        -5.34631
| 61>    C       15.51125        -3.51676        -4.19981
| 62>    C       16.90438        -4.02077        -4.01322
| 63>    C       17.91415        -3.10321        -4.70872
| 64>    C       15.11728        -4.49475        -6.42663
| 65>    C       14.48650        -4.78793        -7.61556
| 66>    C       15.00083        -5.68042        -8.63275
| 67>    C       16.12705        -6.46106        -8.57038
| 68>    C       16.54717        -7.32690        -9.60234
| 69>    N       16.94774        -8.04919       -10.39912
| 70>    C       17.02043        -6.53361        -7.48077
| 71>    N       17.79446        -6.65392        -6.63976
| 72>    C       14.06845        -5.64022        -9.76144
| 73>    C       14.08755        -6.27910       -10.99086
| 74>    C       13.04245        -6.03282       -11.86903
| 75>    F       13.04429        -6.63774       -13.06215
| 76>    C       11.99603        -5.17148       -11.54041
| 77>    F       11.00931        -4.96035       -12.42011
| 78>    C       11.96832        -4.53019       -10.31237
| 79>    C       13.00850        -4.77615        -9.43956
| 80>    C       13.21948        -4.22859        -8.08264
| 81>    O       12.47435        -3.46196        -7.49705
| 82>    H       -0.34889         4.73575         3.87785
| 83>    H        1.56276         0.70005         6.09915
| 84>    H        3.91347         3.48660         0.92349
| 85>    H        5.00295         2.61930         4.38533
| 86>    H        6.69761         3.06110         4.58694
| 87>    H        5.72299         0.17113         4.79614
| 88>    H        5.94535         1.25652         6.17011
| 89>    H        7.32433         0.78776         5.17625
| 90>    H        8.01790         1.04365        -2.02462
| 91>    H        9.65822         0.87183        -2.69083
| 92>    H       10.34175         2.99434        -1.59535
| 93>    H        8.69467         3.21334        -0.99396
| 94>    H        9.00549         3.22762        -2.72900
| 95>    H        9.66717        -1.18135        -2.70046
| 96>    H       10.64390        -2.40424        -3.51390
| 97>    H        9.69860        -0.62513        -5.07418
| 98>    H       11.43420        -0.89021        -5.19082
| 99>    H       10.82617         0.52899        -4.34836
|100>    H       17.00931        -5.03552        -4.40068
|101>    H       17.11927        -4.04005        -2.94302
|102>    H       17.72432        -3.06000        -5.77882
|103>    H       18.92082        -3.47925        -4.55165
|104>    H       17.85045        -2.09584        -4.30412
|105>    H       16.09054        -4.94550        -6.28896
|106>    H       14.87209        -6.95247       -11.29429
|107>    H       11.16067        -3.86418       -10.05399
|108> *
|109>
|110>                          ****END OF INPUT****

CARTESIAN COORDINATES (ANGSTROEM)
---------------------------------
  C      1.953450    3.557730    2.608120
  O      1.742840    4.447880    1.818140
  C      1.171190    3.214810    3.819420
  C      0.074050    3.863720    4.350660
  C     -0.471820    3.354670    5.518770
  F     -1.534210    3.953490    6.069060
  C      0.075990    2.225760    6.129650
  F     -0.464010    1.765860    7.263210
  C      1.171860    1.567020    5.591730
  C      1.720470    2.069830    4.423250
  C      2.834720    1.594040    3.602890
  C      3.342290    0.321680    3.623940
  C      4.224890   -0.187940    2.649940
  N      4.908730   -0.672380    1.865520
  C      2.979260   -0.654230    4.575300
  N      2.734760   -1.477000    5.336730
  C      3.088960    2.601420    2.598290
  C      4.128810    2.798850    1.737750
  C      5.444140    2.280070    1.760980
  S      6.207230    2.036450    0.190920
  C      7.641120    1.469990    0.949830
  C      7.544620    1.546310    2.347240
  C      6.301930    1.989720    2.817500
  C      6.025190    2.259720    4.263810
  C      6.268030    1.040610    5.154580
  S      9.008810    1.037350    3.159170
  C      9.715930    0.680990    1.624140
  C      8.872270    0.953480    0.540510
  N      9.490020    0.613070   -0.634960
  C      9.078250    1.260610   -1.862250
  C      9.293610    2.772130   -1.785760
  C     10.731520    0.093080   -0.313050
  C     10.911990    0.171670    1.097110
  C     12.143430   -0.165640    1.703000
  N     12.486050   -0.081720    2.978430
  S     14.036390   -0.520940    3.125340
  N     14.330830   -0.841100    1.566010
  C     13.225770   -0.615480    0.874370
  C     12.985550   -0.842130   -0.500570
  C     11.720760   -0.555100   -1.093180
  N     11.711950   -1.053650   -2.378960
  C     10.594080   -1.341610   -3.252150
  C     10.641430   -0.525320   -4.544290
  C     12.936800   -1.620320   -2.616160
  C     13.750290   -1.486180   -1.480700
  S     15.308120   -2.216510   -1.644600
  C     14.852040   -2.749540   -3.252390
  C     13.555800   -2.350660   -3.632340
  S     13.150730   -2.904080   -5.211720
  C     14.715220   -3.710080   -5.346310
  C     15.511250   -3.516760   -4.199810
  C     16.904380   -4.020770   -4.013220
  C     17.914150   -3.103210   -4.708720
  C     15.117280   -4.494750   -6.426630
  C     14.486500   -4.787930   -7.615560
  C     15.000830   -5.680420   -8.632750
  C     16.127050   -6.461060   -8.570380
  C     16.547170   -7.326900   -9.602340
  N     16.947740   -8.049190  -10.399120
  C     17.020430   -6.533610   -7.480770
  N     17.794460   -6.653920   -6.639760
  C     14.068450   -5.640220   -9.761440
  C     14.087550   -6.279100  -10.990860
  C     13.042450   -6.032820  -11.869030
  F     13.044290   -6.637740  -13.062150
  C     11.996030   -5.171480  -11.540410
  F     11.009310   -4.960350  -12.420110
  C     11.968320   -4.530190  -10.312370
  C     13.008500   -4.776150   -9.439560
  C     13.219480   -4.228590   -8.082640
  O     12.474350   -3.461960   -7.497050
  H     -0.348890    4.735750    3.877850
  H      1.562760    0.700050    6.099150
  H      3.913470    3.486600    0.923490
  H      5.002950    2.619300    4.385330
  H      6.697610    3.061100    4.586940
  H      5.722990    0.171130    4.796140
  H      5.945350    1.256520    6.170110
  H      7.324330    0.787760    5.176250
  H      8.017900    1.043650   -2.024620
  H      9.658220    0.871830   -2.690830
  H     10.341750    2.994340   -1.595350
  H      8.694670    3.213340   -0.993960
  H      9.005490    3.227620   -2.729000
  H      9.667170   -1.181350   -2.700460
  H     10.643900   -2.404240   -3.513900
  H      9.698600   -0.625130   -5.074180
  H     11.434200   -0.890210   -5.190820
  H     10.826170    0.528990   -4.348360
  H     17.009310   -5.035520   -4.400680
  H     17.119270   -4.040050   -2.943020
  H     17.724320   -3.060000   -5.778820
  H     18.920820   -3.479250   -4.551650
  H     17.850450   -2.095840   -4.304120
  H     16.090540   -4.945500   -6.288960
  H     14.872090   -6.952470  -11.294290
  H     11.160670   -3.864180  -10.053990

 Total Charge           Charge          ....    0
 Multiplicity           Mult            ....    1
 Number of Electrons    NEL             ....  526
 Basis Dimension        Dim             .... 1144

ORBITAL ENERGIES
----------------

  NO   OCC          E(Eh)            E(eV)
   0   2.0000     -92.023869     -2504.0968
   1   2.0000     -91.985122     -2503.0424
   2   2.0000     -91.978572     -2502.8642
   3   2.0000     -91.976718     -2502.8137
   4   2.0000     -91.976289     -2502.8021
   5   2.0000     -26.340505      -716.7616
   6   2.0000     -26.339890      -716.7449
   7   2.0000     -26.336107      -716.6419
   8   2.0000     -26.333576      -716.5730
   9   2.0000     -20.574760      -559.8677
  10   2.0000     -20.571146      -559.7693
  11   2.0000     -15.657409      -426.0598
  12   2.0000     -15.654331      -425.9760
  13   2.0000     -15.613763      -424.8721
  14   2.0000     -15.612320      -424.8328
  15   2.0000     -15.599265      -424.4776
  16   2.0000     -15.596266      -424.3960
  17   2.0000     -15.594986      -424.3611
  18   2.0000     -15.587255      -424.1508
  19   2.0000     -11.384782      -309.7957
  20   2.0000     -11.383450      -309.7594
  21   2.0000     -11.378493      -309.6245
  22   2.0000     -11.376946      -309.5824
  23   2.0000     -11.372836      -309.4706
  24   2.0000     -11.369804      -309.3881
  25   2.0000     -11.349984      -308.8488
  26   2.0000     -11.343537      -308.6733
  27   2.0000     -11.336356      -308.4779
  28   2.0000     -11.331786      -308.3536
  29   2.0000     -11.331527      -308.3465
  30   2.0000     -11.327038      -308.2244
  31   2.0000     -11.321517      -308.0741
  32   2.0000     -11.318833      -308.0011
  33   2.0000     -11.315583      -307.9127
  34   2.0000     -11.314985      -307.8964
  35   2.0000     -11.313958      -307.8684
  36   2.0000     -11.312183      -307.8202
  37   2.0000     -11.311767      -307.8088
  38   2.0000     -11.310593      -307.7769
  39   2.0000     -11.309757      -307.7541
  40   2.0000     -11.309620      -307.7504
  41   2.0000     -11.308542      -307.7211
  42   2.0000     -11.307656      -307.6970
  43   2.0000     -11.307010      -307.6794
  44   2.0000     -11.304803      -307.6193
  45   2.0000     -11.304769      -307.6184
  46   2.0000     -11.303618      -307.5871
  47   2.0000     -11.303509      -307.5841
  48   2.0000     -11.302443      -307.5551
  49   2.0000     -11.302336      -307.5522
  50   2.0000     -11.302135      -307.5467
  51   2.0000     -11.298828      -307.4567
  52   2.0000     -11.298590      -307.4503
  53   2.0000     -11.296517      -307.3939
  54   2.0000     -11.296188      -307.3849
  55   2.0000     -11.295401      -307.3635
  56   2.0000     -11.295332      -307.3616
  57   2.0000     -11.295291      -307.3605
  58   2.0000     -11.294089      -307.3278
  59   2.0000     -11.290036      -307.2175
  60   2.0000     -11.289235      -307.1957
  61   2.0000     -11.284694      -307.0721
  62   2.0000     -11.280215      -306.9502
  63   2.0000     -11.275854      -306.8316
  64   2.0000     -11.271614      -306.7162
  65   2.0000     -11.268816      -306.6401
  66   2.0000     -11.263294      -306.4898
  67   2.0000     -11.257639      -306.3359
  68   2.0000     -11.256659      -306.3093
  69   2.0000     -11.246659      -306.0371
  70   2.0000     -11.244031      -305.9656
  71   2.0000      -9.055724      -246.4188
  72   2.0000      -9.020284      -245.4544
  73   2.0000      -9.012943      -245.2546
  74   2.0000      -9.010857      -245.1979
  75   2.0000      -9.010313      -245.1831
  76   2.0000      -6.743032      -183.4872
  77   2.0000      -6.741201      -183.4374
  78   2.0000      -6.739541      -183.3922
  79   2.0000      -6.707940      -182.5323
  80   2.0000      -6.706859      -182.5029
  81   2.0000      -6.704754      -182.4456
  82   2.0000      -6.700489      -182.3296
  83   2.0000      -6.699664      -182.3071
  84   2.0000      -6.698407      -182.2729
  85   2.0000      -6.697588      -182.2506
  86   2.0000      -6.697528      -182.2490
  87   2.0000      -6.697343      -182.2440
  88   2.0000      -6.696146      -182.2114
  89   2.0000      -6.695240      -182.1868
  90   2.0000      -6.694088      -182.1554
  91   2.0000      -1.650574       -44.9144
  92   2.0000      -1.645056       -44.7642
  93   2.0000      -1.635649       -44.5083
  94   2.0000      -1.630090       -44.3570
  95   2.0000      -1.407327       -38.2953
  96   2.0000      -1.404923       -38.2299
  97   2.0000      -1.364661       -37.1343
  98   2.0000      -1.352838       -36.8126
  99   2.0000      -1.345780       -36.6205
 100   2.0000      -1.261755       -34.3341
 101   2.0000      -1.254536       -34.1377
 102   2.0000      -1.239122       -33.7182
 103   2.0000      -1.238086       -33.6900
 104   2.0000      -1.234699       -33.5979
 105   2.0000      -1.232992       -33.5514
 106   2.0000      -1.231141       -33.5010
 107   2.0000      -1.226721       -33.3808
 108   2.0000      -1.196808       -32.5668
 109   2.0000      -1.183036       -32.1921
 110   2.0000      -1.178072       -32.0570
 111   2.0000      -1.173828       -31.9415
 112   2.0000      -1.159666       -31.5561
 113   2.0000      -1.152397       -31.3583
 114   2.0000      -1.115847       -30.3637
 115   2.0000      -1.109728       -30.1972
 116   2.0000      -1.102794       -30.0086
 117   2.0000      -1.096059       -29.8253
 118   2.0000      -1.091719       -29.7072
 119   2.0000      -1.086900       -29.5760
 120   2.0000      -1.079863       -29.3846
 121   2.0000      -1.075164       -29.2567
 122   2.0000      -1.074188       -29.2301
 123   2.0000      -1.071140       -29.1472
 124   2.0000      -1.043689       -28.4002
 125   2.0000      -1.036191       -28.1962
 126   2.0000      -1.017217       -27.6799
 127   2.0000      -1.015821       -27.6419
 128   2.0000      -1.006437       -27.3865
 129   2.0000      -0.997641       -27.1472
 130   2.0000      -0.977467       -26.5982
 131   2.0000      -0.967290       -26.3213
 132   2.0000      -0.963183       -26.2096
 133   2.0000      -0.950475       -25.8637
 134   2.0000      -0.945007       -25.7149
 135   2.0000      -0.936414       -25.4811
 136   2.0000      -0.910946       -24.7881
 137   2.0000      -0.909199       -24.7406
 138   2.0000      -0.903197       -24.5772
 139   2.0000      -0.894800       -24.3487
 140   2.0000      -0.879484       -23.9320
 141   2.0000      -0.873165       -23.7600
 142   2.0000      -0.872571       -23.7439
 143   2.0000      -0.867087       -23.5946
 144   2.0000      -0.862874       -23.4800
 145   2.0000      -0.851112       -23.1599
 146   2.0000      -0.845881       -23.0176
 147   2.0000      -0.834276       -22.7018
 148   2.0000      -0.826245       -22.4833
 149   2.0000      -0.809297       -22.0221
 150   2.0000      -0.801777       -21.8175
 151   2.0000      -0.793837       -21.6014
 152   2.0000      -0.793332       -21.5877
 153   2.0000      -0.792919       -21.5764
 154   2.0000      -0.788840       -21.4654
 155   2.0000      -0.783354       -21.3162
 156   2.0000      -0.775723       -21.1085
 157   2.0000      -0.765389       -20.8273
 158   2.0000      -0.756616       -20.5886
 159   2.0000      -0.754117       -20.5206
 160   2.0000      -0.752192       -20.4682
 161   2.0000      -0.747550       -20.3419
 162   2.0000      -0.742611       -20.2075
 163   2.0000      -0.742256       -20.1978
 164   2.0000      -0.737303       -20.0630
 165   2.0000      -0.733526       -19.9603
 166   2.0000      -0.725047       -19.7295
 167   2.0000      -0.719361       -19.5748
 168   2.0000      -0.718642       -19.5552
 169   2.0000      -0.714104       -19.4318
 170   2.0000      -0.712590       -19.3905
 171   2.0000      -0.705884       -19.2081
 172   2.0000      -0.704266       -19.1641
 173   2.0000      -0.698249       -19.0003
 174   2.0000      -0.693259       -18.8645
 175   2.0000      -0.689836       -18.7714
 176   2.0000      -0.680344       -18.5131
 177   2.0000      -0.678741       -18.4695
 178   2.0000      -0.673240       -18.3198
 179   2.0000      -0.670465       -18.2443
 180   2.0000      -0.665866       -18.1191
 181   2.0000      -0.664304       -18.0766
 182   2.0000      -0.660558       -17.9747
 183   2.0000      -0.658001       -17.9051
 184   2.0000      -0.655815       -17.8456
 185   2.0000      -0.645819       -17.5736
 186   2.0000      -0.644704       -17.5433
 187   2.0000      -0.642734       -17.4897
 188   2.0000      -0.637847       -17.3567
 189   2.0000      -0.632230       -17.2039
 190   2.0000      -0.631593       -17.1865
 191   2.0000      -0.627799       -17.0833
 192   2.0000      -0.627565       -17.0769
 193   2.0000      -0.625923       -17.0322
 194   2.0000      -0.623876       -16.9765
 195   2.0000      -0.622141       -16.9293
 196   2.0000      -0.620481       -16.8841
 197   2.0000      -0.615814       -16.7572
 198   2.0000      -0.611656       -16.6440
 199   2.0000      -0.606801       -16.5119
 200   2.0000      -0.603081       -16.4107
 201   2.0000      -0.596291       -16.2259
 202   2.0000      -0.587268       -15.9804
 203   2.0000      -0.585003       -15.9187
 204   2.0000      -0.584183       -15.8964
 205   2.0000      -0.581975       -15.8364
 206   2.0000      -0.581339       -15.8190
 207   2.0000      -0.580772       -15.8036
 208   2.0000      -0.579893       -15.7797
 209   2.0000      -0.578594       -15.7443
 210   2.0000      -0.574451       -15.6316
 211   2.0000      -0.572930       -15.5902
 212   2.0000      -0.570585       -15.5264
 213   2.0000      -0.568007       -15.4563
 214   2.0000      -0.564796       -15.3689
 215   2.0000      -0.563809       -15.3420
 216   2.0000      -0.561723       -15.2852
 217   2.0000      -0.557705       -15.1759
 218   2.0000      -0.549703       -14.9582
 219   2.0000      -0.546058       -14.8590
 220   2.0000      -0.543553       -14.7908
 221   2.0000      -0.542534       -14.7631
 222   2.0000      -0.541156       -14.7256
 223   2.0000      -0.539514       -14.6809
 224   2.0000      -0.538203       -14.6452
 225   2.0000      -0.535188       -14.5632
 226   2.0000      -0.531692       -14.4681
 227   2.0000      -0.528346       -14.3770
 228   2.0000      -0.520009       -14.1502
 229   2.0000      -0.515304       -14.0221
 230   2.0000      -0.512415       -13.9435
 231   2.0000      -0.510366       -13.8878
 232   2.0000      -0.507584       -13.8121
 233   2.0000      -0.504883       -13.7386
 234   2.0000      -0.500680       -13.6242
 235   2.0000      -0.499460       -13.5910
 236   2.0000      -0.497183       -13.5290
 237   2.0000      -0.491878       -13.3847
 238   2.0000      -0.489608       -13.3229
 239   2.0000      -0.484872       -13.1940
 240   2.0000      -0.478250       -13.0139
 241   2.0000      -0.476712       -12.9720
 242   2.0000      -0.475137       -12.9291
 243   2.0000      -0.471684       -12.8352
 244   2.0000      -0.470191       -12.7946
 245   2.0000      -0.461372       -12.5546
 246   2.0000      -0.458062       -12.4645
 247   2.0000      -0.452545       -12.3144
 248   2.0000      -0.436664       -11.8822
 249   2.0000      -0.419304       -11.4098
 250   2.0000      -0.414333       -11.2746
 251   2.0000      -0.399563       -10.8727
 252   2.0000      -0.395050       -10.7499
 253   2.0000      -0.389287       -10.5930
 254   2.0000      -0.387342       -10.5401
 255   2.0000      -0.365831        -9.9548
 256   2.0000      -0.360844        -9.8191
 257   2.0000      -0.356417        -9.6986
 258   2.0000      -0.347549        -9.4573
 259   2.0000      -0.333108        -9.0643
 260   2.0000      -0.315071        -8.5735
 261   2.0000      -0.308553        -8.3962
 262   2.0000      -0.260360        -7.0847
 263   0.0000      -0.033212        -0.9038
 264   0.0000      -0.019124        -0.5204
 265   0.0000       0.008198         0.2231
 266   0.0000       0.014949         0.4068
 267   0.0000       0.030406         0.8274

MULLIKEN ATOMIC CHARGES
-----------------------
   0 C :    0.473608
   1 O :   -0.345600
   2 C :   -0.157354
   3 C :   -0.028016
   4 C :    0.343626
   5 F :   -0.310445
   6 C :    0.354295
   7 F :   -0.307603
   8 C :   -0.052053
   9 C :   -0.044657
  10 C :    0.215396
  11 C :   -0.369516
  12 C :    0.040389
  13 N :   -0.042476
  14 C :    0.038426
  15 N :   -0.053765
  16 C :   -0.341557
  17 C :    0.212680
  18 C :   -0.281655
  19 S :    0.198372
  20 C :   -0.010488
  21 C :   -0.097535
  22 C :   -0.084133
  23 C :    0.025600
  24 C :   -0.046482
  25 S :    0.228134
  26 C :    0.028583
  27 C :    0.119588
  28 N :   -0.582768
  29 C :    0.110889
  30 C :   -0.032185
  31 C :    0.240341
  32 C :   -0.223861
  33 C :    0.155982
  34 N :   -0.474867
  35 S :    0.578150
  36 N :   -0.477303
  37 C :    0.154663
  38 C :   -0.225544
  39 C :    0.245960
  40 N :   -0.577634
  41 C :    0.098185
  42 C :   -0.048006
  43 C :    0.098398
  44 C :    0.035619
  45 S :    0.235059
  46 C :   -0.115368
  47 C :    0.020194
  48 S :    0.235877
  49 C :   -0.171289
  50 C :   -0.093227
  51 C :   -0.014228
  52 C :   -0.003752
  53 C :    0.085258
  54 C :   -0.332930
  55 C :    0.266830
  56 C :   -0.387571
  57 C :    0.030491
  58 N :   -0.066657
  59 C :    0.039641
  60 N :   -0.082419
  61 C :   -0.030235
  62 C :   -0.051984
  63 C :    0.354032
  64 F :   -0.309299
  65 C :    0.345276
  66 F :   -0.312940
  67 C :   -0.033372
  68 C :   -0.172335
  69 C :    0.533417
  70 O :   -0.405643
  71 H :    0.081158
  72 H :    0.093627
  73 H :    0.089781
  74 H :    0.056590
  75 H :    0.070775
  76 H :    0.057158
  77 H :    0.047519
  78 H :    0.057830
  79 H :    0.065835
  80 H :    0.051395
  81 H :    0.048697
  82 H :    0.057788
  83 H :    0.046934
  84 H :    0.070980
  85 H :    0.072869
  86 H :    0.051944
  87 H :    0.070815
  88 H :    0.044338
  89 H :    0.079747
  90 H :    0.056657
  91 H :    0.033323
  92 H :    0.056859
  93 H :    0.039795
  94 H :    0.081163
  95 H :    0.096867
  96 H :    0.075344
Sum of atomic charges:    0.0000000

LOEWDIN ATOMIC CHARGES
----------------------
   0 C :    0.164780
   1 O :   -0.225413
   2 C :   -0.055639
   3 C :    0.012994
   4 C :    0.122619
   5 F :   -0.108984
   6 C :    0.127529
   7 F :   -0.106933
   8 C :   -0.005422
   9 C :   -0.021515
  10 C :    0.101754
  11 C :   -0.162621
  12 C :    0.008801
  13 N :   -0.078637
  14 C :    0.008680
  15 N :   -0.084034
  16 C :   -0.149707
  17 C :    0.110134
  18 C :   -0.210922
  19 S :    0.415869
  20 C :   -0.171777
  21 C :   -0.193920
  22 C :   -0.001439
  23 C :   -0.012522
  24 C :   -0.026326
  25 S :    0.423796
  26 C :   -0.163566
  27 C :   -0.019958
  28 N :   -0.028572
  29 C :    0.073255
  30 C :   -0.034240
  31 C :    0.035159
  32 C :   -0.080207
  33 C :   -0.027846
  34 N :   -0.321339
  35 S :    0.617476
  36 N :   -0.324521
  37 C :   -0.023696
  38 C :   -0.098662
  39 C :    0.053825
  40 N :   -0.020869
  41 C :    0.072451
  42 C :   -0.039702
  43 C :   -0.036412
  44 C :   -0.145478
  45 S :    0.407424
  46 C :   -0.216699
  47 C :   -0.159949
  48 S :    0.471823
  49 C :   -0.225781
  50 C :    0.027149
  51 C :   -0.014152
  52 C :   -0.016338
  53 C :    0.118603
  54 C :   -0.183931
  55 C :    0.123636
  56 C :   -0.185250
  57 C :    0.011217
  58 N :   -0.095382
  59 C :    0.016847
  60 N :   -0.102858
  61 C :   -0.022529
  62 C :   -0.000828
  63 C :    0.123939
  64 F :   -0.108737
  65 C :    0.122571
  66 F :   -0.111054
  67 C :    0.008567
  68 C :   -0.050981
  69 C :    0.168983
  70 O :   -0.262749
  71 H :    0.056853
  72 H :    0.054559
  73 H :    0.052556
  74 H :    0.021939
  75 H :    0.035893
  76 H :    0.021297
  77 H :    0.024444
  78 H :    0.012898
  79 H :    0.021352
  80 H :    0.021719
  81 H :    0.024957
  82 H :    0.018351
  83 H :    0.025323
  84 H :    0.024433
  85 H :    0.026618
  86 H :    0.028168
  87 H :    0.017582
  88 H :    0.017197
  89 H :    0.034717
  90 H :    0.026520
  91 H :    0.016591
  92 H :    0.026766
  93 H :    0.020117
  94 H :    0.047735
  95 H :    0.055106
  96 H :    0.054525

  Mayer bond orders larger than 0.100000
B(  0-C ,  1-O ) :   2.1126 B(  0-C ,  2-C ) :   0.9477 B(  0-C , 16-C ) :   0.9881
B(  2-C ,  3-C ) :   1.3852 B(  2-C ,  9-C ) :   1.3651 B(  3-C ,  4-C ) :   1.3838
B(  3-C , 71-H ) :   1.0134 B(  4-C ,  5-F ) :   0.9370 B(  4-C ,  6-C ) :   1.3361
B(  6-C ,  7-F ) :   0.9439 B(  6-C ,  8-C ) :   1.4050 B(  8-C ,  9-C ) :   1.3789
B(  8-C , 72-H ) :   0.9935 B(  9-C , 10-C ) :   1.0441 B( 10-C , 11-C ) :   1.7061
B( 10-C , 16-C ) :   1.0817 B( 11-C , 12-C ) :   1.0860 B( 11-C , 14-C ) :   1.0524
B( 12-C , 13-N ) :   3.0070 B( 14-C , 15-N ) :   2.9952 B( 16-C , 17-C ) :   1.7235
B( 17-C , 18-C ) :   1.1290 B( 17-C , 73-H ) :   0.9446 B( 18-C , 19-S ) :   1.0714
B( 18-C , 22-C ) :   1.5914 B( 19-S , 20-C ) :   1.0369 B( 20-C , 21-C ) :   1.5240
B( 20-C , 27-C ) :   1.3539 B( 21-C , 22-C ) :   1.3935 B( 21-C , 25-S ) :   1.0022
B( 22-C , 23-C ) :   0.9738 B( 23-C , 24-C ) :   1.0366 B( 23-C , 74-H ) :   0.9686
B( 23-C , 75-H ) :   0.9613 B( 24-C , 76-H ) :   0.9834 B( 24-C , 77-H ) :   0.9855
B( 24-C , 78-H ) :   0.9791 B( 25-S , 26-C ) :   0.9904 B( 26-C , 27-C ) :   1.4762
B( 26-C , 32-C ) :   1.4156 B( 27-C , 28-N ) :   1.0845 B( 28-N , 29-C ) :   0.8517
B( 28-N , 31-C ) :   1.0907 B( 29-C , 30-C ) :   1.0514 B( 29-C , 79-H ) :   0.9720
B( 29-C , 80-H ) :   0.9813 B( 30-C , 81-H ) :   0.9802 B( 30-C , 82-H ) :   0.9788
B( 30-C , 83-H ) :   0.9836 B( 31-C , 32-C ) :   1.4635 B( 31-C , 39-C ) :   1.1530
B( 32-C , 33-C ) :   1.1239 B( 33-C , 34-N ) :   1.5911 B( 33-C , 37-C ) :   1.1340
B( 34-N , 35-S ) :   1.1931 B( 34-N , 36-N ) :   0.1013 B( 35-S , 36-N ) :   1.1899
B( 36-N , 37-C ) :   1.5903 B( 37-C , 38-C ) :   1.1247 B( 38-C , 39-C ) :   1.4334
B( 38-C , 44-C ) :   1.4373 B( 39-C , 40-N ) :   1.1359 B( 40-N , 41-C ) :   0.8365
B( 40-N , 43-C ) :   1.0749 B( 41-C , 42-C ) :   1.0335 B( 41-C , 84-H ) :   0.9849
B( 41-C , 85-H ) :   0.9782 B( 42-C , 86-H ) :   0.9843 B( 42-C , 87-H ) :   0.9770
B( 42-C , 88-H ) :   0.9788 B( 43-C , 44-C ) :   1.4519 B( 43-C , 47-C ) :   1.3737
B( 44-C , 45-S ) :   0.9919 B( 45-S , 46-C ) :   0.9755 B( 46-C , 47-C ) :   1.4471
B( 46-C , 50-C ) :   1.5314 B( 47-C , 48-S ) :   1.0253 B( 48-S , 49-C ) :   1.0222
B( 49-C , 50-C ) :   1.4284 B( 49-C , 53-C ) :   1.3674 B( 50-C , 51-C ) :   0.9785
B( 51-C , 52-C ) :   1.0394 B( 51-C , 89-H ) :   0.9571 B( 51-C , 90-H ) :   0.9675
B( 52-C , 91-H ) :   0.9862 B( 52-C , 92-H ) :   0.9863 B( 52-C , 93-H ) :   0.9815
B( 53-C , 54-C ) :   1.5308 B( 53-C , 94-H ) :   0.9573 B( 54-C , 55-C ) :   1.1413
B( 54-C , 69-C ) :   1.0041 B( 55-C , 56-C ) :   1.6521 B( 55-C , 61-C ) :   1.0367
B( 56-C , 57-C ) :   1.0675 B( 56-C , 59-C ) :   1.0747 B( 57-C , 58-N ) :   2.9841
B( 59-C , 60-N ) :   2.9719 B( 61-C , 62-C ) :   1.3797 B( 61-C , 68-C ) :   1.3708
B( 62-C , 63-C ) :   1.3988 B( 62-C , 95-H ) :   0.9903 B( 63-C , 64-F ) :   0.9440
B( 63-C , 65-C ) :   1.3430 B( 65-C , 66-F ) :   0.9339 B( 65-C , 67-C ) :   1.3749
B( 67-C , 68-C ) :   1.3924 B( 67-C , 96-H ) :   1.0143 B( 68-C , 69-C ) :   0.9861
B( 69-C , 70-O ) :   1.9911

-----------------------------------------------------------------------------
         ABSORPTION SPECTRUM VIA TRANSITION ELECTRIC DIPOLE MOMENTS
-----------------------------------------------------------------------------
State   Energy    Wavelength  fosc         T2        TX        TY        TZ
        (cm-1)      (nm)                 (au**2)    (au)      (au)      (au)
-----------------------------------------------------------------------------
   1   21688.0    461.1   2.464545974  37.41047  -3.77535   2.43041   4.15335
   2   26237.0    381.1   0.643614749   8.07584  -1.50467  -1.60845  -1.79574
   3   32861.1    304.3   0.055290671   0.55392  -0.64152   0.33717  -0.16935

FINAL SINGLE POINT ENERGY     -4951.792551899704

DIPOLE MOMENT
-------------
                                X             Y             Z
Electronic contribution:    -25.95724     -14.66428       0.28012
Nuclear contribution   :     25.86585      18.40956       0.59052
                        -----------------------------------------
Total Dipole Moment    :     -0.09139       3.74528       0.87064
                        -----------------------------------------
Magnitude (a.u.)       :      3.84623
Magnitude (Debye)      :      9.77633

Rotational constants in cm-1:     0.001687     0.000271     0.000244
Rotational constants in MHz :    50.562082     8.130185     7.319484

                             ****ORCA TERMINATED NORMALLY****
TOTAL RUN TIME: 0 days 12 hours 22 minutes 55 seconds 127 msec
