                         Program Version 4.2.0 -  RELEASE  -
|  1> # ORCA input file
|  2> # Y6.out: Geometry 184
|  3> ! Engrad Keepdens
|  4> %maxcore 1000
|  5> %tddft
|  6>   nroots 3
|  7>   # nroots is the number of states to be computed
|  8>   Iroot 1
|  9>   end
| 10> * xyz 0 1
| 11>    C        2.66734         3.95000         1.81746
| 12>    O        2.70140         4.19135         0.62820
| 13>    C        1.96722         4.73311         2.86767
| 14>    C        1.23032         5.90147         2.71096
| 15>    C        0.66812         6.46740         3.84933
| 16>    F       -0.04883         7.58522         3.76940
| 17>    C        0.84907         5.86672         5.10953
| 18>    F        0.29260         6.45292         6.16751
| 19>    C        1.58046         4.68872         5.26353
| 20>    C        2.14479         4.10882         4.11927
| 21>    C        2.89282         2.83977         3.91260
| 22>    C        2.92844         1.77783         4.80123
| 23>    C        3.34024         0.47889         4.38339
| 24>    N        3.66087        -0.58030         4.02808
| 25>    C        2.47165         1.87998         6.15023
| 26>    N        2.12545         1.96749         7.25645
| 27>    C        3.35919         2.82347         2.53727
| 28>    C        4.24544         2.07391         1.79145
| 29>    C        5.32957         1.18553         2.03895
| 30>    S        5.82015         0.22939         0.61555
| 31>    C        7.19791        -0.38732         1.44991
| 32>    C        7.26449         0.11928         2.76613
| 33>    C        6.22834         1.01566         3.11454
| 34>    C        6.26119         1.84028         4.37329
| 35>    C        6.37122         1.04582         5.68196
| 36>    S        8.74293        -0.36263         3.60956
| 37>    C        9.27479        -1.19256         2.17212
| 38>    C        8.34048        -1.15385         1.12444
| 39>    N        8.89135        -1.71691        -0.01544
| 40>    C        8.30581        -1.43867        -1.32712
| 41>    C        8.73730        -0.09501        -1.90971
| 42>    C       10.20700        -2.07234         0.28610
| 43>    C       10.46292        -1.75281         1.65568
| 44>    C       11.79040        -1.82349         2.19290
| 45>    N       12.16355        -1.58475         3.44216
| 46>    S       13.81611        -1.69106         3.48056
| 47>    N       14.08581        -2.04072         1.88465
| 48>    C       12.90045        -2.08652         1.29294
| 49>    C       12.62512        -2.39906        -0.07855
| 50>    C       11.28557        -2.50994        -0.55079
| 51>    N       11.29888        -2.92669        -1.88893
| 52>    C       10.30744        -3.85605        -2.46167
| 53>    C        9.80341        -3.48881        -3.85246
| 54>    C       12.63723        -2.98106        -2.28038
| 55>    C       13.46124        -2.65605        -1.18857
| 56>    S       15.15812        -2.59384        -1.57738
| 57>    C       14.75991        -3.01573        -3.24639
| 58>    C       13.37702        -3.21565        -3.46146
| 59>    S       13.03243        -3.60279        -5.11144
| 60>    C       14.75549        -3.44606        -5.53540
| 61>    C       15.54854        -3.12211        -4.40032
| 62>    C       17.01807        -2.80267        -4.40546
| 63>    C       17.27746        -1.29137        -4.49402
| 64>    C       15.31533        -3.57307        -6.82656
| 65>    C       14.79600        -3.86545        -8.07614
| 66>    C       15.54332        -3.93750        -9.33480
| 67>    C       16.88234        -3.65436        -9.55260
| 68>    C       17.49679        -3.74735       -10.84000
| 69>    N       18.02180        -3.81006       -11.87500
| 70>    C       17.78380        -3.23561        -8.52390
| 71>    N       18.53807        -2.89977        -7.70456
| 72>    C       14.58867        -4.36717       -10.39284
| 73>    C       14.74844        -4.64376       -11.75863
| 74>    C       13.62918        -5.06856       -12.47349
| 75>    F       13.72869        -5.36061       -13.76697
| 76>    C       12.36784        -5.21371       -11.86934
| 77>    F       11.34878        -5.63414       -12.61165
| 78>    C       12.19633        -4.92746       -10.52235
| 79>    C       13.31594        -4.51592        -9.81172
| 80>    C       13.38319        -4.19424        -8.36982
| 81>    O       12.43402        -4.21520        -7.60301
| 82>    H        1.08945         6.36137         1.73145
| 83>    H        1.68442         4.26836         6.26290
| 84>    H        4.09880         2.28726         0.72194
| 85>    H        5.39161         2.50450         4.40808
| 86>    H        7.14106         2.50523         4.28836
| 87>    H        5.54105         0.33734         5.79978
| 88>    H        6.36489         1.73607         6.53885
| 89>    H        7.30374         0.46416         5.73327
| 90>    H        7.21423        -1.47311        -1.19484
| 91>    H        8.54970        -2.25110        -2.01308
| 92>    H        9.81456        -0.08831        -2.13564
| 93>    H        8.51679         0.72454        -1.20933
| 94>    H        8.18896         0.10148        -2.84363
| 95>    H        9.47691        -3.92063        -1.74756
| 96>    H       10.76525        -4.85981        -2.48214
| 97>    H        9.00792        -4.18874        -4.14923
| 98>    H       10.59328        -3.55948        -4.61195
| 99>    H        9.39567        -2.46767        -3.88537
|100>    H       17.53954        -3.30814        -5.22917
|101>    H       17.45740        -3.19869        -3.47496
|102>    H       16.88977        -0.88532        -5.44043
|103>    H       18.35657        -1.08116        -4.45267
|104>    H       16.78842        -0.75460        -3.66804
|105>    H       16.38742        -3.39213        -6.80328
|106>    H       15.69397        -4.54853       -12.28959
|107>    H       11.22402        -5.03760       -10.04041
|108> *
|109>
|110>                          ****END OF INPUT****

CARTESIAN COORDINATES (ANGSTROEM)
---------------------------------
  C      2.667340    3.950000    1.817460
  O      2.701400    4.191350    0.628200
  C      1.967220    4.733110    2.867670
  C      1.230320    5.901470    2.710960
  C      0.668120    6.467400    3.849330
  F     -0.048830    7.585220    3.769400
  C      0.849070    5.866720    5.109530
  F      0.292600    6.452920    6.167510
  C      1.580460    4.688720    5.263530
  C      2.144790    4.108820    4.119270
  C      2.892820    2.839770    3.912600
  C      2.928440    1.777830    4.801230
  C      3.340240    0.478890    4.383390
  N      3.660870   -0.580300    4.028080
  C      2.471650    1.879980    6.150230
  N      2.125450    1.967490    7.256450
  C      3.359190    2.823470    2.537270
  C      4.245440    2.073910    1.791450
  C      5.329570    1.185530    2.038950
  S      5.820150    0.229390    0.615550
  C      7.197910   -0.387320    1.449910
  C      7.264490    0.119280    2.766130
  C      6.228340    1.015660    3.114540
  C      6.261190    1.840280    4.373290
  C      6.371220    1.045820    5.681960
  S      8.742930   -0.362630    3.609560
  C      9.274790   -1.192560    2.172120
  C      8.340480   -1.153850    1.124440
  N      8.891350   -1.716910   -0.015440
  C      8.305810   -1.438670   -1.327120
  C      8.737300   -0.095010   -1.909710
  C     10.207000   -2.072340    0.286100
  C     10.462920   -1.752810    1.655680
  C     11.790400   -1.823490    2.192900
  N     12.163550   -1.584750    3.442160
  S     13.816110   -1.691060    3.480560
  N     14.085810   -2.040720    1.884650
  C     12.900450   -2.086520    1.292940
  C     12.625120   -2.399060   -0.078550
  C     11.285570   -2.509940   -0.550790
  N     11.298880   -2.926690   -1.888930
  C     10.307440   -3.856050   -2.461670
  C      9.803410   -3.488810   -3.852460
  C     12.637230   -2.981060   -2.280380
  C     13.461240   -2.656050   -1.188570
  S     15.158120   -2.593840   -1.577380
  C     14.759910   -3.015730   -3.246390
  C     13.377020   -3.215650   -3.461460
  S     13.032430   -3.602790   -5.111440
  C     14.755490   -3.446060   -5.535400
  C     15.548540   -3.122110   -4.400320
  C     17.018070   -2.802670   -4.405460
  C     17.277460   -1.291370   -4.494020
  C     15.315330   -3.573070   -6.826560
  C     14.796000   -3.865450   -8.076140
  C     15.543320   -3.937500   -9.334800
  C     16.882340   -3.654360   -9.552600
  C     17.496790   -3.747350  -10.840000
  N     18.021800   -3.810060  -11.875000
  C     17.783800   -3.235610   -8.523900
  N     18.538070   -2.899770   -7.704560
  C     14.588670   -4.367170  -10.392840
  C     14.748440   -4.643760  -11.758630
  C     13.629180   -5.068560  -12.473490
  F     13.728690   -5.360610  -13.766970
  C     12.367840   -5.213710  -11.869340
  F     11.348780   -5.634140  -12.611650
  C     12.196330   -4.927460  -10.522350
  C     13.315940   -4.515920   -9.811720
  C     13.383190   -4.194240   -8.369820
  O     12.434020   -4.215200   -7.603010
  H      1.089450    6.361370    1.731450
  H      1.684420    4.268360    6.262900
  H      4.098800    2.287260    0.721940
  H      5.391610    2.504500    4.408080
  H      7.141060    2.505230    4.288360
  H      5.541050    0.337340    5.799780
  H      6.364890    1.736070    6.538850
  H      7.303740    0.464160    5.733270
  H      7.214230   -1.473110   -1.194840
  H      8.549700   -2.251100   -2.013080
  H      9.814560   -0.088310   -2.135640
  H      8.516790    0.724540   -1.209330
  H      8.188960    0.101480   -2.843630
  H      9.476910   -3.920630   -1.747560
  H     10.765250   -4.859810   -2.482140
  H      9.007920   -4.188740   -4.149230
  H     10.593280   -3.559480   -4.611950
  H      9.395670   -2.467670   -3.885370
  H     17.539540   -3.308140   -5.229170
  H     17.457400   -3.198690   -3.474960
  H     16.889770   -0.885320   -5.440430
  H     18.356570   -1.081160   -4.452670
  H     16.788420   -0.754600   -3.668040
  H     16.387420   -3.392130   -6.803280
  H     15.693970   -4.548530  -12.289590
  H     11.224020   -5.037600  -10.040410

 Total Charge           Charge          ....    0
 Multiplicity           Mult            ....    1
 Number of Electrons    NEL             ....  526
 Basis Dimension        Dim             .... 1144

ORBITAL ENERGIES
----------------

  NO   OCC          E(Eh)            E(eV)
   0   2.0000     -92.024782     -2504.1216
   1   2.0000     -91.988685     -2503.1394
   2   2.0000     -91.983443     -2502.9967
   3   2.0000     -91.982875     -2502.9813
   4   2.0000     -91.981601     -2502.9466
   5   2.0000     -26.340017      -716.7483
   6   2.0000     -26.339897      -716.7450
   7   2.0000     -26.338696      -716.7124
   8   2.0000     -26.336689      -716.6577
   9   2.0000     -20.573456      -559.8322
  10   2.0000     -20.573053      -559.8212
  11   2.0000     -15.662016      -426.1851
  12   2.0000     -15.656614      -426.0381
  13   2.0000     -15.626018      -425.2056
  14   2.0000     -15.625411      -425.1891
  15   2.0000     -15.604015      -424.6068
  16   2.0000     -15.601718      -424.5443
  17   2.0000     -15.599608      -424.4869
  18   2.0000     -15.596384      -424.3992
  19   2.0000     -11.383281      -309.7548
  20   2.0000     -11.381855      -309.7160
  21   2.0000     -11.381172      -309.6974
  22   2.0000     -11.379821      -309.6607
  23   2.0000     -11.372300      -309.4560
  24   2.0000     -11.372076      -309.4499
  25   2.0000     -11.354979      -308.9847
  26   2.0000     -11.354394      -308.9688
  27   2.0000     -11.342549      -308.6464
  28   2.0000     -11.340290      -308.5850
  29   2.0000     -11.334246      -308.4205
  30   2.0000     -11.331131      -308.3358
  31   2.0000     -11.330251      -308.3118
  32   2.0000     -11.328078      -308.2527
  33   2.0000     -11.324821      -308.1640
  34   2.0000     -11.322704      -308.1064
  35   2.0000     -11.321893      -308.0844
  36   2.0000     -11.321712      -308.0794
  37   2.0000     -11.321441      -308.0721
  38   2.0000     -11.319474      -308.0185
  39   2.0000     -11.318786      -307.9998
  40   2.0000     -11.317658      -307.9691
  41   2.0000     -11.317475      -307.9641
  42   2.0000     -11.314892      -307.8939
  43   2.0000     -11.314129      -307.8731
  44   2.0000     -11.313445      -307.8545
  45   2.0000     -11.313055      -307.8439
  46   2.0000     -11.311317      -307.7966
  47   2.0000     -11.309457      -307.7460
  48   2.0000     -11.309089      -307.7359
  49   2.0000     -11.308669      -307.7245
  50   2.0000     -11.308664      -307.7244
  51   2.0000     -11.305668      -307.6429
  52   2.0000     -11.302893      -307.5674
  53   2.0000     -11.302632      -307.5603
  54   2.0000     -11.302312      -307.5515
  55   2.0000     -11.301705      -307.5350
  56   2.0000     -11.301206      -307.5215
  57   2.0000     -11.299433      -307.4732
  58   2.0000     -11.298532      -307.4487
  59   2.0000     -11.295397      -307.3634
  60   2.0000     -11.292382      -307.2813
  61   2.0000     -11.289268      -307.1966
  62   2.0000     -11.287433      -307.1467
  63   2.0000     -11.286505      -307.1214
  64   2.0000     -11.281968      -306.9980
  65   2.0000     -11.271435      -306.7113
  66   2.0000     -11.268556      -306.6330
  67   2.0000     -11.264521      -306.5232
  68   2.0000     -11.263327      -306.4907
  69   2.0000     -11.247847      -306.0695
  70   2.0000     -11.247801      -306.0682
  71   2.0000      -9.055917      -246.4240
  72   2.0000      -9.023383      -245.5387
  73   2.0000      -9.017329      -245.3740
  74   2.0000      -9.015996      -245.3377
  75   2.0000      -9.015368      -245.3206
  76   2.0000      -6.743075      -183.4884
  77   2.0000      -6.741360      -183.4417
  78   2.0000      -6.739558      -183.3927
  79   2.0000      -6.710996      -182.6155
  80   2.0000      -6.709853      -182.5844
  81   2.0000      -6.707829      -182.5293
  82   2.0000      -6.704833      -182.4478
  83   2.0000      -6.703996      -182.4250
  84   2.0000      -6.703216      -182.4038
  85   2.0000      -6.702859      -182.3941
  86   2.0000      -6.702011      -182.3710
  87   2.0000      -6.702008      -182.3709
  88   2.0000      -6.701697      -182.3624
  89   2.0000      -6.699982      -182.3158
  90   2.0000      -6.699697      -182.3080
  91   2.0000      -1.652758       -44.9738
  92   2.0000      -1.652706       -44.9724
  93   2.0000      -1.636818       -44.5401
  94   2.0000      -1.636217       -44.5237
  95   2.0000      -1.402343       -38.1597
  96   2.0000      -1.402071       -38.1523
  97   2.0000      -1.355877       -36.8953
  98   2.0000      -1.343345       -36.5543
  99   2.0000      -1.335268       -36.3345
 100   2.0000      -1.249997       -34.0142
 101   2.0000      -1.249590       -34.0031
 102   2.0000      -1.231314       -33.5058
 103   2.0000      -1.230329       -33.4790
 104   2.0000      -1.228759       -33.4362
 105   2.0000      -1.227811       -33.4104
 106   2.0000      -1.224851       -33.3299
 107   2.0000      -1.223780       -33.3007
 108   2.0000      -1.200302       -32.6619
 109   2.0000      -1.174458       -31.9586
 110   2.0000      -1.171788       -31.8860
 111   2.0000      -1.167969       -31.7821
 112   2.0000      -1.155203       -31.4347
 113   2.0000      -1.147175       -31.2162
 114   2.0000      -1.109653       -30.1952
 115   2.0000      -1.102407       -29.9980
 116   2.0000      -1.097929       -29.8762
 117   2.0000      -1.091044       -29.6888
 118   2.0000      -1.088365       -29.6159
 119   2.0000      -1.081803       -29.4373
 120   2.0000      -1.071981       -29.1701
 121   2.0000      -1.071216       -29.1493
 122   2.0000      -1.070189       -29.1213
 123   2.0000      -1.068167       -29.0663
 124   2.0000      -1.039164       -28.2771
 125   2.0000      -1.035366       -28.1738
 126   2.0000      -1.014425       -27.6039
 127   2.0000      -1.013224       -27.5712
 128   2.0000      -1.003949       -27.3188
 129   2.0000      -0.994596       -27.0643
 130   2.0000      -0.973995       -26.5038
 131   2.0000      -0.965665       -26.2771
 132   2.0000      -0.959966       -26.1220
 133   2.0000      -0.942833       -25.6558
 134   2.0000      -0.940216       -25.5846
 135   2.0000      -0.934385       -25.4259
 136   2.0000      -0.909586       -24.7511
 137   2.0000      -0.905167       -24.6309
 138   2.0000      -0.899118       -24.4662
 139   2.0000      -0.891805       -24.2673
 140   2.0000      -0.876614       -23.8539
 141   2.0000      -0.871613       -23.7178
 142   2.0000      -0.868871       -23.6432
 143   2.0000      -0.864675       -23.5290
 144   2.0000      -0.861233       -23.4353
 145   2.0000      -0.848407       -23.0863
 146   2.0000      -0.842240       -22.9185
 147   2.0000      -0.830552       -22.6005
 148   2.0000      -0.821987       -22.3674
 149   2.0000      -0.810150       -22.0453
 150   2.0000      -0.803127       -21.8542
 151   2.0000      -0.793863       -21.6021
 152   2.0000      -0.791722       -21.5439
 153   2.0000      -0.788877       -21.4664
 154   2.0000      -0.788065       -21.4444
 155   2.0000      -0.783210       -21.3122
 156   2.0000      -0.773180       -21.0393
 157   2.0000      -0.763751       -20.7827
 158   2.0000      -0.757572       -20.6146
 159   2.0000      -0.751878       -20.4596
 160   2.0000      -0.749635       -20.3986
 161   2.0000      -0.747373       -20.3371
 162   2.0000      -0.747069       -20.3288
 163   2.0000      -0.740200       -20.1419
 164   2.0000      -0.733769       -19.9669
 165   2.0000      -0.730018       -19.8648
 166   2.0000      -0.724691       -19.7198
 167   2.0000      -0.719155       -19.5692
 168   2.0000      -0.718363       -19.5477
 169   2.0000      -0.716878       -19.5072
 170   2.0000      -0.710025       -19.3208
 171   2.0000      -0.704229       -19.1630
 172   2.0000      -0.700996       -19.0751
 173   2.0000      -0.695769       -18.9328
 174   2.0000      -0.691000       -18.8031
 175   2.0000      -0.682498       -18.5717
 176   2.0000      -0.678506       -18.4631
 177   2.0000      -0.674051       -18.3418
 178   2.0000      -0.667492       -18.1634
 179   2.0000      -0.665607       -18.1121
 180   2.0000      -0.664795       -18.0900
 181   2.0000      -0.660281       -17.9672
 182   2.0000      -0.658766       -17.9259
 183   2.0000      -0.654971       -17.8227
 184   2.0000      -0.651195       -17.7199
 185   2.0000      -0.643863       -17.5204
 186   2.0000      -0.638881       -17.3848
 187   2.0000      -0.638038       -17.3619
 188   2.0000      -0.634803       -17.2739
 189   2.0000      -0.629948       -17.1418
 190   2.0000      -0.626977       -17.0609
 191   2.0000      -0.625517       -17.0212
 192   2.0000      -0.623821       -16.9750
 193   2.0000      -0.622747       -16.9458
 194   2.0000      -0.621117       -16.9015
 195   2.0000      -0.620659       -16.8890
 196   2.0000      -0.616691       -16.7810
 197   2.0000      -0.613448       -16.6928
 198   2.0000      -0.608452       -16.5568
 199   2.0000      -0.601235       -16.3604
 200   2.0000      -0.598360       -16.2822
 201   2.0000      -0.595260       -16.1978
 202   2.0000      -0.587780       -15.9943
 203   2.0000      -0.585571       -15.9342
 204   2.0000      -0.583581       -15.8800
 205   2.0000      -0.582997       -15.8642
 206   2.0000      -0.579395       -15.7661
 207   2.0000      -0.578050       -15.7295
 208   2.0000      -0.577662       -15.7190
 209   2.0000      -0.576072       -15.6757
 210   2.0000      -0.573537       -15.6067
 211   2.0000      -0.572833       -15.5876
 212   2.0000      -0.567257       -15.4359
 213   2.0000      -0.565855       -15.3977
 214   2.0000      -0.563638       -15.3374
 215   2.0000      -0.560914       -15.2632
 216   2.0000      -0.558721       -15.2036
 217   2.0000      -0.556588       -15.1455
 218   2.0000      -0.551876       -15.0173
 219   2.0000      -0.545318       -14.8389
 220   2.0000      -0.542525       -14.7629
 221   2.0000      -0.540226       -14.7003
 222   2.0000      -0.539039       -14.6680
 223   2.0000      -0.537282       -14.6202
 224   2.0000      -0.534909       -14.5556
 225   2.0000      -0.532063       -14.4782
 226   2.0000      -0.529225       -14.4009
 227   2.0000      -0.521775       -14.1982
 228   2.0000      -0.515432       -14.0256
 229   2.0000      -0.511880       -13.9290
 230   2.0000      -0.509160       -13.8550
 231   2.0000      -0.507485       -13.8094
 232   2.0000      -0.505693       -13.7606
 233   2.0000      -0.501151       -13.6370
 234   2.0000      -0.499954       -13.6044
 235   2.0000      -0.498187       -13.5564
 236   2.0000      -0.496432       -13.5086
 237   2.0000      -0.491799       -13.3825
 238   2.0000      -0.490347       -13.3430
 239   2.0000      -0.485166       -13.2020
 240   2.0000      -0.479928       -13.0595
 241   2.0000      -0.479157       -13.0385
 242   2.0000      -0.478043       -13.0082
 243   2.0000      -0.475601       -12.9418
 244   2.0000      -0.470594       -12.8055
 245   2.0000      -0.461785       -12.5658
 246   2.0000      -0.456631       -12.4256
 247   2.0000      -0.451406       -12.2834
 248   2.0000      -0.444844       -12.1048
 249   2.0000      -0.420868       -11.4524
 250   2.0000      -0.413420       -11.2497
 251   2.0000      -0.395986       -10.7753
 252   2.0000      -0.393199       -10.6995
 253   2.0000      -0.389968       -10.6116
 254   2.0000      -0.387913       -10.5556
 255   2.0000      -0.363839        -9.9006
 256   2.0000      -0.361459        -9.8358
 257   2.0000      -0.357318        -9.7231
 258   2.0000      -0.348381        -9.4799
 259   2.0000      -0.337829        -9.1928
 260   2.0000      -0.323345        -8.7987
 261   2.0000      -0.311342        -8.4721
 262   2.0000      -0.266428        -7.2499
 263   0.0000      -0.037257        -1.0138
 264   0.0000      -0.021310        -0.5799
 265   0.0000       0.005604         0.1525
 266   0.0000       0.013679         0.3722
 267   0.0000       0.024995         0.6801

MULLIKEN ATOMIC CHARGES
-----------------------
   0 C :    0.455761
   1 O :   -0.359176
   2 C :   -0.156480
   3 C :   -0.031939
   4 C :    0.340991
   5 F :   -0.303664
   6 C :    0.344545
   7 F :   -0.302246
   8 C :   -0.059654
   9 C :   -0.043848
  10 C :    0.223712
  11 C :   -0.360301
  12 C :    0.044188
  13 N :   -0.064777
  14 C :    0.054962
  15 N :   -0.078888
  16 C :   -0.338309
  17 C :    0.183639
  18 C :   -0.234380
  19 S :    0.176262
  20 C :   -0.023063
  21 C :   -0.122494
  22 C :   -0.030598
  23 C :   -0.008349
  24 C :   -0.058618
  25 S :    0.223626
  26 C :    0.004525
  27 C :    0.157031
  28 N :   -0.600018
  29 C :    0.132316
  30 C :   -0.051524
  31 C :    0.229513
  32 C :   -0.185132
  33 C :    0.149830
  34 N :   -0.463830
  35 S :    0.547275
  36 N :   -0.465238
  37 C :    0.162325
  38 C :   -0.222000
  39 C :    0.253045
  40 N :   -0.598857
  41 C :    0.100810
  42 C :   -0.062819
  43 C :    0.118268
  44 C :    0.017450
  45 S :    0.240433
  46 C :   -0.117452
  47 C :    0.016657
  48 S :    0.223025
  49 C :   -0.160612
  50 C :   -0.091541
  51 C :   -0.025220
  52 C :   -0.019713
  53 C :    0.087757
  54 C :   -0.317359
  55 C :    0.249210
  56 C :   -0.358324
  57 C :    0.042517
  58 N :   -0.083630
  59 C :    0.057998
  60 N :   -0.105200
  61 C :   -0.025115
  62 C :   -0.054682
  63 C :    0.343060
  64 F :   -0.301838
  65 C :    0.345716
  66 F :   -0.303383
  67 C :   -0.037095
  68 C :   -0.184532
  69 C :    0.514865
  70 O :   -0.392918
  71 H :    0.089555
  72 H :    0.102919
  73 H :    0.099031
  74 H :    0.063417
  75 H :    0.076369
  76 H :    0.066038
  77 H :    0.053561
  78 H :    0.056485
  79 H :    0.064997
  80 H :    0.044987
  81 H :    0.057173
  82 H :    0.058476
  83 H :    0.053312
  84 H :    0.063084
  85 H :    0.068302
  86 H :    0.056694
  87 H :    0.084383
  88 H :    0.048301
  89 H :    0.076856
  90 H :    0.062002
  91 H :    0.040759
  92 H :    0.062455
  93 H :    0.045056
  94 H :    0.077117
  95 H :    0.106335
  96 H :    0.085836
Sum of atomic charges:    0.0000000

LOEWDIN ATOMIC CHARGES
----------------------
   0 C :    0.171156
   1 O :   -0.234207
   2 C :   -0.057135
   3 C :    0.006460
   4 C :    0.118892
   5 F :   -0.102468
   6 C :    0.123877
   7 F :   -0.102333
   8 C :   -0.011474
   9 C :   -0.019545
  10 C :    0.109532
  11 C :   -0.171273
  12 C :    0.013967
  13 N :   -0.086037
  14 C :    0.014392
  15 N :   -0.094755
  16 C :   -0.161630
  17 C :    0.105611
  18 C :   -0.206731
  19 S :    0.405514
  20 C :   -0.167428
  21 C :   -0.195675
  22 C :    0.022644
  23 C :   -0.018627
  24 C :   -0.031801
  25 S :    0.409879
  26 C :   -0.157629
  27 C :   -0.018820
  28 N :   -0.033683
  29 C :    0.074660
  30 C :   -0.040647
  31 C :    0.043582
  32 C :   -0.085752
  33 C :   -0.021053
  34 N :   -0.309411
  35 S :    0.588436
  36 N :   -0.309558
  37 C :   -0.022519
  38 C :   -0.087886
  39 C :    0.052780
  40 N :   -0.060180
  41 C :    0.078522
  42 C :   -0.045795
  43 C :   -0.027132
  44 C :   -0.146129
  45 S :    0.404826
  46 C :   -0.213407
  47 C :   -0.158466
  48 S :    0.457742
  49 C :   -0.220789
  50 C :    0.028802
  51 C :   -0.018414
  52 C :   -0.021861
  53 C :    0.117249
  54 C :   -0.178642
  55 C :    0.129652
  56 C :   -0.184010
  57 C :    0.016652
  58 N :   -0.099447
  59 C :    0.025881
  60 N :   -0.108956
  61 C :   -0.022988
  62 C :   -0.006391
  63 C :    0.119831
  64 F :   -0.101742
  65 C :    0.120033
  66 F :   -0.101573
  67 C :    0.003098
  68 C :   -0.053200
  69 C :    0.169251
  70 O :   -0.257975
  71 H :    0.059745
  72 H :    0.056855
  73 H :    0.054804
  74 H :    0.023523
  75 H :    0.039853
  76 H :    0.026119
  77 H :    0.027490
  78 H :    0.014705
  79 H :    0.022767
  80 H :    0.020755
  81 H :    0.025635
  82 H :    0.024889
  83 H :    0.029098
  84 H :    0.022423
  85 H :    0.026426
  86 H :    0.032814
  87 H :    0.016637
  88 H :    0.021188
  89 H :    0.031749
  90 H :    0.030620
  91 H :    0.021535
  92 H :    0.029961
  93 H :    0.018090
  94 H :    0.048780
  95 H :    0.057556
  96 H :    0.058241

  Mayer bond orders larger than 0.100000
B(  0-C ,  1-O ) :   2.0747 B(  0-C ,  2-C ) :   0.9549 B(  0-C , 16-C ) :   1.0059
B(  2-C ,  3-C ) :   1.3770 B(  2-C ,  9-C ) :   1.3825 B(  3-C ,  4-C ) :   1.3959
B(  3-C , 71-H ) :   1.0060 B(  4-C ,  5-F ) :   0.9426 B(  4-C ,  6-C ) :   1.3240
B(  6-C ,  7-F ) :   0.9468 B(  6-C ,  8-C ) :   1.4198 B(  8-C ,  9-C ) :   1.3712
B(  8-C , 72-H ) :   0.9875 B(  9-C , 10-C ) :   1.0375 B( 10-C , 11-C ) :   1.6829
B( 10-C , 16-C ) :   1.0942 B( 11-C , 12-C ) :   1.0863 B( 11-C , 14-C ) :   1.0398
B( 12-C , 13-N ) :   2.9680 B( 14-C , 15-N ) :   2.9891 B( 16-C , 17-C ) :   1.6940
B( 17-C , 18-C ) :   1.1802 B( 17-C , 73-H ) :   0.9302 B( 18-C , 19-S ) :   1.0766
B( 18-C , 22-C ) :   1.5402 B( 19-S , 20-C ) :   1.0602 B( 20-C , 21-C ) :   1.5012
B( 20-C , 27-C ) :   1.3176 B( 21-C , 22-C ) :   1.3970 B( 21-C , 25-S ) :   1.0044
B( 22-C , 23-C ) :   0.9690 B( 23-C , 24-C ) :   1.0380 B( 23-C , 74-H ) :   0.9728
B( 23-C , 75-H ) :   0.9575 B( 24-C , 76-H ) :   0.9825 B( 24-C , 77-H ) :   0.9839
B( 24-C , 78-H ) :   0.9806 B( 25-S , 26-C ) :   1.0008 B( 26-C , 27-C ) :   1.4626
B( 26-C , 32-C ) :   1.4153 B( 27-C , 28-N ) :   1.0793 B( 28-N , 29-C ) :   0.8484
B( 28-N , 31-C ) :   1.1081 B( 29-C , 30-C ) :   1.0363 B( 29-C , 79-H ) :   0.9761
B( 29-C , 80-H ) :   0.9828 B( 30-C , 81-H ) :   0.9781 B( 30-C , 82-H ) :   0.9796
B( 30-C , 83-H ) :   0.9824 B( 31-C , 32-C ) :   1.4579 B( 31-C , 39-C ) :   1.1565
B( 32-C , 33-C ) :   1.1096 B( 33-C , 34-N ) :   1.6179 B( 33-C , 37-C ) :   1.1050
B( 34-N , 35-S ) :   1.1604 B( 34-N , 36-N ) :   0.1033 B( 35-S , 36-N ) :   1.1603
B( 36-N , 37-C ) :   1.6223 B( 37-C , 38-C ) :   1.1064 B( 38-C , 39-C ) :   1.4936
B( 38-C , 44-C ) :   1.3956 B( 39-C , 40-N ) :   1.0887 B( 40-N , 41-C ) :   0.8316
B( 40-N , 43-C ) :   1.0488 B( 41-C , 42-C ) :   1.0348 B( 41-C , 84-H ) :   0.9865
B( 41-C , 85-H ) :   0.9756 B( 42-C , 86-H ) :   0.9810 B( 42-C , 87-H ) :   0.9789
B( 42-C , 88-H ) :   0.9788 B( 43-C , 44-C ) :   1.4867 B( 43-C , 47-C ) :   1.3656
B( 44-C , 45-S ) :   0.9974 B( 45-S , 46-C ) :   0.9887 B( 46-C , 47-C ) :   1.4631
B( 46-C , 50-C ) :   1.4789 B( 47-C , 48-S ) :   1.0250 B( 48-S , 49-C ) :   1.0322
B( 49-C , 50-C ) :   1.4553 B( 49-C , 53-C ) :   1.3363 B( 50-C , 51-C ) :   0.9870
B( 51-C , 52-C ) :   1.0328 B( 51-C , 89-H ) :   0.9586 B( 51-C , 90-H ) :   0.9655
B( 52-C , 91-H ) :   0.9820 B( 52-C , 92-H ) :   0.9856 B( 52-C , 93-H ) :   0.9838
B( 53-C , 54-C ) :   1.5700 B( 53-C , 94-H ) :   0.9555 B( 54-C , 55-C ) :   1.1312
B( 54-C , 69-C ) :   0.9904 B( 55-C , 56-C ) :   1.6585 B( 55-C , 61-C ) :   1.0379
B( 56-C , 57-C ) :   1.0584 B( 56-C , 59-C ) :   1.0653 B( 57-C , 58-N ) :   2.9801
B( 59-C , 60-N ) :   2.9662 B( 61-C , 62-C ) :   1.3626 B( 61-C , 68-C ) :   1.3896
B( 62-C , 63-C ) :   1.4224 B( 62-C , 95-H ) :   0.9851 B( 63-C , 64-F ) :   0.9482
B( 63-C , 65-C ) :   1.3248 B( 65-C , 66-F ) :   0.9433 B( 65-C , 67-C ) :   1.3910
B( 67-C , 68-C ) :   1.3788 B( 67-C , 96-H ) :   1.0073 B( 68-C , 69-C ) :   0.9844
B( 69-C , 70-O ) :   2.0281

-----------------------------------------------------------------------------
         ABSORPTION SPECTRUM VIA TRANSITION ELECTRIC DIPOLE MOMENTS
-----------------------------------------------------------------------------
State   Energy    Wavelength  fosc         T2        TX        TY        TZ
        (cm-1)      (nm)                 (au**2)    (au)      (au)      (au)
-----------------------------------------------------------------------------
   1   21741.2    460.0   2.688512776  40.71027   4.12198  -2.16440  -4.36290
   2   26670.7    374.9   0.514858307   6.35519   1.30810  -0.62855   2.06130
   3   32686.7    305.9   0.086127089   0.86745  -0.05078   0.31845  -0.87376

FINAL SINGLE POINT ENERGY     -4951.787365308031

DIPOLE MOMENT
-------------
                                X             Y             Z
Electronic contribution:    -18.14085       4.71551      -6.67847
Nuclear contribution   :     18.14427      -4.89251       7.16667
                        -----------------------------------------
Total Dipole Moment    :      0.00342      -0.17700       0.48820
                        -----------------------------------------
Magnitude (a.u.)       :      0.51930
Magnitude (Debye)      :      1.31996

Rotational constants in cm-1:     0.001596     0.000261     0.000235
Rotational constants in MHz :    47.853381     7.822356     7.055460

                             ****ORCA TERMINATED NORMALLY****
TOTAL RUN TIME: 0 days 12 hours 41 minutes 38 seconds 896 msec
