                         Program Version 4.2.0 -  RELEASE  -
|  1> # ORCA input file
|  2> # ZY-4Cl.out
|  3> ! Engrad Keepdens
|  4> %maxcore 1000
|  5> %tddft
|  6>   nroots 3
|  7>   # nroots is the number of states to be computed
|  8>   Iroot 1
|  9>   end
| 10> * xyz 0 1
| 11>    C        3.70479         1.04375        -2.55570
| 12>    O        4.82646         1.47172        -2.76179
| 13>    C        2.61282         0.94039        -3.55852
| 14>    C        2.61823         1.29295        -4.89298
| 15>    C        1.45567         1.09072        -5.63023
| 16>   Cl        1.42649         1.51893        -7.29439
| 17>    C        0.31506         0.54424        -5.03299
| 18>   Cl       -1.10533         0.30038        -5.96884
| 19>    C        0.31613         0.19051        -3.68671
| 20>    C        1.47103         0.39499        -2.95960
| 21>    C        1.75185         0.11847        -1.52520
| 22>    O        0.99254        -0.34896        -0.70571
| 23>    C        3.15011         0.53186        -1.30957
| 24>    C        3.73401         0.41381        -0.07724
| 25>    C        5.03002         0.73145         0.34643
| 26>    S        6.27603         1.35767        -0.73365
| 27>    C        7.39931         1.40914         0.57020
| 28>    C        6.82429         0.96791         1.77478
| 29>    C        5.49466         0.58023         1.66083
| 30>    C        4.67721         0.11979         2.82286
| 31>    C        3.86039         1.27773         3.40285
| 32>    S        7.93301         0.98845         3.13273
| 33>    C        9.16743         1.57664         2.07458
| 34>    C        8.73931         1.76714         0.75319
| 35>    N        9.78599         2.19837        -0.01573
| 36>    C        9.69450         2.15865        -1.45996
| 37>    C        8.88489         3.32654        -2.02426
| 38>    C       10.89670         2.29449         0.79757
| 39>    C       10.53523         1.87394         2.11204
| 40>    C       11.50133         1.68384         3.12911
| 41>    N       11.32342         1.27325         4.37452
| 42>    S       12.77100         1.11457         5.07734
| 43>    N       13.68738         1.56446         3.81870
| 44>    C       12.88682         1.85806         2.80571
| 45>    C       13.22701         2.34718         1.52509
| 46>    C       12.24102         2.67236         0.54644
| 47>    N       12.86758         3.25131        -0.53619
| 48>    C       12.30883         4.20900        -1.46741
| 49>    C       12.55812         5.63857        -0.98885
| 50>    C       14.22388         3.24156        -0.29214
| 51>    C       14.45775         2.68506         0.96343
| 52>    S       16.11811         2.59820         1.38593
| 53>    C       16.56145         3.30431        -0.19206
| 54>    C       15.39338         3.60656        -0.99883
| 55>    S       15.43544         4.25706        -2.53303
| 56>    C       18.87421         3.13261         0.45323
| 57>    C       17.88866         3.48400        -0.49229
| 58>    C       18.35521         4.04674        -1.80169
| 59>    C       19.86457         4.14424        -1.96009
| 60>    C       20.08999         2.99548         0.90853
| 61>    C       19.02305         2.56417         1.88043
| 62>    C       18.69154         1.13174         2.15577
| 63>    O       18.97317         0.17867         1.47229
| 64>    C       17.91443         1.14933         3.41983
| 65>    C       17.21101         0.11865         4.01396
| 66>    C       16.43436         0.40933         5.12823
| 67>   Cl       15.50294        -0.83281         5.85665
| 68>    C       16.38510         1.70681         5.64853
| 69>   Cl       15.39418         2.03852         7.00854
| 70>    C       17.10972         2.73651         5.06233
| 71>    C       17.86326         2.44953         3.93983
| 72>    C       18.60123         3.38577         3.05677
| 73>    O       18.79393         4.56474         3.22312
| 74>    H        3.49761         1.71475        -5.35364
| 75>    H       -0.56339        -0.23117        -3.22629
| 76>    H        3.07838         0.00580         0.68627
| 77>    H        5.35503        -0.25967         3.59009
| 78>    H        4.00811        -0.68882         2.52527
| 79>    H        4.52048         2.08008         3.72372
| 80>    H        3.28865         0.93539         4.26116
| 81>    H        3.17111         1.67238         2.66003
| 82>    H        9.18961         1.22549        -1.73302
| 83>    H       10.70257         2.12160        -1.87470
| 84>    H        7.82921         3.19300        -1.80661
| 85>    H        9.00619         3.36699        -3.10276
| 86>    H        9.19893         4.27717        -1.59843
| 87>    H       11.24088         4.05291        -1.55166
| 88>    H       12.78406         4.05828        -2.44009
| 89>    H       12.14121         5.78502         0.00584
| 90>    H       12.08625         6.33631        -1.67492
| 91>    H       13.62203         5.85692        -0.95815
| 92>    H       17.90481         5.03745        -1.92705
| 93>    H       17.94000         3.42809        -2.60425
| 94>    H       20.29389         4.79900        -1.20651
| 95>    H       20.09367         4.55281        -2.94116
| 96>    H       20.32709         3.16407        -1.87977
| 97>    H       21.14509         3.06444         0.82820
| 98>    H       17.24088        -0.87921         3.60515
| 99>    H       17.06255         3.74001         5.45516
|100> *
|101>
|102>                          ****END OF INPUT****

CARTESIAN COORDINATES (ANGSTROEM)
---------------------------------
  C      3.704790    1.043750   -2.555700
  O      4.826460    1.471720   -2.761790
  C      2.612820    0.940390   -3.558520
  C      2.618230    1.292950   -4.892980
  C      1.455670    1.090720   -5.630230
  Cl     1.426490    1.518930   -7.294390
  C      0.315060    0.544240   -5.032990
  Cl    -1.105330    0.300380   -5.968840
  C      0.316130    0.190510   -3.686710
  C      1.471030    0.394990   -2.959600
  C      1.751850    0.118470   -1.525200
  O      0.992540   -0.348960   -0.705710
  C      3.150110    0.531860   -1.309570
  C      3.734010    0.413810   -0.077240
  C      5.030020    0.731450    0.346430
  S      6.276030    1.357670   -0.733650
  C      7.399310    1.409140    0.570200
  C      6.824290    0.967910    1.774780
  C      5.494660    0.580230    1.660830
  C      4.677210    0.119790    2.822860
  C      3.860390    1.277730    3.402850
  S      7.933010    0.988450    3.132730
  C      9.167430    1.576640    2.074580
  C      8.739310    1.767140    0.753190
  N      9.785990    2.198370   -0.015730
  C      9.694500    2.158650   -1.459960
  C      8.884890    3.326540   -2.024260
  C     10.896700    2.294490    0.797570
  C     10.535230    1.873940    2.112040
  C     11.501330    1.683840    3.129110
  N     11.323420    1.273250    4.374520
  S     12.771000    1.114570    5.077340
  N     13.687380    1.564460    3.818700
  C     12.886820    1.858060    2.805710
  C     13.227010    2.347180    1.525090
  C     12.241020    2.672360    0.546440
  N     12.867580    3.251310   -0.536190
  C     12.308830    4.209000   -1.467410
  C     12.558120    5.638570   -0.988850
  C     14.223880    3.241560   -0.292140
  C     14.457750    2.685060    0.963430
  S     16.118110    2.598200    1.385930
  C     16.561450    3.304310   -0.192060
  C     15.393380    3.606560   -0.998830
  S     15.435440    4.257060   -2.533030
  C     18.874210    3.132610    0.453230
  C     17.888660    3.484000   -0.492290
  C     18.355210    4.046740   -1.801690
  C     19.864570    4.144240   -1.960090
  C     20.089990    2.995480    0.908530
  C     19.023050    2.564170    1.880430
  C     18.691540    1.131740    2.155770
  O     18.973170    0.178670    1.472290
  C     17.914430    1.149330    3.419830
  C     17.211010    0.118650    4.013960
  C     16.434360    0.409330    5.128230
  Cl    15.502940   -0.832810    5.856650
  C     16.385100    1.706810    5.648530
  Cl    15.394180    2.038520    7.008540
  C     17.109720    2.736510    5.062330
  C     17.863260    2.449530    3.939830
  C     18.601230    3.385770    3.056770
  O     18.793930    4.564740    3.223120
  H      3.497610    1.714750   -5.353640
  H     -0.563390   -0.231170   -3.226290
  H      3.078380    0.005800    0.686270
  H      5.355030   -0.259670    3.590090
  H      4.008110   -0.688820    2.525270
  H      4.520480    2.080080    3.723720
  H      3.288650    0.935390    4.261160
  H      3.171110    1.672380    2.660030
  H      9.189610    1.225490   -1.733020
  H     10.702570    2.121600   -1.874700
  H      7.829210    3.193000   -1.806610
  H      9.006190    3.366990   -3.102760
  H      9.198930    4.277170   -1.598430
  H     11.240880    4.052910   -1.551660
  H     12.784060    4.058280   -2.440090
  H     12.141210    5.785020    0.005840
  H     12.086250    6.336310   -1.674920
  H     13.622030    5.856920   -0.958150
  H     17.904810    5.037450   -1.927050
  H     17.940000    3.428090   -2.604250
  H     20.293890    4.799000   -1.206510
  H     20.093670    4.552810   -2.941160
  H     20.327090    3.164070   -1.879770
  H     21.145090    3.064440    0.828200
  H     17.240880   -0.879210    3.605150
  H     17.062550    3.740010    5.455160

 Total Charge           Charge          ....    0
 Multiplicity           Mult            ....    1
 Number of Electrons    NEL             ....  510
 Basis Dimension        Dim             .... 1048

ORBITAL ENERGIES
----------------

  NO   OCC          E(Eh)            E(eV)
   0   2.0000    -104.817917     -2852.2405
   1   2.0000    -104.817347     -2852.2250
   2   2.0000    -104.817176     -2852.2204
   3   2.0000    -104.817035     -2852.2165
   4   2.0000     -92.017891     -2503.9341
   5   2.0000     -91.971262     -2502.6653
   6   2.0000     -91.971085     -2502.6605
   7   2.0000     -91.963001     -2502.4405
   8   2.0000     -91.882540     -2500.2510
   9   2.0000     -20.561134      -559.4969
  10   2.0000     -20.561041      -559.4944
  11   2.0000     -20.560540      -559.4807
  12   2.0000     -20.554708      -559.3221
  13   2.0000     -15.653593      -425.9559
  14   2.0000     -15.648118      -425.8069
  15   2.0000     -15.609883      -424.7665
  16   2.0000     -15.609180      -424.7474
  17   2.0000     -11.359772      -309.1151
  18   2.0000     -11.353798      -308.9525
  19   2.0000     -11.353768      -308.9517
  20   2.0000     -11.353230      -308.9371
  21   2.0000     -11.338238      -308.5291
  22   2.0000     -11.337120      -308.4987
  23   2.0000     -11.336801      -308.4900
  24   2.0000     -11.334381      -308.4242
  25   2.0000     -11.333250      -308.3934
  26   2.0000     -11.330286      -308.3128
  27   2.0000     -11.328281      -308.2582
  28   2.0000     -11.310941      -307.7864
  29   2.0000     -11.310283      -307.7685
  30   2.0000     -11.308974      -307.7328
  31   2.0000     -11.308476      -307.7193
  32   2.0000     -11.307515      -307.6931
  33   2.0000     -11.306705      -307.6711
  34   2.0000     -11.306262      -307.6590
  35   2.0000     -11.305791      -307.6462
  36   2.0000     -11.305400      -307.6356
  37   2.0000     -11.302860      -307.5665
  38   2.0000     -11.298409      -307.4453
  39   2.0000     -11.295483      -307.3657
  40   2.0000     -11.292083      -307.2732
  41   2.0000     -11.289970      -307.2157
  42   2.0000     -11.289893      -307.2136
  43   2.0000     -11.289693      -307.2082
  44   2.0000     -11.287297      -307.1430
  45   2.0000     -11.287208      -307.1405
  46   2.0000     -11.286639      -307.1251
  47   2.0000     -11.286527      -307.1220
  48   2.0000     -11.282602      -307.0152
  49   2.0000     -11.282364      -307.0087
  50   2.0000     -11.278131      -306.8936
  51   2.0000     -11.276893      -306.8599
  52   2.0000     -11.276846      -306.8586
  53   2.0000     -11.274893      -306.8054
  54   2.0000     -11.273738      -306.7740
  55   2.0000     -11.271129      -306.7030
  56   2.0000     -11.263652      -306.4996
  57   2.0000     -11.249644      -306.1184
  58   2.0000     -11.249446      -306.1130
  59   2.0000     -11.245831      -306.0146
  60   2.0000     -11.243946      -305.9633
  61   2.0000     -11.235902      -305.7444
  62   2.0000     -11.232079      -305.6404
  63   2.0000     -10.581811      -287.9457
  64   2.0000     -10.581167      -287.9282
  65   2.0000     -10.581087      -287.9260
  66   2.0000     -10.580860      -287.9198
  67   2.0000      -9.049768      -246.2567
  68   2.0000      -9.005833      -245.0612
  69   2.0000      -9.004763      -245.0321
  70   2.0000      -8.998652      -244.8658
  71   2.0000      -8.918819      -242.6934
  72   2.0000      -8.056897      -219.2393
  73   2.0000      -8.056276      -219.2224
  74   2.0000      -8.056176      -219.2197
  75   2.0000      -8.055968      -219.2140
  76   2.0000      -8.053209      -219.1390
  77   2.0000      -8.053145      -219.1372
  78   2.0000      -8.052514      -219.1200
  79   2.0000      -8.052495      -219.1195
  80   2.0000      -8.052477      -219.1190
  81   2.0000      -8.052418      -219.1174
  82   2.0000      -8.052200      -219.1115
  83   2.0000      -8.052186      -219.1111
  84   2.0000      -6.736970      -183.3223
  85   2.0000      -6.735109      -183.2716
  86   2.0000      -6.733436      -183.2261
  87   2.0000      -6.693407      -182.1369
  88   2.0000      -6.692592      -182.1147
  89   2.0000      -6.691949      -182.0972
  90   2.0000      -6.690647      -182.0618
  91   2.0000      -6.690236      -182.0506
  92   2.0000      -6.688609      -182.0063
  93   2.0000      -6.686212      -181.9411
  94   2.0000      -6.685222      -181.9142
  95   2.0000      -6.682619      -181.8433
  96   2.0000      -6.606840      -179.7813
  97   2.0000      -6.604728      -179.7238
  98   2.0000      -6.603071      -179.6787
  99   2.0000      -1.396334       -37.9962
 100   2.0000      -1.394850       -37.9558
 101   2.0000      -1.389836       -37.8194
 102   2.0000      -1.385497       -37.7013
 103   2.0000      -1.359522       -36.9945
 104   2.0000      -1.348378       -36.6912
 105   2.0000      -1.339195       -36.4414
 106   2.0000      -1.240760       -33.7628
 107   2.0000      -1.240241       -33.7487
 108   2.0000      -1.227477       -33.4013
 109   2.0000      -1.224680       -33.3252
 110   2.0000      -1.196566       -32.5602
 111   2.0000      -1.190216       -32.3874
 112   2.0000      -1.179050       -32.0836
 113   2.0000      -1.170229       -31.8436
 114   2.0000      -1.165847       -31.7243
 115   2.0000      -1.155406       -31.4402
 116   2.0000      -1.154940       -31.4275
 117   2.0000      -1.153124       -31.3781
 118   2.0000      -1.122092       -30.5337
 119   2.0000      -1.109754       -30.1979
 120   2.0000      -1.094981       -29.7960
 121   2.0000      -1.083471       -29.4828
 122   2.0000      -1.070052       -29.1176
 123   2.0000      -1.062342       -28.9078
 124   2.0000      -1.051887       -28.6233
 125   2.0000      -1.048864       -28.5410
 126   2.0000      -1.045027       -28.4366
 127   2.0000      -1.042244       -28.3609
 128   2.0000      -1.039822       -28.2950
 129   2.0000      -1.016389       -27.6574
 130   2.0000      -1.015068       -27.6214
 131   2.0000      -1.001577       -27.2543
 132   2.0000      -0.982819       -26.7439
 133   2.0000      -0.964681       -26.2503
 134   2.0000      -0.957925       -26.0665
 135   2.0000      -0.947224       -25.7753
 136   2.0000      -0.926659       -25.2157
 137   2.0000      -0.901408       -24.5286
 138   2.0000      -0.900760       -24.5109
 139   2.0000      -0.895862       -24.3776
 140   2.0000      -0.894836       -24.3497
 141   2.0000      -0.888308       -24.1721
 142   2.0000      -0.878281       -23.8992
 143   2.0000      -0.872771       -23.7493
 144   2.0000      -0.867468       -23.6050
 145   2.0000      -0.861097       -23.4317
 146   2.0000      -0.854232       -23.2448
 147   2.0000      -0.841973       -22.9112
 148   2.0000      -0.834595       -22.7105
 149   2.0000      -0.811241       -22.0750
 150   2.0000      -0.796370       -21.6703
 151   2.0000      -0.790132       -21.5006
 152   2.0000      -0.787687       -21.4341
 153   2.0000      -0.786593       -21.4043
 154   2.0000      -0.778445       -21.1826
 155   2.0000      -0.762460       -20.7476
 156   2.0000      -0.751534       -20.4503
 157   2.0000      -0.747198       -20.3323
 158   2.0000      -0.742316       -20.1995
 159   2.0000      -0.726568       -19.7709
 160   2.0000      -0.721687       -19.6381
 161   2.0000      -0.710851       -19.3432
 162   2.0000      -0.706335       -19.2203
 163   2.0000      -0.705185       -19.1891
 164   2.0000      -0.693791       -18.8790
 165   2.0000      -0.689891       -18.7729
 166   2.0000      -0.683319       -18.5941
 167   2.0000      -0.681907       -18.5556
 168   2.0000      -0.679242       -18.4831
 169   2.0000      -0.673941       -18.3389
 170   2.0000      -0.665737       -18.1156
 171   2.0000      -0.660092       -17.9620
 172   2.0000      -0.657024       -17.8785
 173   2.0000      -0.653043       -17.7702
 174   2.0000      -0.651637       -17.7319
 175   2.0000      -0.648345       -17.6424
 176   2.0000      -0.647890       -17.6300
 177   2.0000      -0.643607       -17.5134
 178   2.0000      -0.640383       -17.4257
 179   2.0000      -0.636716       -17.3259
 180   2.0000      -0.635937       -17.3047
 181   2.0000      -0.635033       -17.2801
 182   2.0000      -0.633401       -17.2357
 183   2.0000      -0.628589       -17.1048
 184   2.0000      -0.626675       -17.0527
 185   2.0000      -0.623445       -16.9648
 186   2.0000      -0.622191       -16.9307
 187   2.0000      -0.620465       -16.8837
 188   2.0000      -0.617478       -16.8024
 189   2.0000      -0.610836       -16.6217
 190   2.0000      -0.606854       -16.5133
 191   2.0000      -0.591235       -16.0883
 192   2.0000      -0.588583       -16.0162
 193   2.0000      -0.582289       -15.8449
 194   2.0000      -0.580071       -15.7845
 195   2.0000      -0.575012       -15.6469
 196   2.0000      -0.574081       -15.6215
 197   2.0000      -0.573961       -15.6183
 198   2.0000      -0.571277       -15.5452
 199   2.0000      -0.568974       -15.4826
 200   2.0000      -0.567162       -15.4333
 201   2.0000      -0.563594       -15.3362
 202   2.0000      -0.557510       -15.1706
 203   2.0000      -0.553512       -15.0618
 204   2.0000      -0.551898       -15.0179
 205   2.0000      -0.550917       -14.9912
 206   2.0000      -0.548954       -14.9378
 207   2.0000      -0.546534       -14.8719
 208   2.0000      -0.542018       -14.7491
 209   2.0000      -0.539378       -14.6772
 210   2.0000      -0.537280       -14.6201
 211   2.0000      -0.532624       -14.4934
 212   2.0000      -0.532014       -14.4768
 213   2.0000      -0.529945       -14.4205
 214   2.0000      -0.527317       -14.3490
 215   2.0000      -0.525658       -14.3039
 216   2.0000      -0.519458       -14.1352
 217   2.0000      -0.515276       -14.0214
 218   2.0000      -0.506349       -13.7785
 219   2.0000      -0.504252       -13.7214
 220   2.0000      -0.503953       -13.7133
 221   2.0000      -0.500629       -13.6228
 222   2.0000      -0.494503       -13.4561
 223   2.0000      -0.493544       -13.4300
 224   2.0000      -0.492231       -13.3943
 225   2.0000      -0.488888       -13.3033
 226   2.0000      -0.486268       -13.2320
 227   2.0000      -0.482834       -13.1386
 228   2.0000      -0.478452       -13.0193
 229   2.0000      -0.473177       -12.8758
 230   2.0000      -0.471535       -12.8311
 231   2.0000      -0.467638       -12.7251
 232   2.0000      -0.464913       -12.6509
 233   2.0000      -0.459389       -12.5006
 234   2.0000      -0.458658       -12.4807
 235   2.0000      -0.455390       -12.3918
 236   2.0000      -0.453907       -12.3514
 237   2.0000      -0.446454       -12.1486
 238   2.0000      -0.435131       -11.8405
 239   2.0000      -0.427254       -11.6262
 240   2.0000      -0.419542       -11.4163
 241   2.0000      -0.414307       -11.2739
 242   2.0000      -0.412955       -11.2371
 243   2.0000      -0.383414       -10.4332
 244   2.0000      -0.376194       -10.2368
 245   2.0000      -0.374381       -10.1874
 246   2.0000      -0.370418       -10.0796
 247   2.0000      -0.362349        -9.8600
 248   2.0000      -0.353999        -9.6328
 249   2.0000      -0.342147        -9.3103
 250   2.0000      -0.331800        -9.0287
 251   2.0000      -0.329410        -8.9637
 252   2.0000      -0.313881        -8.5411
 253   2.0000      -0.298059        -8.1106
 254   2.0000      -0.264450        -7.1961
 255   0.0000      -0.026052        -0.7089
 256   0.0000       0.002917         0.0794
 257   0.0000       0.035690         0.9712
 258   0.0000       0.039396         1.0720
 259   0.0000       0.043098         1.1728

MULLIKEN ATOMIC CHARGES
-----------------------
   0 C :    0.548069
   1 O :   -0.402363
   2 C :   -0.170067
   3 C :    0.052002
   4 C :    0.045160
   5 Cl:   -0.086542
   6 C :    0.044470
   7 Cl:   -0.085291
   8 C :    0.053553
   9 C :   -0.145819
  10 C :    0.493101
  11 O :   -0.364730
  12 C :   -0.493194
  13 C :    0.112089
  14 C :   -0.161592
  15 S :    0.234315
  16 C :    0.003744
  17 C :   -0.108720
  18 C :   -0.104300
  19 C :    0.004878
  20 C :   -0.010682
  21 S :    0.227781
  22 C :    0.018498
  23 C :    0.113856
  24 N :   -0.572847
  25 C :    0.097790
  26 C :   -0.047045
  27 C :    0.223451
  28 C :   -0.209574
  29 C :    0.140034
  30 N :   -0.467752
  31 S :    0.584068
  32 N :   -0.492684
  33 C :    0.182041
  34 C :   -0.245127
  35 C :    0.285470
  36 N :   -0.577728
  37 C :    0.129625
  38 C :   -0.028486
  39 C :    0.134482
  40 C :    0.102798
  41 S :    0.102900
  42 C :   -0.087057
  43 C :    0.028861
  44 S :   -0.222220
  45 C :    0.158929
  46 C :   -0.125777
  47 C :    0.033203
  48 C :    0.010958
  49 C :    0.027889
  50 C :   -0.624932
  51 C :    0.550451
  52 O :   -0.329351
  53 C :   -0.171397
  54 C :    0.062646
  55 C :    0.062970
  56 Cl:   -0.092440
  57 C :    0.058061
  58 Cl:   -0.092966
  59 C :    0.063526
  60 C :   -0.168702
  61 C :    0.551749
  62 O :   -0.330201
  63 H :    0.060819
  64 H :    0.062904
  65 H :    0.076036
  66 H :    0.055811
  67 H :    0.058526
  68 H :    0.043327
  69 H :    0.048750
  70 H :    0.038961
  71 H :    0.071141
  72 H :    0.072437
  73 H :    0.069778
  74 H :    0.052880
  75 H :    0.046672
  76 H :    0.036661
  77 H :    0.077402
  78 H :    0.034552
  79 H :    0.040641
  80 H :    0.059133
  81 H :    0.073892
  82 H :    0.075190
  83 H :    0.035859
  84 H :    0.045514
  85 H :    0.036284
  86 H :    0.080610
  87 H :    0.061326
  88 H :    0.061062
Sum of atomic charges:   -0.0000000

LOEWDIN ATOMIC CHARGES
----------------------
   0 C :    0.162779
   1 O :   -0.262171
   2 C :   -0.052067
   3 C :    0.010472
   4 C :   -0.119960
   5 Cl:    0.125149
   6 C :   -0.118861
   7 Cl:    0.126302
   8 C :    0.011164
   9 C :   -0.052000
  10 C :    0.160548
  11 O :   -0.242758
  12 C :   -0.208828
  13 C :    0.122908
  14 C :   -0.219456
  15 S :    0.477177
  16 C :   -0.176744
  17 C :   -0.207906
  18 C :    0.006572
  19 C :   -0.012805
  20 C :   -0.019132
  21 S :    0.402067
  22 C :   -0.162733
  23 C :   -0.020820
  24 N :   -0.015988
  25 C :    0.072465
  26 C :   -0.039181
  27 C :    0.032797
  28 C :   -0.079349
  29 C :   -0.031124
  30 N :   -0.319101
  31 S :    0.622124
  32 N :   -0.329968
  33 C :   -0.021271
  34 C :   -0.107934
  35 C :    0.072022
  36 N :   -0.014790
  37 C :    0.069353
  38 C :   -0.033664
  39 C :   -0.056312
  40 C :   -0.122267
  41 S :    0.409333
  42 C :   -0.152940
  43 C :   -0.115742
  44 S :   -0.051212
  45 C :    0.035629
  46 C :    0.021734
  47 C :   -0.014695
  48 C :   -0.031381
  49 C :    0.103662
  50 C :   -0.148941
  51 C :    0.147443
  52 O :   -0.215472
  53 C :   -0.065479
  54 C :    0.015604
  55 C :   -0.115331
  56 Cl:    0.127652
  57 C :   -0.116855
  58 Cl:    0.127834
  59 C :    0.016374
  60 C :   -0.065364
  61 C :    0.148784
  62 O :   -0.216122
  63 H :    0.046170
  64 H :    0.047204
  65 H :    0.051798
  66 H :    0.025929
  67 H :    0.028650
  68 H :    0.021852
  69 H :    0.022596
  70 H :    0.018471
  71 H :    0.025927
  72 H :    0.025493
  73 H :    0.016486
  74 H :    0.028901
  75 H :    0.018590
  76 H :    0.014472
  77 H :    0.017790
  78 H :    0.017597
  79 H :    0.023703
  80 H :    0.019443
  81 H :    0.031644
  82 H :    0.031398
  83 H :    0.016812
  84 H :    0.024283
  85 H :    0.017126
  86 H :    0.043255
  87 H :    0.046635
  88 H :    0.046552

  Mayer bond orders larger than 0.100000
B(  0-C ,  1-O ) :   2.0014 B(  0-C ,  2-C ) :   0.9701 B(  0-C , 12-C ) :   0.9785
B(  2-C ,  3-C ) :   1.4143 B(  2-C ,  9-C ) :   1.3802 B(  3-C ,  4-C ) :   1.4021
B(  3-C , 63-H ) :   1.0152 B(  4-C ,  5-Cl) :   1.0067 B(  4-C ,  6-C ) :   1.4272
B(  6-C ,  7-Cl) :   1.0084 B(  6-C ,  8-C ) :   1.4012 B(  8-C ,  9-C ) :   1.4167
B(  8-C , 64-H ) :   1.0143 B(  9-C , 10-C ) :   0.9425 B( 10-C , 11-O ) :   2.0832
B( 10-C , 12-C ) :   1.0112 B( 12-C , 13-C ) :   1.6628 B( 13-C , 14-C ) :   1.2562
B( 13-C , 65-H ) :   0.9684 B( 14-C , 15-S ) :   1.0408 B( 14-C , 18-C ) :   1.4924
B( 15-S , 16-C ) :   1.0241 B( 16-C , 17-C ) :   1.4821 B( 16-C , 23-C ) :   1.3483
B( 17-C , 18-C ) :   1.4862 B( 17-C , 21-S ) :   0.9836 B( 18-C , 19-C ) :   0.9809
B( 19-C , 20-C ) :   1.0395 B( 19-C , 66-H ) :   0.9688 B( 19-C , 67-H ) :   0.9625
B( 20-C , 68-H ) :   0.9816 B( 20-C , 69-H ) :   0.9871 B( 20-C , 70-H ) :   0.9853
B( 21-S , 22-C ) :   0.9810 B( 22-C , 23-C ) :   1.4587 B( 22-C , 28-C ) :   1.4450
B( 23-C , 24-N ) :   1.0989 B( 24-N , 25-C ) :   0.8334 B( 24-N , 27-C ) :   1.1225
B( 25-C , 26-C ) :   1.0345 B( 25-C , 71-H ) :   0.9786 B( 25-C , 72-H ) :   0.9848
B( 26-C , 73-H ) :   0.9774 B( 26-C , 74-H ) :   0.9841 B( 26-C , 75-H ) :   0.9796
B( 27-C , 28-C ) :   1.4408 B( 27-C , 35-C ) :   1.1497 B( 28-C , 29-C ) :   1.1148
B( 29-C , 30-N ) :   1.5891 B( 29-C , 33-C ) :   1.1395 B( 30-N , 31-S ) :   1.1993
B( 31-S , 32-N ) :   1.1860 B( 32-N , 33-C ) :   1.5922 B( 33-C , 34-C ) :   1.1194
B( 34-C , 35-C ) :   1.4075 B( 34-C , 40-C ) :   1.4332 B( 35-C , 36-N ) :   1.1583
B( 36-N , 37-C ) :   0.8397 B( 36-N , 39-C ) :   1.0607 B( 37-C , 38-C ) :   1.0538
B( 37-C , 76-H ) :   0.9817 B( 37-C , 77-H ) :   0.9550 B( 38-C , 78-H ) :   0.9806
B( 38-C , 79-H ) :   0.9847 B( 38-C , 80-H ) :   0.9761 B( 39-C , 40-C ) :   1.4448
B( 39-C , 43-C ) :   1.2453 B( 40-C , 41-S ) :   1.0018 B( 41-S , 42-C ) :   0.9814
B( 42-C , 43-C ) :   1.0907 B( 42-C , 46-C ) :   1.8517 B( 43-C , 44-S ) :   1.5375
B( 45-C , 46-C ) :   1.0312 B( 45-C , 49-C ) :   1.7716 B( 45-C , 50-C ) :   0.9340
B( 46-C , 47-C ) :   0.9680 B( 47-C , 48-C ) :   1.0696 B( 47-C , 81-H ) :   0.9408
B( 47-C , 82-H ) :   0.9414 B( 48-C , 83-H ) :   0.9735 B( 48-C , 84-H ) :   0.9822
B( 48-C , 85-H ) :   0.9744 B( 49-C , 50-C ) :   0.9544 B( 49-C , 86-H ) :   1.0257
B( 50-C , 51-C ) :   0.8628 B( 50-C , 61-C ) :   0.8621 B( 51-C , 52-O ) :   2.1790
B( 51-C , 53-C ) :   0.9223 B( 53-C , 54-C ) :   1.4032 B( 53-C , 60-C ) :   1.3618
B( 54-C , 55-C ) :   1.4207 B( 54-C , 87-H ) :   1.0137 B( 55-C , 56-Cl) :   1.0024
B( 55-C , 57-C ) :   1.4112 B( 57-C , 58-Cl) :   1.0019 B( 57-C , 59-C ) :   1.4204
B( 59-C , 60-C ) :   1.4024 B( 59-C , 88-H ) :   1.0135 B( 60-C , 61-C ) :   0.9227
B( 61-C , 62-O ) :   2.1783

-----------------------------------------------------------------------------
         ABSORPTION SPECTRUM VIA TRANSITION ELECTRIC DIPOLE MOMENTS
-----------------------------------------------------------------------------
State   Energy    Wavelength  fosc         T2        TX        TY        TZ
        (cm-1)      (nm)                 (au**2)    (au)      (au)      (au)
-----------------------------------------------------------------------------
   1   21955.5    455.5   0.017906541   0.26850  -0.48325  -0.16785   0.08244
   2   23931.9    417.9   1.673373341  23.01929   4.63836   1.19336   0.28423
   3   28640.8    349.2   1.245503939  14.31645   2.85380  -0.34879   2.45980

FINAL SINGLE POINT ENERGY     -6096.734174904796

DIPOLE MOMENT
-------------
                                X             Y             Z
Electronic contribution:    -23.46486     -28.41055      15.86337
Nuclear contribution   :     23.72080      29.71955     -17.51870
                        -----------------------------------------
Total Dipole Moment    :      0.25593       1.30900      -1.65533
                        -----------------------------------------
Magnitude (a.u.)       :      2.12582
Magnitude (Debye)      :      5.40340

Rotational constants in cm-1:     0.001973     0.000363     0.000316
Rotational constants in MHz :    59.163979    10.881261     9.487095

                             ****ORCA TERMINATED NORMALLY****
TOTAL RUN TIME: 0 days 9 hours 43 minutes 36 seconds 349 msec
