                         Program Version 4.2.0 -  RELEASE  -
|  1> # ORCA input file
|  2> # ZY-4Cl.out: Geometry 10
|  3> ! Engrad Keepdens
|  4> %maxcore 1000
|  5> %tddft
|  6>   nroots 3
|  7>   # nroots is the number of states to be computed
|  8>   Iroot 1
|  9>   end
| 10> * xyz 0 1
| 11>    C        3.68762         2.61655         0.37708
| 12>    O        4.61166         2.51591        -0.41280
| 13>    C        2.36307         3.26785         0.09679
| 14>    C        1.89315         3.82591        -1.08482
| 15>    C        0.60169         4.36839        -1.09254
| 16>   Cl       -0.01241         5.04753        -2.56445
| 17>    C       -0.19367         4.36235         0.07848
| 18>   Cl       -1.78382         5.05345         0.06942
| 19>    C        0.29192         3.79480         1.26256
| 20>    C        1.56711         3.24666         1.25146
| 21>    C        2.30433         2.54804         2.35008
| 22>    O        1.90541         2.35173         3.48257
| 23>    C        3.61023         2.13853         1.76932
| 24>    C        4.47264         1.37699         2.50957
| 25>    C        5.75957         0.83304         2.28195
| 26>    S        6.78040         1.14521         0.85704
| 27>    C        8.04791         0.16907         1.53238
| 28>    C        7.67713        -0.37866         2.78053
| 29>    C        6.39323        -0.01630         3.21588
| 30>    C        5.75805        -0.58219         4.45665
| 31>    C        5.01367        -1.89498         4.15870
| 32>    S        8.91690        -1.40188         3.50756
| 33>    C        9.93629        -1.08690         2.13102
| 34>    C        9.34854        -0.25658         1.16453
| 35>    N       10.23728        -0.06788         0.11480
| 36>    C       10.10121         1.10871        -0.74707
| 37>    C       10.24016         2.42795         0.01058
| 38>    C       11.39653        -0.80031         0.39951
| 39>    C       11.22847        -1.41988         1.67765
| 40>    C       12.27192        -2.18373         2.28981
| 41>    N       12.23153        -2.80335         3.46092
| 42>    S       13.72019        -3.49681         3.68656
| 43>    N       14.44268        -3.01477         2.27576
| 44>    C       13.54402        -2.30456         1.60782
| 45>    C       13.67993        -1.75400         0.29409
| 46>    C       12.59989        -1.06707        -0.34988
| 47>    N       12.95959        -0.85895        -1.68352
| 48>    C       12.12351        -0.51366        -2.83118
| 49>    C       12.43932         0.86141        -3.42104
| 50>    C       14.23430        -1.36814        -1.87097
| 51>    C       14.70152        -1.90848        -0.66272
| 52>    S       16.25021        -2.69610        -0.79470
| 53>    C       16.24894        -2.33630        -2.52347
| 54>    C       15.11507        -1.61468        -2.95312
| 55>    S       15.15865        -1.30923        -4.66071
| 56>    C       16.69367        -2.20315        -4.80037
| 57>    C       17.13947        -2.68726        -3.55063
| 58>    C       18.40938        -3.45013        -3.29755
| 59>    C       19.56670        -2.53244        -2.87867
| 60>    C       17.36792        -2.47268        -6.01661
| 61>    C       17.13377        -2.13062        -7.32186
| 62>    C       17.98932        -2.68739        -8.40210
| 63>    O       18.94557        -3.42782        -8.27578
| 64>    C       17.42444        -2.16211        -9.68650
| 65>    C       17.82013        -2.41880       -10.99258
| 66>    C       17.10960        -1.80034       -12.02928
| 67>   Cl       17.56428        -2.12254       -13.67117
| 68>    C       16.03203        -0.92837       -11.74640
| 69>   Cl       15.17205        -0.16055       -13.04126
| 70>    C       15.64280        -0.67914       -10.42425
| 71>    C       16.34391        -1.31341        -9.40610
| 72>    C       16.10667        -1.26365        -7.92540
| 73>    O       15.22673        -0.62473        -7.37182
| 74>    H        2.50363         3.83868        -1.98883
| 75>    H       -0.32186         3.77908         2.16427
| 76>    H        4.06515         1.13590         3.49795
| 77>    H        5.06895         0.14400         4.91234
| 78>    H        6.54933        -0.76430         5.20162
| 79>    H        4.18861        -1.72333         3.45075
| 80>    H        4.59252        -2.32921         5.07852
| 81>    H        5.69338        -2.63394         3.70721
| 82>    H        9.12205         1.05007        -1.24965
| 83>    H       10.85956         1.05097        -1.52662
| 84>    H       11.21909         2.49162         0.51020
| 85>    H        9.45517         2.54677         0.77174
| 86>    H       10.15140         3.26781        -0.69612
| 87>    H       11.07433        -0.60447        -2.52357
| 88>    H       12.28373        -1.28912        -3.59796
| 89>    H       11.71913         1.10754        -4.21515
| 90>    H       13.44521         0.88114        -3.86566
| 91>    H       12.39875         1.65090        -2.65528
| 92>    H       18.69509        -4.03573        -4.18340
| 93>    H       18.21124        -4.18244        -2.49747
| 94>    H       19.82793        -1.83566        -3.68930
| 95>    H       20.46087        -3.12375        -2.62875
| 96>    H       19.29338        -1.93336        -1.99635
| 97>    H       18.25298        -3.11164        -5.90538
| 98>    H       18.65644        -3.08384       -11.21169
| 99>    H       14.80650        -0.01362       -10.20775
|100> *
|101>
|102>                          ****END OF INPUT****

CARTESIAN COORDINATES (ANGSTROEM)
---------------------------------
  C      3.687620    2.616550    0.377080
  O      4.611660    2.515910   -0.412800
  C      2.363070    3.267850    0.096790
  C      1.893150    3.825910   -1.084820
  C      0.601690    4.368390   -1.092540
  Cl    -0.012410    5.047530   -2.564450
  C     -0.193670    4.362350    0.078480
  Cl    -1.783820    5.053450    0.069420
  C      0.291920    3.794800    1.262560
  C      1.567110    3.246660    1.251460
  C      2.304330    2.548040    2.350080
  O      1.905410    2.351730    3.482570
  C      3.610230    2.138530    1.769320
  C      4.472640    1.376990    2.509570
  C      5.759570    0.833040    2.281950
  S      6.780400    1.145210    0.857040
  C      8.047910    0.169070    1.532380
  C      7.677130   -0.378660    2.780530
  C      6.393230   -0.016300    3.215880
  C      5.758050   -0.582190    4.456650
  C      5.013670   -1.894980    4.158700
  S      8.916900   -1.401880    3.507560
  C      9.936290   -1.086900    2.131020
  C      9.348540   -0.256580    1.164530
  N     10.237280   -0.067880    0.114800
  C     10.101210    1.108710   -0.747070
  C     10.240160    2.427950    0.010580
  C     11.396530   -0.800310    0.399510
  C     11.228470   -1.419880    1.677650
  C     12.271920   -2.183730    2.289810
  N     12.231530   -2.803350    3.460920
  S     13.720190   -3.496810    3.686560
  N     14.442680   -3.014770    2.275760
  C     13.544020   -2.304560    1.607820
  C     13.679930   -1.754000    0.294090
  C     12.599890   -1.067070   -0.349880
  N     12.959590   -0.858950   -1.683520
  C     12.123510   -0.513660   -2.831180
  C     12.439320    0.861410   -3.421040
  C     14.234300   -1.368140   -1.870970
  C     14.701520   -1.908480   -0.662720
  S     16.250210   -2.696100   -0.794700
  C     16.248940   -2.336300   -2.523470
  C     15.115070   -1.614680   -2.953120
  S     15.158650   -1.309230   -4.660710
  C     16.693670   -2.203150   -4.800370
  C     17.139470   -2.687260   -3.550630
  C     18.409380   -3.450130   -3.297550
  C     19.566700   -2.532440   -2.878670
  C     17.367920   -2.472680   -6.016610
  C     17.133770   -2.130620   -7.321860
  C     17.989320   -2.687390   -8.402100
  O     18.945570   -3.427820   -8.275780
  C     17.424440   -2.162110   -9.686500
  C     17.820130   -2.418800  -10.992580
  C     17.109600   -1.800340  -12.029280
  Cl    17.564280   -2.122540  -13.671170
  C     16.032030   -0.928370  -11.746400
  Cl    15.172050   -0.160550  -13.041260
  C     15.642800   -0.679140  -10.424250
  C     16.343910   -1.313410   -9.406100
  C     16.106670   -1.263650   -7.925400
  O     15.226730   -0.624730   -7.371820
  H      2.503630    3.838680   -1.988830
  H     -0.321860    3.779080    2.164270
  H      4.065150    1.135900    3.497950
  H      5.068950    0.144000    4.912340
  H      6.549330   -0.764300    5.201620
  H      4.188610   -1.723330    3.450750
  H      4.592520   -2.329210    5.078520
  H      5.693380   -2.633940    3.707210
  H      9.122050    1.050070   -1.249650
  H     10.859560    1.050970   -1.526620
  H     11.219090    2.491620    0.510200
  H      9.455170    2.546770    0.771740
  H     10.151400    3.267810   -0.696120
  H     11.074330   -0.604470   -2.523570
  H     12.283730   -1.289120   -3.597960
  H     11.719130    1.107540   -4.215150
  H     13.445210    0.881140   -3.865660
  H     12.398750    1.650900   -2.655280
  H     18.695090   -4.035730   -4.183400
  H     18.211240   -4.182440   -2.497470
  H     19.827930   -1.835660   -3.689300
  H     20.460870   -3.123750   -2.628750
  H     19.293380   -1.933360   -1.996350
  H     18.252980   -3.111640   -5.905380
  H     18.656440   -3.083840  -11.211690
  H     14.806500   -0.013620  -10.207750

 Total Charge           Charge          ....    0
 Multiplicity           Mult            ....    1
 Number of Electrons    NEL             ....  510
 Basis Dimension        Dim             .... 1048

ORBITAL ENERGIES
----------------

  NO   OCC          E(Eh)            E(eV)
   0   2.0000    -104.816829     -2852.2109
   1   2.0000    -104.816596     -2852.2046
   2   2.0000    -104.816533     -2852.2029
   3   2.0000    -104.816409     -2852.1995
   4   2.0000     -92.016207     -2503.8883
   5   2.0000     -91.976671     -2502.8124
   6   2.0000     -91.976207     -2502.7998
   7   2.0000     -91.973730     -2502.7324
   8   2.0000     -91.972789     -2502.7068
   9   2.0000     -20.559294      -559.4468
  10   2.0000     -20.559177      -559.4437
  11   2.0000     -20.554795      -559.3244
  12   2.0000     -20.554508      -559.3166
  13   2.0000     -15.655625      -426.0112
  14   2.0000     -15.652280      -425.9202
  15   2.0000     -15.617662      -424.9782
  16   2.0000     -15.616873      -424.9567
  17   2.0000     -11.360046      -309.1226
  18   2.0000     -11.359880      -309.1180
  19   2.0000     -11.355409      -308.9964
  20   2.0000     -11.354844      -308.9810
  21   2.0000     -11.341633      -308.6215
  22   2.0000     -11.341511      -308.6182
  23   2.0000     -11.340590      -308.5931
  24   2.0000     -11.340467      -308.5898
  25   2.0000     -11.336118      -308.4715
  26   2.0000     -11.334935      -308.4392
  27   2.0000     -11.314973      -307.8961
  28   2.0000     -11.312999      -307.8424
  29   2.0000     -11.312265      -307.8224
  30   2.0000     -11.312112      -307.8182
  31   2.0000     -11.312055      -307.8167
  32   2.0000     -11.312005      -307.8153
  33   2.0000     -11.310938      -307.7863
  34   2.0000     -11.310667      -307.7789
  35   2.0000     -11.309016      -307.7340
  36   2.0000     -11.308677      -307.7247
  37   2.0000     -11.300883      -307.5127
  38   2.0000     -11.300394      -307.4993
  39   2.0000     -11.295826      -307.3751
  40   2.0000     -11.295194      -307.3579
  41   2.0000     -11.293758      -307.3188
  42   2.0000     -11.292716      -307.2904
  43   2.0000     -11.290581      -307.2323
  44   2.0000     -11.290044      -307.2177
  45   2.0000     -11.289846      -307.2123
  46   2.0000     -11.289399      -307.2002
  47   2.0000     -11.289346      -307.1987
  48   2.0000     -11.288836      -307.1848
  49   2.0000     -11.280173      -306.9491
  50   2.0000     -11.279989      -306.9441
  51   2.0000     -11.278885      -306.9141
  52   2.0000     -11.278234      -306.8963
  53   2.0000     -11.277747      -306.8831
  54   2.0000     -11.276242      -306.8421
  55   2.0000     -11.267698      -306.6096
  56   2.0000     -11.267136      -306.5944
  57   2.0000     -11.260211      -306.4059
  58   2.0000     -11.254623      -306.2538
  59   2.0000     -11.252969      -306.2088
  60   2.0000     -11.252758      -306.2031
  61   2.0000     -11.248341      -306.0829
  62   2.0000     -11.248325      -306.0825
  63   2.0000     -10.580191      -287.9016
  64   2.0000     -10.579942      -287.8949
  65   2.0000     -10.579892      -287.8935
  66   2.0000     -10.579769      -287.8901
  67   2.0000      -9.047374      -246.1916
  68   2.0000      -9.009981      -245.1741
  69   2.0000      -9.009476      -245.1603
  70   2.0000      -9.007666      -245.1111
  71   2.0000      -9.006739      -245.0858
  72   2.0000      -8.055279      -219.1953
  73   2.0000      -8.055032      -219.1886
  74   2.0000      -8.054981      -219.1872
  75   2.0000      -8.054856      -219.1838
  76   2.0000      -8.051544      -219.0937
  77   2.0000      -8.051525      -219.0931
  78   2.0000      -8.051298      -219.0870
  79   2.0000      -8.051277      -219.0864
  80   2.0000      -8.051241      -219.0854
  81   2.0000      -8.051225      -219.0850
  82   2.0000      -8.051119      -219.0821
  83   2.0000      -8.051101      -219.0816
  84   2.0000      -6.734557      -183.2566
  85   2.0000      -6.732852      -183.2102
  86   2.0000      -6.731027      -183.1606
  87   2.0000      -6.697278      -182.2422
  88   2.0000      -6.696760      -182.2281
  89   2.0000      -6.696190      -182.2126
  90   2.0000      -6.695637      -182.1976
  91   2.0000      -6.695200      -182.1857
  92   2.0000      -6.694364      -182.1629
  93   2.0000      -6.694273      -182.1604
  94   2.0000      -6.694193      -182.1582
  95   2.0000      -6.693647      -182.1434
  96   2.0000      -6.693437      -182.1377
  97   2.0000      -6.692057      -182.1001
  98   2.0000      -6.691120      -182.0746
  99   2.0000      -1.387558       -37.7574
 100   2.0000      -1.386903       -37.7396
 101   2.0000      -1.381040       -37.5800
 102   2.0000      -1.380391       -37.5623
 103   2.0000      -1.347249       -36.6605
 104   2.0000      -1.334834       -36.3227
 105   2.0000      -1.328913       -36.1616
 106   2.0000      -1.231832       -33.5199
 107   2.0000      -1.231459       -33.5097
 108   2.0000      -1.220866       -33.2215
 109   2.0000      -1.219081       -33.1729
 110   2.0000      -1.191964       -32.4350
 111   2.0000      -1.171332       -31.8736
 112   2.0000      -1.170848       -31.8604
 113   2.0000      -1.163115       -31.6500
 114   2.0000      -1.150087       -31.2954
 115   2.0000      -1.149982       -31.2926
 116   2.0000      -1.149698       -31.2849
 117   2.0000      -1.141561       -31.0635
 118   2.0000      -1.109331       -30.1864
 119   2.0000      -1.100970       -29.9589
 120   2.0000      -1.089472       -29.6461
 121   2.0000      -1.080834       -29.4110
 122   2.0000      -1.075574       -29.2678
 123   2.0000      -1.066061       -29.0090
 124   2.0000      -1.046377       -28.4734
 125   2.0000      -1.042231       -28.3605
 126   2.0000      -1.040306       -28.3082
 127   2.0000      -1.040032       -28.3007
 128   2.0000      -1.030904       -28.0523
 129   2.0000      -1.021540       -27.7975
 130   2.0000      -1.006885       -27.3987
 131   2.0000      -0.997405       -27.1408
 132   2.0000      -0.989726       -26.9318
 133   2.0000      -0.966534       -26.3007
 134   2.0000      -0.959997       -26.1228
 135   2.0000      -0.957387       -26.0518
 136   2.0000      -0.935126       -25.4461
 137   2.0000      -0.910059       -24.7640
 138   2.0000      -0.898554       -24.4509
 139   2.0000      -0.893283       -24.3075
 140   2.0000      -0.890202       -24.2236
 141   2.0000      -0.889767       -24.2118
 142   2.0000      -0.878872       -23.9153
 143   2.0000      -0.871059       -23.7027
 144   2.0000      -0.870149       -23.6780
 145   2.0000      -0.862931       -23.4816
 146   2.0000      -0.851840       -23.1798
 147   2.0000      -0.833600       -22.6834
 148   2.0000      -0.829314       -22.5668
 149   2.0000      -0.809961       -22.0402
 150   2.0000      -0.790380       -21.5073
 151   2.0000      -0.789355       -21.4794
 152   2.0000      -0.787459       -21.4278
 153   2.0000      -0.779894       -21.2220
 154   2.0000      -0.757732       -20.6189
 155   2.0000      -0.756620       -20.5887
 156   2.0000      -0.740185       -20.1415
 157   2.0000      -0.739081       -20.1114
 158   2.0000      -0.730281       -19.8720
 159   2.0000      -0.719863       -19.5885
 160   2.0000      -0.717294       -19.5186
 161   2.0000      -0.708974       -19.2922
 162   2.0000      -0.704268       -19.1641
 163   2.0000      -0.700521       -19.0622
 164   2.0000      -0.697456       -18.9787
 165   2.0000      -0.686066       -18.6688
 166   2.0000      -0.680125       -18.5071
 167   2.0000      -0.678293       -18.4573
 168   2.0000      -0.674778       -18.3617
 169   2.0000      -0.673418       -18.3246
 170   2.0000      -0.661272       -17.9941
 171   2.0000      -0.655831       -17.8461
 172   2.0000      -0.650885       -17.7115
 173   2.0000      -0.650280       -17.6950
 174   2.0000      -0.648813       -17.6551
 175   2.0000      -0.646347       -17.5880
 176   2.0000      -0.644163       -17.5286
 177   2.0000      -0.641674       -17.4608
 178   2.0000      -0.634635       -17.2693
 179   2.0000      -0.632900       -17.2221
 180   2.0000      -0.630816       -17.1654
 181   2.0000      -0.629377       -17.1262
 182   2.0000      -0.621401       -16.9092
 183   2.0000      -0.620775       -16.8921
 184   2.0000      -0.620121       -16.8743
 185   2.0000      -0.617071       -16.7914
 186   2.0000      -0.615678       -16.7534
 187   2.0000      -0.614716       -16.7273
 188   2.0000      -0.613288       -16.6884
 189   2.0000      -0.610515       -16.6130
 190   2.0000      -0.605863       -16.4864
 191   2.0000      -0.599483       -16.3128
 192   2.0000      -0.588313       -16.0088
 193   2.0000      -0.582699       -15.8560
 194   2.0000      -0.574765       -15.6402
 195   2.0000      -0.574148       -15.6234
 196   2.0000      -0.573394       -15.6029
 197   2.0000      -0.570481       -15.5236
 198   2.0000      -0.569816       -15.5055
 199   2.0000      -0.569304       -15.4915
 200   2.0000      -0.568141       -15.4599
 201   2.0000      -0.565543       -15.3892
 202   2.0000      -0.561762       -15.2863
 203   2.0000      -0.558752       -15.2044
 204   2.0000      -0.555694       -15.1212
 205   2.0000      -0.554422       -15.0866
 206   2.0000      -0.551767       -15.0144
 207   2.0000      -0.550109       -14.9692
 208   2.0000      -0.545986       -14.8570
 209   2.0000      -0.545228       -14.8364
 210   2.0000      -0.541545       -14.7362
 211   2.0000      -0.538948       -14.6655
 212   2.0000      -0.536668       -14.6035
 213   2.0000      -0.532948       -14.5023
 214   2.0000      -0.531111       -14.4523
 215   2.0000      -0.527119       -14.3436
 216   2.0000      -0.522885       -14.2284
 217   2.0000      -0.513700       -13.9785
 218   2.0000      -0.513204       -13.9650
 219   2.0000      -0.505269       -13.7491
 220   2.0000      -0.501894       -13.6572
 221   2.0000      -0.501745       -13.6532
 222   2.0000      -0.501168       -13.6375
 223   2.0000      -0.490174       -13.3383
 224   2.0000      -0.488752       -13.2996
 225   2.0000      -0.488351       -13.2887
 226   2.0000      -0.487448       -13.2641
 227   2.0000      -0.482667       -13.1340
 228   2.0000      -0.481125       -13.0921
 229   2.0000      -0.480066       -13.0633
 230   2.0000      -0.475524       -12.9397
 231   2.0000      -0.472404       -12.8548
 232   2.0000      -0.470337       -12.7985
 233   2.0000      -0.462346       -12.5811
 234   2.0000      -0.459720       -12.5096
 235   2.0000      -0.459059       -12.4916
 236   2.0000      -0.452451       -12.3118
 237   2.0000      -0.452052       -12.3010
 238   2.0000      -0.451585       -12.2882
 239   2.0000      -0.427032       -11.6201
 240   2.0000      -0.422216       -11.4891
 241   2.0000      -0.421260       -11.4631
 242   2.0000      -0.419115       -11.4047
 243   2.0000      -0.388765       -10.5788
 244   2.0000      -0.380913       -10.3652
 245   2.0000      -0.373149       -10.1539
 246   2.0000      -0.372912       -10.1475
 247   2.0000      -0.365047        -9.9334
 248   2.0000      -0.360167        -9.8006
 249   2.0000      -0.351383        -9.5616
 250   2.0000      -0.344399        -9.3716
 251   2.0000      -0.328355        -8.9350
 252   2.0000      -0.312792        -8.5115
 253   2.0000      -0.304807        -8.2942
 254   2.0000      -0.257258        -7.0003
 255   0.0000      -0.016932        -0.4608
 256   0.0000       0.005405         0.1471
 257   0.0000       0.033543         0.9128
 258   0.0000       0.041076         1.1177
 259   0.0000       0.041331         1.1247

MULLIKEN ATOMIC CHARGES
-----------------------
   0 C :    0.539421
   1 O :   -0.379860
   2 C :   -0.183092
   3 C :    0.049969
   4 C :    0.036454
   5 Cl:   -0.087202
   6 C :    0.039004
   7 Cl:   -0.085875
   8 C :    0.053031
   9 C :   -0.145684
  10 C :    0.486479
  11 O :   -0.373157
  12 C :   -0.473054
  13 C :    0.083735
  14 C :   -0.161885
  15 S :    0.258476
  16 C :   -0.025952
  17 C :   -0.111946
  18 C :   -0.096826
  19 C :   -0.007670
  20 C :   -0.027681
  21 S :    0.232794
  22 C :    0.017286
  23 C :    0.123676
  24 N :   -0.606940
  25 C :    0.123668
  26 C :   -0.047734
  27 C :    0.265132
  28 C :   -0.233519
  29 C :    0.163693
  30 N :   -0.468954
  31 S :    0.538366
  32 N :   -0.470618
  33 C :    0.160113
  34 C :   -0.215639
  35 C :    0.245589
  36 N :   -0.601533
  37 C :    0.099059
  38 C :   -0.056375
  39 C :    0.132474
  40 C :    0.007737
  41 S :    0.229160
  42 C :   -0.113034
  43 C :   -0.020077
  44 S :    0.246383
  45 C :   -0.163046
  46 C :   -0.093265
  47 C :   -0.006108
  48 C :   -0.028393
  49 C :    0.090534
  50 C :   -0.478278
  51 C :    0.488554
  52 O :   -0.371697
  53 C :   -0.146549
  54 C :    0.053494
  55 C :    0.038146
  56 Cl:   -0.086355
  57 C :    0.038821
  58 Cl:   -0.086959
  59 C :    0.049827
  60 C :   -0.180969
  61 C :    0.538297
  62 O :   -0.384561
  63 H :    0.071753
  64 H :    0.073164
  65 H :    0.083287
  66 H :    0.062037
  67 H :    0.059375
  68 H :    0.043869
  69 H :    0.054475
  70 H :    0.048973
  71 H :    0.068692
  72 H :    0.042362
  73 H :    0.050387
  74 H :    0.065462
  75 H :    0.052619
  76 H :    0.068542
  77 H :    0.074370
  78 H :    0.058916
  79 H :    0.067849
  80 H :    0.048737
  81 H :    0.059236
  82 H :    0.061333
  83 H :    0.043828
  84 H :    0.054027
  85 H :    0.048834
  86 H :    0.084352
  87 H :    0.073117
  88 H :    0.071517
Sum of atomic charges:   -0.0000000

LOEWDIN ATOMIC CHARGES
----------------------
   0 C :    0.164932
   1 O :   -0.253590
   2 C :   -0.052539
   3 C :    0.007089
   4 C :   -0.113218
   5 Cl:    0.116328
   6 C :   -0.113563
   7 Cl:    0.117142
   8 C :    0.009074
   9 C :   -0.054746
  10 C :    0.166481
  11 O :   -0.248863
  12 C :   -0.204809
  13 C :    0.114908
  14 C :   -0.216689
  15 S :    0.441562
  16 C :   -0.170657
  17 C :   -0.208123
  18 C :    0.009860
  19 C :   -0.016314
  20 C :   -0.024833
  21 S :    0.399115
  22 C :   -0.156896
  23 C :   -0.022116
  24 N :   -0.042141
  25 C :    0.073668
  26 C :   -0.039583
  27 C :    0.045988
  28 C :   -0.090546
  29 C :   -0.022142
  30 N :   -0.312169
  31 S :    0.580495
  32 N :   -0.313958
  33 C :   -0.020121
  34 C :   -0.094487
  35 C :    0.048384
  36 N :   -0.033253
  37 C :    0.071281
  38 C :   -0.043084
  39 C :   -0.023009
  40 C :   -0.157320
  41 S :    0.397138
  42 C :   -0.208486
  43 C :   -0.170388
  44 S :    0.444118
  45 C :   -0.216564
  46 C :    0.010915
  47 C :   -0.016641
  48 C :   -0.025421
  49 C :    0.116645
  50 C :   -0.206291
  51 C :    0.166457
  52 O :   -0.247889
  53 C :   -0.054098
  54 C :    0.009021
  55 C :   -0.113238
  56 Cl:    0.116770
  57 C :   -0.113553
  58 Cl:    0.116307
  59 C :    0.007875
  60 C :   -0.052826
  61 C :    0.164646
  62 O :   -0.256055
  63 H :    0.049647
  64 H :    0.050628
  65 H :    0.054052
  66 H :    0.029959
  67 H :    0.027800
  68 H :    0.021570
  69 H :    0.025121
  70 H :    0.022859
  71 H :    0.024982
  72 H :    0.020448
  73 H :    0.025589
  74 H :    0.022537
  75 H :    0.029266
  76 H :    0.024814
  77 H :    0.027164
  78 H :    0.031646
  79 H :    0.024066
  80 H :    0.019858
  81 H :    0.029208
  82 H :    0.029052
  83 H :    0.021817
  84 H :    0.025214
  85 H :    0.021926
  86 H :    0.054500
  87 H :    0.050621
  88 H :    0.049679

  Mayer bond orders larger than 0.100000
B(  0-C ,  1-O ) :   2.0632 B(  0-C ,  2-C ) :   0.9523 B(  0-C , 12-C ) :   0.9516
B(  2-C ,  3-C ) :   1.4118 B(  2-C ,  9-C ) :   1.3849 B(  3-C ,  4-C ) :   1.4137
B(  3-C , 63-H ) :   1.0074 B(  4-C ,  5-Cl) :   1.0089 B(  4-C ,  6-C ) :   1.4155
B(  6-C ,  7-Cl) :   1.0098 B(  6-C ,  8-C ) :   1.4121 B(  8-C ,  9-C ) :   1.4104
B(  8-C , 64-H ) :   1.0071 B(  9-C , 10-C ) :   0.9432 B( 10-C , 11-O ) :   2.0618
B( 10-C , 12-C ) :   1.0118 B( 12-C , 13-C ) :   1.7148 B( 13-C , 14-C ) :   1.2467
B( 13-C , 65-H ) :   0.9609 B( 14-C , 15-S ) :   1.0373 B( 14-C , 18-C ) :   1.5106
B( 15-S , 16-C ) :   1.0185 B( 16-C , 17-C ) :   1.5007 B( 16-C , 23-C ) :   1.3536
B( 17-C , 18-C ) :   1.4470 B( 17-C , 21-S ) :   0.9906 B( 18-C , 19-C ) :   0.9905
B( 19-C , 20-C ) :   1.0315 B( 19-C , 66-H ) :   0.9630 B( 19-C , 67-H ) :   0.9677
B( 20-C , 68-H ) :   0.9830 B( 20-C , 69-H ) :   0.9865 B( 20-C , 70-H ) :   0.9830
B( 21-S , 22-C ) :   0.9879 B( 22-C , 23-C ) :   1.4834 B( 22-C , 28-C ) :   1.4211
B( 23-C , 24-N ) :   1.0721 B( 24-N , 25-C ) :   0.8424 B( 24-N , 27-C ) :   1.0935
B( 25-C , 26-C ) :   1.0483 B( 25-C , 71-H ) :   0.9711 B( 25-C , 72-H ) :   0.9843
B( 26-C , 73-H ) :   0.9794 B( 26-C , 74-H ) :   0.9785 B( 26-C , 75-H ) :   0.9817
B( 27-C , 28-C ) :   1.4698 B( 27-C , 35-C ) :   1.1358 B( 28-C , 29-C ) :   1.1098
B( 29-C , 30-N ) :   1.6204 B( 29-C , 33-C ) :   1.1038 B( 30-N , 31-S ) :   1.1572
B( 30-N , 32-N ) :   0.1041 B( 31-S , 32-N ) :   1.1573 B( 32-N , 33-C ) :   1.6158
B( 33-C , 34-C ) :   1.1125 B( 34-C , 35-C ) :   1.4542 B( 34-C , 40-C ) :   1.4309
B( 35-C , 36-N ) :   1.1149 B( 36-N , 37-C ) :   0.8329 B( 36-N , 39-C ) :   1.0740
B( 37-C , 38-C ) :   1.0326 B( 37-C , 76-H ) :   0.9850 B( 37-C , 77-H ) :   0.9779
B( 38-C , 78-H ) :   0.9828 B( 38-C , 79-H ) :   0.9773 B( 38-C , 80-H ) :   0.9786
B( 39-C , 40-C ) :   1.4733 B( 39-C , 43-C ) :   1.3378 B( 40-C , 41-S ) :   0.9909
B( 41-S , 42-C ) :   0.9903 B( 42-C , 43-C ) :   1.4981 B( 42-C , 46-C ) :   1.4458
B( 43-C , 44-S ) :   1.0235 B( 44-S , 45-C ) :   1.0398 B( 45-C , 46-C ) :   1.5106
B( 45-C , 49-C ) :   1.2451 B( 46-C , 47-C ) :   0.9855 B( 47-C , 48-C ) :   1.0333
B( 47-C , 81-H ) :   0.9648 B( 47-C , 82-H ) :   0.9679 B( 48-C , 83-H ) :   0.9822
B( 48-C , 84-H ) :   0.9865 B( 48-C , 85-H ) :   0.9838 B( 49-C , 50-C ) :   1.7092
B( 49-C , 86-H ) :   0.9610 B( 50-C , 51-C ) :   1.0104 B( 50-C , 61-C ) :   0.9557
B( 51-C , 52-O ) :   2.0649 B( 51-C , 53-C ) :   0.9428 B( 53-C , 54-C ) :   1.4099
B( 53-C , 60-C ) :   1.3863 B( 54-C , 55-C ) :   1.4128 B( 54-C , 87-H ) :   1.0075
B( 55-C , 56-Cl) :   1.0100 B( 55-C , 57-C ) :   1.4142 B( 57-C , 58-Cl) :   1.0092
B( 57-C , 59-C ) :   1.4140 B( 59-C , 60-C ) :   1.4100 B( 59-C , 88-H ) :   1.0080
B( 60-C , 61-C ) :   0.9566 B( 61-C , 62-O ) :   2.0529

-----------------------------------------------------------------------------
         ABSORPTION SPECTRUM VIA TRANSITION ELECTRIC DIPOLE MOMENTS
-----------------------------------------------------------------------------
State   Energy    Wavelength  fosc         T2        TX        TY        TZ
        (cm-1)      (nm)                 (au**2)    (au)      (au)      (au)
-----------------------------------------------------------------------------
   1   23535.1    424.9   2.384821175  33.35919  -4.61940   1.47869   3.13588
   2   29586.8    338.0   1.405770922  15.64201   1.80293  -1.41081   3.22507
   3   34297.3    291.6   0.072528546   0.69618   0.51907  -0.47256  -0.45104

FINAL SINGLE POINT ENERGY     -6096.844502987638

DIPOLE MOMENT
-------------
                                X             Y             Z
Electronic contribution:    -28.57506      13.14069     -46.23166
Nuclear contribution   :     29.32585     -13.36527      47.32191
                        -----------------------------------------
Total Dipole Moment    :      0.75079      -0.22458       1.09026
                        -----------------------------------------
Magnitude (a.u.)       :      1.34268
Magnitude (Debye)      :      3.41282

Rotational constants in cm-1:     0.001068     0.000307     0.000242
Rotational constants in MHz :    32.003003     9.198714     7.240564

                             ****ORCA TERMINATED NORMALLY****
TOTAL RUN TIME: 0 days 6 hours 53 minutes 23 seconds 688 msec
