                         Program Version 4.2.0 -  RELEASE  -
|  1> # ORCA input file
|  2> # AQx-2.out
|  3> ! B3LYP def2-TZVP def2/J RIJCOSX Grid4 TightSCF
|  4>
|  5> %maxcore 2000
|  6> %tddft
|  7>   maxdim 5
|  8>   nroots 3
|  9>   dosoc true
| 10>   end
| 11>
| 12>
| 13>
| 14> * xyz 0 1
| 15>    C        4.92510         2.24815        -1.47993
| 16>    O        5.92084         1.77685        -2.00086
| 17>    C        4.04849         3.28400        -2.06674
| 18>    C        4.16400         3.91317        -3.29009
| 19>    C        3.20815         4.86178        -3.61648
| 20>    F        3.27963         5.49723        -4.79264
| 21>    C        2.17310         5.16060        -2.73060
| 22>    F        1.26434         6.08145        -3.07084
| 23>    C        2.05832         4.52717        -1.50139
| 24>    C        3.00957         3.57628        -1.16755
| 25>    C        3.17153         2.74183         0.02534
| 26>    C        2.33468         2.75600         1.11202
| 27>    C        2.46642         1.95874         2.26835
| 28>    N        2.49907         1.34649         3.24012
| 29>    C        1.20179         3.58974         1.22615
| 30>    N        0.26925         4.24039         1.38307
| 31>    C        4.35218         1.92780        -0.17388
| 32>    C        4.84568         1.01252         0.72927
| 33>    C        5.95722         0.17201         0.67051
| 34>    S        7.09011         0.08229        -0.68206
| 35>    C        7.99634        -1.12729         0.14255
| 36>    C        7.44379        -1.43742         1.40008
| 37>    C        6.30217        -0.71417         1.71014
| 38>    C        5.53180        -0.92320         2.97212
| 39>    C        4.38269        -1.91084         2.74941
| 40>    S        8.34443        -2.65815         2.28148
| 41>    C        9.45591        -2.74146         0.96279
| 42>    C        9.14286        -1.88629        -0.10066
| 43>    N       10.06978        -2.02117        -1.10368
| 44>    C       10.20867        -0.93585        -2.05174
| 45>    C       11.15940         0.13288        -1.51668
| 46>    C       10.99950        -2.95622        -0.68468
| 47>    C       10.64342        -3.40373         0.62075
| 48>    C       11.44106        -4.27930         1.40352
| 49>    N       11.05215        -4.65113         2.62805
| 50>    C       11.88054        -5.41637         3.30519
| 51>    C       13.11397        -5.82346         2.78257
| 52>    N       13.51086        -5.47947         1.57651
| 53>    C       12.67949        -4.70824         0.86697
| 54>    C       12.98818        -4.34023        -0.46868
| 55>    C       12.13939        -3.54053        -1.28812
| 56>    N       12.65867        -3.51847        -2.56615
| 57>    C       12.07481        -3.11870        -3.82569
| 58>    C       12.72114        -1.85015        -4.37895
| 59>    C       13.82175        -4.23985        -2.55889
| 60>    C       14.06105        -4.74447        -1.27596
| 61>    S       15.49679        -5.69492        -1.15849
| 62>    C       15.78924        -5.42777        -2.86294
| 63>    C       14.79370        -4.65032        -3.47438
| 64>    S       15.07685        -4.49109        -5.16230
| 65>    C       16.58155        -5.39821        -5.02424
| 66>    C       16.81123        -5.84361        -3.72561
| 67>    C       17.89187        -6.78784        -3.30054
| 68>    C       18.71817        -6.25527        -2.12888
| 69>    C       17.27238        -5.63288        -6.23447
| 70>    C       18.60349        -5.81190        -6.47493
| 71>    C       19.78356        -5.50264        -5.70173
| 72>    C       19.89575        -4.51652        -4.75718
| 73>    C       21.10150        -4.18542        -4.10583
| 74>    N       22.05108        -3.89134        -3.53252
| 75>    C       18.82974        -3.67110        -4.38847
| 76>    N       18.00350        -2.93554        -4.08231
| 77>    C       20.90247        -6.22324        -6.30949
| 78>    C       22.20940        -6.39777        -5.88553
| 79>    C       23.06446        -7.12233        -6.70291
| 80>    F       24.32721        -7.31740        -6.30872
| 81>    C       22.63733        -7.65436        -7.92031
| 82>    F       23.49888        -8.34096        -8.67962
| 83>    C       21.33050        -7.48349        -8.34940
| 84>    C       20.47518        -6.77233        -7.53141
| 85>    C       19.03771        -6.47185        -7.73180
| 86>    O       18.35132        -6.74132        -8.68937
| 87>    H        4.96684         3.67926        -3.97090
| 88>    H        1.23942         4.79609        -0.85475
| 89>    H        4.28672         0.91526         1.64979
| 90>    H        5.13145         0.01817         3.35087
| 91>    H        6.21176        -1.33273         3.72166
| 92>    H        3.68558        -1.53057         2.00654
| 93>    H        3.84391        -2.06216         3.68013
| 94>    H        4.76817        -2.86857         2.40782
| 95>    H        9.21270        -0.50696        -2.18795
| 96>    H       10.55308        -1.29674        -3.01537
| 97>    H       10.78373         0.53594        -0.57923
| 98>    H       11.24255         0.94554        -2.23274
| 99>    H       12.14808        -0.28600        -1.33867
|100>    H       11.55811        -5.71421         4.29316
|101>    H       13.79250        -6.44424         3.35091
|102>    H       10.99608        -3.01661        -3.70066
|103>    H       12.24529        -3.93482        -4.53691
|104>    H       12.23074        -1.56109        -5.30410
|105>    H       13.77122        -2.03252        -4.59042
|106>    H       12.65633        -1.02765        -3.67255
|107>    H       18.53892        -7.01998        -4.14683
|108>    H       17.41164        -7.71968        -2.98520
|109>    H       19.11925        -5.26764        -2.34070
|110>    H       19.54693        -6.92906        -1.92664
|111>    H       18.10660        -6.18289        -1.23390
|112>    H       16.64309        -5.72598        -7.11614
|113>    H       22.58139        -6.00685        -4.95234
|114>    H       20.99973        -7.89444        -9.28987
|115> *
|116>
|117>                          ****END OF INPUT****

CARTESIAN COORDINATES (ANGSTROEM)
---------------------------------
  C      4.925100    2.248150   -1.479930
  O      5.920840    1.776850   -2.000860
  C      4.048490    3.284000   -2.066740
  C      4.164000    3.913170   -3.290090
  C      3.208150    4.861780   -3.616480
  F      3.279630    5.497230   -4.792640
  C      2.173100    5.160600   -2.730600
  F      1.264340    6.081450   -3.070840
  C      2.058320    4.527170   -1.501390
  C      3.009570    3.576280   -1.167550
  C      3.171530    2.741830    0.025340
  C      2.334680    2.756000    1.112020
  C      2.466420    1.958740    2.268350
  N      2.499070    1.346490    3.240120
  C      1.201790    3.589740    1.226150
  N      0.269250    4.240390    1.383070
  C      4.352180    1.927800   -0.173880
  C      4.845680    1.012520    0.729270
  C      5.957220    0.172010    0.670510
  S      7.090110    0.082290   -0.682060
  C      7.996340   -1.127290    0.142550
  C      7.443790   -1.437420    1.400080
  C      6.302170   -0.714170    1.710140
  C      5.531800   -0.923200    2.972120
  C      4.382690   -1.910840    2.749410
  S      8.344430   -2.658150    2.281480
  C      9.455910   -2.741460    0.962790
  C      9.142860   -1.886290   -0.100660
  N     10.069780   -2.021170   -1.103680
  C     10.208670   -0.935850   -2.051740
  C     11.159400    0.132880   -1.516680
  C     10.999500   -2.956220   -0.684680
  C     10.643420   -3.403730    0.620750
  C     11.441060   -4.279300    1.403520
  N     11.052150   -4.651130    2.628050
  C     11.880540   -5.416370    3.305190
  C     13.113970   -5.823460    2.782570
  N     13.510860   -5.479470    1.576510
  C     12.679490   -4.708240    0.866970
  C     12.988180   -4.340230   -0.468680
  C     12.139390   -3.540530   -1.288120
  N     12.658670   -3.518470   -2.566150
  C     12.074810   -3.118700   -3.825690
  C     12.721140   -1.850150   -4.378950
  C     13.821750   -4.239850   -2.558890
  C     14.061050   -4.744470   -1.275960
  S     15.496790   -5.694920   -1.158490
  C     15.789240   -5.427770   -2.862940
  C     14.793700   -4.650320   -3.474380
  S     15.076850   -4.491090   -5.162300
  C     16.581550   -5.398210   -5.024240
  C     16.811230   -5.843610   -3.725610
  C     17.891870   -6.787840   -3.300540
  C     18.718170   -6.255270   -2.128880
  C     17.272380   -5.632880   -6.234470
  C     18.603490   -5.811900   -6.474930
  C     19.783560   -5.502640   -5.701730
  C     19.895750   -4.516520   -4.757180
  C     21.101500   -4.185420   -4.105830
  N     22.051080   -3.891340   -3.532520
  C     18.829740   -3.671100   -4.388470
  N     18.003500   -2.935540   -4.082310
  C     20.902470   -6.223240   -6.309490
  C     22.209400   -6.397770   -5.885530
  C     23.064460   -7.122330   -6.702910
  F     24.327210   -7.317400   -6.308720
  C     22.637330   -7.654360   -7.920310
  F     23.498880   -8.340960   -8.679620
  C     21.330500   -7.483490   -8.349400
  C     20.475180   -6.772330   -7.531410
  C     19.037710   -6.471850   -7.731800
  O     18.351320   -6.741320   -8.689370
  H      4.966840    3.679260   -3.970900
  H      1.239420    4.796090   -0.854750
  H      4.286720    0.915260    1.649790
  H      5.131450    0.018170    3.350870
  H      6.211760   -1.332730    3.721660
  H      3.685580   -1.530570    2.006540
  H      3.843910   -2.062160    3.680130
  H      4.768170   -2.868570    2.407820
  H      9.212700   -0.506960   -2.187950
  H     10.553080   -1.296740   -3.015370
  H     10.783730    0.535940   -0.579230
  H     11.242550    0.945540   -2.232740
  H     12.148080   -0.286000   -1.338670
  H     11.558110   -5.714210    4.293160
  H     13.792500   -6.444240    3.350910
  H     10.996080   -3.016610   -3.700660
  H     12.245290   -3.934820   -4.536910
  H     12.230740   -1.561090   -5.304100
  H     13.771220   -2.032520   -4.590420
  H     12.656330   -1.027650   -3.672550
  H     18.538920   -7.019980   -4.146830
  H     17.411640   -7.719680   -2.985200
  H     19.119250   -5.267640   -2.340700
  H     19.546930   -6.929060   -1.926640
  H     18.106600   -6.182890   -1.233900
  H     16.643090   -5.725980   -7.116140
  H     22.581390   -6.006850   -4.952340
  H     20.999730   -7.894440   -9.289870

 Total Charge           Charge          ....    0
 Multiplicity           Mult            ....    1
 Number of Electrons    NEL             ....  524
 Basis Dimension        Dim             .... 2424

ORBITAL ENERGIES
----------------

  NO   OCC          E(Eh)            E(eV)
   0   2.0000     -88.910984     -2419.3909
   1   2.0000     -88.906572     -2419.2708
   2   2.0000     -88.904425     -2419.2124
   3   2.0000     -88.902008     -2419.1466
   4   2.0000     -24.727923      -672.8810
   5   2.0000     -24.727589      -672.8719
   6   2.0000     -24.724606      -672.7907
   7   2.0000     -24.722595      -672.7360
   8   2.0000     -19.138002      -520.7715
   9   2.0000     -19.135587      -520.7058
  10   2.0000     -14.405765      -392.0008
  11   2.0000     -14.402811      -391.9204
  12   2.0000     -14.342827      -390.2882
  13   2.0000     -14.342781      -390.2869
  14   2.0000     -14.332687      -390.0122
  15   2.0000     -14.332353      -390.0031
  16   2.0000     -14.330904      -389.9637
  17   2.0000     -14.325318      -389.8117
  18   2.0000     -10.303921      -280.3840
  19   2.0000     -10.302966      -280.3580
  20   2.0000     -10.298833      -280.2455
  21   2.0000     -10.298186      -280.2279
  22   2.0000     -10.281227      -279.7664
  23   2.0000     -10.280103      -279.7358
  24   2.0000     -10.260429      -279.2005
  25   2.0000     -10.259437      -279.1735
  26   2.0000     -10.258956      -279.1604
  27   2.0000     -10.258613      -279.1510
  28   2.0000     -10.254513      -279.0395
  29   2.0000     -10.253503      -279.0120
  30   2.0000     -10.253168      -279.0029
  31   2.0000     -10.247247      -278.8418
  32   2.0000     -10.242405      -278.7100
  33   2.0000     -10.241108      -278.6747
  34   2.0000     -10.239913      -278.6422
  35   2.0000     -10.237388      -278.5735
  36   2.0000     -10.236592      -278.5518
  37   2.0000     -10.236104      -278.5386
  38   2.0000     -10.234358      -278.4910
  39   2.0000     -10.233252      -278.4609
  40   2.0000     -10.233048      -278.4554
  41   2.0000     -10.232681      -278.4454
  42   2.0000     -10.230587      -278.3884
  43   2.0000     -10.230397      -278.3833
  44   2.0000     -10.229589      -278.3613
  45   2.0000     -10.229161      -278.3496
  46   2.0000     -10.228491      -278.3314
  47   2.0000     -10.227566      -278.3062
  48   2.0000     -10.227520      -278.3050
  49   2.0000     -10.226983      -278.2904
  50   2.0000     -10.226726      -278.2834
  51   2.0000     -10.225750      -278.2568
  52   2.0000     -10.225303      -278.2446
  53   2.0000     -10.225122      -278.2397
  54   2.0000     -10.224394      -278.2199
  55   2.0000     -10.223849      -278.2051
  56   2.0000     -10.223768      -278.2029
  57   2.0000     -10.222172      -278.1595
  58   2.0000     -10.220510      -278.1142
  59   2.0000     -10.219806      -278.0951
  60   2.0000     -10.217991      -278.0457
  61   2.0000     -10.215816      -277.9865
  62   2.0000     -10.215264      -277.9715
  63   2.0000     -10.210918      -277.8532
  64   2.0000     -10.210558      -277.8434
  65   2.0000     -10.210305      -277.8365
  66   2.0000     -10.200944      -277.5818
  67   2.0000     -10.196033      -277.4482
  68   2.0000     -10.194657      -277.4107
  69   2.0000     -10.192671      -277.3567
  70   2.0000     -10.178390      -276.9681
  71   2.0000     -10.172450      -276.8064
  72   2.0000      -7.987450      -217.3496
  73   2.0000      -7.982029      -217.2021
  74   2.0000      -7.979909      -217.1444
  75   2.0000      -7.977088      -217.0676
  76   2.0000      -5.950180      -161.9126
  77   2.0000      -5.946358      -161.8086
  78   2.0000      -5.945014      -161.7721
  79   2.0000      -5.943612      -161.7339
  80   2.0000      -5.942901      -161.7146
  81   2.0000      -5.941177      -161.6676
  82   2.0000      -5.940112      -161.6387
  83   2.0000      -5.939118      -161.6116
  84   2.0000      -5.937853      -161.5772
  85   2.0000      -5.935837      -161.5223
  86   2.0000      -5.935666      -161.5177
  87   2.0000      -5.933051      -161.4465
  88   2.0000      -1.271249       -34.5925
  89   2.0000      -1.266885       -34.4737
  90   2.0000      -1.257867       -34.2283
  91   2.0000      -1.253496       -34.1094
  92   2.0000      -1.068865       -29.0853
  93   2.0000      -1.066606       -29.0238
  94   2.0000      -1.043960       -28.4076
  95   2.0000      -1.031826       -28.0774
  96   2.0000      -1.004803       -27.3421
  97   2.0000      -0.950174       -25.8556
  98   2.0000      -0.945155       -25.7190
  99   2.0000      -0.936569       -25.4853
 100   2.0000      -0.933360       -25.3980
 101   2.0000      -0.930865       -25.3301
 102   2.0000      -0.930527       -25.3209
 103   2.0000      -0.927761       -25.2457
 104   2.0000      -0.927386       -25.2355
 105   2.0000      -0.922868       -25.1125
 106   2.0000      -0.891892       -24.2696
 107   2.0000      -0.886645       -24.1269
 108   2.0000      -0.882469       -24.0132
 109   2.0000      -0.876351       -23.8467
 110   2.0000      -0.867960       -23.6184
 111   2.0000      -0.839616       -22.8471
 112   2.0000      -0.832634       -22.6571
 113   2.0000      -0.827648       -22.5214
 114   2.0000      -0.824845       -22.4452
 115   2.0000      -0.819192       -22.2914
 116   2.0000      -0.818336       -22.2681
 117   2.0000      -0.809282       -22.0217
 118   2.0000      -0.804650       -21.8956
 119   2.0000      -0.803858       -21.8741
 120   2.0000      -0.799484       -21.7551
 121   2.0000      -0.787094       -21.4179
 122   2.0000      -0.779095       -21.2003
 123   2.0000      -0.761725       -20.7276
 124   2.0000      -0.759626       -20.6705
 125   2.0000      -0.753847       -20.5132
 126   2.0000      -0.742536       -20.2054
 127   2.0000      -0.732388       -19.9293
 128   2.0000      -0.724992       -19.7280
 129   2.0000      -0.720017       -19.5927
 130   2.0000      -0.706037       -19.2122
 131   2.0000      -0.702384       -19.1129
 132   2.0000      -0.701017       -19.0756
 133   2.0000      -0.697494       -18.9798
 134   2.0000      -0.692383       -18.8407
 135   2.0000      -0.673113       -18.3163
 136   2.0000      -0.666179       -18.1276
 137   2.0000      -0.661963       -18.0129
 138   2.0000      -0.654107       -17.7992
 139   2.0000      -0.649747       -17.6805
 140   2.0000      -0.646553       -17.5936
 141   2.0000      -0.640184       -17.4203
 142   2.0000      -0.636985       -17.3333
 143   2.0000      -0.627984       -17.0883
 144   2.0000      -0.620473       -16.8839
 145   2.0000      -0.615827       -16.7575
 146   2.0000      -0.611978       -16.6528
 147   2.0000      -0.603840       -16.4313
 148   2.0000      -0.594025       -16.1642
 149   2.0000      -0.592516       -16.1232
 150   2.0000      -0.586958       -15.9719
 151   2.0000      -0.580206       -15.7882
 152   2.0000      -0.577241       -15.7075
 153   2.0000      -0.575086       -15.6489
 154   2.0000      -0.571642       -15.5552
 155   2.0000      -0.564636       -15.3645
 156   2.0000      -0.553805       -15.0698
 157   2.0000      -0.551477       -15.0064
 158   2.0000      -0.545726       -14.8500
 159   2.0000      -0.543141       -14.7796
 160   2.0000      -0.540579       -14.7099
 161   2.0000      -0.534757       -14.5515
 162   2.0000      -0.532816       -14.4987
 163   2.0000      -0.526842       -14.3361
 164   2.0000      -0.523219       -14.2375
 165   2.0000      -0.522714       -14.2238
 166   2.0000      -0.518982       -14.1222
 167   2.0000      -0.517400       -14.0792
 168   2.0000      -0.517023       -14.0689
 169   2.0000      -0.507496       -13.8097
 170   2.0000      -0.501786       -13.6543
 171   2.0000      -0.499689       -13.5972
 172   2.0000      -0.496657       -13.5147
 173   2.0000      -0.489004       -13.3065
 174   2.0000      -0.488304       -13.2874
 175   2.0000      -0.487994       -13.2790
 176   2.0000      -0.487567       -13.2674
 177   2.0000      -0.486275       -13.2322
 178   2.0000      -0.483784       -13.1644
 179   2.0000      -0.483549       -13.1580
 180   2.0000      -0.480317       -13.0701
 181   2.0000      -0.472815       -12.8660
 182   2.0000      -0.470348       -12.7988
 183   2.0000      -0.467472       -12.7206
 184   2.0000      -0.466150       -12.6846
 185   2.0000      -0.464957       -12.6521
 186   2.0000      -0.464681       -12.6446
 187   2.0000      -0.461846       -12.5675
 188   2.0000      -0.458697       -12.4818
 189   2.0000      -0.455814       -12.4033
 190   2.0000      -0.454131       -12.3575
 191   2.0000      -0.452318       -12.3082
 192   2.0000      -0.449048       -12.2192
 193   2.0000      -0.445559       -12.1243
 194   2.0000      -0.443183       -12.0596
 195   2.0000      -0.441389       -12.0108
 196   2.0000      -0.435137       -11.8407
 197   2.0000      -0.433789       -11.8040
 198   2.0000      -0.431799       -11.7498
 199   2.0000      -0.430715       -11.7203
 200   2.0000      -0.428790       -11.6680
 201   2.0000      -0.427837       -11.6420
 202   2.0000      -0.426274       -11.5995
 203   2.0000      -0.425896       -11.5892
 204   2.0000      -0.422186       -11.4883
 205   2.0000      -0.421036       -11.4570
 206   2.0000      -0.417980       -11.3738
 207   2.0000      -0.414236       -11.2719
 208   2.0000      -0.412246       -11.2178
 209   2.0000      -0.411348       -11.1934
 210   2.0000      -0.407599       -11.0913
 211   2.0000      -0.404774       -11.0145
 212   2.0000      -0.402172       -10.9437
 213   2.0000      -0.400163       -10.8890
 214   2.0000      -0.397792       -10.8245
 215   2.0000      -0.393943       -10.7197
 216   2.0000      -0.393293       -10.7020
 217   2.0000      -0.391743       -10.6599
 218   2.0000      -0.391534       -10.6542
 219   2.0000      -0.391002       -10.6397
 220   2.0000      -0.388188       -10.5631
 221   2.0000      -0.387746       -10.5511
 222   2.0000      -0.386594       -10.5197
 223   2.0000      -0.383639       -10.4394
 224   2.0000      -0.381062       -10.3692
 225   2.0000      -0.379857       -10.3364
 226   2.0000      -0.379105       -10.3160
 227   2.0000      -0.372990       -10.1496
 228   2.0000      -0.369815       -10.0632
 229   2.0000      -0.367543       -10.0014
 230   2.0000      -0.366912        -9.9842
 231   2.0000      -0.365583        -9.9480
 232   2.0000      -0.363880        -9.9017
 233   2.0000      -0.362588        -9.8665
 234   2.0000      -0.360884        -9.8202
 235   2.0000      -0.360822        -9.8185
 236   2.0000      -0.359768        -9.7898
 237   2.0000      -0.355801        -9.6818
 238   2.0000      -0.348885        -9.4936
 239   2.0000      -0.348431        -9.4813
 240   2.0000      -0.345496        -9.4014
 241   2.0000      -0.342098        -9.3090
 242   2.0000      -0.340903        -9.2764
 243   2.0000      -0.336697        -9.1620
 244   2.0000      -0.328611        -8.9420
 245   2.0000      -0.314599        -8.5607
 246   2.0000      -0.309369        -8.4184
 247   2.0000      -0.299227        -8.1424
 248   2.0000      -0.296872        -8.0783
 249   2.0000      -0.292836        -7.9685
 250   2.0000      -0.286126        -7.7859
 251   2.0000      -0.281836        -7.6692
 252   2.0000      -0.277415        -7.5489
 253   2.0000      -0.272369        -7.4115
 254   2.0000      -0.268597        -7.3089
 255   2.0000      -0.268004        -7.2928
 256   2.0000      -0.264954        -7.2098
 257   2.0000      -0.262206        -7.1350
 258   2.0000      -0.242656        -6.6030
 259   2.0000      -0.235728        -6.4145
 260   2.0000      -0.231207        -6.2915
 261   2.0000      -0.205693        -5.5972
 262   0.0000      -0.133298        -3.6272
 263   0.0000      -0.124517        -3.3883
 264   0.0000      -0.110194        -2.9985
 265   0.0000      -0.107329        -2.9206
 266   0.0000      -0.085432        -2.3247

MULLIKEN ATOMIC CHARGES
-----------------------
   0 C :    0.202865
   1 O :   -0.344383
   2 C :    0.096094
   3 C :   -0.317580
   4 C :    0.286202
   5 F :   -0.181893
   6 C :    0.252221
   7 F :   -0.176851
   8 C :   -0.264330
   9 C :    0.079473
  10 C :   -0.004183
  11 C :    0.146195
  12 C :   -0.205908
  13 N :    0.021791
  14 C :   -0.225734
  15 N :    0.041394
  16 C :   -0.053730
  17 C :   -0.127707
  18 C :    0.062736
  19 S :    0.016905
  20 C :   -0.226295
  21 C :    0.043458
  22 C :    0.009605
  23 C :   -0.214915
  24 C :   -0.318085
  25 S :    0.022982
  26 C :   -0.156828
  27 C :    0.366359
  28 N :   -0.097962
  29 C :   -0.133578
  30 C :   -0.346373
  31 C :    0.048083
  32 C :    0.144118
  33 C :    0.036750
  34 N :   -0.227414
  35 C :   -0.044204
  36 C :   -0.040517
  37 N :   -0.227943
  38 C :    0.024261
  39 C :    0.179335
  40 C :   -0.005252
  41 N :   -0.036794
  42 C :   -0.232256
  43 C :   -0.334180
  44 C :    0.430688
  45 C :   -0.193209
  46 S :    0.010788
  47 C :    0.067817
  48 C :   -0.239134
  49 S :   -0.021318
  50 C :    0.147998
  51 C :   -0.014976
  52 C :   -0.170614
  53 C :   -0.354835
  54 C :   -0.238640
  55 C :    0.017151
  56 C :   -0.094607
  57 C :    0.075110
  58 C :   -0.203906
  59 N :    0.046802
  60 C :   -0.225010
  61 N :    0.049861
  62 C :    0.148071
  63 C :   -0.259620
  64 C :    0.261686
  65 F :   -0.175347
  66 C :    0.278639
  67 F :   -0.178549
  68 C :   -0.294663
  69 C :   -0.023606
  70 C :    0.224782
  71 O :   -0.283890
  72 H :    0.143820
  73 H :    0.164820
  74 H :    0.138991
  75 H :    0.128923
  76 H :    0.106142
  77 H :    0.116684
  78 H :    0.122274
  79 H :    0.115013
  80 H :    0.139251
  81 H :    0.109321
  82 H :    0.136975
  83 H :    0.125253
  84 H :    0.127964
  85 H :    0.118172
  86 H :    0.117499
  87 H :    0.151338
  88 H :    0.133674
  89 H :    0.121470
  90 H :    0.146902
  91 H :    0.129828
  92 H :    0.123445
  93 H :    0.114007
  94 H :    0.134343
  95 H :    0.117457
  96 H :    0.128198
  97 H :    0.148837
  98 H :    0.163569
  99 H :    0.152428
Sum of atomic charges:    0.0000000

LOEWDIN ATOMIC CHARGES
----------------------
   0 C :   -0.258000
   1 O :    0.113435
   2 C :   -0.058504
   3 C :   -0.048676
   4 C :   -0.225778
   5 F :    0.212180
   6 C :   -0.224200
   7 F :    0.216255
   8 C :   -0.048550
   9 C :   -0.043298
  10 C :    0.009452
  11 C :   -0.137559
  12 C :   -0.168088
  13 N :    0.077301
  14 C :   -0.165348
  15 N :    0.081509
  16 C :   -0.093802
  17 C :   -0.054071
  18 C :   -0.298428
  19 S :    0.780911
  20 C :   -0.338305
  21 C :   -0.322527
  22 C :   -0.128476
  23 C :   -0.230484
  24 C :   -0.282049
  25 S :    0.752350
  26 C :   -0.286104
  27 C :   -0.186937
  28 N :    0.292889
  29 C :   -0.262630
  30 C :   -0.291706
  31 C :   -0.092101
  32 C :   -0.078065
  33 C :   -0.154748
  34 N :    0.187232
  35 C :   -0.212854
  36 C :   -0.212347
  37 N :    0.186527
  38 C :   -0.154710
  39 C :   -0.078130
  40 C :   -0.093292
  41 N :    0.298237
  42 C :   -0.266999
  43 C :   -0.297291
  44 C :   -0.182443
  45 C :   -0.288153
  46 S :    0.765844
  47 C :   -0.315142
  48 C :   -0.339395
  49 S :    0.769290
  50 C :   -0.313367
  51 C :   -0.136164
  52 C :   -0.225873
  53 C :   -0.284011
  54 C :   -0.065367
  55 C :   -0.091056
  56 C :   -0.004628
  57 C :   -0.143802
  58 C :   -0.167430
  59 N :    0.086937
  60 C :   -0.159059
  61 N :    0.098275
  62 C :   -0.045324
  63 C :   -0.050159
  64 C :   -0.222797
  65 F :    0.218213
  66 C :   -0.224563
  67 F :    0.214881
  68 C :   -0.044434
  69 C :   -0.058138
  70 C :   -0.255682
  71 O :    0.139237
  72 H :    0.162700
  73 H :    0.169609
  74 H :    0.178148
  75 H :    0.147025
  76 H :    0.143566
  77 H :    0.120674
  78 H :    0.124053
  79 H :    0.119694
  80 H :    0.141200
  81 H :    0.133186
  82 H :    0.126875
  83 H :    0.125510
  84 H :    0.122232
  85 H :    0.138367
  86 H :    0.138281
  87 H :    0.136727
  88 H :    0.141731
  89 H :    0.125888
  90 H :    0.122592
  91 H :    0.121604
  92 H :    0.149858
  93 H :    0.151704
  94 H :    0.127645
  95 H :    0.122851
  96 H :    0.115097
  97 H :    0.169791
  98 H :    0.168333
  99 H :    0.165147

  Mayer bond orders larger than 0.100000
B(  0-C ,  1-O ) :   2.0163 B(  0-C ,  2-C ) :   1.0392 B(  0-C , 16-C ) :   1.0202
B(  1-O ,  2-C ) :  -0.1534 B(  2-C ,  3-C ) :   1.3036 B(  2-C ,  9-C ) :   1.3385
B(  3-C ,  4-C ) :   1.3525 B(  3-C , 72-H ) :   0.9895 B(  4-C ,  5-F ) :   1.0604
B(  4-C ,  6-C ) :   1.3462 B(  6-C ,  7-F ) :   1.0850 B(  6-C ,  8-C ) :   1.3837
B(  8-C ,  9-C ) :   1.3355 B(  8-C , 73-H ) :   0.9282 B(  9-C , 10-C ) :   1.0452
B( 10-C , 11-C ) :   1.4505 B( 10-C , 16-C ) :   1.1690 B( 11-C , 12-C ) :   1.0620
B( 11-C , 14-C ) :   1.0277 B( 12-C , 13-N ) :   2.9161 B( 14-C , 15-N ) :   2.9837
B( 16-C , 17-C ) :   1.4162 B( 17-C , 18-C ) :   1.3090 B( 17-C , 74-H ) :   0.8507
B( 18-C , 19-S ) :   1.2873 B( 18-C , 22-C ) :   1.2839 B( 19-S , 20-C ) :   1.4169
B( 19-S , 27-C ) :  -0.1431 B( 20-C , 21-C ) :   1.2640 B( 20-C , 27-C ) :   1.0583
B( 21-C , 22-C ) :   1.3782 B( 21-C , 25-S ) :   1.1989 B( 22-C , 23-C ) :   0.9434
B( 23-C , 24-C ) :   0.9660 B( 23-C , 75-H ) :   0.9520 B( 23-C , 76-H ) :   0.9717
B( 24-C , 77-H ) :   0.9740 B( 24-C , 78-H ) :   0.9728 B( 24-C , 79-H ) :   0.9707
B( 25-S , 26-C ) :   1.3587 B( 26-C , 27-C ) :   1.2529 B( 26-C , 32-C ) :   1.1770
B( 27-C , 28-N ) :   1.1320 B( 28-N , 29-C ) :   0.9019 B( 28-N , 31-C ) :   1.2000
B( 29-C , 30-C ) :   0.9558 B( 29-C , 80-H ) :   0.9579 B( 29-C , 81-H ) :   0.9573
B( 30-C , 82-H ) :   0.9679 B( 30-C , 83-H ) :   0.9707 B( 30-C , 84-H ) :   0.9701
B( 31-C , 32-C ) :   1.2649 B( 31-C , 40-C ) :   1.2887 B( 32-C , 33-C ) :   1.1607
B( 33-C , 34-N ) :   1.4269 B( 33-C , 38-C ) :   1.2733 B( 34-N , 35-C ) :   1.5663
B( 35-C , 36-C ) :   1.3001 B( 35-C , 85-H ) :   0.9677 B( 36-C , 37-N ) :   1.5648
B( 36-C , 86-H ) :   0.9677 B( 37-N , 38-C ) :   1.4197 B( 38-C , 39-C ) :   1.1510
B( 39-C , 40-C ) :   1.2230 B( 39-C , 45-C ) :   1.1414 B( 40-C , 41-N ) :   1.2422
B( 41-N , 42-C ) :   0.8666 B( 41-N , 44-C ) :   1.1228 B( 42-C , 43-C ) :   0.9344
B( 42-C , 87-H ) :   0.9748 B( 42-C , 88-H ) :   0.9599 B( 43-C , 89-H ) :   0.9699
B( 43-C , 90-H ) :   0.9618 B( 43-C , 91-H ) :   0.9757 B( 44-C , 45-C ) :   1.2400
B( 44-C , 47-C ) :  -0.1091 B( 44-C , 48-C ) :   1.0165 B( 44-C , 49-S ) :  -0.1595
B( 45-C , 46-S ) :   1.3885 B( 46-S , 47-C ) :   1.1776 B( 46-S , 48-C ) :   0.1294
B( 47-C , 48-C ) :   1.4202 B( 47-C , 51-C ) :   1.2416 B( 48-C , 49-S ) :   1.3361
B( 49-S , 50-C ) :   1.1929 B( 50-C , 51-C ) :   1.4026 B( 50-C , 54-C ) :   1.0697
B( 51-C , 52-C ) :   0.9548 B( 52-C , 53-C ) :   0.9540 B( 52-C , 92-H ) :   0.9796
B( 52-C , 93-H ) :   0.9436 B( 53-C , 94-H ) :   0.9689 B( 53-C , 95-H ) :   0.9741
B( 53-C , 96-H ) :   0.9661 B( 54-C , 55-C ) :   1.5066 B( 54-C , 71-O ) :   0.1076
B( 54-C , 97-H ) :   0.9510 B( 55-C , 56-C ) :   1.1333 B( 55-C , 70-C ) :   0.9969
B( 55-C , 71-O ) :  -0.1426 B( 56-C , 57-C ) :   1.3752 B( 56-C , 62-C ) :   1.0164
B( 57-C , 58-C ) :   1.0547 B( 57-C , 60-C ) :   1.0761 B( 58-C , 59-N ) :   2.9867
B( 60-C , 61-N ) :   2.9665 B( 62-C , 63-C ) :   1.3041 B( 62-C , 69-C ) :   1.3212
B( 63-C , 64-C ) :   1.3913 B( 63-C , 98-H ) :   0.9422 B( 64-C , 65-F ) :   1.0765
B( 64-C , 66-C ) :   1.3432 B( 66-C , 67-F ) :   1.0629 B( 66-C , 68-C ) :   1.3577
B( 68-C , 69-C ) :   1.3133 B( 68-C , 99-H ) :   0.9835 B( 69-C , 70-C ) :   0.9560
B( 69-C , 71-O ) :  -0.1488 B( 70-C , 71-O ) :   2.1868

-----------------------------------------------------------------------------
  SOC CORRECTED ABSORPTION SPECTRUM VIA TRANSITION ELECTRIC DIPOLE MOMENTS*
-----------------------------------------------------------------------------
State   Energy  Wavelength   fosc         T2         TX        TY        TZ
        (cm-1)    (nm)                  (au**2)     (au)      (au)      (au)
-----------------------------------------------------------------------------
   1   10581.3    945.1   0.000000001   0.00000   0.00001   0.00013   0.00006
   2   10581.3    945.1   0.000000001   0.00000   0.00012   0.00001   0.00010
   3   10581.3    945.1   0.000000043   0.00000   0.00095   0.00040   0.00052
   4   12219.7    818.4   0.000000092   0.00000   0.00133   0.00069   0.00048
   5   12219.7    818.4   0.000000001   0.00000   0.00015   0.00004   0.00007
   6   12219.7    818.4   0.000000073   0.00000   0.00120   0.00041   0.00060
   7   14467.4    691.2   1.723107806  39.20997   5.41034   2.37281   2.07556
   8   16173.7    618.3   0.000000468   0.00001   0.00262   0.00148   0.00071
   9   16173.7    618.3   0.000000013   0.00000   0.00041   0.00027   0.00014
  10   16173.7    618.3   0.000000002   0.00000   0.00010   0.00011   0.00014
  11   16649.6    600.6   0.633384558  12.52388   2.79789   2.13935   0.34478
  12   18555.6    538.9   0.395190678   7.01144   2.12754   1.27150   0.93183

FINAL SINGLE POINT ENERGY     -4654.328594731156

DIPOLE MOMENT
-------------
                                X             Y             Z
Electronic contribution:      7.01190      11.11433     -27.26273
Nuclear contribution   :     -6.06639     -13.19634      26.33251
                        -----------------------------------------
Total Dipole Moment    :      0.94551      -2.08201      -0.93022
                        -----------------------------------------
Magnitude (a.u.)       :      2.46862
Magnitude (Debye)      :      6.27472

Rotational constants in cm-1:     0.001998     0.000259     0.000235
Rotational constants in MHz :    59.892351     7.752177     7.034430

                             ****ORCA TERMINATED NORMALLY****
TOTAL RUN TIME: 1 days 0 hours 59 minutes 17 seconds 853 msec
