                         Program Version 4.2.0 -  RELEASE  -
|  1> # ORCA input file
|  2> # AQx-2.out: Geometry 262
|  3> ! B3LYP def2-TZVP def2/J RIJCOSX Grid4 TightSCF
|  4>
|  5> %maxcore 6000
|  6> %tddft
|  7>   maxdim 5
|  8>   nroots 3
|  9>   dosoc true
| 10>   end
| 11> %pal
| 12>   nprocs 6
| 13>   end
| 14>
| 15>
| 16> * xyz 0 1
| 17>    C        4.53080         2.45302        -1.40038
| 18>    O        5.51954         2.12565        -2.03512
| 19>    C        3.56765         3.52064        -1.77848
| 20>    C        3.55420         4.28554        -2.93960
| 21>    C        2.52682         5.21230        -3.08599
| 22>    F        2.43228         5.95854        -4.18326
| 23>    C        1.56084         5.37394        -2.07630
| 24>    F        0.60950         6.28775        -2.25275
| 25>    C        1.57828         4.60792        -0.91354
| 26>    C        2.59631         3.65618        -0.76703
| 27>    C        2.87883         2.66575         0.30323
| 28>    C        2.16261         2.56436         1.48693
| 29>    C        2.43296         1.59246         2.50003
| 30>    N        2.63097         0.80440         3.33228
| 31>    C        1.09377         3.45048         1.82647
| 32>    N        0.22942         4.16636         2.12883
| 33>    C        4.04196         1.88729        -0.12167
| 34>    C        4.57903         0.80135         0.54656
| 35>    C        5.69760        -0.03754         0.35492
| 36>    S        6.94032         0.09107        -0.91969
| 37>    C        7.82171        -1.22511        -0.21469
| 38>    C        7.17917        -1.73704         0.93641
| 39>    C        5.98221        -1.09288         1.26512
| 40>    C        5.10078        -1.55135         2.39457
| 41>    C        4.02468        -2.53457         1.90630
| 42>    S        8.08038        -3.02595         1.74264
| 43>    C        9.32846        -2.84874         0.54595
| 44>    C        9.04404        -1.89647        -0.44458
| 45>    N       10.10857        -1.81485        -1.33370
| 46>    C       10.29065        -0.59562        -2.12213
| 47>    C       10.70090         0.60330        -1.27125
| 48>    C       11.09395        -2.70326        -0.88915
| 49>    C       10.62887        -3.33810         0.30570
| 50>    C       11.43221        -4.21213         1.10380
| 51>    N       10.93077        -4.77006         2.22233
| 52>    C       11.75736        -5.52816         2.92672
| 53>    C       13.09879        -5.74382         2.53417
| 54>    N       13.60873        -5.20541         1.43674
| 55>    C       12.78028        -4.43491         0.70481
| 56>    C       13.21561        -3.87712        -0.53857
| 57>    C       12.37935        -3.08505        -1.38790
| 58>    N       13.03813        -2.90149        -2.60630
| 59>    C       12.48871        -2.46686        -3.88845
| 60>    C       13.05154        -1.12932        -4.36734
| 61>    C       14.26862        -3.53774        -2.52214
| 62>    C       14.40772        -4.11611        -1.25096
| 63>    S       15.85786        -5.05100        -1.04801
| 64>    C       16.27286        -4.71496        -2.72997
| 65>    C       15.32184        -3.90912        -3.39199
| 66>    S       15.71113        -3.75687        -5.07074
| 67>    C       17.15364        -4.78530        -4.87532
| 68>    C       17.31359        -5.21215        -3.54164
| 69>    C       18.29479        -6.21906        -3.00385
| 70>    C       19.20714        -5.66924        -1.89651
| 71>    C       17.78042        -5.20739        -6.08249
| 72>    C       19.00250        -5.77230        -6.36823
| 73>    C       20.28503        -5.84043        -5.68953
| 74>    C       20.78929        -4.90650        -4.80410
| 75>    C       22.07061        -5.03876        -4.18800
| 76>    N       23.09975        -5.15001        -3.65938
| 77>    C       20.07351        -3.71180        -4.49205
| 78>    N       19.49639        -2.73468        -4.24163
| 79>    C       21.03725        -6.97391        -6.28355
| 80>    C       22.23769        -7.59097        -5.90944
| 81>    C       22.67733        -8.66951        -6.67485
| 82>    F       23.80144        -9.30350        -6.35358
| 83>    C       21.96202        -9.12892        -7.79568
| 84>    F       22.43371       -10.18068        -8.45918
| 85>    C       20.78580        -8.50158        -8.19163
| 86>    C       20.34024        -7.43235        -7.42137
| 87>    C       19.09656        -6.63228        -7.59676
| 88>    O       18.30078        -6.70026        -8.50946
| 89>    H        4.31144         4.15759        -3.71540
| 90>    H        0.79825         4.78211        -0.17470
| 91>    H        4.03575         0.50485         1.44044
| 92>    H        4.62063        -0.70381         2.90490
| 93>    H        5.73611        -2.04629         3.14744
| 94>    H        3.33149        -2.04050         1.20897
| 95>    H        3.43904        -2.91973         2.75409
| 96>    H        4.48184        -3.38837         1.38239
| 97>    H        9.34084        -0.39595        -2.64326
| 98>    H       11.03283        -0.78392        -2.89749
| 99>    H        9.92904         0.84405        -0.52613
|100>    H       10.83976         1.48711        -1.91247
|101>    H       11.64536         0.40408        -0.74069
|102>    H       11.36788        -5.99217         3.83925
|103>    H       13.75678        -6.37231         3.14405
|104>    H       11.39554        -2.44464        -3.79408
|105>    H       12.71113        -3.25359        -4.62815
|106>    H       12.51707        -0.79290        -5.26910
|107>    H       14.11930        -1.21445        -4.61945
|108>    H       12.95280        -0.35364        -3.59351
|109>    H       18.88818        -6.65194        -3.81594
|110>    H       17.69894        -7.04891        -2.58237
|111>    H       19.83532        -4.84272        -2.24970
|112>    H       19.86606        -6.46308        -1.51505
|113>    H       18.61792        -5.28294        -1.05125
|114>    H       17.12641        -5.19156        -6.96597
|115>    H       22.83326        -7.28257        -5.05121
|116>    H       20.23192        -8.85027        -9.06458
|117> *
|118>
|119>                          ****END OF INPUT****

CARTESIAN COORDINATES (ANGSTROEM)
---------------------------------
  C      4.530800    2.453020   -1.400380
  O      5.519540    2.125650   -2.035120
  C      3.567650    3.520640   -1.778480
  C      3.554200    4.285540   -2.939600
  C      2.526820    5.212300   -3.085990
  F      2.432280    5.958540   -4.183260
  C      1.560840    5.373940   -2.076300
  F      0.609500    6.287750   -2.252750
  C      1.578280    4.607920   -0.913540
  C      2.596310    3.656180   -0.767030
  C      2.878830    2.665750    0.303230
  C      2.162610    2.564360    1.486930
  C      2.432960    1.592460    2.500030
  N      2.630970    0.804400    3.332280
  C      1.093770    3.450480    1.826470
  N      0.229420    4.166360    2.128830
  C      4.041960    1.887290   -0.121670
  C      4.579030    0.801350    0.546560
  C      5.697600   -0.037540    0.354920
  S      6.940320    0.091070   -0.919690
  C      7.821710   -1.225110   -0.214690
  C      7.179170   -1.737040    0.936410
  C      5.982210   -1.092880    1.265120
  C      5.100780   -1.551350    2.394570
  C      4.024680   -2.534570    1.906300
  S      8.080380   -3.025950    1.742640
  C      9.328460   -2.848740    0.545950
  C      9.044040   -1.896470   -0.444580
  N     10.108570   -1.814850   -1.333700
  C     10.290650   -0.595620   -2.122130
  C     10.700900    0.603300   -1.271250
  C     11.093950   -2.703260   -0.889150
  C     10.628870   -3.338100    0.305700
  C     11.432210   -4.212130    1.103800
  N     10.930770   -4.770060    2.222330
  C     11.757360   -5.528160    2.926720
  C     13.098790   -5.743820    2.534170
  N     13.608730   -5.205410    1.436740
  C     12.780280   -4.434910    0.704810
  C     13.215610   -3.877120   -0.538570
  C     12.379350   -3.085050   -1.387900
  N     13.038130   -2.901490   -2.606300
  C     12.488710   -2.466860   -3.888450
  C     13.051540   -1.129320   -4.367340
  C     14.268620   -3.537740   -2.522140
  C     14.407720   -4.116110   -1.250960
  S     15.857860   -5.051000   -1.048010
  C     16.272860   -4.714960   -2.729970
  C     15.321840   -3.909120   -3.391990
  S     15.711130   -3.756870   -5.070740
  C     17.153640   -4.785300   -4.875320
  C     17.313590   -5.212150   -3.541640
  C     18.294790   -6.219060   -3.003850
  C     19.207140   -5.669240   -1.896510
  C     17.780420   -5.207390   -6.082490
  C     19.002500   -5.772300   -6.368230
  C     20.285030   -5.840430   -5.689530
  C     20.789290   -4.906500   -4.804100
  C     22.070610   -5.038760   -4.188000
  N     23.099750   -5.150010   -3.659380
  C     20.073510   -3.711800   -4.492050
  N     19.496390   -2.734680   -4.241630
  C     21.037250   -6.973910   -6.283550
  C     22.237690   -7.590970   -5.909440
  C     22.677330   -8.669510   -6.674850
  F     23.801440   -9.303500   -6.353580
  C     21.962020   -9.128920   -7.795680
  F     22.433710  -10.180680   -8.459180
  C     20.785800   -8.501580   -8.191630
  C     20.340240   -7.432350   -7.421370
  C     19.096560   -6.632280   -7.596760
  O     18.300780   -6.700260   -8.509460
  H      4.311440    4.157590   -3.715400
  H      0.798250    4.782110   -0.174700
  H      4.035750    0.504850    1.440440
  H      4.620630   -0.703810    2.904900
  H      5.736110   -2.046290    3.147440
  H      3.331490   -2.040500    1.208970
  H      3.439040   -2.919730    2.754090
  H      4.481840   -3.388370    1.382390
  H      9.340840   -0.395950   -2.643260
  H     11.032830   -0.783920   -2.897490
  H      9.929040    0.844050   -0.526130
  H     10.839760    1.487110   -1.912470
  H     11.645360    0.404080   -0.740690
  H     11.367880   -5.992170    3.839250
  H     13.756780   -6.372310    3.144050
  H     11.395540   -2.444640   -3.794080
  H     12.711130   -3.253590   -4.628150
  H     12.517070   -0.792900   -5.269100
  H     14.119300   -1.214450   -4.619450
  H     12.952800   -0.353640   -3.593510
  H     18.888180   -6.651940   -3.815940
  H     17.698940   -7.048910   -2.582370
  H     19.835320   -4.842720   -2.249700
  H     19.866060   -6.463080   -1.515050
  H     18.617920   -5.282940   -1.051250
  H     17.126410   -5.191560   -6.965970
  H     22.833260   -7.282570   -5.051210
  H     20.231920   -8.850270   -9.064580

 Total Charge           Charge          ....    0
 Multiplicity           Mult            ....    1
 Number of Electrons    NEL             ....  524
 Basis Dimension        Dim             .... 2424

ORBITAL ENERGIES
----------------

  NO   OCC          E(Eh)            E(eV)
   0   2.0000     -88.914785     -2419.4943
   1   2.0000     -88.909416     -2419.3482
   2   2.0000     -88.909202     -2419.3424
   3   2.0000     -88.908331     -2419.3187
   4   2.0000     -24.729126      -672.9137
   5   2.0000     -24.728197      -672.8884
   6   2.0000     -24.726832      -672.8513
   7   2.0000     -24.724447      -672.7864
   8   2.0000     -19.136519      -520.7312
   9   2.0000     -19.136492      -520.7304
  10   2.0000     -14.409736      -392.1089
  11   2.0000     -14.405878      -392.0039
  12   2.0000     -14.347963      -390.4279
  13   2.0000     -14.347868      -390.4253
  14   2.0000     -14.336800      -390.1242
  15   2.0000     -14.336213      -390.1082
  16   2.0000     -14.334718      -390.0675
  17   2.0000     -14.330933      -389.9645
  18   2.0000     -10.303832      -280.3815
  19   2.0000     -10.302970      -280.3581
  20   2.0000     -10.300496      -280.2907
  21   2.0000     -10.299482      -280.2632
  22   2.0000     -10.283524      -279.8289
  23   2.0000     -10.281371      -279.7703
  24   2.0000     -10.265350      -279.3344
  25   2.0000     -10.264802      -279.3195
  26   2.0000     -10.264497      -279.3112
  27   2.0000     -10.262232      -279.2495
  28   2.0000     -10.261511      -279.2299
  29   2.0000     -10.260584      -279.2047
  30   2.0000     -10.257691      -279.1260
  31   2.0000     -10.250871      -278.9404
  32   2.0000     -10.250163      -278.9211
  33   2.0000     -10.248608      -278.8788
  34   2.0000     -10.246938      -278.8334
  35   2.0000     -10.244972      -278.7799
  36   2.0000     -10.243133      -278.7298
  37   2.0000     -10.242845      -278.7220
  38   2.0000     -10.242321      -278.7077
  39   2.0000     -10.240473      -278.6574
  40   2.0000     -10.238133      -278.5938
  41   2.0000     -10.238127      -278.5936
  42   2.0000     -10.237052      -278.5643
  43   2.0000     -10.235606      -278.5250
  44   2.0000     -10.234057      -278.4829
  45   2.0000     -10.233969      -278.4805
  46   2.0000     -10.233526      -278.4684
  47   2.0000     -10.233266      -278.4613
  48   2.0000     -10.232557      -278.4420
  49   2.0000     -10.232226      -278.4330
  50   2.0000     -10.232006      -278.4270
  51   2.0000     -10.231453      -278.4120
  52   2.0000     -10.231240      -278.4062
  53   2.0000     -10.231108      -278.4026
  54   2.0000     -10.230654      -278.3902
  55   2.0000     -10.228494      -278.3315
  56   2.0000     -10.225879      -278.2603
  57   2.0000     -10.225797      -278.2581
  58   2.0000     -10.222548      -278.1697
  59   2.0000     -10.222387      -278.1653
  60   2.0000     -10.221005      -278.1277
  61   2.0000     -10.219748      -278.0935
  62   2.0000     -10.217907      -278.0434
  63   2.0000     -10.216533      -278.0060
  64   2.0000     -10.216109      -277.9945
  65   2.0000     -10.215987      -277.9911
  66   2.0000     -10.205277      -277.6997
  67   2.0000     -10.204544      -277.6798
  68   2.0000     -10.198023      -277.5023
  69   2.0000     -10.196821      -277.4696
  70   2.0000     -10.181456      -277.0515
  71   2.0000     -10.179397      -276.9955
  72   2.0000      -7.990528      -217.4333
  73   2.0000      -7.984214      -217.2615
  74   2.0000      -7.984010      -217.2560
  75   2.0000      -7.983276      -217.2360
  76   2.0000      -5.953297      -161.9975
  77   2.0000      -5.949543      -161.8953
  78   2.0000      -5.947261      -161.8332
  79   2.0000      -5.946940      -161.8245
  80   2.0000      -5.946674      -161.8172
  81   2.0000      -5.946326      -161.8077
  82   2.0000      -5.943418      -161.7286
  83   2.0000      -5.942939      -161.7156
  84   2.0000      -5.942560      -161.7053
  85   2.0000      -5.940099      -161.6383
  86   2.0000      -5.939987      -161.6353
  87   2.0000      -5.938982      -161.6079
  88   2.0000      -1.275257       -34.7015
  89   2.0000      -1.271871       -34.6094
  90   2.0000      -1.260691       -34.3051
  91   2.0000      -1.257562       -34.2200
  92   2.0000      -1.064294       -28.9609
  93   2.0000      -1.063091       -28.9282
  94   2.0000      -1.035829       -28.1863
  95   2.0000      -1.023724       -27.8570
  96   2.0000      -1.001203       -27.2441
  97   2.0000      -0.941583       -25.6218
  98   2.0000      -0.939677       -25.5699
  99   2.0000      -0.932446       -25.3731
 100   2.0000      -0.930995       -25.3337
 101   2.0000      -0.927579       -25.2407
 102   2.0000      -0.922994       -25.1159
 103   2.0000      -0.922958       -25.1150
 104   2.0000      -0.921687       -25.0804
 105   2.0000      -0.918335       -24.9892
 106   2.0000      -0.887809       -24.1585
 107   2.0000      -0.881125       -23.9766
 108   2.0000      -0.877212       -23.8702
 109   2.0000      -0.871760       -23.7218
 110   2.0000      -0.863837       -23.5062
 111   2.0000      -0.835275       -22.7290
 112   2.0000      -0.826745       -22.4969
 113   2.0000      -0.822227       -22.3739
 114   2.0000      -0.821807       -22.3625
 115   2.0000      -0.816665       -22.2226
 116   2.0000      -0.815546       -22.1921
 117   2.0000      -0.805057       -21.9067
 118   2.0000      -0.800394       -21.7798
 119   2.0000      -0.799890       -21.7661
 120   2.0000      -0.795904       -21.6576
 121   2.0000      -0.784179       -21.3386
 122   2.0000      -0.778062       -21.1721
 123   2.0000      -0.759480       -20.6665
 124   2.0000      -0.758314       -20.6348
 125   2.0000      -0.751953       -20.4617
 126   2.0000      -0.739712       -20.1286
 127   2.0000      -0.730316       -19.8729
 128   2.0000      -0.724817       -19.7233
 129   2.0000      -0.717472       -19.5234
 130   2.0000      -0.702019       -19.1029
 131   2.0000      -0.697687       -18.9850
 132   2.0000      -0.696556       -18.9543
 133   2.0000      -0.694556       -18.8998
 134   2.0000      -0.689336       -18.7578
 135   2.0000      -0.671801       -18.2806
 136   2.0000      -0.665621       -18.1125
 137   2.0000      -0.660240       -17.9660
 138   2.0000      -0.654144       -17.8002
 139   2.0000      -0.648265       -17.6402
 140   2.0000      -0.644191       -17.5293
 141   2.0000      -0.638244       -17.3675
 142   2.0000      -0.634541       -17.2667
 143   2.0000      -0.625457       -17.0195
 144   2.0000      -0.617304       -16.7977
 145   2.0000      -0.613032       -16.6815
 146   2.0000      -0.608860       -16.5679
 147   2.0000      -0.602979       -16.4079
 148   2.0000      -0.592754       -16.1296
 149   2.0000      -0.592073       -16.1111
 150   2.0000      -0.585329       -15.9276
 151   2.0000      -0.580176       -15.7874
 152   2.0000      -0.574945       -15.6450
 153   2.0000      -0.572802       -15.5867
 154   2.0000      -0.570032       -15.5114
 155   2.0000      -0.563608       -15.3366
 156   2.0000      -0.551028       -14.9942
 157   2.0000      -0.549390       -14.9497
 158   2.0000      -0.543942       -14.8014
 159   2.0000      -0.541786       -14.7427
 160   2.0000      -0.538268       -14.6470
 161   2.0000      -0.531644       -14.4668
 162   2.0000      -0.530165       -14.4265
 163   2.0000      -0.524874       -14.2825
 164   2.0000      -0.524355       -14.2684
 165   2.0000      -0.521235       -14.1835
 166   2.0000      -0.520288       -14.1577
 167   2.0000      -0.516456       -14.0535
 168   2.0000      -0.515772       -14.0349
 169   2.0000      -0.506150       -13.7730
 170   2.0000      -0.498353       -13.5609
 171   2.0000      -0.496620       -13.5137
 172   2.0000      -0.493815       -13.4374
 173   2.0000      -0.489510       -13.3202
 174   2.0000      -0.487369       -13.2620
 175   2.0000      -0.486557       -13.2399
 176   2.0000      -0.485199       -13.2029
 177   2.0000      -0.484495       -13.1838
 178   2.0000      -0.481688       -13.1074
 179   2.0000      -0.480997       -13.0886
 180   2.0000      -0.477698       -12.9988
 181   2.0000      -0.472693       -12.8626
 182   2.0000      -0.467970       -12.7341
 183   2.0000      -0.464393       -12.6368
 184   2.0000      -0.464010       -12.6263
 185   2.0000      -0.462948       -12.5975
 186   2.0000      -0.461193       -12.5497
 187   2.0000      -0.459333       -12.4991
 188   2.0000      -0.457171       -12.4403
 189   2.0000      -0.455263       -12.3883
 190   2.0000      -0.453311       -12.3352
 191   2.0000      -0.451591       -12.2884
 192   2.0000      -0.445847       -12.1321
 193   2.0000      -0.443579       -12.0704
 194   2.0000      -0.440969       -11.9994
 195   2.0000      -0.440046       -11.9743
 196   2.0000      -0.433092       -11.7850
 197   2.0000      -0.432821       -11.7777
 198   2.0000      -0.430825       -11.7234
 199   2.0000      -0.429690       -11.6925
 200   2.0000      -0.427728       -11.6391
 201   2.0000      -0.426589       -11.6081
 202   2.0000      -0.423091       -11.5129
 203   2.0000      -0.422416       -11.4945
 204   2.0000      -0.420460       -11.4413
 205   2.0000      -0.419206       -11.4072
 206   2.0000      -0.416989       -11.3469
 207   2.0000      -0.412864       -11.2346
 208   2.0000      -0.410893       -11.1810
 209   2.0000      -0.410514       -11.1707
 210   2.0000      -0.406376       -11.0580
 211   2.0000      -0.404384       -11.0038
 212   2.0000      -0.400951       -10.9104
 213   2.0000      -0.398078       -10.8323
 214   2.0000      -0.395476       -10.7615
 215   2.0000      -0.394211       -10.7270
 216   2.0000      -0.393134       -10.6977
 217   2.0000      -0.390798       -10.6342
 218   2.0000      -0.390470       -10.6252
 219   2.0000      -0.389805       -10.6071
 220   2.0000      -0.388847       -10.5811
 221   2.0000      -0.387105       -10.5337
 222   2.0000      -0.386036       -10.5046
 223   2.0000      -0.383504       -10.4357
 224   2.0000      -0.382093       -10.3973
 225   2.0000      -0.381105       -10.3704
 226   2.0000      -0.377703       -10.2778
 227   2.0000      -0.370183       -10.0732
 228   2.0000      -0.367869       -10.0102
 229   2.0000      -0.366436        -9.9712
 230   2.0000      -0.365107        -9.9351
 231   2.0000      -0.363689        -9.8965
 232   2.0000      -0.362946        -9.8763
 233   2.0000      -0.361917        -9.8483
 234   2.0000      -0.360316        -9.8047
 235   2.0000      -0.359557        -9.7841
 236   2.0000      -0.357978        -9.7411
 237   2.0000      -0.354420        -9.6443
 238   2.0000      -0.350779        -9.5452
 239   2.0000      -0.347629        -9.4595
 240   2.0000      -0.344382        -9.3711
 241   2.0000      -0.343490        -9.3468
 242   2.0000      -0.340496        -9.2654
 243   2.0000      -0.336378        -9.1533
 244   2.0000      -0.331691        -9.0258
 245   2.0000      -0.314095        -8.5470
 246   2.0000      -0.309075        -8.4103
 247   2.0000      -0.297455        -8.0942
 248   2.0000      -0.295316        -8.0360
 249   2.0000      -0.291700        -7.9376
 250   2.0000      -0.287911        -7.8345
 251   2.0000      -0.281649        -7.6641
 252   2.0000      -0.279707        -7.6112
 253   2.0000      -0.271418        -7.3857
 254   2.0000      -0.271194        -7.3796
 255   2.0000      -0.267833        -7.2881
 256   2.0000      -0.265883        -7.2351
 257   2.0000      -0.261964        -7.1284
 258   2.0000      -0.245556        -6.6819
 259   2.0000      -0.237107        -6.4520
 260   2.0000      -0.234161        -6.3718
 261   2.0000      -0.208781        -5.6812
 262   0.0000      -0.134279        -3.6539
 263   0.0000      -0.125466        -3.4141
 264   0.0000      -0.110281        -3.0009
 265   0.0000      -0.107275        -2.9191
 266   0.0000      -0.088488        -2.4079

MULLIKEN ATOMIC CHARGES
-----------------------
   0 C :    0.207538
   1 O :   -0.345798
   2 C :    0.083342
   3 C :   -0.305126
   4 C :    0.281138
   5 F :   -0.176698
   6 C :    0.252034
   7 F :   -0.172736
   8 C :   -0.267126
   9 C :    0.093775
  10 C :    0.026140
  11 C :    0.129302
  12 C :   -0.153702
  13 N :   -0.027973
  14 C :   -0.200000
  15 N :    0.008080
  16 C :   -0.095945
  17 C :   -0.075870
  18 C :    0.019567
  19 S :    0.037272
  20 C :   -0.198347
  21 C :    0.018021
  22 C :    0.032904
  23 C :   -0.215161
  24 C :   -0.328014
  25 S :    0.033510
  26 C :   -0.116755
  27 C :    0.311884
  28 N :   -0.103016
  29 C :   -0.134891
  30 C :   -0.333690
  31 C :    0.012729
  32 C :    0.136799
  33 C :    0.024504
  34 N :   -0.231844
  35 C :   -0.042212
  36 C :   -0.036887
  37 N :   -0.232662
  38 C :    0.063627
  39 C :    0.127055
  40 C :    0.033081
  41 N :   -0.044534
  42 C :   -0.227684
  43 C :   -0.332216
  44 C :    0.289167
  45 C :   -0.141046
  46 S :    0.026710
  47 C :    0.048533
  48 C :   -0.175596
  49 S :   -0.008061
  50 C :    0.116540
  51 C :   -0.007201
  52 C :   -0.196064
  53 C :   -0.348336
  54 C :   -0.164064
  55 C :    0.006964
  56 C :   -0.122120
  57 C :    0.112803
  58 C :   -0.180035
  59 N :    0.009183
  60 C :   -0.223198
  61 N :    0.029127
  62 C :    0.141517
  63 C :   -0.258208
  64 C :    0.260614
  65 F :   -0.172196
  66 C :    0.275646
  67 F :   -0.174915
  68 C :   -0.288196
  69 C :   -0.024129
  70 C :    0.229437
  71 O :   -0.292581
  72 H :    0.147120
  73 H :    0.165826
  74 H :    0.116640
  75 H :    0.150830
  76 H :    0.106012
  77 H :    0.115273
  78 H :    0.123741
  79 H :    0.116041
  80 H :    0.136313
  81 H :    0.098592
  82 H :    0.137834
  83 H :    0.122538
  84 H :    0.122791
  85 H :    0.120604
  86 H :    0.120287
  87 H :    0.161123
  88 H :    0.136245
  89 H :    0.126055
  90 H :    0.142936
  91 H :    0.123242
  92 H :    0.136775
  93 H :    0.117012
  94 H :    0.135314
  95 H :    0.119313
  96 H :    0.125387
  97 H :    0.150962
  98 H :    0.168337
  99 H :    0.153148
Sum of atomic charges:   -0.0000000

LOEWDIN ATOMIC CHARGES
----------------------
   0 C :   -0.253222
   1 O :    0.114468
   2 C :   -0.061160
   3 C :   -0.051410
   4 C :   -0.232758
   5 F :    0.223059
   6 C :   -0.231250
   7 F :    0.224849
   8 C :   -0.052864
   9 C :   -0.040204
  10 C :    0.017041
  11 C :   -0.139000
  12 C :   -0.153303
  13 N :    0.061707
  14 C :   -0.155577
  15 N :    0.070217
  16 C :   -0.091777
  17 C :   -0.055429
  18 C :   -0.294674
  19 S :    0.763501
  20 C :   -0.333176
  21 C :   -0.319092
  22 C :   -0.121223
  23 C :   -0.235340
  24 C :   -0.288003
  25 S :    0.744462
  26 C :   -0.285001
  27 C :   -0.177978
  28 N :    0.279233
  29 C :   -0.268825
  30 C :   -0.296216
  31 C :   -0.087717
  32 C :   -0.078383
  33 C :   -0.150070
  34 N :    0.178727
  35 C :   -0.209508
  36 C :   -0.209222
  37 N :    0.177815
  38 C :   -0.149293
  39 C :   -0.079405
  40 C :   -0.086913
  41 N :    0.285828
  42 C :   -0.270243
  43 C :   -0.305117
  44 C :   -0.173722
  45 C :   -0.288400
  46 S :    0.753053
  47 C :   -0.311560
  48 C :   -0.334097
  49 S :    0.746160
  50 C :   -0.296906
  51 C :   -0.123976
  52 C :   -0.230152
  53 C :   -0.287082
  54 C :   -0.068638
  55 C :   -0.089293
  56 C :   -0.005906
  57 C :   -0.145960
  58 C :   -0.156017
  59 N :    0.074206
  60 C :   -0.155961
  61 N :    0.086631
  62 C :   -0.040925
  63 C :   -0.054995
  64 C :   -0.230244
  65 F :    0.226812
  66 C :   -0.233145
  67 F :    0.224773
  68 C :   -0.048378
  69 C :   -0.060924
  70 C :   -0.247503
  71 O :    0.132142
  72 H :    0.165125
  73 H :    0.170839
  74 H :    0.180269
  75 H :    0.148985
  76 H :    0.144303
  77 H :    0.122249
  78 H :    0.125612
  79 H :    0.121736
  80 H :    0.141237
  81 H :    0.137937
  82 H :    0.126280
  83 H :    0.129027
  84 H :    0.125480
  85 H :    0.140577
  86 H :    0.140511
  87 H :    0.140800
  88 H :    0.141201
  89 H :    0.129517
  90 H :    0.124062
  91 H :    0.122712
  92 H :    0.149900
  93 H :    0.152104
  94 H :    0.128353
  95 H :    0.125279
  96 H :    0.118900
  97 H :    0.173314
  98 H :    0.169355
  99 H :    0.166792

  Mayer bond orders larger than 0.100000
B(  0-C ,  1-O ) :   2.0451 B(  0-C ,  2-C ) :   1.0299 B(  0-C , 16-C ) :   0.9945
B(  1-O ,  2-C ) :  -0.1502 B(  2-C ,  3-C ) :   1.3054 B(  2-C ,  9-C ) :   1.3419
B(  3-C ,  4-C ) :   1.3593 B(  3-C , 72-H ) :   0.9799 B(  4-C ,  5-F ) :   1.0665
B(  4-C ,  6-C ) :   1.3322 B(  6-C ,  7-F ) :   1.0851 B(  6-C ,  8-C ) :   1.3966
B(  8-C ,  9-C ) :   1.3178 B(  8-C , 73-H ) :   0.9279 B(  9-C , 10-C ) :   1.0327
B( 10-C , 11-C ) :   1.4410 B( 10-C , 16-C ) :   1.1651 B( 11-C , 12-C ) :   1.0661
B( 11-C , 14-C ) :   1.0193 B( 12-C , 13-N ) :   2.8813 B( 14-C , 15-N ) :   2.9780
B( 16-C , 17-C ) :   1.4329 B( 17-C , 18-C ) :   1.2794 B( 17-C , 74-H ) :   0.8631
B( 18-C , 19-S ) :   1.2781 B( 18-C , 22-C ) :   1.2932 B( 19-S , 20-C ) :   1.3551
B( 19-S , 27-C ) :  -0.1092 B( 20-C , 21-C ) :   1.2737 B( 20-C , 27-C ) :   1.0902
B( 21-C , 22-C ) :   1.3570 B( 21-C , 25-S ) :   1.1973 B( 22-C , 23-C ) :   0.9393
B( 23-C , 24-C ) :   0.9594 B( 23-C , 75-H ) :   0.9443 B( 23-C , 76-H ) :   0.9703
B( 24-C , 77-H ) :   0.9703 B( 24-C , 78-H ) :   0.9707 B( 24-C , 79-H ) :   0.9730
B( 25-S , 26-C ) :   1.3434 B( 26-C , 27-C ) :   1.2662 B( 26-C , 32-C ) :   1.1728
B( 27-C , 28-N ) :   1.1225 B( 28-N , 29-C ) :   0.8936 B( 28-N , 31-C ) :   1.2041
B( 29-C , 30-C ) :   0.9683 B( 29-C , 80-H ) :   0.9596 B( 29-C , 81-H ) :   0.9623
B( 30-C , 82-H ) :   0.9675 B( 30-C , 83-H ) :   0.9673 B( 30-C , 84-H ) :   0.9670
B( 31-C , 32-C ) :   1.2740 B( 31-C , 40-C ) :   1.2507 B( 32-C , 33-C ) :   1.1481
B( 33-C , 34-N ) :   1.4186 B( 33-C , 38-C ) :   1.2804 B( 34-N , 35-C ) :   1.5624
B( 35-C , 36-C ) :   1.2948 B( 35-C , 85-H ) :   0.9648 B( 36-C , 37-N ) :   1.5597
B( 36-C , 86-H ) :   0.9644 B( 37-N , 38-C ) :   1.4023 B( 38-C , 39-C ) :   1.1440
B( 39-C , 40-C ) :   1.2369 B( 39-C , 45-C ) :   1.1824 B( 40-C , 41-N ) :   1.2296
B( 41-N , 42-C ) :   0.8756 B( 41-N , 44-C ) :   1.1169 B( 42-C , 43-C ) :   0.9346
B( 42-C , 87-H ) :   0.9703 B( 42-C , 88-H ) :   0.9556 B( 43-C , 89-H ) :   0.9700
B( 43-C , 90-H ) :   0.9619 B( 43-C , 91-H ) :   0.9740 B( 44-C , 45-C ) :   1.2728
B( 44-C , 48-C ) :   1.1052 B( 44-C , 49-S ) :  -0.1068 B( 45-C , 46-S ) :   1.3345
B( 46-S , 47-C ) :   1.1809 B( 47-C , 48-C ) :   1.3758 B( 47-C , 51-C ) :   1.2419
B( 48-C , 49-S ) :   1.3169 B( 49-S , 50-C ) :   1.1704 B( 49-S , 51-C ) :   0.1059
B( 50-C , 51-C ) :   1.4170 B( 50-C , 54-C ) :   1.0879 B( 51-C , 52-C ) :   0.9368
B( 52-C , 53-C ) :   0.9551 B( 52-C , 92-H ) :   0.9835 B( 52-C , 93-H ) :   0.9445
B( 53-C , 94-H ) :   0.9674 B( 53-C , 95-H ) :   0.9714 B( 53-C , 96-H ) :   0.9642
B( 54-C , 55-C ) :   1.5022 B( 54-C , 97-H ) :   0.9341 B( 55-C , 56-C ) :   1.1306
B( 55-C , 70-C ) :   1.0004 B( 55-C , 71-O ) :  -0.1183 B( 56-C , 57-C ) :   1.3907
B( 56-C , 62-C ) :   1.0186 B( 57-C , 58-C ) :   1.0323 B( 57-C , 60-C ) :   1.0595
B( 58-C , 59-N ) :   2.9779 B( 60-C , 61-N ) :   2.9889 B( 62-C , 63-C ) :   1.3032
B( 62-C , 69-C ) :   1.3270 B( 63-C , 64-C ) :   1.4000 B( 63-C , 98-H ) :   0.9319
B( 64-C , 65-F ) :   1.0782 B( 64-C , 66-C ) :   1.3307 B( 66-C , 67-F ) :   1.0685
B( 66-C , 68-C ) :   1.3636 B( 68-C , 69-C ) :   1.3089 B( 68-C , 99-H ) :   0.9766
B( 69-C , 70-C ) :   0.9594 B( 69-C , 71-O ) :  -0.1386 B( 70-C , 71-O ) :   2.1492

-----------------------------------------------------------------------------
  SOC CORRECTED ABSORPTION SPECTRUM VIA TRANSITION ELECTRIC DIPOLE MOMENTS*
-----------------------------------------------------------------------------
State   Energy  Wavelength   fosc         T2         TX        TY        TZ
        (cm-1)    (nm)                  (au**2)     (au)      (au)      (au)
-----------------------------------------------------------------------------
   1   10883.3    918.8   0.000000005   0.00000   0.00032   0.00003   0.00023
   2   10883.3    918.8   0.000000003   0.00000   0.00025   0.00008   0.00013
   3   10883.3    918.8   0.000000002   0.00000   0.00017   0.00009   0.00012
   4   12551.1    796.7   0.000000017   0.00000   0.00052   0.00039   0.00010
   5   12551.1    796.7   0.000000004   0.00000   0.00028   0.00011   0.00013
   6   12551.1    796.7   0.000000007   0.00000   0.00033   0.00007   0.00023
   7   15089.8    662.7   2.394760117  52.24630   6.20014   2.96535   2.23859
   8   16701.5    598.7   0.000000503   0.00001   0.00263   0.00165   0.00052
   9   16701.5    598.7   0.000000007   0.00000   0.00032   0.00016   0.00013
  10   16701.5    598.7   0.000000020   0.00000   0.00057   0.00025   0.00006
  11   17085.6    585.3   0.265488517   5.11555   1.72401   1.46386   0.02059
  12   19173.0    521.6   0.289969103   4.97893   1.77964   1.20290   0.60405

FINAL SINGLE POINT ENERGY     -4654.332585100000

DIPOLE MOMENT
-------------
                                X             Y             Z
Electronic contribution:      4.22625       4.69554     -24.10866
Nuclear contribution   :     -4.03869      -6.33089      23.13117
                        -----------------------------------------
Total Dipole Moment    :      0.18756      -1.63536      -0.97749
                        -----------------------------------------
Magnitude (a.u.)       :      1.91443
Magnitude (Debye)      :      4.86610

Rotational constants in cm-1:     0.002166     0.000240     0.000223
Rotational constants in MHz :    64.931651     7.197326     6.689771

                             ****ORCA TERMINATED NORMALLY****
TOTAL RUN TIME: 0 days 4 hours 40 minutes 18 seconds 364 msec
