                         Program Version 4.2.0 -  RELEASE  -
|  1> # ORCA input file
|  2> # AQx.out
|  3> ! B3LYP def2-TZVP def2/J RIJCOSX Grid4 TightSCF
|  4>
|  5> %maxcore 6000
|  6> %tddft
|  7>   maxdim 5
|  8>   nroots 3
|  9>   dosoc true
| 10>   end
| 11> %pal
| 12>   nprocs 6
| 13>   end
| 14>
| 15>
| 16> * xyz 0 1
| 17>    C        8.85689         2.86215         1.35253
| 18>    O        9.48754         1.82917         1.20864
| 19>    C        9.37919         4.12391         1.91845
| 20>    C       10.64834         4.39208         2.38985
| 21>    C       10.89516         5.66453         2.88014
| 22>    F       12.11180         5.96997         3.34821
| 23>    C        9.88796         6.62904         2.89062
| 24>    F       10.15350         7.84958         3.36992
| 25>    C        8.61254         6.35793         2.41622
| 26>    C        8.35741         5.08786         1.92416
| 27>    C        7.14375         4.48948         1.36313
| 28>    C        5.94378         5.13873         1.21856
| 29>    C        4.76296         4.58385         0.68292
| 30>    N        3.76293         4.20986         0.25758
| 31>    C        5.72000         6.47976         1.59632
| 32>    N        5.46915         7.56266         1.88238
| 33>    C        7.45879         3.12040         1.01409
| 34>    C        6.57594         2.22042         0.45829
| 35>    C        6.73383         0.88225         0.10002
| 36>    S        8.21676        -0.05410         0.30831
| 37>    C        7.43994        -1.44811        -0.33788
| 38>    C        6.10411        -1.18984        -0.70233
| 39>    C        5.69451         0.11176        -0.45989
| 40>    C        4.33357         0.61267        -0.81562
| 41>    C        4.35087         1.30958        -2.17919
| 42>    S        5.27473        -2.58746        -1.36506
| 43>    C        6.72038        -3.50759        -1.14522
| 44>    C        7.78210        -2.77546        -0.60139
| 45>    N        8.87384        -3.58448        -0.44475
| 46>    C       10.05125        -3.03974         0.19012
| 47>    C       10.92401        -2.27087        -0.80167
| 48>    C        8.54358        -4.84498        -0.90414
| 49>    C        7.17837        -4.81711        -1.32645
| 50>    C        6.45712        -5.95067        -1.78208
| 51>    N        5.17475        -5.85000        -2.15185
| 52>    C        4.55782        -6.94909        -2.53187
| 53>    C        3.12896        -6.81719        -2.94123
| 54>    C        5.22580        -8.20047        -2.54769
| 55>    C        4.53316        -9.45417        -2.96607
| 56>    N        6.48957        -8.30492        -2.19378
| 57>    C        7.12335        -7.19040        -1.80965
| 58>    C        8.49381        -7.21769        -1.44365
| 59>    C        9.24090        -6.07425        -1.02694
| 60>    N       10.55552        -6.46584        -0.84678
| 61>    C       11.75990        -5.76596        -0.46599
| 62>    C       12.06602        -5.94473         1.02135
| 63>    C       10.63572        -7.80686        -1.09846
| 64>    C        9.37864        -8.30265        -1.46339
| 65>    S        9.36516        -9.99615        -1.79864
| 66>    C       11.08047       -10.05181        -1.45345
| 67>    C       11.61333        -8.80032        -1.10520
| 68>    S       13.30249        -8.90207        -0.78733
| 69>    C       13.27949       -10.64145        -1.08709
| 70>    C       12.01269       -11.08959        -1.46066
| 71>    C       11.66537       -12.51557        -1.71998
| 72>    C       11.49862       -13.27082        -0.39855
| 73>    C       14.45664       -11.40689        -1.03915
| 74>    C       15.65610       -11.10040        -0.45743
| 75>    C       16.01643       -10.12002         0.53821
| 76>    C       15.21799        -9.67386         1.56034
| 77>    C       15.62324        -8.73648         2.52922
| 78>    N       15.88905        -7.94566         3.31821
| 79>    C       13.91828       -10.17350         1.78690
| 80>    N       12.88088       -10.60060         2.03044
| 81>    C       17.46205        -9.92033         0.44467
| 82>    C       18.29436        -8.99501         1.05159
| 83>    C       19.65424        -9.07774         0.79091
| 84>    F       20.47757        -8.18461         1.35206
| 85>    C       20.18028       -10.06441        -0.04328
| 86>    F       21.50025       -10.10956        -0.26273
| 87>    C       19.35237       -10.99591        -0.65034
| 88>    C       17.99730       -10.90776        -0.40164
| 89>    C       16.89798       -11.74526        -0.94197
| 90>    O       16.99054       -12.71224        -1.66255
| 91>    H       11.42350         3.64260         2.38024
| 92>    H        7.87140         7.13935         2.44771
| 93>    H        5.58214         2.59937         0.26411
| 94>    H        3.95839         1.30505        -0.06068
| 95>    H        3.65745        -0.24315        -0.86179
| 96>    H        5.01922         2.16720        -2.16588
| 97>    H        3.35182         1.65636        -2.42684
| 98>    H        4.68418         0.62063        -2.95181
| 99>    H       10.60065        -3.83274         0.68977
|100>    H        9.70679        -2.34158         0.95972
|101>    H       11.16476        -2.87563        -1.67417
|102>    H       11.84610        -1.96109        -0.31843
|103>    H       10.40165        -1.38058        -1.14138
|104>    H        2.82827        -5.77703        -2.85551
|105>    H        2.49294        -7.43084        -2.30495
|106>    H        2.99537        -7.14905        -3.96978
|107>    H        3.67815        -9.64930        -2.32045
|108>    H        5.23005       -10.28488        -2.90234
|109>    H        4.16868        -9.36514        -3.98840
|110>    H       11.68512        -4.71867        -0.74352
|111>    H       12.57940        -6.20217        -1.04716
|112>    H       11.22743        -5.63187         1.64023
|113>    H       12.94227        -5.36335         1.29357
|114>    H       12.26742        -6.99063         1.23943
|115>    H       12.44641       -12.99225        -2.31573
|116>    H       10.72891       -12.54985        -2.27979
|117>    H       12.42260       -13.24629         0.17403
|118>    H       11.23177       -14.30610        -0.59272
|119>    H       10.71491       -12.81374         0.19987
|120>    H       14.45083       -12.32446        -1.61973
|121>    H       17.92977        -8.21612         1.70143
|122>    H       19.75961       -11.75952        -1.29367
|123> *
|124>
|125>                          ****END OF INPUT****

CARTESIAN COORDINATES (ANGSTROEM)
---------------------------------
  C      8.856890    2.862150    1.352530
  O      9.487540    1.829170    1.208640
  C      9.379190    4.123910    1.918450
  C     10.648340    4.392080    2.389850
  C     10.895160    5.664530    2.880140
  F     12.111800    5.969970    3.348210
  C      9.887960    6.629040    2.890620
  F     10.153500    7.849580    3.369920
  C      8.612540    6.357930    2.416220
  C      8.357410    5.087860    1.924160
  C      7.143750    4.489480    1.363130
  C      5.943780    5.138730    1.218560
  C      4.762960    4.583850    0.682920
  N      3.762930    4.209860    0.257580
  C      5.720000    6.479760    1.596320
  N      5.469150    7.562660    1.882380
  C      7.458790    3.120400    1.014090
  C      6.575940    2.220420    0.458290
  C      6.733830    0.882250    0.100020
  S      8.216760   -0.054100    0.308310
  C      7.439940   -1.448110   -0.337880
  C      6.104110   -1.189840   -0.702330
  C      5.694510    0.111760   -0.459890
  C      4.333570    0.612670   -0.815620
  C      4.350870    1.309580   -2.179190
  S      5.274730   -2.587460   -1.365060
  C      6.720380   -3.507590   -1.145220
  C      7.782100   -2.775460   -0.601390
  N      8.873840   -3.584480   -0.444750
  C     10.051250   -3.039740    0.190120
  C     10.924010   -2.270870   -0.801670
  C      8.543580   -4.844980   -0.904140
  C      7.178370   -4.817110   -1.326450
  C      6.457120   -5.950670   -1.782080
  N      5.174750   -5.850000   -2.151850
  C      4.557820   -6.949090   -2.531870
  C      3.128960   -6.817190   -2.941230
  C      5.225800   -8.200470   -2.547690
  C      4.533160   -9.454170   -2.966070
  N      6.489570   -8.304920   -2.193780
  C      7.123350   -7.190400   -1.809650
  C      8.493810   -7.217690   -1.443650
  C      9.240900   -6.074250   -1.026940
  N     10.555520   -6.465840   -0.846780
  C     11.759900   -5.765960   -0.465990
  C     12.066020   -5.944730    1.021350
  C     10.635720   -7.806860   -1.098460
  C      9.378640   -8.302650   -1.463390
  S      9.365160   -9.996150   -1.798640
  C     11.080470  -10.051810   -1.453450
  C     11.613330   -8.800320   -1.105200
  S     13.302490   -8.902070   -0.787330
  C     13.279490  -10.641450   -1.087090
  C     12.012690  -11.089590   -1.460660
  C     11.665370  -12.515570   -1.719980
  C     11.498620  -13.270820   -0.398550
  C     14.456640  -11.406890   -1.039150
  C     15.656100  -11.100400   -0.457430
  C     16.016430  -10.120020    0.538210
  C     15.217990   -9.673860    1.560340
  C     15.623240   -8.736480    2.529220
  N     15.889050   -7.945660    3.318210
  C     13.918280  -10.173500    1.786900
  N     12.880880  -10.600600    2.030440
  C     17.462050   -9.920330    0.444670
  C     18.294360   -8.995010    1.051590
  C     19.654240   -9.077740    0.790910
  F     20.477570   -8.184610    1.352060
  C     20.180280  -10.064410   -0.043280
  F     21.500250  -10.109560   -0.262730
  C     19.352370  -10.995910   -0.650340
  C     17.997300  -10.907760   -0.401640
  C     16.897980  -11.745260   -0.941970
  O     16.990540  -12.712240   -1.662550
  H     11.423500    3.642600    2.380240
  H      7.871400    7.139350    2.447710
  H      5.582140    2.599370    0.264110
  H      3.958390    1.305050   -0.060680
  H      3.657450   -0.243150   -0.861790
  H      5.019220    2.167200   -2.165880
  H      3.351820    1.656360   -2.426840
  H      4.684180    0.620630   -2.951810
  H     10.600650   -3.832740    0.689770
  H      9.706790   -2.341580    0.959720
  H     11.164760   -2.875630   -1.674170
  H     11.846100   -1.961090   -0.318430
  H     10.401650   -1.380580   -1.141380
  H      2.828270   -5.777030   -2.855510
  H      2.492940   -7.430840   -2.304950
  H      2.995370   -7.149050   -3.969780
  H      3.678150   -9.649300   -2.320450
  H      5.230050  -10.284880   -2.902340
  H      4.168680   -9.365140   -3.988400
  H     11.685120   -4.718670   -0.743520
  H     12.579400   -6.202170   -1.047160
  H     11.227430   -5.631870    1.640230
  H     12.942270   -5.363350    1.293570
  H     12.267420   -6.990630    1.239430
  H     12.446410  -12.992250   -2.315730
  H     10.728910  -12.549850   -2.279790
  H     12.422600  -13.246290    0.174030
  H     11.231770  -14.306100   -0.592720
  H     10.714910  -12.813740    0.199870
  H     14.450830  -12.324460   -1.619730
  H     17.929770   -8.216120    1.701430
  H     19.759610  -11.759520   -1.293670

 Total Charge           Charge          ....    0
 Multiplicity           Mult            ....    1
 Number of Electrons    NEL             ....  540
 Basis Dimension        Dim             .... 2510

ORBITAL ENERGIES
----------------

  NO   OCC          E(Eh)            E(eV)
   0   2.0000     -88.908504     -2419.3234
   1   2.0000     -88.906847     -2419.2783
   2   2.0000     -88.903380     -2419.1839
   3   2.0000     -88.902037     -2419.1474
   4   2.0000     -24.724169      -672.7788
   5   2.0000     -24.724146      -672.7782
   6   2.0000     -24.723928      -672.7723
   7   2.0000     -24.721989      -672.7195
   8   2.0000     -19.137582      -520.7601
   9   2.0000     -19.130298      -520.5619
  10   2.0000     -14.404731      -391.9727
  11   2.0000     -14.403626      -391.9426
  12   2.0000     -14.336000      -390.1024
  13   2.0000     -14.335794      -390.0968
  14   2.0000     -14.330603      -389.9555
  15   2.0000     -14.329827      -389.9344
  16   2.0000     -14.326191      -389.8355
  17   2.0000     -14.324915      -389.8007
  18   2.0000     -10.299740      -280.2702
  19   2.0000     -10.298667      -280.2410
  20   2.0000     -10.298273      -280.2302
  21   2.0000     -10.297626      -280.2126
  22   2.0000     -10.279723      -279.7255
  23   2.0000     -10.276234      -279.6305
  24   2.0000     -10.260226      -279.1949
  25   2.0000     -10.259513      -279.1755
  26   2.0000     -10.255077      -279.0548
  27   2.0000     -10.254041      -279.0266
  28   2.0000     -10.253709      -279.0176
  29   2.0000     -10.253099      -279.0010
  30   2.0000     -10.250535      -278.9312
  31   2.0000     -10.248475      -278.8752
  32   2.0000     -10.242077      -278.7011
  33   2.0000     -10.241487      -278.6850
  34   2.0000     -10.238971      -278.6166
  35   2.0000     -10.233116      -278.4572
  36   2.0000     -10.232990      -278.4538
  37   2.0000     -10.232564      -278.4422
  38   2.0000     -10.232422      -278.4383
  39   2.0000     -10.231957      -278.4257
  40   2.0000     -10.230138      -278.3762
  41   2.0000     -10.229865      -278.3688
  42   2.0000     -10.229627      -278.3623
  43   2.0000     -10.229121      -278.3485
  44   2.0000     -10.228504      -278.3317
  45   2.0000     -10.228247      -278.3248
  46   2.0000     -10.228176      -278.3228
  47   2.0000     -10.227982      -278.3175
  48   2.0000     -10.227079      -278.2930
  49   2.0000     -10.225621      -278.2533
  50   2.0000     -10.225514      -278.2504
  51   2.0000     -10.225068      -278.2382
  52   2.0000     -10.225067      -278.2382
  53   2.0000     -10.224253      -278.2161
  54   2.0000     -10.223978      -278.2086
  55   2.0000     -10.221864      -278.1511
  56   2.0000     -10.219688      -278.0918
  57   2.0000     -10.219636      -278.0904
  58   2.0000     -10.219267      -278.0804
  59   2.0000     -10.217513      -278.0327
  60   2.0000     -10.216038      -277.9925
  61   2.0000     -10.214742      -277.9573
  62   2.0000     -10.209942      -277.8267
  63   2.0000     -10.208947      -277.7996
  64   2.0000     -10.208893      -277.7981
  65   2.0000     -10.208261      -277.7809
  66   2.0000     -10.199740      -277.5490
  67   2.0000     -10.194888      -277.4170
  68   2.0000     -10.194641      -277.4103
  69   2.0000     -10.193916      -277.3906
  70   2.0000     -10.181238      -277.0456
  71   2.0000     -10.180945      -277.0376
  72   2.0000     -10.173385      -276.8319
  73   2.0000     -10.172959      -276.8203
  74   2.0000      -7.985422      -217.2944
  75   2.0000      -7.982194      -217.2065
  76   2.0000      -7.978845      -217.1154
  77   2.0000      -7.977168      -217.0698
  78   2.0000      -5.948096      -161.8559
  79   2.0000      -5.945168      -161.7763
  80   2.0000      -5.944365      -161.7544
  81   2.0000      -5.941842      -161.6857
  82   2.0000      -5.941484      -161.6760
  83   2.0000      -5.941379      -161.6731
  84   2.0000      -5.940146      -161.6396
  85   2.0000      -5.938065      -161.5830
  86   2.0000      -5.938014      -161.5816
  87   2.0000      -5.935869      -161.5232
  88   2.0000      -5.934575      -161.4880
  89   2.0000      -5.933187      -161.4502
  90   2.0000      -1.267390       -34.4874
  91   2.0000      -1.266214       -34.4554
  92   2.0000      -1.254041       -34.1242
  93   2.0000      -1.252845       -34.0916
  94   2.0000      -1.068518       -29.0759
  95   2.0000      -1.060931       -28.8694
  96   2.0000      -1.042822       -28.3766
  97   2.0000      -1.031575       -28.0706
  98   2.0000      -1.002069       -27.2677
  99   2.0000      -0.946199       -25.7474
 100   2.0000      -0.944770       -25.7085
 101   2.0000      -0.935613       -25.4593
 102   2.0000      -0.931733       -25.3537
 103   2.0000      -0.929508       -25.2932
 104   2.0000      -0.926952       -25.2236
 105   2.0000      -0.926144       -25.2017
 106   2.0000      -0.923907       -25.1408
 107   2.0000      -0.922500       -25.1025
 108   2.0000      -0.892012       -24.2729
 109   2.0000      -0.884867       -24.0784
 110   2.0000      -0.881209       -23.9789
 111   2.0000      -0.874995       -23.8098
 112   2.0000      -0.867448       -23.6045
 113   2.0000      -0.839337       -22.8395
 114   2.0000      -0.830014       -22.5858
 115   2.0000      -0.827334       -22.5129
 116   2.0000      -0.826601       -22.4930
 117   2.0000      -0.823562       -22.4103
 118   2.0000      -0.818856       -22.2822
 119   2.0000      -0.807581       -21.9754
 120   2.0000      -0.803142       -21.8546
 121   2.0000      -0.800313       -21.7776
 122   2.0000      -0.799057       -21.7435
 123   2.0000      -0.795438       -21.6450
 124   2.0000      -0.780004       -21.2250
 125   2.0000      -0.771307       -20.9883
 126   2.0000      -0.761286       -20.7156
 127   2.0000      -0.752844       -20.4859
 128   2.0000      -0.747919       -20.3519
 129   2.0000      -0.738035       -20.0830
 130   2.0000      -0.734874       -19.9969
 131   2.0000      -0.725781       -19.7495
 132   2.0000      -0.723614       -19.6905
 133   2.0000      -0.718699       -19.5568
 134   2.0000      -0.702074       -19.1044
 135   2.0000      -0.700657       -19.0658
 136   2.0000      -0.691479       -18.8161
 137   2.0000      -0.688347       -18.7309
 138   2.0000      -0.672971       -18.3125
 139   2.0000      -0.667380       -18.1603
 140   2.0000      -0.658808       -17.9271
 141   2.0000      -0.652243       -17.7484
 142   2.0000      -0.647515       -17.6198
 143   2.0000      -0.645892       -17.5756
 144   2.0000      -0.642264       -17.4769
 145   2.0000      -0.638756       -17.3814
 146   2.0000      -0.635108       -17.2822
 147   2.0000      -0.626578       -17.0501
 148   2.0000      -0.618727       -16.8364
 149   2.0000      -0.614540       -16.7225
 150   2.0000      -0.610064       -16.6007
 151   2.0000      -0.602038       -16.3823
 152   2.0000      -0.590320       -16.0634
 153   2.0000      -0.587506       -15.9868
 154   2.0000      -0.581876       -15.8336
 155   2.0000      -0.574810       -15.6414
 156   2.0000      -0.573401       -15.6030
 157   2.0000      -0.572814       -15.5870
 158   2.0000      -0.566537       -15.4163
 159   2.0000      -0.562404       -15.3038
 160   2.0000      -0.552705       -15.0399
 161   2.0000      -0.551647       -15.0111
 162   2.0000      -0.549909       -14.9638
 163   2.0000      -0.542314       -14.7571
 164   2.0000      -0.539143       -14.6708
 165   2.0000      -0.532510       -14.4903
 166   2.0000      -0.525059       -14.2876
 167   2.0000      -0.523451       -14.2438
 168   2.0000      -0.521971       -14.2036
 169   2.0000      -0.519468       -14.1355
 170   2.0000      -0.518375       -14.1057
 171   2.0000      -0.517003       -14.0684
 172   2.0000      -0.515995       -14.0409
 173   2.0000      -0.504253       -13.7214
 174   2.0000      -0.500727       -13.6255
 175   2.0000      -0.496434       -13.5087
 176   2.0000      -0.489279       -13.3140
 177   2.0000      -0.486682       -13.2433
 178   2.0000      -0.484426       -13.1819
 179   2.0000      -0.484305       -13.1786
 180   2.0000      -0.483219       -13.1490
 181   2.0000      -0.483161       -13.1475
 182   2.0000      -0.480989       -13.0884
 183   2.0000      -0.479518       -13.0483
 184   2.0000      -0.476796       -12.9743
 185   2.0000      -0.472778       -12.8649
 186   2.0000      -0.470575       -12.8050
 187   2.0000      -0.467692       -12.7266
 188   2.0000      -0.466312       -12.6890
 189   2.0000      -0.464639       -12.6435
 190   2.0000      -0.462457       -12.5841
 191   2.0000      -0.460838       -12.5400
 192   2.0000      -0.457846       -12.4586
 193   2.0000      -0.454992       -12.3810
 194   2.0000      -0.452644       -12.3171
 195   2.0000      -0.449048       -12.2192
 196   2.0000      -0.445340       -12.1183
 197   2.0000      -0.442801       -12.0492
 198   2.0000      -0.441279       -12.0078
 199   2.0000      -0.439135       -11.9495
 200   2.0000      -0.435700       -11.8560
 201   2.0000      -0.433008       -11.7827
 202   2.0000      -0.430257       -11.7079
 203   2.0000      -0.429423       -11.6852
 204   2.0000      -0.428998       -11.6736
 205   2.0000      -0.428485       -11.6597
 206   2.0000      -0.427269       -11.6266
 207   2.0000      -0.425682       -11.5834
 208   2.0000      -0.424191       -11.5428
 209   2.0000      -0.421435       -11.4678
 210   2.0000      -0.419131       -11.4051
 211   2.0000      -0.417251       -11.3540
 212   2.0000      -0.416657       -11.3378
 213   2.0000      -0.414473       -11.2784
 214   2.0000      -0.412935       -11.2365
 215   2.0000      -0.411230       -11.1901
 216   2.0000      -0.407869       -11.0987
 217   2.0000      -0.405103       -11.0234
 218   2.0000      -0.404736       -11.0134
 219   2.0000      -0.401265       -10.9190
 220   2.0000      -0.395984       -10.7753
 221   2.0000      -0.395363       -10.7584
 222   2.0000      -0.394164       -10.7257
 223   2.0000      -0.392844       -10.6898
 224   2.0000      -0.392426       -10.6784
 225   2.0000      -0.391075       -10.6417
 226   2.0000      -0.388360       -10.5678
 227   2.0000      -0.387901       -10.5553
 228   2.0000      -0.387375       -10.5410
 229   2.0000      -0.385931       -10.5017
 230   2.0000      -0.385063       -10.4781
 231   2.0000      -0.382432       -10.4065
 232   2.0000      -0.379940       -10.3387
 233   2.0000      -0.378794       -10.3075
 234   2.0000      -0.374056       -10.1786
 235   2.0000      -0.367830       -10.0092
 236   2.0000      -0.367289        -9.9944
 237   2.0000      -0.366598        -9.9756
 238   2.0000      -0.365913        -9.9570
 239   2.0000      -0.363608        -9.8943
 240   2.0000      -0.363401        -9.8886
 241   2.0000      -0.362118        -9.8537
 242   2.0000      -0.360764        -9.8169
 243   2.0000      -0.359450        -9.7811
 244   2.0000      -0.357349        -9.7240
 245   2.0000      -0.351975        -9.5777
 246   2.0000      -0.348628        -9.4866
 247   2.0000      -0.346886        -9.4392
 248   2.0000      -0.343554        -9.3486
 249   2.0000      -0.341662        -9.2971
 250   2.0000      -0.335871        -9.1395
 251   2.0000      -0.329433        -8.9643
 252   2.0000      -0.320084        -8.7099
 253   2.0000      -0.313744        -8.5374
 254   2.0000      -0.306188        -8.3318
 255   2.0000      -0.296684        -8.0732
 256   2.0000      -0.295110        -8.0304
 257   2.0000      -0.291625        -7.9355
 258   2.0000      -0.284731        -7.7479
 259   2.0000      -0.277433        -7.5493
 260   2.0000      -0.277138        -7.5413
 261   2.0000      -0.270564        -7.3624
 262   2.0000      -0.265553        -7.2261
 263   2.0000      -0.264813        -7.2059
 264   2.0000      -0.261714        -7.1216
 265   2.0000      -0.257937        -7.0188
 266   2.0000      -0.241384        -6.5684
 267   2.0000      -0.233651        -6.3580
 268   2.0000      -0.225843        -6.1455
 269   2.0000      -0.204685        -5.5698
 270   0.0000      -0.133611        -3.6358
 271   0.0000      -0.122878        -3.3437
 272   0.0000      -0.108026        -2.9395
 273   0.0000      -0.104005        -2.8301
 274   0.0000      -0.078073        -2.1245

MULLIKEN ATOMIC CHARGES
-----------------------
   0 C :    0.205605
   1 O :   -0.344869
   2 C :    0.099896
   3 C :   -0.320291
   4 C :    0.284530
   5 F :   -0.181194
   6 C :    0.254061
   7 F :   -0.176628
   8 C :   -0.275528
   9 C :    0.090840
  10 C :    0.002681
  11 C :    0.161133
  12 C :   -0.207561
  13 N :    0.021293
  14 C :   -0.244847
  15 N :    0.043426
  16 C :   -0.050518
  17 C :   -0.119622
  18 C :    0.039269
  19 S :    0.026860
  20 C :   -0.215575
  21 C :    0.004094
  22 C :    0.034681
  23 C :   -0.212463
  24 C :   -0.320715
  25 S :    0.009420
  26 C :   -0.176895
  27 C :    0.389139
  28 N :   -0.028028
  29 C :   -0.223761
  30 C :   -0.307364
  31 C :   -0.044155
  32 C :    0.211880
  33 C :    0.015122
  34 N :   -0.237578
  35 C :    0.098863
  36 C :   -0.367472
  37 C :    0.103539
  38 C :   -0.367879
  39 N :   -0.237239
  40 C :    0.012082
  41 C :    0.189717
  42 C :    0.005672
  43 N :   -0.023869
  44 C :   -0.221715
  45 C :   -0.321425
  46 C :    0.418980
  47 C :   -0.173829
  48 S :    0.018266
  49 C :   -0.021537
  50 C :   -0.190551
  51 S :   -0.049399
  52 C :    0.213823
  53 C :    0.083025
  54 C :   -0.228649
  55 C :   -0.313510
  56 C :   -0.290532
  57 C :   -0.001430
  58 C :   -0.020052
  59 C :    0.121282
  60 C :   -0.235349
  61 N :    0.034077
  62 C :   -0.224478
  63 N :    0.031233
  64 C :    0.121632
  65 C :   -0.263988
  66 C :    0.259681
  67 F :   -0.178074
  68 C :    0.279341
  69 F :   -0.181106
  70 C :   -0.292383
  71 C :   -0.019150
  72 C :    0.209680
  73 O :   -0.290045
  74 H :    0.144172
  75 H :    0.162912
  76 H :    0.137780
  77 H :    0.129827
  78 H :    0.105146
  79 H :    0.117043
  80 H :    0.122363
  81 H :    0.113669
  82 H :    0.130206
  83 H :    0.137930
  84 H :    0.114600
  85 H :    0.125665
  86 H :    0.137794
  87 H :    0.133603
  88 H :    0.118606
  89 H :    0.117975
  90 H :    0.119044
  91 H :    0.132877
  92 H :    0.117777
  93 H :    0.128326
  94 H :    0.128895
  95 H :    0.119233
  96 H :    0.130546
  97 H :    0.152154
  98 H :    0.111490
  99 H :    0.103156
 100 H :    0.129887
 101 H :    0.113412
 102 H :    0.120378
 103 H :    0.138685
 104 H :    0.160312
 105 H :    0.150966
Sum of atomic charges:   -0.0000000

LOEWDIN ATOMIC CHARGES
----------------------
   0 C :   -0.258091
   1 O :    0.113068
   2 C :   -0.058654
   3 C :   -0.048550
   4 C :   -0.225551
   5 F :    0.212198
   6 C :   -0.224103
   7 F :    0.216103
   8 C :   -0.048647
   9 C :   -0.043196
  10 C :    0.009554
  11 C :   -0.137783
  12 C :   -0.168002
  13 N :    0.076418
  14 C :   -0.165674
  15 N :    0.081499
  16 C :   -0.093923
  17 C :   -0.054553
  18 C :   -0.298632
  19 S :    0.786126
  20 C :   -0.337441
  21 C :   -0.322011
  22 C :   -0.128577
  23 C :   -0.230222
  24 C :   -0.282274
  25 S :    0.747462
  26 C :   -0.285331
  27 C :   -0.186180
  28 N :    0.298826
  29 C :   -0.266251
  30 C :   -0.297818
  31 C :   -0.088802
  32 C :   -0.078381
  33 C :   -0.158244
  34 N :    0.211109
  35 C :   -0.221941
  36 C :   -0.245408
  37 C :   -0.221934
  38 C :   -0.245600
  39 N :    0.210570
  40 C :   -0.158345
  41 C :   -0.078182
  42 C :   -0.087831
  43 N :    0.298764
  44 C :   -0.267912
  45 C :   -0.295110
  46 C :   -0.184551
  47 C :   -0.284038
  48 S :    0.758547
  49 C :   -0.320531
  50 C :   -0.333319
  51 S :    0.797511
  52 C :   -0.305214
  53 C :   -0.128553
  54 C :   -0.227843
  55 C :   -0.278654
  56 C :   -0.058575
  57 C :   -0.094515
  58 C :   -0.006820
  59 C :   -0.158177
  60 C :   -0.167379
  61 N :    0.077853
  62 C :   -0.184821
  63 N :    0.084074
  64 C :   -0.044436
  65 C :   -0.052410
  66 C :   -0.223964
  67 F :    0.215268
  68 C :   -0.225583
  69 F :    0.212368
  70 C :   -0.045949
  71 C :   -0.057272
  72 C :   -0.257489
  73 O :    0.133769
  74 H :    0.162789
  75 H :    0.169554
  76 H :    0.178085
  77 H :    0.147411
  78 H :    0.143215
  79 H :    0.120631
  80 H :    0.123889
  81 H :    0.119667
  82 H :    0.137647
  83 H :    0.143828
  84 H :    0.117384
  85 H :    0.126497
  86 H :    0.122751
  87 H :    0.132237
  88 H :    0.130356
  89 H :    0.129985
  90 H :    0.130405
  91 H :    0.132005
  92 H :    0.130006
  93 H :    0.137965
  94 H :    0.140607
  95 H :    0.119097
  96 H :    0.127494
  97 H :    0.125258
  98 H :    0.144815
  99 H :    0.142423
 100 H :    0.124095
 101 H :    0.118977
 102 H :    0.125142
 103 H :    0.172045
 104 H :    0.167282
 105 H :    0.164620

  Mayer bond orders larger than 0.100000
B(  0-C ,  1-O ) :   2.0168 B(  0-C ,  2-C ) :   1.0425 B(  0-C , 16-C ) :   1.0165
B(  1-O ,  2-C ) :  -0.1503 B(  2-C ,  3-C ) :   1.3035 B(  2-C ,  9-C ) :   1.3367
B(  3-C ,  4-C ) :   1.3565 B(  3-C , 74-H ) :   0.9882 B(  4-C ,  5-F ) :   1.0593
B(  4-C ,  6-C ) :   1.3484 B(  6-C ,  7-F ) :   1.0843 B(  6-C ,  8-C ) :   1.3853
B(  8-C ,  9-C ) :   1.3254 B(  8-C , 75-H ) :   0.9348 B(  9-C , 10-C ) :   1.0408
B( 10-C , 11-C ) :   1.4429 B( 10-C , 16-C ) :   1.1561 B( 11-C , 12-C ) :   1.0676
B( 11-C , 14-C ) :   1.0120 B( 12-C , 13-N ) :   2.9146 B( 14-C , 15-N ) :   2.9954
B( 16-C , 17-C ) :   1.3973 B( 17-C , 18-C ) :   1.3314 B( 17-C , 76-H ) :   0.8478
B( 18-C , 19-S ) :   1.2877 B( 18-C , 22-C ) :   1.2610 B( 19-S , 20-C ) :   1.4434
B( 19-S , 27-C ) :  -0.1798 B( 20-C , 21-C ) :   1.2857 B( 20-C , 27-C ) :   1.0741
B( 21-C , 22-C ) :   1.3608 B( 21-C , 25-S ) :   1.2174 B( 22-C , 23-C ) :   0.9482
B( 23-C , 24-C ) :   0.9642 B( 23-C , 77-H ) :   0.9523 B( 23-C , 78-H ) :   0.9718
B( 24-C , 79-H ) :   0.9745 B( 24-C , 80-H ) :   0.9727 B( 24-C , 81-H ) :   0.9711
B( 25-S , 26-C ) :   1.3773 B( 26-C , 27-C ) :   1.2075 B( 26-C , 32-C ) :   1.1887
B( 27-C , 28-N ) :   1.1096 B( 28-N , 29-C ) :   0.8806 B( 28-N , 31-C ) :   1.2475
B( 29-C , 30-C ) :   0.9525 B( 29-C , 82-H ) :   0.9538 B( 29-C , 83-H ) :   0.9614
B( 30-C , 84-H ) :   0.9641 B( 30-C , 85-H ) :   0.9739 B( 30-C , 86-H ) :   0.9610
B( 31-C , 32-C ) :   1.2115 B( 31-C , 42-C ) :   1.3852 B( 32-C , 33-C ) :   1.1461
B( 32-C , 34-N ) :  -0.1009 B( 33-C , 34-N ) :   1.4152 B( 33-C , 40-C ) :   1.3038
B( 34-N , 35-C ) :   1.5966 B( 35-C , 36-C ) :   0.8856 B( 35-C , 37-C ) :   1.2684
B( 36-C , 87-H ) :   1.0031 B( 36-C , 88-H ) :   0.9677 B( 36-C , 89-H ) :   0.9682
B( 37-C , 38-C ) :   0.8856 B( 37-C , 39-N ) :   1.5960 B( 38-C , 90-H ) :   0.9679
B( 38-C , 91-H ) :   1.0032 B( 38-C , 92-H ) :   0.9678 B( 39-N , 40-C ) :   1.4103
B( 40-C , 41-C ) :   1.1556 B( 41-C , 42-C ) :   1.2044 B( 41-C , 47-C ) :   1.1919
B( 42-C , 43-N ) :   1.2380 B( 43-N , 44-C ) :   0.8755 B( 43-N , 46-C ) :   1.1132
B( 44-C , 45-C ) :   0.9501 B( 44-C , 93-H ) :   0.9558 B( 44-C , 94-H ) :   0.9615
B( 45-C , 95-H ) :   0.9626 B( 45-C , 96-H ) :   0.9730 B( 45-C , 97-H ) :   0.9643
B( 46-C , 47-C ) :   1.2037 B( 46-C , 49-C ) :  -0.1012 B( 46-C , 50-C ) :   1.0489
B( 46-C , 51-S ) :  -0.1680 B( 47-C , 48-S ) :   1.3805 B( 48-S , 49-C ) :   1.1895
B( 48-S , 50-C ) :   0.1154 B( 49-C , 50-C ) :   1.3678 B( 49-C , 53-C ) :   1.3309
B( 50-C , 51-S ) :   1.3522 B( 51-S , 52-C ) :   1.1557 B( 52-C , 53-C ) :   1.3855
B( 52-C , 56-C ) :   1.0765 B( 53-C , 54-C ) :   0.9263 B( 54-C , 55-C ) :   0.9697
B( 54-C , 98-H ) :   0.9717 B( 54-C , 99-H ) :   0.9751 B( 55-C ,100-H ) :   0.9710
B( 55-C ,101-H ) :   0.9705 B( 55-C ,102-H ) :   0.9691 B( 56-C , 57-C ) :   1.4925
B( 56-C , 73-O ) :   0.1000 B( 56-C ,103-H ) :   0.9564 B( 57-C , 58-C ) :   1.1648
B( 57-C , 72-C ) :   1.0077 B( 57-C , 73-O ) :  -0.1350 B( 58-C , 59-C ) :   1.3969
B( 58-C , 64-C ) :   1.0425 B( 59-C , 60-C ) :   1.0577 B( 59-C , 62-C ) :   1.0432
B( 60-C , 61-N ) :   2.9894 B( 62-C , 63-N ) :   2.9623 B( 64-C , 65-C ) :   1.3081
B( 64-C , 71-C ) :   1.3222 B( 65-C , 66-C ) :   1.3886 B( 65-C ,104-H ) :   0.9433
B( 66-C , 67-F ) :   1.0743 B( 66-C , 68-C ) :   1.3462 B( 68-C , 69-F ) :   1.0604
B( 68-C , 70-C ) :   1.3535 B( 70-C , 71-C ) :   1.3144 B( 70-C ,105-H ) :   0.9829
B( 71-C , 72-C ) :   0.9521 B( 71-C , 73-O ) :  -0.1516 B( 72-C , 73-O ) :   2.1818

-----------------------------------------------------------------------------
  SOC CORRECTED ABSORPTION SPECTRUM VIA TRANSITION ELECTRIC DIPOLE MOMENTS*
-----------------------------------------------------------------------------
State   Energy  Wavelength   fosc         T2         TX        TY        TZ
        (cm-1)    (nm)                  (au**2)     (au)      (au)      (au)
-----------------------------------------------------------------------------
   1   10107.7    989.3   0.000000000   0.00000   0.00006   0.00004   0.00004
   2   10107.7    989.3   0.000000001   0.00000   0.00015   0.00011   0.00003
   3   10107.7    989.3   0.000000020   0.00000   0.00051   0.00062   0.00002
   4   12162.9    822.2   0.000000023   0.00000   0.00055   0.00057   0.00006
   5   12162.9    822.2   0.000000008   0.00000   0.00035   0.00029   0.00006
   6   12162.9    822.2   0.000000006   0.00000   0.00032   0.00022   0.00006
   7   14513.4    689.0   1.735006831  39.35561   3.58907   5.14528   0.01509
   8   15568.6    642.3   0.000000141   0.00000   0.00089   0.00148   0.00004
   9   15568.6    642.3   0.000000004   0.00000   0.00016   0.00026   0.00001
  10   15568.6    642.3   0.000001466   0.00003   0.00396   0.00389   0.00041
  11   16731.8    597.7   0.320141855   6.29905   0.06653   2.36885   0.82654
  12   17496.1    571.6   0.034506384   0.64928   0.76098   0.24113   0.10974

FINAL SINGLE POINT ENERGY     -4732.948764799514

DIPOLE MOMENT
-------------
                                X             Y             Z
Electronic contribution:     59.91670      40.75553      28.21904
Nuclear contribution   :    -60.31050     -43.16268     -30.49310
                        -----------------------------------------
Total Dipole Moment    :     -0.39380      -2.40715      -2.27407
                        -----------------------------------------
Magnitude (a.u.)       :      3.33479
Magnitude (Debye)      :      8.47637

Rotational constants in cm-1:     0.001089     0.000336     0.000262
Rotational constants in MHz :    32.661377    10.062791     7.849287

                             ****ORCA TERMINATED NORMALLY****
TOTAL RUN TIME: 0 days 3 hours 13 minutes 1 seconds 912 msec
