                         Program Version 4.2.0 -  RELEASE  -
|  1> # ORCA input file
|  2> # AQx.out: Geometry 24
|  3> ! B3LYP def2-TZVP def2/J RIJCOSX Grid4 TightSCF
|  4>
|  5> %maxcore 6000
|  6> %tddft
|  7>   maxdim 5
|  8>   nroots 3
|  9>   dosoc true
| 10>   end
| 11> %pal
| 12>   nprocs 6
| 13>   end
| 14>
| 15>
| 16> * xyz 0 1
| 17>    C        8.63700         2.72312         1.86103
| 18>    O        9.11167         1.60930         2.01041
| 19>    C        9.06700         3.93391         2.59534
| 20>    C       10.04815         4.01662         3.57467
| 21>    C       10.29866         5.26681         4.12638
| 22>    F       11.22362         5.41378         5.07138
| 23>    C        9.57537         6.39234         3.69130
| 24>    F        9.84642         7.57182         4.24341
| 25>    C        8.59093         6.30287         2.70914
| 26>    C        8.32617         5.04457         2.15226
| 27>    C        7.36196         4.58632         1.11554
| 28>    C        6.50374         5.42304         0.42002
| 29>    C        5.61264         4.97520        -0.60442
| 30>    N        4.87650         4.64506        -1.44218
| 31>    C        6.44219         6.83074         0.66004
| 32>    N        6.38485         7.97640         0.84849
| 33>    C        7.53278         3.14114         0.96641
| 34>    C        6.73785         2.28840         0.21618
| 35>    C        6.80881         0.90623        -0.06951
| 36>    S        8.18291        -0.15746         0.30992
| 37>    C        7.40394        -1.47215        -0.48466
| 38>    C        6.11374        -1.13977        -0.95563
| 39>    C        5.77836         0.21094        -0.76599
| 40>    C        4.53725         0.84900        -1.32886
| 41>    C        4.76245         1.35888        -2.76434
| 42>    S        5.25854        -2.53376        -1.64726
| 43>    C        6.65471        -3.53478        -1.31084
| 44>    C        7.71216        -2.82339        -0.72684
| 45>    N        8.78508        -3.66319        -0.49536
| 46>    C        9.89353        -3.21631         0.34600
| 47>    C       10.89790        -2.32461        -0.37917
| 48>    C        8.42847        -4.93537        -0.94158
| 49>    C        7.07220        -4.88302        -1.41367
| 50>    C        6.33480        -6.05592        -1.77691
| 51>    N        5.03250        -5.96789        -2.11008
| 52>    C        4.37149        -7.09270        -2.34084
| 53>    C        2.91086        -6.99376        -2.67598
| 54>    C        5.02698        -8.36689        -2.26334
| 55>    C        4.27452        -9.64391        -2.51249
| 56>    N        6.31277        -8.45536        -1.95706
| 57>    C        6.98259        -7.31520        -1.70237
| 58>    C        8.37281        -7.35452        -1.36490
| 59>    C        9.12486        -6.18266        -1.01748
| 60>    N       10.46006        -6.55682        -0.85513
| 61>    C       11.65896        -5.78315        -0.56182
| 62>    C       12.12466        -5.91850         0.88821
| 63>    C       10.54423        -7.91779        -1.06007
| 64>    C        9.27503        -8.44210        -1.34870
| 65>    S        9.28694       -10.17114        -1.59135
| 66>    C       11.03760       -10.17927        -1.32266
| 67>    C       11.55812        -8.89257        -1.07331
| 68>    S       13.26999        -8.92140        -0.84796
| 69>    C       13.29018       -10.68773        -1.01810
| 70>    C       12.00540       -11.20464        -1.29015
| 71>    C       11.67063       -12.66496        -1.36652
| 72>    C       11.11695       -13.16706        -0.02110
| 73>    C       14.51082       -11.40904        -0.98521
| 74>    C       15.75004       -11.03192        -0.51307
| 75>    C       16.17567        -9.97462         0.38885
| 76>    C       15.44679        -9.45400         1.44698
| 77>    C       15.89898        -8.33741         2.21190
| 78>    N       16.25610        -7.40050         2.80093
| 79>    C       14.21139       -10.03508         1.86897
| 80>    N       13.23198       -10.53656         2.24353
| 81>    C       17.61217        -9.72072         0.12364
| 82>    C       18.49073        -8.74557         0.61289
| 83>    C       19.81955        -8.79868         0.19869
| 84>    F       20.68616        -7.88363         0.62817
| 85>    C       20.28496        -9.80257        -0.67110
| 86>    F       21.56642        -9.78959        -1.02794
| 87>    C       19.42326       -10.78688        -1.14538
| 88>    C       18.09386       -10.72762        -0.74036
| 89>    C       16.97792       -11.64671        -1.11073
| 90>    O       17.04890       -12.64558        -1.79616
| 91>    H       10.60451         3.13768         3.90358
| 92>    H        8.07070         7.21474         2.42579
| 93>    H        5.86748         2.74971        -0.24723
| 94>    H        4.19661         1.67986        -0.69326
| 95>    H        3.72632         0.10186        -1.31460
| 96>    H        5.52131         2.15510        -2.78118
| 97>    H        3.83428         1.78078        -3.17782
| 98>    H        5.10317         0.54401        -3.42170
| 99>    H       10.36720        -4.09397         0.79199
|100>    H        9.45239        -2.66007         1.18829
|101>    H       11.37223        -2.83927        -1.22841
|102>    H       11.68762        -2.00527         0.31737
|103>    H       10.41158        -1.41981        -0.77048
|104>    H        2.59442        -5.94532        -2.60895
|105>    H        2.29706        -7.59627        -1.98815
|106>    H        2.70323        -7.36711        -3.69329
|107>    H        3.46021        -9.77883        -1.78145
|108>    H        4.96715       -10.49129        -2.42997
|109>    H        3.80425        -9.65357        -3.50975
|110>    H       11.47767        -4.74388        -0.84417
|111>    H       12.44797        -6.13974        -1.24292
|112>    H       11.32202        -5.66357         1.59628
|113>    H       12.98152        -5.25547         1.07856
|114>    H       12.44189        -6.94764         1.11011
|115>    H       12.56079       -13.24749        -1.64984
|116>    H       10.92287       -12.82227        -2.16188
|117>    H       11.85521       -13.01911         0.78059
|118>    H       10.85473       -14.23461        -0.07796
|119>    H       10.21182       -12.60753         0.26017
|120>    H       14.51480       -12.36891        -1.51611
|121>    H       18.18871        -7.94739         1.28881
|122>    H       19.78374       -11.57588        -1.80780
|123> *
|124>
|125>                          ****END OF INPUT****

CARTESIAN COORDINATES (ANGSTROEM)
---------------------------------
  C      8.637000    2.723120    1.861030
  O      9.111670    1.609300    2.010410
  C      9.067000    3.933910    2.595340
  C     10.048150    4.016620    3.574670
  C     10.298660    5.266810    4.126380
  F     11.223620    5.413780    5.071380
  C      9.575370    6.392340    3.691300
  F      9.846420    7.571820    4.243410
  C      8.590930    6.302870    2.709140
  C      8.326170    5.044570    2.152260
  C      7.361960    4.586320    1.115540
  C      6.503740    5.423040    0.420020
  C      5.612640    4.975200   -0.604420
  N      4.876500    4.645060   -1.442180
  C      6.442190    6.830740    0.660040
  N      6.384850    7.976400    0.848490
  C      7.532780    3.141140    0.966410
  C      6.737850    2.288400    0.216180
  C      6.808810    0.906230   -0.069510
  S      8.182910   -0.157460    0.309920
  C      7.403940   -1.472150   -0.484660
  C      6.113740   -1.139770   -0.955630
  C      5.778360    0.210940   -0.765990
  C      4.537250    0.849000   -1.328860
  C      4.762450    1.358880   -2.764340
  S      5.258540   -2.533760   -1.647260
  C      6.654710   -3.534780   -1.310840
  C      7.712160   -2.823390   -0.726840
  N      8.785080   -3.663190   -0.495360
  C      9.893530   -3.216310    0.346000
  C     10.897900   -2.324610   -0.379170
  C      8.428470   -4.935370   -0.941580
  C      7.072200   -4.883020   -1.413670
  C      6.334800   -6.055920   -1.776910
  N      5.032500   -5.967890   -2.110080
  C      4.371490   -7.092700   -2.340840
  C      2.910860   -6.993760   -2.675980
  C      5.026980   -8.366890   -2.263340
  C      4.274520   -9.643910   -2.512490
  N      6.312770   -8.455360   -1.957060
  C      6.982590   -7.315200   -1.702370
  C      8.372810   -7.354520   -1.364900
  C      9.124860   -6.182660   -1.017480
  N     10.460060   -6.556820   -0.855130
  C     11.658960   -5.783150   -0.561820
  C     12.124660   -5.918500    0.888210
  C     10.544230   -7.917790   -1.060070
  C      9.275030   -8.442100   -1.348700
  S      9.286940  -10.171140   -1.591350
  C     11.037600  -10.179270   -1.322660
  C     11.558120   -8.892570   -1.073310
  S     13.269990   -8.921400   -0.847960
  C     13.290180  -10.687730   -1.018100
  C     12.005400  -11.204640   -1.290150
  C     11.670630  -12.664960   -1.366520
  C     11.116950  -13.167060   -0.021100
  C     14.510820  -11.409040   -0.985210
  C     15.750040  -11.031920   -0.513070
  C     16.175670   -9.974620    0.388850
  C     15.446790   -9.454000    1.446980
  C     15.898980   -8.337410    2.211900
  N     16.256100   -7.400500    2.800930
  C     14.211390  -10.035080    1.868970
  N     13.231980  -10.536560    2.243530
  C     17.612170   -9.720720    0.123640
  C     18.490730   -8.745570    0.612890
  C     19.819550   -8.798680    0.198690
  F     20.686160   -7.883630    0.628170
  C     20.284960   -9.802570   -0.671100
  F     21.566420   -9.789590   -1.027940
  C     19.423260  -10.786880   -1.145380
  C     18.093860  -10.727620   -0.740360
  C     16.977920  -11.646710   -1.110730
  O     17.048900  -12.645580   -1.796160
  H     10.604510    3.137680    3.903580
  H      8.070700    7.214740    2.425790
  H      5.867480    2.749710   -0.247230
  H      4.196610    1.679860   -0.693260
  H      3.726320    0.101860   -1.314600
  H      5.521310    2.155100   -2.781180
  H      3.834280    1.780780   -3.177820
  H      5.103170    0.544010   -3.421700
  H     10.367200   -4.093970    0.791990
  H      9.452390   -2.660070    1.188290
  H     11.372230   -2.839270   -1.228410
  H     11.687620   -2.005270    0.317370
  H     10.411580   -1.419810   -0.770480
  H      2.594420   -5.945320   -2.608950
  H      2.297060   -7.596270   -1.988150
  H      2.703230   -7.367110   -3.693290
  H      3.460210   -9.778830   -1.781450
  H      4.967150  -10.491290   -2.429970
  H      3.804250   -9.653570   -3.509750
  H     11.477670   -4.743880   -0.844170
  H     12.447970   -6.139740   -1.242920
  H     11.322020   -5.663570    1.596280
  H     12.981520   -5.255470    1.078560
  H     12.441890   -6.947640    1.110110
  H     12.560790  -13.247490   -1.649840
  H     10.922870  -12.822270   -2.161880
  H     11.855210  -13.019110    0.780590
  H     10.854730  -14.234610   -0.077960
  H     10.211820  -12.607530    0.260170
  H     14.514800  -12.368910   -1.516110
  H     18.188710   -7.947390    1.288810
  H     19.783740  -11.575880   -1.807800

 Total Charge           Charge          ....    0
 Multiplicity           Mult            ....    1
 Number of Electrons    NEL             ....  540
 Basis Dimension        Dim             .... 2510

ORBITAL ENERGIES
----------------

  NO   OCC          E(Eh)            E(eV)
   0   2.0000     -88.911369     -2419.4014
   1   2.0000     -88.909207     -2419.3425
   2   2.0000     -88.906722     -2419.2749
   3   2.0000     -88.906125     -2419.2587
   4   2.0000     -24.726599      -672.8450
   5   2.0000     -24.725834      -672.8242
   6   2.0000     -24.725658      -672.8194
   7   2.0000     -24.723354      -672.7567
   8   2.0000     -19.135399      -520.7007
   9   2.0000     -19.132316      -520.6168
  10   2.0000     -14.405606      -391.9965
  11   2.0000     -14.404131      -391.9563
  12   2.0000     -14.337927      -390.1548
  13   2.0000     -14.337765      -390.1504
  14   2.0000     -14.335004      -390.0753
  15   2.0000     -14.334997      -390.0751
  16   2.0000     -14.331141      -389.9702
  17   2.0000     -14.330387      -389.9497
  18   2.0000     -10.301015      -280.3049
  19   2.0000     -10.300427      -280.2889
  20   2.0000     -10.299057      -280.2516
  21   2.0000     -10.298463      -280.2354
  22   2.0000     -10.279961      -279.7320
  23   2.0000     -10.279918      -279.7308
  24   2.0000     -10.262371      -279.2533
  25   2.0000     -10.261800      -279.2378
  26   2.0000     -10.261434      -279.2278
  27   2.0000     -10.260661      -279.2068
  28   2.0000     -10.259752      -279.1821
  29   2.0000     -10.259470      -279.1744
  30   2.0000     -10.252063      -278.9728
  31   2.0000     -10.250662      -278.9347
  32   2.0000     -10.245603      -278.7970
  33   2.0000     -10.245093      -278.7831
  34   2.0000     -10.242662      -278.7170
  35   2.0000     -10.239723      -278.6370
  36   2.0000     -10.238762      -278.6109
  37   2.0000     -10.238719      -278.6097
  38   2.0000     -10.236258      -278.5427
  39   2.0000     -10.235845      -278.5315
  40   2.0000     -10.235802      -278.5303
  41   2.0000     -10.235158      -278.5128
  42   2.0000     -10.234686      -278.5000
  43   2.0000     -10.234394      -278.4920
  44   2.0000     -10.233835      -278.4768
  45   2.0000     -10.233792      -278.4756
  46   2.0000     -10.233490      -278.4674
  47   2.0000     -10.232257      -278.4339
  48   2.0000     -10.232098      -278.4295
  49   2.0000     -10.232000      -278.4269
  50   2.0000     -10.231401      -278.4106
  51   2.0000     -10.230884      -278.3965
  52   2.0000     -10.230810      -278.3945
  53   2.0000     -10.230392      -278.3831
  54   2.0000     -10.230054      -278.3739
  55   2.0000     -10.229146      -278.3492
  56   2.0000     -10.222651      -278.1725
  57   2.0000     -10.222369      -278.1648
  58   2.0000     -10.220405      -278.1114
  59   2.0000     -10.219720      -278.0927
  60   2.0000     -10.219271      -278.0805
  61   2.0000     -10.215707      -277.9835
  62   2.0000     -10.215413      -277.9755
  63   2.0000     -10.214388      -277.9476
  64   2.0000     -10.214380      -277.9474
  65   2.0000     -10.213812      -277.9319
  66   2.0000     -10.203802      -277.6596
  67   2.0000     -10.199632      -277.5461
  68   2.0000     -10.199544      -277.5437
  69   2.0000     -10.198572      -277.5172
  70   2.0000     -10.186392      -277.1858
  71   2.0000     -10.185875      -277.1717
  72   2.0000     -10.178550      -276.9724
  73   2.0000     -10.175109      -276.8788
  74   2.0000      -7.987740      -217.3575
  75   2.0000      -7.983829      -217.2510
  76   2.0000      -7.981318      -217.1827
  77   2.0000      -7.981184      -217.1791
  78   2.0000      -5.950471      -161.9205
  79   2.0000      -5.946915      -161.8238
  80   2.0000      -5.946724      -161.8186
  81   2.0000      -5.944451      -161.7567
  82   2.0000      -5.944036      -161.7454
  83   2.0000      -5.943809      -161.7393
  84   2.0000      -5.943153      -161.7214
  85   2.0000      -5.940687      -161.6543
  86   2.0000      -5.939971      -161.6348
  87   2.0000      -5.939522      -161.6226
  88   2.0000      -5.937348      -161.5634
  89   2.0000      -5.936906      -161.5514
  90   2.0000      -1.272282       -34.6205
  91   2.0000      -1.270592       -34.5746
  92   2.0000      -1.258093       -34.2345
  93   2.0000      -1.256731       -34.1974
  94   2.0000      -1.063381       -28.9361
  95   2.0000      -1.059710       -28.8362
  96   2.0000      -1.034284       -28.1443
  97   2.0000      -1.022624       -27.8270
  98   2.0000      -0.995694       -27.0942
  99   2.0000      -0.939431       -25.5632
 100   2.0000      -0.938124       -25.5277
 101   2.0000      -0.930217       -25.3125
 102   2.0000      -0.926748       -25.2181
 103   2.0000      -0.925023       -25.1712
 104   2.0000      -0.921469       -25.0744
 105   2.0000      -0.920345       -25.0439
 106   2.0000      -0.919178       -25.0121
 107   2.0000      -0.917555       -24.9679
 108   2.0000      -0.885855       -24.1053
 109   2.0000      -0.879088       -23.9212
 110   2.0000      -0.875439       -23.8219
 111   2.0000      -0.869530       -23.6611
 112   2.0000      -0.862116       -23.4594
 113   2.0000      -0.833875       -22.6909
 114   2.0000      -0.824991       -22.4492
 115   2.0000      -0.821935       -22.3660
 116   2.0000      -0.820727       -22.3331
 117   2.0000      -0.819975       -22.3126
 118   2.0000      -0.814670       -22.1683
 119   2.0000      -0.803474       -21.8637
 120   2.0000      -0.799020       -21.7424
 121   2.0000      -0.796559       -21.6755
 122   2.0000      -0.794879       -21.6298
 123   2.0000      -0.791719       -21.5438
 124   2.0000      -0.776750       -21.1364
 125   2.0000      -0.767456       -20.8835
 126   2.0000      -0.757190       -20.6042
 127   2.0000      -0.749759       -20.4020
 128   2.0000      -0.744258       -20.2523
 129   2.0000      -0.734341       -19.9824
 130   2.0000      -0.731406       -19.9026
 131   2.0000      -0.723478       -19.6868
 132   2.0000      -0.720454       -19.6045
 133   2.0000      -0.714988       -19.4558
 134   2.0000      -0.697091       -18.9688
 135   2.0000      -0.695180       -18.9168
 136   2.0000      -0.689654       -18.7664
 137   2.0000      -0.683647       -18.6030
 138   2.0000      -0.670270       -18.2390
 139   2.0000      -0.664431       -18.0801
 140   2.0000      -0.656396       -17.8614
 141   2.0000      -0.648230       -17.6392
 142   2.0000      -0.645255       -17.5583
 143   2.0000      -0.643736       -17.5169
 144   2.0000      -0.640787       -17.4367
 145   2.0000      -0.636213       -17.3122
 146   2.0000      -0.632181       -17.2025
 147   2.0000      -0.623563       -16.9680
 148   2.0000      -0.615799       -16.7568
 149   2.0000      -0.610243       -16.6056
 150   2.0000      -0.607456       -16.5297
 151   2.0000      -0.601178       -16.3589
 152   2.0000      -0.589698       -16.0465
 153   2.0000      -0.586040       -15.9470
 154   2.0000      -0.577703       -15.7201
 155   2.0000      -0.573504       -15.6058
 156   2.0000      -0.571944       -15.5634
 157   2.0000      -0.571352       -15.5473
 158   2.0000      -0.564239       -15.3537
 159   2.0000      -0.560691       -15.2572
 160   2.0000      -0.549630       -14.9562
 161   2.0000      -0.548367       -14.9218
 162   2.0000      -0.546431       -14.8692
 163   2.0000      -0.540272       -14.7015
 164   2.0000      -0.538134       -14.6434
 165   2.0000      -0.530944       -14.4477
 166   2.0000      -0.522740       -14.2245
 167   2.0000      -0.521818       -14.1994
 168   2.0000      -0.521481       -14.1902
 169   2.0000      -0.520023       -14.1505
 170   2.0000      -0.519271       -14.1301
 171   2.0000      -0.515084       -14.0162
 172   2.0000      -0.513856       -13.9827
 173   2.0000      -0.500174       -13.6104
 174   2.0000      -0.499199       -13.5839
 175   2.0000      -0.493457       -13.4277
 176   2.0000      -0.487224       -13.2580
 177   2.0000      -0.487077       -13.2540
 178   2.0000      -0.485647       -13.2151
 179   2.0000      -0.482272       -13.1233
 180   2.0000      -0.481426       -13.1003
 181   2.0000      -0.479527       -13.0486
 182   2.0000      -0.477401       -12.9907
 183   2.0000      -0.476245       -12.9593
 184   2.0000      -0.472195       -12.8491
 185   2.0000      -0.470348       -12.7988
 186   2.0000      -0.468107       -12.7378
 187   2.0000      -0.463561       -12.6141
 188   2.0000      -0.462192       -12.5769
 189   2.0000      -0.461161       -12.5488
 190   2.0000      -0.460064       -12.5190
 191   2.0000      -0.458091       -12.4653
 192   2.0000      -0.454872       -12.3777
 193   2.0000      -0.452014       -12.2999
 194   2.0000      -0.450711       -12.2645
 195   2.0000      -0.447509       -12.1773
 196   2.0000      -0.442353       -12.0370
 197   2.0000      -0.439122       -11.9491
 198   2.0000      -0.437788       -11.9128
 199   2.0000      -0.437235       -11.8978
 200   2.0000      -0.434398       -11.8206
 201   2.0000      -0.430387       -11.7114
 202   2.0000      -0.429766       -11.6945
 203   2.0000      -0.428844       -11.6694
 204   2.0000      -0.427800       -11.6410
 205   2.0000      -0.424744       -11.5579
 206   2.0000      -0.423235       -11.5168
 207   2.0000      -0.423030       -11.5112
 208   2.0000      -0.422011       -11.4835
 209   2.0000      -0.419815       -11.4238
 210   2.0000      -0.417504       -11.3609
 211   2.0000      -0.416135       -11.3236
 212   2.0000      -0.414774       -11.2866
 213   2.0000      -0.412293       -11.2191
 214   2.0000      -0.410235       -11.1631
 215   2.0000      -0.409815       -11.1516
 216   2.0000      -0.407279       -11.0826
 217   2.0000      -0.403874       -10.9900
 218   2.0000      -0.401845       -10.9348
 219   2.0000      -0.399958       -10.8834
 220   2.0000      -0.395613       -10.7652
 221   2.0000      -0.393176       -10.6989
 222   2.0000      -0.392147       -10.6709
 223   2.0000      -0.391684       -10.6583
 224   2.0000      -0.390812       -10.6345
 225   2.0000      -0.389417       -10.5966
 226   2.0000      -0.388537       -10.5726
 227   2.0000      -0.388222       -10.5641
 228   2.0000      -0.385058       -10.4780
 229   2.0000      -0.384467       -10.4619
 230   2.0000      -0.383078       -10.4241
 231   2.0000      -0.381590       -10.3836
 232   2.0000      -0.380710       -10.3597
 233   2.0000      -0.380224       -10.3464
 234   2.0000      -0.370980       -10.0949
 235   2.0000      -0.366763        -9.9801
 236   2.0000      -0.365769        -9.9531
 237   2.0000      -0.364756        -9.9255
 238   2.0000      -0.362545        -9.8654
 239   2.0000      -0.361749        -9.8437
 240   2.0000      -0.361452        -9.8356
 241   2.0000      -0.359766        -9.7897
 242   2.0000      -0.357411        -9.7256
 243   2.0000      -0.356586        -9.7032
 244   2.0000      -0.355615        -9.6768
 245   2.0000      -0.349544        -9.5116
 246   2.0000      -0.348890        -9.4938
 247   2.0000      -0.346402        -9.4261
 248   2.0000      -0.344393        -9.3714
 249   2.0000      -0.340620        -9.2687
 250   2.0000      -0.335277        -9.1233
 251   2.0000      -0.327278        -8.9057
 252   2.0000      -0.320046        -8.7089
 253   2.0000      -0.312047        -8.4912
 254   2.0000      -0.304854        -8.2955
 255   2.0000      -0.294833        -8.0228
 256   2.0000      -0.292922        -7.9708
 257   2.0000      -0.289629        -7.8812
 258   2.0000      -0.285197        -7.7606
 259   2.0000      -0.278446        -7.5769
 260   2.0000      -0.277817        -7.5598
 261   2.0000      -0.269356        -7.3296
 262   2.0000      -0.264976        -7.2104
 263   2.0000      -0.264712        -7.2032
 264   2.0000      -0.260687        -7.0936
 265   2.0000      -0.257684        -7.0119
 266   2.0000      -0.242236        -6.5916
 267   2.0000      -0.234664        -6.3855
 268   2.0000      -0.226564        -6.1651
 269   2.0000      -0.206407        -5.6166
 270   0.0000      -0.134987        -3.6732
 271   0.0000      -0.124742        -3.3944
 272   0.0000      -0.107922        -2.9367
 273   0.0000      -0.104901        -2.8545
 274   0.0000      -0.078785        -2.1439

MULLIKEN ATOMIC CHARGES
-----------------------
   0 C :    0.215429
   1 O :   -0.345385
   2 C :    0.089999
   3 C :   -0.312092
   4 C :    0.283055
   5 F :   -0.176495
   6 C :    0.253719
   7 F :   -0.173243
   8 C :   -0.262535
   9 C :    0.081760
  10 C :    0.020320
  11 C :    0.137475
  12 C :   -0.180761
  13 N :   -0.010433
  14 C :   -0.198074
  15 N :    0.004390
  16 C :   -0.101452
  17 C :   -0.122547
  18 C :    0.045005
  19 S :    0.023571
  20 C :   -0.172152
  21 C :   -0.030188
  22 C :    0.055240
  23 C :   -0.212002
  24 C :   -0.323203
  25 S :    0.027575
  26 C :   -0.151730
  27 C :    0.354019
  28 N :   -0.038461
  29 C :   -0.220190
  30 C :   -0.306329
  31 C :    0.022702
  32 C :    0.119352
  33 C :    0.035906
  34 N :   -0.232466
  35 C :    0.110385
  36 C :   -0.373975
  37 C :    0.106060
  38 C :   -0.375653
  39 N :   -0.237418
  40 C :    0.030640
  41 C :    0.173008
  42 C :   -0.010835
  43 N :   -0.022862
  44 C :   -0.217784
  45 C :   -0.324306
  46 C :    0.359167
  47 C :   -0.172294
  48 S :    0.029579
  49 C :   -0.029125
  50 C :   -0.147010
  51 S :   -0.032146
  52 C :    0.169187
  53 C :    0.070040
  54 C :   -0.206541
  55 C :   -0.341363
  56 C :   -0.224878
  57 C :   -0.042945
  58 C :   -0.000429
  59 C :    0.108584
  60 C :   -0.198002
  61 N :   -0.008337
  62 C :   -0.192925
  63 N :   -0.003554
  64 C :    0.123980
  65 C :   -0.268563
  66 C :    0.262956
  67 F :   -0.174352
  68 C :    0.276666
  69 F :   -0.176523
  70 C :   -0.290830
  71 C :   -0.018619
  72 C :    0.218050
  73 O :   -0.293491
  74 H :    0.147875
  75 H :    0.166700
  76 H :    0.135725
  77 H :    0.118295
  78 H :    0.109018
  79 H :    0.129552
  80 H :    0.119933
  81 H :    0.115711
  82 H :    0.126111
  83 H :    0.144676
  84 H :    0.118194
  85 H :    0.126664
  86 H :    0.133398
  87 H :    0.134549
  88 H :    0.119124
  89 H :    0.122617
  90 H :    0.122775
  91 H :    0.133942
  92 H :    0.119176
  93 H :    0.118557
  94 H :    0.130697
  95 H :    0.123120
  96 H :    0.132863
  97 H :    0.149614
  98 H :    0.106538
  99 H :    0.109217
 100 H :    0.141755
 101 H :    0.114348
 102 H :    0.117952
 103 H :    0.138960
 104 H :    0.166605
 105 H :    0.152420
Sum of atomic charges:   -0.0000000

LOEWDIN ATOMIC CHARGES
----------------------
   0 C :   -0.256058
   1 O :    0.112974
   2 C :   -0.064119
   3 C :   -0.050343
   4 C :   -0.233135
   5 F :    0.222916
   6 C :   -0.231130
   7 F :    0.225330
   8 C :   -0.053412
   9 C :   -0.038738
  10 C :    0.016421
  11 C :   -0.139185
  12 C :   -0.155132
  13 N :    0.067597
  14 C :   -0.153391
  15 N :    0.069531
  16 C :   -0.091223
  17 C :   -0.056348
  18 C :   -0.295192
  19 S :    0.781699
  20 C :   -0.340250
  21 C :   -0.312216
  22 C :   -0.119697
  23 C :   -0.235460
  24 C :   -0.288682
  25 S :    0.725821
  26 C :   -0.276228
  27 C :   -0.183859
  28 N :    0.287494
  29 C :   -0.267306
  30 C :   -0.303648
  31 C :   -0.086540
  32 C :   -0.075301
  33 C :   -0.153962
  34 N :    0.201643
  35 C :   -0.215058
  36 C :   -0.252464
  37 C :   -0.214733
  38 C :   -0.252778
  39 N :    0.201306
  40 C :   -0.154170
  41 C :   -0.076764
  42 C :   -0.084904
  43 N :    0.289822
  44 C :   -0.269460
  45 C :   -0.300761
  46 C :   -0.181583
  47 C :   -0.277607
  48 S :    0.738092
  49 C :   -0.310511
  50 C :   -0.332707
  51 S :    0.782816
  52 C :   -0.299766
  53 C :   -0.120729
  54 C :   -0.230701
  55 C :   -0.286814
  56 C :   -0.059309
  57 C :   -0.094173
  58 C :   -0.001591
  59 C :   -0.156589
  60 C :   -0.156988
  61 N :    0.064386
  62 C :   -0.169629
  63 N :    0.072354
  64 C :   -0.040402
  65 C :   -0.056303
  66 C :   -0.230479
  67 F :    0.223615
  68 C :   -0.233106
  69 F :    0.223399
  70 C :   -0.049733
  71 C :   -0.059633
  72 C :   -0.249615
  73 O :    0.128773
  74 H :    0.165444
  75 H :    0.170263
  76 H :    0.176925
  77 H :    0.144921
  78 H :    0.144744
  79 H :    0.123959
  80 H :    0.125723
  81 H :    0.120067
  82 H :    0.139038
  83 H :    0.144443
  84 H :    0.117392
  85 H :    0.131555
  86 H :    0.122152
  87 H :    0.133381
  88 H :    0.130838
  89 H :    0.131910
  90 H :    0.131729
  91 H :    0.133223
  92 H :    0.130863
  93 H :    0.137912
  94 H :    0.140733
  95 H :    0.120815
  96 H :    0.131584
  97 H :    0.125238
  98 H :    0.143042
  99 H :    0.145453
 100 H :    0.129062
 101 H :    0.120942
 102 H :    0.122354
 103 H :    0.172343
 104 H :    0.168971
 105 H :    0.166608

  Mayer bond orders larger than 0.100000
B(  0-C ,  1-O ) :   2.0180 B(  0-C ,  2-C ) :   1.0244 B(  0-C , 16-C ) :   1.0133
B(  1-O ,  2-C ) :  -0.1519 B(  2-C ,  3-C ) :   1.3011 B(  2-C ,  9-C ) :   1.3330
B(  3-C ,  4-C ) :   1.3631 B(  3-C , 74-H ) :   0.9792 B(  4-C ,  5-F ) :   1.0660
B(  4-C ,  6-C ) :   1.3340 B(  6-C ,  7-F ) :   1.0850 B(  6-C ,  8-C ) :   1.3936
B(  8-C ,  9-C ) :   1.3186 B(  8-C , 75-H ) :   0.9275 B(  9-C , 10-C ) :   1.0321
B( 10-C , 11-C ) :   1.4514 B( 10-C , 16-C ) :   1.1695 B( 11-C , 12-C ) :   1.0424
B( 11-C , 14-C ) :   1.0215 B( 12-C , 13-N ) :   2.9253 B( 14-C , 15-N ) :   2.9753
B( 16-C , 17-C ) :   1.4353 B( 17-C , 18-C ) :   1.2964 B( 17-C , 76-H ) :   0.8749
B( 18-C , 19-S ) :   1.2656 B( 18-C , 22-C ) :   1.2885 B( 19-S , 20-C ) :   1.3839
B( 19-S , 27-C ) :  -0.1556 B( 20-C , 21-C ) :   1.2964 B( 20-C , 27-C ) :   1.0687
B( 21-C , 22-C ) :   1.3268 B( 21-C , 25-S ) :   1.1931 B( 22-C , 23-C ) :   0.9506
B( 23-C , 24-C ) :   0.9660 B( 23-C , 77-H ) :   0.9548 B( 23-C , 78-H ) :   0.9734
B( 24-C , 79-H ) :   0.9691 B( 24-C , 80-H ) :   0.9702 B( 24-C , 81-H ) :   0.9681
B( 25-S , 26-C ) :   1.3435 B( 26-C , 27-C ) :   1.2598 B( 26-C , 32-C ) :   1.1687
B( 27-C , 28-N ) :   1.1115 B( 28-N , 29-C ) :   0.8796 B( 28-N , 31-C ) :   1.2279
B( 29-C , 30-C ) :   0.9470 B( 29-C , 82-H ) :   0.9524 B( 29-C , 83-H ) :   0.9613
B( 30-C , 84-H ) :   0.9606 B( 30-C , 85-H ) :   0.9680 B( 30-C , 86-H ) :   0.9627
B( 31-C , 32-C ) :   1.2294 B( 31-C , 42-C ) :   1.3276 B( 32-C , 33-C ) :   1.1546
B( 33-C , 34-N ) :   1.4031 B( 33-C , 40-C ) :   1.2986 B( 34-N , 35-C ) :   1.5876
B( 35-C , 36-C ) :   0.8945 B( 35-C , 37-C ) :   1.2533 B( 36-C , 87-H ) :   0.9971
B( 36-C , 88-H ) :   0.9664 B( 36-C , 89-H ) :   0.9650 B( 37-C , 38-C ) :   0.8939
B( 37-C , 39-N ) :   1.5950 B( 38-C , 90-H ) :   0.9668 B( 38-C , 91-H ) :   0.9977
B( 38-C , 92-H ) :   0.9643 B( 39-N , 40-C ) :   1.4015 B( 40-C , 41-C ) :   1.1542
B( 41-C , 42-C ) :   1.2251 B( 41-C , 47-C ) :   1.1898 B( 42-C , 43-N ) :   1.2311
B( 43-N , 44-C ) :   0.8816 B( 43-N , 46-C ) :   1.1064 B( 44-C , 45-C ) :   0.9426
B( 44-C , 93-H ) :   0.9573 B( 44-C , 94-H ) :   0.9585 B( 45-C , 95-H ) :   0.9614
B( 45-C , 96-H ) :   0.9683 B( 45-C , 97-H ) :   0.9633 B( 46-C , 47-C ) :   1.2453
B( 46-C , 50-C ) :   1.0825 B( 46-C , 51-S ) :  -0.1312 B( 47-C , 48-S ) :   1.3386
B( 48-S , 49-C ) :   1.1807 B( 48-S , 50-C ) :   0.1041 B( 49-C , 50-C ) :   1.3508
B( 49-C , 53-C ) :   1.2975 B( 50-C , 51-S ) :   1.3257 B( 51-S , 52-C ) :   1.1626
B( 52-C , 53-C ) :   1.3882 B( 52-C , 56-C ) :   1.0917 B( 53-C , 54-C ) :   0.9415
B( 54-C , 55-C ) :   0.9599 B( 54-C , 98-H ) :   0.9761 B( 54-C , 99-H ) :   0.9661
B( 55-C ,100-H ) :   0.9679 B( 55-C ,101-H ) :   0.9684 B( 55-C ,102-H ) :   0.9704
B( 56-C , 57-C ) :   1.5049 B( 56-C ,103-H ) :   0.9482 B( 57-C , 58-C ) :   1.1627
B( 57-C , 72-C ) :   1.0063 B( 57-C , 73-O ) :  -0.1163 B( 58-C , 59-C ) :   1.4042
B( 58-C , 64-C ) :   1.0333 B( 59-C , 60-C ) :   1.0482 B( 59-C , 62-C ) :   1.0363
B( 60-C , 61-N ) :   2.9713 B( 62-C , 63-N ) :   2.9578 B( 64-C , 65-C ) :   1.3033
B( 64-C , 71-C ) :   1.3334 B( 65-C , 66-C ) :   1.3985 B( 65-C ,104-H ) :   0.9328
B( 66-C , 67-F ) :   1.0798 B( 66-C , 68-C ) :   1.3279 B( 68-C , 69-F ) :   1.0654
B( 68-C , 70-C ) :   1.3624 B( 70-C , 71-C ) :   1.3103 B( 70-C ,105-H ) :   0.9774
B( 71-C , 72-C ) :   0.9487 B( 71-C , 73-O ) :  -0.1451 B( 72-C , 73-O ) :   2.1607

-----------------------------------------------------------------------------
  SOC CORRECTED ABSORPTION SPECTRUM VIA TRANSITION ELECTRIC DIPOLE MOMENTS*
-----------------------------------------------------------------------------
State   Energy  Wavelength   fosc         T2         TX        TY        TZ
        (cm-1)    (nm)                  (au**2)     (au)      (au)      (au)
-----------------------------------------------------------------------------
   1   10183.5    982.0   0.000000001   0.00000   0.00005   0.00017   0.00002
   2   10183.5    982.0   0.000000003   0.00000   0.00014   0.00030   0.00001
   3   10183.5    982.0   0.000000041   0.00000   0.00072   0.00091   0.00002
   4   12120.5    825.0   0.000000039   0.00000   0.00078   0.00065   0.00011
   5   12120.5    825.0   0.000000000   0.00000   0.00000   0.00011   0.00003
   6   12120.5    825.0   0.000000004   0.00000   0.00018   0.00027   0.00002
   7   14458.8    691.6   1.596922412  36.36029   3.56317   4.86453   0.02212
   8   15456.5    647.0   0.000000007   0.00000   0.00022   0.00031   0.00000
   9   15456.5    647.0   0.000000528   0.00001   0.00177   0.00285   0.00010
  10   15456.5    647.0   0.000001823   0.00004   0.00452   0.00427   0.00039
  11   16733.2    597.6   0.369481787   7.26927   0.20274   2.58272   0.74682
  12   17338.3    576.8   0.018735211   0.35574   0.53630   0.26096   0.00449

FINAL SINGLE POINT ENERGY     -4732.952342832797

DIPOLE MOMENT
-------------
                                X             Y             Z
Electronic contribution:     60.03144      41.11590      26.93519
Nuclear contribution   :    -61.03389     -43.78333     -28.37273
                        -----------------------------------------
Total Dipole Moment    :     -1.00245      -2.66743      -1.43755
                        -----------------------------------------
Magnitude (a.u.)       :      3.19165
Magnitude (Debye)      :      8.11253

Rotational constants in cm-1:     0.001035     0.000336     0.000263
Rotational constants in MHz :    31.030860    10.064146     7.879789

                             ****ORCA TERMINATED NORMALLY****
TOTAL RUN TIME: 0 days 2 hours 55 minutes 26 seconds 512 msec
