                         Program Version 4.2.0 -  RELEASE  -
|  1> # ORCA input file
|  2> # BCDT-4Cl.out
|  3> ! B3LYP def2-TZVP def2/J RIJCOSX Grid4 TightSCF
|  4>
|  5> %maxcore 2000
|  6> %tddft
|  7>   maxdim 5
|  8>   nroots 3
|  9>   dosoc true
| 10>   end
| 11>
| 12>
| 13>
| 14> * xyz 0 1
| 15>    C        2.99941         2.33975        -3.77568
| 16>    O        3.85804         3.16064        -3.51980
| 17>    C        1.81129         2.59268        -4.62060
| 18>    C        1.43301         3.77129        -5.22903
| 19>    C        0.25877         3.78044        -5.97129
| 20>    C       -0.50804         2.61710        -6.08853
| 21>    C       -0.11911         1.43043        -5.47574
| 22>    C        1.05170         1.41832        -4.73574
| 23>    C        1.72051         0.35640        -3.98519
| 24>    C        1.31779        -0.95514        -3.96673
| 25>    C        1.97681        -2.02551        -3.32571
| 26>    N        2.44595        -2.96273        -2.85427
| 27>    C        0.17258        -1.43762        -4.63526
| 28>    N       -0.74430        -1.90057        -5.14834
| 29>    C        2.88273         0.93618        -3.33772
| 30>   Cl       -1.96316         2.64277        -7.00158
| 31>    C        3.63799         0.26175        -2.40420
| 32>   Cl       -0.25189         5.22850        -6.74158
| 33>    C       15.10445        -0.36931        17.03653
| 34>    O       14.24196        -1.10613        17.45709
| 35>    C       15.97043         0.54846        17.81294
| 36>    C       15.94894         0.82689        19.16334
| 37>    C       16.84894         1.76442        19.65733
| 38>    C       17.74912         2.40100        18.79738
| 39>    C       17.77656         2.10824        17.43743
| 40>    C       16.88110         1.17594        16.94428
| 41>    C       16.68251         0.64602        15.59436
| 42>    C       17.61157         0.70061        14.58338
| 43>    C       17.51450        -0.05944        13.40268
| 44>    N       17.49043        -0.68573        12.44019
| 45>    C       18.79740         1.45817        14.64036
| 46>    N       19.76086         2.08302        14.61825
| 47>    C       15.48395        -0.15121        15.61953
| 48>   Cl       18.84515         3.56792        19.41990
| 49>    C       14.65448        -0.62923        14.63668
| 50>   Cl       16.85012         2.14121        21.33342
| 51>    C       14.51259        -0.22385        13.30342
| 52>    S       13.50425        -1.19359        12.23432
| 53>    C       13.73692        -0.06947        10.97293
| 54>    C       14.53054         1.02613        11.35790
| 55>    C       14.97492         0.92725        12.65836
| 56>    C       13.34493         0.09093         9.63002
| 57>    C       13.89137         1.28243         9.14275
| 58>    C       14.68909         1.99439        10.21037
| 59>    S       12.37479        -0.71722         8.46619
| 60>    C       12.66948         0.57433         7.32209
| 61>    C       13.50804         1.55260         7.84019
| 62>    C       11.98575         0.60446         6.06898
| 63>    C       11.15381        -0.44151         5.66110
| 64>    C       10.29603        -0.34352         4.54190
| 65>    C       10.35006         0.74538         3.66006
| 66>    C       11.29275         1.76159         3.97587
| 67>    C       12.06951         1.71433         5.18645
| 68>    N       11.54150         2.86711         3.27727
| 69>    S       12.63324         3.75536         4.05493
| 70>    N       12.84514         2.78675         5.32035
| 71>    C        9.45726         0.86908         2.55274
| 72>    S        8.24813        -0.34882         2.22682
| 73>    C        7.62567         0.60526         0.94283
| 74>    C        8.32652         1.80620         0.77144
| 75>    C        9.37262         1.93849         1.66794
| 76>    C        6.58351         0.54465        -0.00130
| 77>    C        6.61247         1.70948        -0.78961
| 78>    C        7.72943         2.62620        -0.34623
| 79>    S        5.31250        -0.50683        -0.43394
| 80>    C        4.77356         0.63563        -1.67828
| 81>    C        5.60196         1.76012        -1.72249
| 82>    O       11.15316        -1.59096         6.42058
| 83>    O        9.37945        -1.31013         4.26381
| 84>    C       11.75643        -2.71932         5.78736
| 85>    C       13.26048        -2.56490         5.60156
| 86>    C        8.61752        -1.87704         5.33270
| 87>    C        7.19297        -2.10384         4.85100
| 88>    C        8.74165         2.89105        -1.47196
| 89>    C        9.27076         1.60710        -2.10015
| 90>    C        7.09095         3.93547         0.16869
| 91>    C        8.06081         4.92286         0.80350
| 92>    C       16.16310         2.16541         9.80683
| 93>    C       16.83311         0.84569         9.44326
| 94>    C       14.00727         3.35396        10.48129
| 95>    C       14.54302         4.12215        11.68177
| 96>    H        2.03453         4.66071        -5.12739
| 97>    H       -0.73910         0.55661        -5.58790
| 98>    H        3.28405        -0.73053        -2.15020
| 99>    H       15.25032         0.33003        19.81763
|100>    H       18.48205         2.61868        16.80206
|101>    H       13.93953        -1.36990        14.98290
|102>    H       15.57264         1.66569        13.16038
|103>    H       13.79179         2.41467         7.26686
|104>    H       10.06710         2.75539         1.71059
|105>    H        5.43264         2.56008        -2.41875
|106>    H       11.28372        -2.90138         4.81437
|107>    H       11.53795        -3.55302         6.45809
|108>    H       13.48260        -1.70573         4.97105
|109>    H       13.65550        -3.45765         5.12513
|110>    H       13.75138        -2.43141         6.56167
|111>    H        8.62863        -1.20523         6.19650
|112>    H        9.06051        -2.83385         5.62882
|113>    H        6.70938        -1.15847         4.62198
|114>    H        6.62969        -2.61261         5.62799
|115>    H        7.19781        -2.71663         3.95425
|116>    H        9.57903         3.45699        -1.06276
|117>    H        8.25588         3.49799        -2.23803
|118>    H        9.75194         0.98227        -1.35093
|119>    H       10.00132         1.84360        -2.86988
|120>    H        8.46475         1.03800        -2.55743
|121>    H        6.32590         3.67027         0.90296
|122>    H        6.58767         4.41109        -0.67525
|123>    H        8.54287         4.48865         1.67475
|124>    H        7.51430         5.80721         1.12339
|125>    H        8.82485         5.23669         0.09808
|126>    H       16.70717         2.61977        10.63551
|127>    H       16.20635         2.84664         8.95429
|128>    H       16.85812         0.17456        10.29876
|129>    H       17.85746         1.02760         9.12764
|130>    H       16.30499         0.35494         8.62879
|131>    H       12.93886         3.17432        10.62681
|132>    H       14.12057         3.96269         9.58193
|133>    H       14.35298         3.58116        12.60476
|134>    H       14.04018         5.08445        11.74661
|135>    H       15.61019         4.30542        11.59290
|136> *
|137>
|138>                          ****END OF INPUT****

CARTESIAN COORDINATES (ANGSTROEM)
---------------------------------
  C      2.999410    2.339750   -3.775680
  O      3.858040    3.160640   -3.519800
  C      1.811290    2.592680   -4.620600
  C      1.433010    3.771290   -5.229030
  C      0.258770    3.780440   -5.971290
  C     -0.508040    2.617100   -6.088530
  C     -0.119110    1.430430   -5.475740
  C      1.051700    1.418320   -4.735740
  C      1.720510    0.356400   -3.985190
  C      1.317790   -0.955140   -3.966730
  C      1.976810   -2.025510   -3.325710
  N      2.445950   -2.962730   -2.854270
  C      0.172580   -1.437620   -4.635260
  N     -0.744300   -1.900570   -5.148340
  C      2.882730    0.936180   -3.337720
  Cl    -1.963160    2.642770   -7.001580
  C      3.637990    0.261750   -2.404200
  Cl    -0.251890    5.228500   -6.741580
  C     15.104450   -0.369310   17.036530
  O     14.241960   -1.106130   17.457090
  C     15.970430    0.548460   17.812940
  C     15.948940    0.826890   19.163340
  C     16.848940    1.764420   19.657330
  C     17.749120    2.401000   18.797380
  C     17.776560    2.108240   17.437430
  C     16.881100    1.175940   16.944280
  C     16.682510    0.646020   15.594360
  C     17.611570    0.700610   14.583380
  C     17.514500   -0.059440   13.402680
  N     17.490430   -0.685730   12.440190
  C     18.797400    1.458170   14.640360
  N     19.760860    2.083020   14.618250
  C     15.483950   -0.151210   15.619530
  Cl    18.845150    3.567920   19.419900
  C     14.654480   -0.629230   14.636680
  Cl    16.850120    2.141210   21.333420
  C     14.512590   -0.223850   13.303420
  S     13.504250   -1.193590   12.234320
  C     13.736920   -0.069470   10.972930
  C     14.530540    1.026130   11.357900
  C     14.974920    0.927250   12.658360
  C     13.344930    0.090930    9.630020
  C     13.891370    1.282430    9.142750
  C     14.689090    1.994390   10.210370
  S     12.374790   -0.717220    8.466190
  C     12.669480    0.574330    7.322090
  C     13.508040    1.552600    7.840190
  C     11.985750    0.604460    6.068980
  C     11.153810   -0.441510    5.661100
  C     10.296030   -0.343520    4.541900
  C     10.350060    0.745380    3.660060
  C     11.292750    1.761590    3.975870
  C     12.069510    1.714330    5.186450
  N     11.541500    2.867110    3.277270
  S     12.633240    3.755360    4.054930
  N     12.845140    2.786750    5.320350
  C      9.457260    0.869080    2.552740
  S      8.248130   -0.348820    2.226820
  C      7.625670    0.605260    0.942830
  C      8.326520    1.806200    0.771440
  C      9.372620    1.938490    1.667940
  C      6.583510    0.544650   -0.001300
  C      6.612470    1.709480   -0.789610
  C      7.729430    2.626200   -0.346230
  S      5.312500   -0.506830   -0.433940
  C      4.773560    0.635630   -1.678280
  C      5.601960    1.760120   -1.722490
  O     11.153160   -1.590960    6.420580
  O      9.379450   -1.310130    4.263810
  C     11.756430   -2.719320    5.787360
  C     13.260480   -2.564900    5.601560
  C      8.617520   -1.877040    5.332700
  C      7.192970   -2.103840    4.851000
  C      8.741650    2.891050   -1.471960
  C      9.270760    1.607100   -2.100150
  C      7.090950    3.935470    0.168690
  C      8.060810    4.922860    0.803500
  C     16.163100    2.165410    9.806830
  C     16.833110    0.845690    9.443260
  C     14.007270    3.353960   10.481290
  C     14.543020    4.122150   11.681770
  H      2.034530    4.660710   -5.127390
  H     -0.739100    0.556610   -5.587900
  H      3.284050   -0.730530   -2.150200
  H     15.250320    0.330030   19.817630
  H     18.482050    2.618680   16.802060
  H     13.939530   -1.369900   14.982900
  H     15.572640    1.665690   13.160380
  H     13.791790    2.414670    7.266860
  H     10.067100    2.755390    1.710590
  H      5.432640    2.560080   -2.418750
  H     11.283720   -2.901380    4.814370
  H     11.537950   -3.553020    6.458090
  H     13.482600   -1.705730    4.971050
  H     13.655500   -3.457650    5.125130
  H     13.751380   -2.431410    6.561670
  H      8.628630   -1.205230    6.196500
  H      9.060510   -2.833850    5.628820
  H      6.709380   -1.158470    4.621980
  H      6.629690   -2.612610    5.627990
  H      7.197810   -2.716630    3.954250
  H      9.579030    3.456990   -1.062760
  H      8.255880    3.497990   -2.238030
  H      9.751940    0.982270   -1.350930
  H     10.001320    1.843600   -2.869880
  H      8.464750    1.038000   -2.557430
  H      6.325900    3.670270    0.902960
  H      6.587670    4.411090   -0.675250
  H      8.542870    4.488650    1.674750
  H      7.514300    5.807210    1.123390
  H      8.824850    5.236690    0.098080
  H     16.707170    2.619770   10.635510
  H     16.206350    2.846640    8.954290
  H     16.858120    0.174560   10.298760
  H     17.857460    1.027600    9.127640
  H     16.304990    0.354940    8.628790
  H     12.938860    3.174320   10.626810
  H     14.120570    3.962690    9.581930
  H     14.352980    3.581160   12.604760
  H     14.040180    5.084450   11.746610
  H     15.610190    4.305420   11.592900

 Total Charge           Charge          ....    0
 Multiplicity           Mult            ....    1
 Number of Electrons    NEL             ....  634
 Basis Dimension        Dim             .... 2805

ORBITAL ENERGIES
----------------

  NO   OCC          E(Eh)            E(eV)
   0   2.0000    -101.546293     -2763.2151
   1   2.0000    -101.545476     -2763.1929
   2   2.0000    -101.544403     -2763.1637
   3   2.0000    -101.542009     -2763.0985
   4   2.0000     -88.967653     -2420.9329
   5   2.0000     -88.914364     -2419.4829
   6   2.0000     -88.910389     -2419.3747
   7   2.0000     -88.908029     -2419.3105
   8   2.0000     -88.906598     -2419.2715
   9   2.0000     -19.196093      -522.3522
  10   2.0000     -19.187588      -522.1208
  11   2.0000     -19.128430      -520.5110
  12   2.0000     -19.127562      -520.4874
  13   2.0000     -14.368999      -391.0004
  14   2.0000     -14.367727      -390.9657
  15   2.0000     -14.328479      -389.8977
  16   2.0000     -14.326276      -389.8378
  17   2.0000     -14.323492      -389.7620
  18   2.0000     -14.319945      -389.6655
  19   2.0000     -10.280606      -279.7495
  20   2.0000     -10.275153      -279.6011
  21   2.0000     -10.274490      -279.5831
  22   2.0000     -10.273073      -279.5445
  23   2.0000     -10.269195      -279.4390
  24   2.0000     -10.268326      -279.4153
  25   2.0000     -10.266003      -279.3521
  26   2.0000     -10.265383      -279.3353
  27   2.0000     -10.254965      -279.0518
  28   2.0000     -10.254653      -279.0433
  29   2.0000     -10.254537      -279.0401
  30   2.0000     -10.254524      -279.0398
  31   2.0000     -10.252932      -278.9965
  32   2.0000     -10.251942      -278.9695
  33   2.0000     -10.248817      -278.8845
  34   2.0000     -10.247478      -278.8480
  35   2.0000     -10.242273      -278.7064
  36   2.0000     -10.239800      -278.6391
  37   2.0000     -10.238817      -278.6124
  38   2.0000     -10.237796      -278.5846
  39   2.0000     -10.234986      -278.5081
  40   2.0000     -10.232423      -278.4384
  41   2.0000     -10.232407      -278.4379
  42   2.0000     -10.230135      -278.3761
  43   2.0000     -10.226535      -278.2782
  44   2.0000     -10.226280      -278.2712
  45   2.0000     -10.226103      -278.2664
  46   2.0000     -10.225839      -278.2592
  47   2.0000     -10.224985      -278.2360
  48   2.0000     -10.224441      -278.2212
  49   2.0000     -10.224231      -278.2155
  50   2.0000     -10.222649      -278.1724
  51   2.0000     -10.221373      -278.1377
  52   2.0000     -10.219045      -278.0744
  53   2.0000     -10.216852      -278.0147
  54   2.0000     -10.216758      -278.0121
  55   2.0000     -10.216330      -278.0005
  56   2.0000     -10.214708      -277.9563
  57   2.0000     -10.213631      -277.9270
  58   2.0000     -10.212628      -277.8997
  59   2.0000     -10.211948      -277.8812
  60   2.0000     -10.211609      -277.8720
  61   2.0000     -10.207825      -277.7690
  62   2.0000     -10.207798      -277.7683
  63   2.0000     -10.207261      -277.7537
  64   2.0000     -10.206751      -277.7398
  65   2.0000     -10.203776      -277.6589
  66   2.0000     -10.203055      -277.6392
  67   2.0000     -10.201432      -277.5951
  68   2.0000     -10.198419      -277.5131
  69   2.0000     -10.196925      -277.4724
  70   2.0000     -10.193857      -277.3890
  71   2.0000     -10.190049      -277.2853
  72   2.0000     -10.186921      -277.2002
  73   2.0000     -10.186247      -277.1819
  74   2.0000     -10.185073      -277.1499
  75   2.0000     -10.184692      -277.1395
  76   2.0000     -10.183531      -277.1080
  77   2.0000     -10.173270      -276.8288
  78   2.0000     -10.170258      -276.7468
  79   2.0000     -10.166317      -276.6395
  80   2.0000     -10.155201      -276.3371
  81   2.0000      -9.478886      -257.9336
  82   2.0000      -9.478094      -257.9120
  83   2.0000      -9.477005      -257.8824
  84   2.0000      -9.474631      -257.8178
  85   2.0000      -8.038688      -218.7438
  86   2.0000      -7.990580      -217.4347
  87   2.0000      -7.986562      -217.3254
  88   2.0000      -7.983771      -217.2494
  89   2.0000      -7.982442      -217.2133
  90   2.0000      -7.240522      -197.0246
  91   2.0000      -7.239744      -197.0034
  92   2.0000      -7.238630      -196.9731
  93   2.0000      -7.236285      -196.9093
  94   2.0000      -7.232166      -196.7972
  95   2.0000      -7.231390      -196.7761
  96   2.0000      -7.231366      -196.7755
  97   2.0000      -7.230576      -196.7540
  98   2.0000      -7.230296      -196.7463
  99   2.0000      -7.229518      -196.7252
 100   2.0000      -7.227907      -196.6813
 101   2.0000      -7.227112      -196.6597
 102   2.0000      -6.003321      -163.3587
 103   2.0000      -5.995832      -163.1549
 104   2.0000      -5.995779      -163.1534
 105   2.0000      -5.952973      -161.9886
 106   2.0000      -5.949292      -161.8885
 107   2.0000      -5.948900      -161.8778
 108   2.0000      -5.947359      -161.8359
 109   2.0000      -5.946443      -161.8109
 110   2.0000      -5.945266      -161.7789
 111   2.0000      -5.945097      -161.7743
 112   2.0000      -5.943355      -161.7269
 113   2.0000      -5.942354      -161.6997
 114   2.0000      -5.940966      -161.6619
 115   2.0000      -5.940315      -161.6442
 116   2.0000      -5.939015      -161.6088
 117   2.0000      -1.118658       -30.4402
 118   2.0000      -1.094707       -29.7885
 119   2.0000      -1.059191       -28.8221
 120   2.0000      -1.058284       -28.7974
 121   2.0000      -1.052729       -28.6462
 122   2.0000      -0.948815       -25.8186
 123   2.0000      -0.945733       -25.7347
 124   2.0000      -0.944688       -25.7063
 125   2.0000      -0.943086       -25.6627
 126   2.0000      -0.938855       -25.5475
 127   2.0000      -0.934645       -25.4330
 128   2.0000      -0.923706       -25.1353
 129   2.0000      -0.922055       -25.0904
 130   2.0000      -0.917525       -24.9671
 131   2.0000      -0.912873       -24.8405
 132   2.0000      -0.909432       -24.7469
 133   2.0000      -0.906281       -24.6612
 134   2.0000      -0.901553       -24.5325
 135   2.0000      -0.890763       -24.2389
 136   2.0000      -0.880194       -23.9513
 137   2.0000      -0.877392       -23.8751
 138   2.0000      -0.864772       -23.5316
 139   2.0000      -0.858827       -23.3699
 140   2.0000      -0.851914       -23.1818
 141   2.0000      -0.848795       -23.0969
 142   2.0000      -0.828559       -22.5462
 143   2.0000      -0.825552       -22.4644
 144   2.0000      -0.821918       -22.3655
 145   2.0000      -0.811667       -22.0866
 146   2.0000      -0.807252       -21.9664
 147   2.0000      -0.802227       -21.8297
 148   2.0000      -0.787888       -21.4395
 149   2.0000      -0.783391       -21.3171
 150   2.0000      -0.782167       -21.2839
 151   2.0000      -0.779491       -21.2110
 152   2.0000      -0.773543       -21.0492
 153   2.0000      -0.772382       -21.0176
 154   2.0000      -0.770004       -20.9529
 155   2.0000      -0.768863       -20.9218
 156   2.0000      -0.767607       -20.8877
 157   2.0000      -0.766349       -20.8534
 158   2.0000      -0.763464       -20.7749
 159   2.0000      -0.761544       -20.7227
 160   2.0000      -0.735250       -20.0072
 161   2.0000      -0.721947       -19.6452
 162   2.0000      -0.711161       -19.3517
 163   2.0000      -0.696467       -18.9518
 164   2.0000      -0.695864       -18.9354
 165   2.0000      -0.691875       -18.8269
 166   2.0000      -0.688944       -18.7471
 167   2.0000      -0.685454       -18.6522
 168   2.0000      -0.680126       -18.5072
 169   2.0000      -0.673170       -18.3179
 170   2.0000      -0.662275       -18.0214
 171   2.0000      -0.647566       -17.6212
 172   2.0000      -0.645441       -17.5633
 173   2.0000      -0.633331       -17.2338
 174   2.0000      -0.630816       -17.1654
 175   2.0000      -0.628712       -17.1081
 176   2.0000      -0.626201       -17.0398
 177   2.0000      -0.620754       -16.8916
 178   2.0000      -0.619379       -16.8542
 179   2.0000      -0.617386       -16.7999
 180   2.0000      -0.612992       -16.6804
 181   2.0000      -0.609649       -16.5894
 182   2.0000      -0.605632       -16.4801
 183   2.0000      -0.593615       -16.1531
 184   2.0000      -0.583139       -15.8680
 185   2.0000      -0.577496       -15.7145
 186   2.0000      -0.575851       -15.6697
 187   2.0000      -0.570895       -15.5348
 188   2.0000      -0.563532       -15.3345
 189   2.0000      -0.562937       -15.3183
 190   2.0000      -0.560633       -15.2556
 191   2.0000      -0.557931       -15.1821
 192   2.0000      -0.551351       -15.0030
 193   2.0000      -0.546813       -14.8795
 194   2.0000      -0.545208       -14.8359
 195   2.0000      -0.541957       -14.7474
 196   2.0000      -0.532715       -14.4959
 197   2.0000      -0.527838       -14.3632
 198   2.0000      -0.527280       -14.3480
 199   2.0000      -0.519241       -14.1293
 200   2.0000      -0.512280       -13.9399
 201   2.0000      -0.510843       -13.9008
 202   2.0000      -0.509062       -13.8523
 203   2.0000      -0.503864       -13.7108
 204   2.0000      -0.498539       -13.5659
 205   2.0000      -0.492338       -13.3972
 206   2.0000      -0.491658       -13.3787
 207   2.0000      -0.488632       -13.2963
 208   2.0000      -0.487057       -13.2535
 209   2.0000      -0.485140       -13.2013
 210   2.0000      -0.483240       -13.1496
 211   2.0000      -0.479415       -13.0455
 212   2.0000      -0.477747       -13.0002
 213   2.0000      -0.476063       -12.9543
 214   2.0000      -0.474571       -12.9137
 215   2.0000      -0.471367       -12.8266
 216   2.0000      -0.466521       -12.6947
 217   2.0000      -0.465514       -12.6673
 218   2.0000      -0.465288       -12.6611
 219   2.0000      -0.464693       -12.6449
 220   2.0000      -0.463579       -12.6146
 221   2.0000      -0.462192       -12.5769
 222   2.0000      -0.458537       -12.4774
 223   2.0000      -0.457154       -12.4398
 224   2.0000      -0.454720       -12.3736
 225   2.0000      -0.450421       -12.2566
 226   2.0000      -0.449413       -12.2291
 227   2.0000      -0.443543       -12.0694
 228   2.0000      -0.439171       -11.9504
 229   2.0000      -0.437266       -11.8986
 230   2.0000      -0.435995       -11.8640
 231   2.0000      -0.434894       -11.8341
 232   2.0000      -0.433462       -11.7951
 233   2.0000      -0.432309       -11.7637
 234   2.0000      -0.430395       -11.7116
 235   2.0000      -0.429167       -11.6782
 236   2.0000      -0.426800       -11.6138
 237   2.0000      -0.424305       -11.5459
 238   2.0000      -0.420317       -11.4374
 239   2.0000      -0.419957       -11.4276
 240   2.0000      -0.418829       -11.3969
 241   2.0000      -0.417290       -11.3550
 242   2.0000      -0.417182       -11.3521
 243   2.0000      -0.415996       -11.3198
 244   2.0000      -0.414480       -11.2786
 245   2.0000      -0.412977       -11.2377
 246   2.0000      -0.411758       -11.2045
 247   2.0000      -0.409679       -11.1479
 248   2.0000      -0.407954       -11.1010
 249   2.0000      -0.405950       -11.0465
 250   2.0000      -0.403731       -10.9861
 251   2.0000      -0.401783       -10.9331
 252   2.0000      -0.398081       -10.8323
 253   2.0000      -0.397631       -10.8201
 254   2.0000      -0.396149       -10.7798
 255   2.0000      -0.392889       -10.6911
 256   2.0000      -0.390718       -10.6320
 257   2.0000      -0.390052       -10.6138
 258   2.0000      -0.388577       -10.5737
 259   2.0000      -0.383959       -10.4480
 260   2.0000      -0.381674       -10.3859
 261   2.0000      -0.381405       -10.3785
 262   2.0000      -0.380429       -10.3520
 263   2.0000      -0.379416       -10.3244
 264   2.0000      -0.377071       -10.2606
 265   2.0000      -0.376448       -10.2437
 266   2.0000      -0.375573       -10.2199
 267   2.0000      -0.374761       -10.1978
 268   2.0000      -0.372303       -10.1309
 269   2.0000      -0.371380       -10.1058
 270   2.0000      -0.369457       -10.0534
 271   2.0000      -0.365842        -9.9551
 272   2.0000      -0.365639        -9.9495
 273   2.0000      -0.363741        -9.8979
 274   2.0000      -0.363055        -9.8792
 275   2.0000      -0.361857        -9.8466
 276   2.0000      -0.361443        -9.8354
 277   2.0000      -0.360172        -9.8008
 278   2.0000      -0.356895        -9.7116
 279   2.0000      -0.355388        -9.6706
 280   2.0000      -0.355028        -9.6608
 281   2.0000      -0.352116        -9.5816
 282   2.0000      -0.348616        -9.4863
 283   2.0000      -0.347654        -9.4601
 284   2.0000      -0.346232        -9.4214
 285   2.0000      -0.345001        -9.3880
 286   2.0000      -0.344721        -9.3803
 287   2.0000      -0.344245        -9.3674
 288   2.0000      -0.341299        -9.2872
 289   2.0000      -0.341002        -9.2791
 290   2.0000      -0.339777        -9.2458
 291   2.0000      -0.338173        -9.2021
 292   2.0000      -0.336643        -9.1605
 293   2.0000      -0.336295        -9.1511
 294   2.0000      -0.329210        -8.9583
 295   2.0000      -0.321566        -8.7502
 296   2.0000      -0.319173        -8.6851
 297   2.0000      -0.318880        -8.6772
 298   2.0000      -0.316651        -8.6165
 299   2.0000      -0.313446        -8.5293
 300   2.0000      -0.310370        -8.4456
 301   2.0000      -0.295455        -8.0397
 302   2.0000      -0.286087        -7.7848
 303   2.0000      -0.283762        -7.7216
 304   2.0000      -0.282855        -7.6969
 305   2.0000      -0.281245        -7.6531
 306   2.0000      -0.278631        -7.5819
 307   2.0000      -0.277617        -7.5543
 308   2.0000      -0.275385        -7.4936
 309   2.0000      -0.274575        -7.4716
 310   2.0000      -0.273103        -7.4315
 311   2.0000      -0.269835        -7.3426
 312   2.0000      -0.260355        -7.0846
 313   2.0000      -0.257817        -7.0156
 314   2.0000      -0.249982        -6.8024
 315   2.0000      -0.221372        -6.0239
 316   2.0000      -0.200327        -5.4512
 317   0.0000      -0.138438        -3.7671
 318   0.0000      -0.123318        -3.3556
 319   0.0000      -0.113785        -3.0963
 320   0.0000      -0.104778        -2.8512
 321   0.0000      -0.103272        -2.8102

MULLIKEN ATOMIC CHARGES
-----------------------
   0 C :    0.201161
   1 O :   -0.355322
   2 C :    0.122711
   3 C :   -0.328917
   4 C :    0.177714
   5 C :    0.114175
   6 C :   -0.261204
   7 C :    0.082067
   8 C :    0.035199
   9 C :    0.155091
  10 C :   -0.243202
  11 N :    0.047363
  12 C :   -0.233642
  13 N :    0.039631
  14 C :   -0.047568
  15 Cl:   -0.051023
  16 C :   -0.195544
  17 Cl:   -0.062764
  18 C :    0.208564
  19 O :   -0.290171
  20 C :    0.016458
  21 C :   -0.302187
  22 C :    0.158776
  23 C :    0.125171
  24 C :   -0.263430
  25 C :    0.138329
  26 C :   -0.015732
  27 C :    0.074111
  28 C :   -0.185911
  29 N :    0.006288
  30 C :   -0.234841
  31 N :    0.039477
  32 C :    0.012869
  33 Cl:   -0.052469
  34 C :   -0.243191
  35 Cl:   -0.060389
  36 C :    0.281249
  37 S :    0.060826
  38 C :   -0.041312
  39 C :   -0.020432
  40 C :   -0.447373
  41 C :    0.023472
  42 C :   -0.006889
  43 C :    0.429115
  44 S :    0.036566
  45 C :    0.176155
  46 C :   -0.319203
  47 C :    0.000043
  48 C :    0.075137
  49 C :    0.250006
  50 C :   -0.044298
  51 C :    0.067160
  52 C :    0.038802
  53 N :   -0.284456
  54 S :    0.337259
  55 N :   -0.277423
  56 C :    0.082226
  57 S :    0.041209
  58 C :   -0.033657
  59 C :   -0.084718
  60 C :   -0.318352
  61 C :    0.023579
  62 C :   -0.046250
  63 C :    0.447835
  64 S :    0.048019
  65 C :    0.129133
  66 C :   -0.314002
  67 O :   -0.369012
  68 O :   -0.341009
  69 C :   -0.024497
  70 C :   -0.348396
  71 C :   -0.012050
  72 C :   -0.308207
  73 C :   -0.223175
  74 C :   -0.361376
  75 C :   -0.171870
  76 C :   -0.370853
  77 C :   -0.211183
  78 C :   -0.379591
  79 C :   -0.165032
  80 C :   -0.372254
  81 H :    0.133377
  82 H :    0.157256
  83 H :    0.157885
  84 H :    0.141018
  85 H :    0.154854
  86 H :    0.142916
  87 H :    0.184182
  88 H :    0.155788
  89 H :    0.187631
  90 H :    0.184560
  91 H :    0.117353
  92 H :    0.117775
  93 H :    0.124811
  94 H :    0.123412
  95 H :    0.130206
  96 H :    0.107453
  97 H :    0.100376
  98 H :    0.117534
  99 H :    0.121302
 100 H :    0.119717
 101 H :    0.097746
 102 H :    0.101030
 103 H :    0.120041
 104 H :    0.113689
 105 H :    0.125245
 106 H :    0.099026
 107 H :    0.106816
 108 H :    0.117829
 109 H :    0.118540
 110 H :    0.111887
 111 H :    0.097555
 112 H :    0.091049
 113 H :    0.175490
 114 H :    0.107890
 115 H :    0.110957
 116 H :    0.100169
 117 H :    0.095647
 118 H :    0.113484
 119 H :    0.120051
 120 H :    0.117882
Sum of atomic charges:    0.0000000

LOEWDIN ATOMIC CHARGES
----------------------
   0 C :   -0.251771
   1 O :    0.119315
   2 C :   -0.058223
   3 C :   -0.075543
   4 C :   -0.432719
   5 C :   -0.429415
   6 C :   -0.077204
   7 C :   -0.043668
   8 C :    0.008247
   9 C :   -0.137276
  10 C :   -0.173658
  11 N :    0.079588
  12 C :   -0.165578
  13 N :    0.080150
  14 C :   -0.083844
  15 Cl:    0.448805
  16 C :   -0.073368
  17 Cl:    0.443629
  18 C :   -0.257253
  19 O :    0.133928
  20 C :   -0.056909
  21 C :   -0.073399
  22 C :   -0.432211
  23 C :   -0.429201
  24 C :   -0.080378
  25 C :   -0.042851
  26 C :    0.000960
  27 C :   -0.149282
  28 C :   -0.155856
  29 N :    0.093377
  30 C :   -0.168046
  31 N :    0.079512
  32 C :   -0.086531
  33 Cl:    0.449473
  34 C :   -0.071312
  35 Cl:    0.445077
  36 C :   -0.333070
  37 S :    0.797106
  38 C :   -0.314915
  39 C :   -0.079388
  40 C :   -0.089047
  41 C :   -0.331484
  42 C :   -0.083185
  43 C :   -0.180780
  44 S :    0.791261
  45 C :   -0.284075
  46 C :   -0.106634
  47 C :   -0.103965
  48 C :   -0.197122
  49 C :   -0.193771
  50 C :   -0.101155
  51 C :   -0.214865
  52 C :   -0.217349
  53 N :   -0.129999
  54 S :    0.680988
  55 N :   -0.127613
  56 C :   -0.284695
  57 S :    0.803311
  58 C :   -0.333982
  59 C :   -0.081004
  60 C :   -0.118305
  61 C :   -0.320152
  62 C :   -0.088585
  63 C :   -0.181764
  64 S :    0.787402
  65 C :   -0.319600
  66 C :   -0.081647
  67 O :    0.240118
  68 O :    0.263521
  69 C :   -0.328364
  70 C :   -0.302832
  71 C :   -0.313333
  72 C :   -0.309319
  73 C :   -0.217583
  74 C :   -0.289277
  75 C :   -0.215302
  76 C :   -0.295402
  77 C :   -0.217431
  78 C :   -0.289478
  79 C :   -0.216350
  80 C :   -0.295152
  81 H :    0.158874
  82 H :    0.164662
  83 H :    0.173371
  84 H :    0.160403
  85 H :    0.163295
  86 H :    0.168942
  87 H :    0.157360
  88 H :    0.153420
  89 H :    0.152030
  90 H :    0.159703
  91 H :    0.130567
  92 H :    0.130734
  93 H :    0.124387
  94 H :    0.126403
  95 H :    0.118781
  96 H :    0.132244
  97 H :    0.126418
  98 H :    0.116659
  99 H :    0.125415
 100 H :    0.120553
 101 H :    0.139250
 102 H :    0.142116
 103 H :    0.122781
 104 H :    0.118719
 105 H :    0.123337
 106 H :    0.145143
 107 H :    0.143061
 108 H :    0.120327
 109 H :    0.121230
 110 H :    0.117236
 111 H :    0.139172
 112 H :    0.139243
 113 H :    0.127513
 114 H :    0.119868
 115 H :    0.119734
 116 H :    0.144974
 117 H :    0.140778
 118 H :    0.118861
 119 H :    0.121753
 120 H :    0.118380

  Mayer bond orders larger than 0.100000
B(  0-C ,  1-O ) :   2.0127 B(  0-C ,  2-C ) :   1.0251 B(  0-C , 14-C ) :   1.0250
B(  1-O ,  2-C ) :  -0.1712 B(  2-C ,  3-C ) :   1.3811 B(  2-C ,  7-C ) :   1.3405
B(  3-C ,  4-C ) :   1.3421 B(  3-C , 17-Cl) :   0.1038 B(  3-C , 81-H ) :   0.9854
B(  4-C ,  5-C ) :   1.2642 B(  4-C , 17-Cl) :   1.0344 B(  5-C ,  6-C ) :   1.3760
B(  5-C , 15-Cl) :   1.0982 B(  6-C ,  7-C ) :   1.4139 B(  6-C , 82-H ) :   0.9218
B(  7-C ,  8-C ) :   1.0487 B(  8-C ,  9-C ) :   1.4493 B(  8-C , 14-C ) :   1.1489
B(  9-C , 10-C ) :   1.0398 B(  9-C , 12-C ) :   1.0296 B( 10-C , 11-N ) :   2.9968
B( 12-C , 13-N ) :   2.9866 B( 14-C , 16-C ) :   1.4084 B( 16-C , 65-C ) :   1.3453
B( 16-C , 83-H ) :   0.8876 B( 18-C , 19-O ) :   2.1776 B( 18-C , 20-C ) :   0.9599
B( 18-C , 32-C ) :   1.0132 B( 19-O , 20-C ) :  -0.1612 B( 19-O , 32-C ) :  -0.1397
B( 19-O , 34-C ) :   0.1042 B( 20-C , 21-C ) :   1.3861 B( 20-C , 25-C ) :   1.3290
B( 21-C , 22-C ) :   1.3393 B( 21-C , 84-H ) :   0.9812 B( 22-C , 23-C ) :   1.2695
B( 22-C , 35-Cl) :   1.0456 B( 23-C , 24-C ) :   1.3830 B( 23-C , 33-Cl) :   1.0833
B( 24-C , 25-C ) :   1.3938 B( 24-C , 85-H ) :   0.9354 B( 25-C , 26-C ) :   1.0269
B( 26-C , 27-C ) :   1.3998 B( 26-C , 32-C ) :   1.1726 B( 27-C , 28-C ) :   1.0696
B( 27-C , 30-C ) :   1.0547 B( 28-C , 29-N ) :   2.8945 B( 30-C , 31-N ) :   2.9949
B( 32-C , 34-C ) :   1.4671 B( 34-C , 36-C ) :   1.1554 B( 34-C , 86-H ) :   0.9412
B( 36-C , 37-S ) :   1.1509 B( 36-C , 40-C ) :   1.3643 B( 37-S , 38-C ) :   1.4168
B( 37-S , 40-C ) :   0.1581 B( 38-C , 39-C ) :   1.2615 B( 38-C , 41-C ) :   1.0350
B( 39-C , 40-C ) :   1.2958 B( 39-C , 43-C ) :   1.0753 B( 40-C , 87-H ) :   0.9468
B( 41-C , 42-C ) :   1.2713 B( 41-C , 44-S ) :   1.3871 B( 42-C , 43-C ) :   1.0555
B( 42-C , 46-C ) :   1.3119 B( 43-C , 77-C ) :   0.7980 B( 43-C , 79-C ) :   0.8166
B( 44-S , 45-C ) :   1.2102 B( 44-S , 46-C ) :   0.1384 B( 45-C , 46-C ) :   1.5017
B( 45-C , 47-C ) :   1.0860 B( 46-C , 88-H ) :   0.9192 B( 47-C , 48-C ) :   1.3505
B( 47-C , 52-C ) :   1.1031 B( 48-C , 49-C ) :   1.3508 B( 48-C , 67-O ) :   0.9165
B( 49-C , 50-C ) :   1.3323 B( 49-C , 68-O ) :   1.0749 B( 50-C , 51-C ) :   1.1005
B( 50-C , 56-C ) :   1.1527 B( 51-C , 52-C ) :   1.2159 B( 51-C , 53-N ) :   1.4584
B( 51-C , 54-S ) :   0.1269 B( 52-C , 54-S ) :   0.1299 B( 52-C , 55-N ) :   1.4625
B( 53-N , 54-S ) :   1.3159 B( 53-N , 55-N ) :   0.1242 B( 54-S , 55-N ) :   1.3176
B( 56-C , 57-S ) :   1.2299 B( 56-C , 60-C ) :   1.4760 B( 57-S , 58-C ) :   1.3972
B( 57-S , 60-C ) :   0.1252 B( 58-C , 59-C ) :   1.2788 B( 58-C , 61-C ) :   1.0247
B( 59-C , 60-C ) :   1.3126 B( 59-C , 63-C ) :   1.1253 B( 60-C , 89-H ) :   0.8969
B( 61-C , 62-C ) :   1.2438 B( 61-C , 64-S ) :   1.4186 B( 62-C , 63-C ) :   1.0405
B( 62-C , 66-C ) :   1.3524 B( 63-C , 73-C ) :   0.7807 B( 63-C , 75-C ) :   0.8087
B( 64-S , 65-C ) :   1.1663 B( 64-S , 66-C ) :   0.1464 B( 65-C , 66-C ) :   1.4129
B( 66-C , 90-H ) :   0.9143 B( 67-O , 69-C ) :   0.8647 B( 68-O , 71-C ) :   0.8839
B( 69-C , 70-C ) :   0.9717 B( 69-C , 91-H ) :   0.9562 B( 69-C , 92-H ) :   0.9673
B( 70-C , 93-H ) :   0.9696 B( 70-C , 94-H ) :   0.9652 B( 70-C , 95-H ) :   0.9721
B( 71-C , 72-C ) :   0.9791 B( 71-C , 96-H ) :   0.9584 B( 71-C , 97-H ) :   0.9632
B( 72-C , 98-H ) :   0.9743 B( 72-C , 99-H ) :   0.9643 B( 72-C ,100-H ) :   0.9732
B( 73-C , 74-C ) :   0.9790 B( 73-C ,101-H ) :   0.9673 B( 73-C ,102-H ) :   0.9594
B( 74-C ,103-H ) :   0.9733 B( 74-C ,104-H ) :   0.9789 B( 74-C ,105-H ) :   0.9734
B( 75-C , 76-C ) :   0.9500 B( 75-C ,106-H ) :   0.9687 B( 75-C ,107-H ) :   0.9639
B( 76-C ,108-H ) :   0.9772 B( 76-C ,109-H ) :   0.9778 B( 76-C ,110-H ) :   0.9746
B( 77-C , 78-C ) :   0.9766 B( 77-C ,111-H ) :   0.9592 B( 77-C ,112-H ) :   0.9601
B( 78-C ,113-H ) :   0.9591 B( 78-C ,114-H ) :   0.9755 B( 78-C ,115-H ) :   0.9728
B( 79-C , 80-C ) :   0.9506 B( 79-C ,116-H ) :   0.9689 B( 79-C ,117-H ) :   0.9641
B( 80-C ,118-H ) :   0.9757 B( 80-C ,119-H ) :   0.9776 B( 80-C ,120-H ) :   0.9763

-----------------------------------------------------------------------------
  SOC CORRECTED ABSORPTION SPECTRUM VIA TRANSITION ELECTRIC DIPOLE MOMENTS*
-----------------------------------------------------------------------------
State   Energy  Wavelength   fosc         T2         TX        TY        TZ
        (cm-1)    (nm)                  (au**2)     (au)      (au)      (au)
-----------------------------------------------------------------------------
   1    8018.1   1247.2   0.000000000   0.00000   0.00008   0.00003   0.00006
   2    8018.1   1247.2   0.000000001   0.00000   0.00007   0.00008   0.00011
   3    8018.1   1247.2   0.000000003   0.00000   0.00026   0.00007   0.00020
   4   10773.4    928.2   0.000000002   0.00000   0.00011   0.00002   0.00021
   5   10773.4    928.2   0.000000000   0.00000   0.00005   0.00001   0.00009
   6   10773.4    928.2   0.000000001   0.00000   0.00014   0.00002   0.00013
   7   12841.9    778.7   3.758244771  96.34518   5.75529   0.09684   7.95062
   8   13184.3    758.5   0.000000001   0.00000   0.00005   0.00002   0.00014
   9   13184.3    758.5   0.000000471   0.00001   0.00202   0.00002   0.00277
  10   13184.3    758.5   0.000002266   0.00006   0.00423   0.00029   0.00621
  11   15203.2    657.8   0.111213905   2.40824   1.03499   0.08749   1.15299
  12   16735.2    597.5   0.033192505   0.65296   0.57142   0.22503   0.52517

FINAL SINGLE POINT ENERGY     -6846.619558731507

DIPOLE MOMENT
-------------
                                X             Y             Z
Electronic contribution:    -42.54633       6.02019      20.14481
Nuclear contribution   :     43.67330      -4.11858     -19.47915
                        -----------------------------------------
Total Dipole Moment    :      1.12697       1.90161       0.66567
                        -----------------------------------------
Magnitude (a.u.)       :      2.30852
Magnitude (Debye)      :      5.86780

Rotational constants in cm-1:     0.002009     0.000131     0.000129
Rotational constants in MHz :    60.229643     3.922566     3.881010

                             ****ORCA TERMINATED NORMALLY****
TOTAL RUN TIME: 1 days 5 hours 37 minutes 19 seconds 623 msec
