                         Program Version 4.2.0 -  RELEASE  -
|  1> # ORCA input file
|  2> # BCDT-4F.out
|  3> ! B3LYP def2-TZVP def2/J RIJCOSX Grid4 TightSCF
|  4>
|  5> %maxcore 2000
|  6> %tddft
|  7>   maxdim 5
|  8>   nroots 3
|  9>   dosoc true
| 10>   end
| 11>
| 12>
| 13>
| 14> * xyz 0 1
| 15>    C        2.16853        -1.00581        -3.20400
| 16>    O        1.29800        -1.60117        -2.61176
| 17>    C        2.44873        -1.02692        -4.65940
| 18>    C        1.83193        -1.76842        -5.64674
| 19>    C        2.30402        -1.63288        -6.94307
| 20>    C        3.36563        -0.77467        -7.22801
| 21>    C        3.97853        -0.02055        -6.23768
| 22>    C        3.51084        -0.15054        -4.94067
| 23>    C        3.91303         0.51526        -3.69822
| 24>    C        4.61477         1.69462        -3.64067
| 25>    C        4.75340         2.47706        -2.47802
| 26>    N        4.87460         3.17320        -1.57294
| 27>    C        5.22152         2.30709        -4.75522
| 28>    N        5.76460         2.83498        -5.61802
| 29>    C        3.21795        -0.13767        -2.61913
| 30>    F        3.81116        -0.67535        -8.48602
| 31>    C        3.38626        -0.14006        -1.25735
| 32>    F        1.73792        -2.33643        -7.93161
| 33>    C       13.17198         4.42827        18.93658
| 34>    O       12.30804         5.19231        19.30202
| 35>    C       14.45298         4.12071        19.61835
| 36>    C       14.97205         4.67148        20.77242
| 37>    C       16.21802         4.23125        21.19190
| 38>    C       16.91360         3.26466        20.46662
| 39>    C       16.38716         2.70150        19.31297
| 40>    C       15.14334         3.13758        18.88881
| 41>    C       14.31247         2.72710        17.75423
| 42>    C       14.44931         1.54175        17.07267
| 43>    C       13.46416         1.02861        16.20874
| 44>    N       12.66931         0.55147        15.53082
| 45>    C       15.54315         0.66715        17.21739
| 46>    N       16.42820        -0.06297        17.26771
| 47>    C       13.19969         3.63665        17.68522
| 48>    F       18.12120         2.86918        20.88745
| 49>    C       12.27805         3.91295        16.70507
| 50>    F       16.76137         4.74249        22.30413
| 51>    C       12.32399         3.64341        15.33228
| 52>    S       10.85359         3.83965        14.38285
| 53>    C       11.69788         3.41703        12.96349
| 54>    C       13.06698         3.18316        13.19145
| 55>    C       13.40871         3.29326        14.52081
| 56>    C       11.41119         3.19671        11.60287
| 57>    C       12.58990         2.82288        10.95068
| 58>    C       13.76493         2.82658        11.90071
| 59>    S       10.04999         3.20592        10.55476
| 60>    C       11.07176         2.72183         9.21769
| 61>    C       12.39605         2.55777         9.60580
| 62>    C       10.48617         2.53048         7.92590
| 63>    C       11.21142         2.28787         6.74851
| 64>    C       10.56739         2.02315         5.51200
| 65>    C        9.18163         2.07924         5.34907
| 66>    C        8.43579         2.37222         6.51837
| 67>    C        9.07691         2.57900         7.78126
| 68>    N        7.11290         2.47090         6.60756
| 69>    S        6.70956         2.79561         8.12965
| 70>    N        8.19502         2.82293         8.74720
| 71>    C        8.50397         1.82021         4.11424
| 72>    S        6.78321         1.50709         4.12979
| 73>    C        6.81648         1.25272         2.43269
| 74>    C        8.08586         1.44855         1.87682
| 75>    C        9.03788         1.76183         2.83397
| 76>    C        5.92553         0.86656         1.41200
| 77>    C        6.62602         0.79942         0.19648
| 78>    C        8.06654         1.21395         0.38601
| 79>    S        4.27810         0.45840         1.24611
| 80>    C        4.49180         0.24626        -0.48948
| 81>    C        5.82086         0.45833        -0.86748
| 82>    O       12.56627         2.25749         6.83254
| 83>    O       11.35926         1.64499         4.44566
| 84>    C       13.35050         2.89630         5.82487
| 85>    C       14.46178         3.67383         6.51739
| 86>    C       11.64273         0.24697         4.42724
| 87>    C       12.39058        -0.07499         3.14545
| 88>    C        9.05535         0.11691        -0.03741
| 89>    C        8.82707        -1.19792         0.69924
| 90>    C        8.28311         2.51819        -0.41580
| 91>    C        9.58599         3.24636        -0.11632
| 92>    C       14.45098         1.45312        11.97308
| 93>    C       13.47398         0.32094        12.26651
| 94>    C       14.74200         3.93384        11.44527
| 95>    C       15.89913         4.20377        12.39747
| 96>    H        1.01110        -2.43127        -5.42423
| 97>    H        4.79628         0.62792        -6.50687
| 98>    H        2.55442        -0.57224        -0.70878
| 99>    H       14.43281         5.41807        21.33315
|100>    H       16.96134         1.95737        18.78533
|101>    H       11.42888         4.49777        17.04589
|102>    H       14.40134         3.16784        14.91393
|103>    H       13.15987         2.23609         8.92604
|104>    H       10.07683         1.94925         2.64092
|105>    H        6.16587         0.31159        -1.87518
|106>    H       12.72827         3.56882         5.22844
|107>    H       13.77970         2.13592         5.16358
|108>    H       14.03973         4.42011         7.18606
|109>    H       15.07680         4.17060         5.77253
|110>    H       15.08646         2.99899         7.09668
|111>    H       10.70077        -0.31708         4.47387
|112>    H       12.24662        -0.01944         5.30564
|113>    H       11.76147         0.12334         2.28223
|114>    H       12.67253        -1.12387         3.14314
|115>    H       13.28670         0.53529         3.07035
|116>    H       10.07027         0.46516         0.15775
|117>    H        8.95499        -0.04472        -1.11245
|118>    H        8.94493        -1.06405         1.77220
|119>    H        9.54517        -1.94295         0.36500
|120>    H        7.82567        -1.57787         0.51004
|121>    H        7.44521         3.18704        -0.20767
|122>    H        8.24241         2.26624        -1.47762
|123>    H        9.62088         3.56675         0.92119
|124>    H        9.65427         4.12972        -0.74655
|125>    H       10.45009         2.61959        -0.32128
|126>    H       15.20976         1.47713        12.75606
|127>    H       14.95039         1.26820        11.01946
|128>    H       12.98993         0.46616        13.22953
|129>    H       14.00620        -0.62672        12.29561
|130>    H       12.70733         0.26128        11.49754
|131>    H       14.17017         4.85606        11.31394
|132>    H       15.13601         3.64626        10.46825
|133>    H       15.53527         4.55664        13.35855
|134>    H       16.54101         4.97447        11.97662
|135>    H       16.50060         3.31260        12.55341
|136> *
|137>
|138>                          ****END OF INPUT****

CARTESIAN COORDINATES (ANGSTROEM)
---------------------------------
  C      2.168530   -1.005810   -3.204000
  O      1.298000   -1.601170   -2.611760
  C      2.448730   -1.026920   -4.659400
  C      1.831930   -1.768420   -5.646740
  C      2.304020   -1.632880   -6.943070
  C      3.365630   -0.774670   -7.228010
  C      3.978530   -0.020550   -6.237680
  C      3.510840   -0.150540   -4.940670
  C      3.913030    0.515260   -3.698220
  C      4.614770    1.694620   -3.640670
  C      4.753400    2.477060   -2.478020
  N      4.874600    3.173200   -1.572940
  C      5.221520    2.307090   -4.755220
  N      5.764600    2.834980   -5.618020
  C      3.217950   -0.137670   -2.619130
  F      3.811160   -0.675350   -8.486020
  C      3.386260   -0.140060   -1.257350
  F      1.737920   -2.336430   -7.931610
  C     13.171980    4.428270   18.936580
  O     12.308040    5.192310   19.302020
  C     14.452980    4.120710   19.618350
  C     14.972050    4.671480   20.772420
  C     16.218020    4.231250   21.191900
  C     16.913600    3.264660   20.466620
  C     16.387160    2.701500   19.312970
  C     15.143340    3.137580   18.888810
  C     14.312470    2.727100   17.754230
  C     14.449310    1.541750   17.072670
  C     13.464160    1.028610   16.208740
  N     12.669310    0.551470   15.530820
  C     15.543150    0.667150   17.217390
  N     16.428200   -0.062970   17.267710
  C     13.199690    3.636650   17.685220
  F     18.121200    2.869180   20.887450
  C     12.278050    3.912950   16.705070
  F     16.761370    4.742490   22.304130
  C     12.323990    3.643410   15.332280
  S     10.853590    3.839650   14.382850
  C     11.697880    3.417030   12.963490
  C     13.066980    3.183160   13.191450
  C     13.408710    3.293260   14.520810
  C     11.411190    3.196710   11.602870
  C     12.589900    2.822880   10.950680
  C     13.764930    2.826580   11.900710
  S     10.049990    3.205920   10.554760
  C     11.071760    2.721830    9.217690
  C     12.396050    2.557770    9.605800
  C     10.486170    2.530480    7.925900
  C     11.211420    2.287870    6.748510
  C     10.567390    2.023150    5.512000
  C      9.181630    2.079240    5.349070
  C      8.435790    2.372220    6.518370
  C      9.076910    2.579000    7.781260
  N      7.112900    2.470900    6.607560
  S      6.709560    2.795610    8.129650
  N      8.195020    2.822930    8.747200
  C      8.503970    1.820210    4.114240
  S      6.783210    1.507090    4.129790
  C      6.816480    1.252720    2.432690
  C      8.085860    1.448550    1.876820
  C      9.037880    1.761830    2.833970
  C      5.925530    0.866560    1.412000
  C      6.626020    0.799420    0.196480
  C      8.066540    1.213950    0.386010
  S      4.278100    0.458400    1.246110
  C      4.491800    0.246260   -0.489480
  C      5.820860    0.458330   -0.867480
  O     12.566270    2.257490    6.832540
  O     11.359260    1.644990    4.445660
  C     13.350500    2.896300    5.824870
  C     14.461780    3.673830    6.517390
  C     11.642730    0.246970    4.427240
  C     12.390580   -0.074990    3.145450
  C      9.055350    0.116910   -0.037410
  C      8.827070   -1.197920    0.699240
  C      8.283110    2.518190   -0.415800
  C      9.585990    3.246360   -0.116320
  C     14.450980    1.453120   11.973080
  C     13.473980    0.320940   12.266510
  C     14.742000    3.933840   11.445270
  C     15.899130    4.203770   12.397470
  H      1.011100   -2.431270   -5.424230
  H      4.796280    0.627920   -6.506870
  H      2.554420   -0.572240   -0.708780
  H     14.432810    5.418070   21.333150
  H     16.961340    1.957370   18.785330
  H     11.428880    4.497770   17.045890
  H     14.401340    3.167840   14.913930
  H     13.159870    2.236090    8.926040
  H     10.076830    1.949250    2.640920
  H      6.165870    0.311590   -1.875180
  H     12.728270    3.568820    5.228440
  H     13.779700    2.135920    5.163580
  H     14.039730    4.420110    7.186060
  H     15.076800    4.170600    5.772530
  H     15.086460    2.998990    7.096680
  H     10.700770   -0.317080    4.473870
  H     12.246620   -0.019440    5.305640
  H     11.761470    0.123340    2.282230
  H     12.672530   -1.123870    3.143140
  H     13.286700    0.535290    3.070350
  H     10.070270    0.465160    0.157750
  H      8.954990   -0.044720   -1.112450
  H      8.944930   -1.064050    1.772200
  H      9.545170   -1.942950    0.365000
  H      7.825670   -1.577870    0.510040
  H      7.445210    3.187040   -0.207670
  H      8.242410    2.266240   -1.477620
  H      9.620880    3.566750    0.921190
  H      9.654270    4.129720   -0.746550
  H     10.450090    2.619590   -0.321280
  H     15.209760    1.477130   12.756060
  H     14.950390    1.268200   11.019460
  H     12.989930    0.466160   13.229530
  H     14.006200   -0.626720   12.295610
  H     12.707330    0.261280   11.497540
  H     14.170170    4.856060   11.313940
  H     15.136010    3.646260   10.468250
  H     15.535270    4.556640   13.358550
  H     16.541010    4.974470   11.976620
  H     16.500600    3.312600   12.553410

 Total Charge           Charge          ....    0
 Multiplicity           Mult            ....    1
 Number of Electrons    NEL             ....  602
 Basis Dimension        Dim             .... 2781

ORBITAL ENERGIES
----------------

  NO   OCC          E(Eh)            E(eV)
   0   2.0000     -88.966953     -2420.9139
   1   2.0000     -88.913645     -2419.4633
   2   2.0000     -88.910816     -2419.3863
   3   2.0000     -88.907667     -2419.3006
   4   2.0000     -88.902258     -2419.1534
   5   2.0000     -24.722072      -672.7218
   6   2.0000     -24.721655      -672.7104
   7   2.0000     -24.719618      -672.6550
   8   2.0000     -24.719226      -672.6443
   9   2.0000     -19.186590      -522.0937
  10   2.0000     -19.177732      -521.8526
  11   2.0000     -19.127777      -520.4933
  12   2.0000     -19.124645      -520.4081
  13   2.0000     -14.368415      -390.9844
  14   2.0000     -14.366353      -390.9283
  15   2.0000     -14.327710      -389.8768
  16   2.0000     -14.326551      -389.8453
  17   2.0000     -14.325148      -389.8071
  18   2.0000     -14.323934      -389.7741
  19   2.0000     -10.297117      -280.1988
  20   2.0000     -10.296284      -280.1761
  21   2.0000     -10.294466      -280.1267
  22   2.0000     -10.293616      -280.1035
  23   2.0000     -10.278518      -279.6927
  24   2.0000     -10.273166      -279.5471
  25   2.0000     -10.272743      -279.5355
  26   2.0000     -10.270232      -279.4672
  27   2.0000     -10.253410      -279.0095
  28   2.0000     -10.252760      -278.9918
  29   2.0000     -10.252263      -278.9783
  30   2.0000     -10.251599      -278.9602
  31   2.0000     -10.250609      -278.9333
  32   2.0000     -10.250158      -278.9210
  33   2.0000     -10.249732      -278.9094
  34   2.0000     -10.249081      -278.8917
  35   2.0000     -10.240613      -278.6612
  36   2.0000     -10.238966      -278.6164
  37   2.0000     -10.238717      -278.6096
  38   2.0000     -10.235883      -278.5325
  39   2.0000     -10.234495      -278.4948
  40   2.0000     -10.231267      -278.4069
  41   2.0000     -10.230745      -278.3927
  42   2.0000     -10.227461      -278.3034
  43   2.0000     -10.227195      -278.2961
  44   2.0000     -10.226800      -278.2854
  45   2.0000     -10.226217      -278.2695
  46   2.0000     -10.225407      -278.2475
  47   2.0000     -10.225395      -278.2471
  48   2.0000     -10.224522      -278.2234
  49   2.0000     -10.223256      -278.1889
  50   2.0000     -10.223037      -278.1830
  51   2.0000     -10.222867      -278.1784
  52   2.0000     -10.221252      -278.1344
  53   2.0000     -10.217276      -278.0262
  54   2.0000     -10.217174      -278.0234
  55   2.0000     -10.217077      -278.0208
  56   2.0000     -10.214668      -277.9553
  57   2.0000     -10.214491      -277.9504
  58   2.0000     -10.213678      -277.9283
  59   2.0000     -10.213277      -277.9174
  60   2.0000     -10.211370      -277.8655
  61   2.0000     -10.210551      -277.8432
  62   2.0000     -10.208608      -277.7903
  63   2.0000     -10.207594      -277.7628
  64   2.0000     -10.205098      -277.6948
  65   2.0000     -10.204107      -277.6679
  66   2.0000     -10.203723      -277.6574
  67   2.0000     -10.203398      -277.6486
  68   2.0000     -10.199391      -277.5395
  69   2.0000     -10.199306      -277.5372
  70   2.0000     -10.193969      -277.3920
  71   2.0000     -10.191918      -277.3362
  72   2.0000     -10.190231      -277.2903
  73   2.0000     -10.188867      -277.2532
  74   2.0000     -10.186222      -277.1812
  75   2.0000     -10.184254      -277.1276
  76   2.0000     -10.181568      -277.0545
  77   2.0000     -10.173288      -276.8292
  78   2.0000     -10.172046      -276.7954
  79   2.0000     -10.169514      -276.7266
  80   2.0000     -10.152161      -276.2543
  81   2.0000      -8.037808      -218.7199
  82   2.0000      -7.989772      -217.4128
  83   2.0000      -7.986997      -217.3372
  84   2.0000      -7.983295      -217.2365
  85   2.0000      -7.977818      -217.0875
  86   2.0000      -6.002332      -163.3318
  87   2.0000      -5.995007      -163.1324
  88   2.0000      -5.994945      -163.1308
  89   2.0000      -5.952163      -161.9666
  90   2.0000      -5.949374      -161.8907
  91   2.0000      -5.948494      -161.8668
  92   2.0000      -5.946544      -161.8137
  93   2.0000      -5.945902      -161.7962
  94   2.0000      -5.945705      -161.7909
  95   2.0000      -5.943773      -161.7383
  96   2.0000      -5.941850      -161.6860
  97   2.0000      -5.940473      -161.6485
  98   2.0000      -5.939929      -161.6337
  99   2.0000      -5.936397      -161.5376
 100   2.0000      -5.934353      -161.4819
 101   2.0000      -1.265062       -34.4241
 102   2.0000      -1.262539       -34.3554
 103   2.0000      -1.251738       -34.0615
 104   2.0000      -1.249233       -33.9934
 105   2.0000      -1.110587       -30.2206
 106   2.0000      -1.084963       -29.5234
 107   2.0000      -1.058630       -28.8068
 108   2.0000      -1.055475       -28.7209
 109   2.0000      -1.052668       -28.6446
 110   2.0000      -0.947092       -25.7717
 111   2.0000      -0.943797       -25.6820
 112   2.0000      -0.942622       -25.6501
 113   2.0000      -0.939677       -25.5699
 114   2.0000      -0.924764       -25.1641
 115   2.0000      -0.924320       -25.1520
 116   2.0000      -0.922739       -25.1090
 117   2.0000      -0.922100       -25.0916
 118   2.0000      -0.920321       -25.0432
 119   2.0000      -0.910813       -24.7845
 120   2.0000      -0.900856       -24.5135
 121   2.0000      -0.889945       -24.2166
 122   2.0000      -0.877684       -23.8830
 123   2.0000      -0.874764       -23.8036
 124   2.0000      -0.861197       -23.4344
 125   2.0000      -0.855117       -23.2689
 126   2.0000      -0.829205       -22.5638
 127   2.0000      -0.826234       -22.4830
 128   2.0000      -0.823969       -22.4213
 129   2.0000      -0.816494       -22.2179
 130   2.0000      -0.812168       -22.1002
 131   2.0000      -0.809912       -22.0388
 132   2.0000      -0.798103       -21.7175
 133   2.0000      -0.795477       -21.6460
 134   2.0000      -0.792004       -21.5515
 135   2.0000      -0.788477       -21.4555
 136   2.0000      -0.774812       -21.0837
 137   2.0000      -0.773276       -21.0419
 138   2.0000      -0.771813       -21.0021
 139   2.0000      -0.770544       -20.9676
 140   2.0000      -0.767883       -20.8952
 141   2.0000      -0.766145       -20.8479
 142   2.0000      -0.762398       -20.7459
 143   2.0000      -0.758456       -20.6386
 144   2.0000      -0.741795       -20.1853
 145   2.0000      -0.732830       -19.9413
 146   2.0000      -0.716680       -19.5018
 147   2.0000      -0.699908       -19.0455
 148   2.0000      -0.698380       -19.0039
 149   2.0000      -0.696325       -18.9480
 150   2.0000      -0.693271       -18.8649
 151   2.0000      -0.686255       -18.6739
 152   2.0000      -0.678170       -18.4540
 153   2.0000      -0.674802       -18.3623
 154   2.0000      -0.664183       -18.0733
 155   2.0000      -0.655048       -17.8248
 156   2.0000      -0.646118       -17.5818
 157   2.0000      -0.639289       -17.3960
 158   2.0000      -0.636344       -17.3158
 159   2.0000      -0.635226       -17.2854
 160   2.0000      -0.629956       -17.1420
 161   2.0000      -0.627731       -17.0814
 162   2.0000      -0.623753       -16.9732
 163   2.0000      -0.619688       -16.8626
 164   2.0000      -0.617792       -16.8110
 165   2.0000      -0.613445       -16.6927
 166   2.0000      -0.610838       -16.6218
 167   2.0000      -0.605677       -16.4813
 168   2.0000      -0.594899       -16.1880
 169   2.0000      -0.583683       -15.8828
 170   2.0000      -0.576569       -15.6892
 171   2.0000      -0.574495       -15.6328
 172   2.0000      -0.571283       -15.5454
 173   2.0000      -0.570534       -15.5250
 174   2.0000      -0.569542       -15.4980
 175   2.0000      -0.567682       -15.4474
 176   2.0000      -0.565363       -15.3843
 177   2.0000      -0.561108       -15.2685
 178   2.0000      -0.559643       -15.2287
 179   2.0000      -0.557274       -15.1642
 180   2.0000      -0.551932       -15.0188
 181   2.0000      -0.543657       -14.7937
 182   2.0000      -0.538327       -14.6486
 183   2.0000      -0.535691       -14.5769
 184   2.0000      -0.530058       -14.4236
 185   2.0000      -0.524941       -14.2844
 186   2.0000      -0.520619       -14.1668
 187   2.0000      -0.517242       -14.0749
 188   2.0000      -0.516120       -14.0443
 189   2.0000      -0.514632       -14.0038
 190   2.0000      -0.509688       -13.8693
 191   2.0000      -0.504653       -13.7323
 192   2.0000      -0.502154       -13.6643
 193   2.0000      -0.496154       -13.5010
 194   2.0000      -0.492528       -13.4024
 195   2.0000      -0.489671       -13.3246
 196   2.0000      -0.486514       -13.2387
 197   2.0000      -0.485349       -13.2070
 198   2.0000      -0.482094       -13.1184
 199   2.0000      -0.481862       -13.1121
 200   2.0000      -0.479683       -13.0528
 201   2.0000      -0.479646       -13.0518
 202   2.0000      -0.479471       -13.0471
 203   2.0000      -0.478948       -13.0328
 204   2.0000      -0.477318       -12.9885
 205   2.0000      -0.473980       -12.8977
 206   2.0000      -0.469987       -12.7890
 207   2.0000      -0.468704       -12.7541
 208   2.0000      -0.464095       -12.6287
 209   2.0000      -0.462653       -12.5894
 210   2.0000      -0.460736       -12.5373
 211   2.0000      -0.458937       -12.4883
 212   2.0000      -0.457466       -12.4483
 213   2.0000      -0.456531       -12.4228
 214   2.0000      -0.455259       -12.3882
 215   2.0000      -0.453881       -12.3507
 216   2.0000      -0.451322       -12.2811
 217   2.0000      -0.442872       -12.0512
 218   2.0000      -0.437895       -11.9157
 219   2.0000      -0.434466       -11.8224
 220   2.0000      -0.433610       -11.7991
 221   2.0000      -0.432829       -11.7779
 222   2.0000      -0.432333       -11.7644
 223   2.0000      -0.429528       -11.6880
 224   2.0000      -0.428597       -11.6627
 225   2.0000      -0.427563       -11.6346
 226   2.0000      -0.425341       -11.5741
 227   2.0000      -0.424428       -11.5493
 228   2.0000      -0.422511       -11.4971
 229   2.0000      -0.422111       -11.4862
 230   2.0000      -0.419368       -11.4116
 231   2.0000      -0.417339       -11.3564
 232   2.0000      -0.416526       -11.3342
 233   2.0000      -0.415288       -11.3006
 234   2.0000      -0.414191       -11.2707
 235   2.0000      -0.412322       -11.2199
 236   2.0000      -0.408694       -11.1211
 237   2.0000      -0.407527       -11.0894
 238   2.0000      -0.406276       -11.0553
 239   2.0000      -0.403342       -10.9755
 240   2.0000      -0.399819       -10.8796
 241   2.0000      -0.398939       -10.8557
 242   2.0000      -0.396986       -10.8025
 243   2.0000      -0.394775       -10.7424
 244   2.0000      -0.392296       -10.6749
 245   2.0000      -0.391614       -10.6564
 246   2.0000      -0.389898       -10.6097
 247   2.0000      -0.388859       -10.5814
 248   2.0000      -0.387793       -10.5524
 249   2.0000      -0.385581       -10.4922
 250   2.0000      -0.385302       -10.4846
 251   2.0000      -0.383909       -10.4467
 252   2.0000      -0.382709       -10.4140
 253   2.0000      -0.382010       -10.3950
 254   2.0000      -0.380401       -10.3512
 255   2.0000      -0.379940       -10.3387
 256   2.0000      -0.378711       -10.3052
 257   2.0000      -0.377237       -10.2651
 258   2.0000      -0.375582       -10.2201
 259   2.0000      -0.374437       -10.1890
 260   2.0000      -0.371625       -10.1124
 261   2.0000      -0.371011       -10.0957
 262   2.0000      -0.365395        -9.9429
 263   2.0000      -0.364174        -9.9097
 264   2.0000      -0.362850        -9.8737
 265   2.0000      -0.362448        -9.8627
 266   2.0000      -0.360053        -9.7975
 267   2.0000      -0.357718        -9.7340
 268   2.0000      -0.354896        -9.6572
 269   2.0000      -0.352593        -9.5945
 270   2.0000      -0.349620        -9.5136
 271   2.0000      -0.349059        -9.4984
 272   2.0000      -0.347601        -9.4587
 273   2.0000      -0.345972        -9.4144
 274   2.0000      -0.343376        -9.3437
 275   2.0000      -0.343331        -9.3425
 276   2.0000      -0.339325        -9.2335
 277   2.0000      -0.338979        -9.2241
 278   2.0000      -0.337872        -9.1940
 279   2.0000      -0.335433        -9.1276
 280   2.0000      -0.331625        -9.0240
 281   2.0000      -0.320704        -8.7268
 282   2.0000      -0.315921        -8.5966
 283   2.0000      -0.308145        -8.3850
 284   2.0000      -0.304754        -8.2928
 285   2.0000      -0.297795        -8.1034
 286   2.0000      -0.292573        -7.9613
 287   2.0000      -0.290048        -7.8926
 288   2.0000      -0.281905        -7.6710
 289   2.0000      -0.280902        -7.6437
 290   2.0000      -0.279595        -7.6082
 291   2.0000      -0.275481        -7.4962
 292   2.0000      -0.274737        -7.4760
 293   2.0000      -0.272537        -7.4161
 294   2.0000      -0.271732        -7.3942
 295   2.0000      -0.270537        -7.3617
 296   2.0000      -0.263222        -7.1626
 297   2.0000      -0.259937        -7.0733
 298   2.0000      -0.249794        -6.7972
 299   2.0000      -0.219671        -5.9775
 300   2.0000      -0.199094        -5.4176
 301   0.0000      -0.137336        -3.7371
 302   0.0000      -0.123478        -3.3600
 303   0.0000      -0.113382        -3.0853
 304   0.0000      -0.102566        -2.7910
 305   0.0000      -0.099560        -2.7092

MULLIKEN ATOMIC CHARGES
-----------------------
   0 C :    0.218429
   1 O :   -0.291070
   2 C :   -0.004095
   3 C :   -0.299902
   4 C :    0.281148
   5 C :    0.255296
   6 C :   -0.259933
   7 C :    0.123394
   8 C :   -0.018090
   9 C :    0.088571
  10 C :   -0.203128
  11 N :    0.028343
  12 C :   -0.232046
  13 N :    0.039026
  14 C :   -0.003443
  15 F :   -0.178657
  16 C :   -0.239747
  17 F :   -0.181623
  18 C :    0.213534
  19 O :   -0.290770
  20 C :   -0.001944
  21 C :   -0.300525
  22 C :    0.280643
  23 C :    0.256519
  24 C :   -0.264221
  25 C :    0.124663
  26 C :   -0.008921
  27 C :    0.071760
  28 C :   -0.181106
  29 N :    0.000909
  30 C :   -0.232882
  31 N :    0.037355
  32 C :    0.005079
  33 F :   -0.178992
  34 C :   -0.239652
  35 F :   -0.182304
  36 C :    0.261864
  37 S :    0.068462
  38 C :   -0.031306
  39 C :   -0.031972
  40 C :   -0.424067
  41 C :   -0.008002
  42 C :    0.046874
  43 C :    0.432929
  44 S :    0.070897
  45 C :    0.080659
  46 C :   -0.373526
  47 C :   -0.004292
  48 C :    0.163951
  49 C :    0.174139
  50 C :    0.053279
  51 C :    0.038305
  52 C :    0.060865
  53 N :   -0.274366
  54 S :    0.352293
  55 N :   -0.276446
  56 C :    0.093516
  57 S :    0.075284
  58 C :   -0.011572
  59 C :   -0.043497
  60 C :   -0.409776
  61 C :   -0.019423
  62 C :    0.058417
  63 C :    0.451799
  64 S :    0.065623
  65 C :    0.271957
  66 C :   -0.448328
  67 O :   -0.328471
  68 O :   -0.378330
  69 C :    0.004840
  70 C :   -0.323309
  71 C :   -0.028636
  72 C :   -0.325756
  73 C :   -0.226892
  74 C :   -0.358197
  75 C :   -0.165714
  76 C :   -0.372257
  77 C :   -0.219495
  78 C :   -0.378374
  79 C :   -0.172719
  80 C :   -0.371937
  81 H :    0.150431
  82 H :    0.161314
  83 H :    0.144843
  84 H :    0.149363
  85 H :    0.160914
  86 H :    0.143794
  87 H :    0.178870
  88 H :    0.145025
  89 H :    0.179721
  90 H :    0.154134
  91 H :    0.104901
  92 H :    0.090746
  93 H :    0.122237
  94 H :    0.119473
  95 H :    0.110445
  96 H :    0.116866
  97 H :    0.115275
  98 H :    0.112889
  99 H :    0.120843
 100 H :    0.113066
 101 H :    0.095781
 102 H :    0.097284
 103 H :    0.118315
 104 H :    0.113733
 105 H :    0.124720
 106 H :    0.131948
 107 H :    0.092222
 108 H :    0.120403
 109 H :    0.126196
 110 H :    0.102901
 111 H :    0.099677
 112 H :    0.084844
 113 H :    0.177557
 114 H :    0.106517
 115 H :    0.113664
 116 H :    0.101604
 117 H :    0.094772
 118 H :    0.115884
 119 H :    0.117743
 120 H :    0.118173
Sum of atomic charges:   -0.0000000

LOEWDIN ATOMIC CHARGES
----------------------
   0 C :   -0.258400
   1 O :    0.133979
   2 C :   -0.058530
   3 C :   -0.046286
   4 C :   -0.225946
   5 C :   -0.224237
   6 C :   -0.052615
   7 C :   -0.043896
   8 C :    0.001862
   9 C :   -0.148019
  10 C :   -0.158864
  11 N :    0.096380
  12 C :   -0.168261
  13 N :    0.078569
  14 C :   -0.087272
  15 F :    0.214786
  16 C :   -0.070504
  17 F :    0.211939
  18 C :   -0.258744
  19 O :    0.132608
  20 C :   -0.058193
  21 C :   -0.047145
  22 C :   -0.226389
  23 C :   -0.224690
  24 C :   -0.053116
  25 C :   -0.044333
  26 C :    0.000872
  27 C :   -0.150085
  28 C :   -0.155425
  29 N :    0.092375
  30 C :   -0.168992
  31 N :    0.076754
  32 C :   -0.088988
  33 F :    0.213775
  34 C :   -0.070925
  35 F :    0.210792
  36 C :   -0.334798
  37 S :    0.800605
  38 C :   -0.313605
  39 C :   -0.080616
  40 C :   -0.090745
  41 C :   -0.331621
  42 C :   -0.085425
  43 C :   -0.181113
  44 S :    0.800791
  45 C :   -0.280447
  46 C :   -0.115987
  47 C :   -0.101955
  48 C :   -0.180197
  49 C :   -0.181341
  50 C :   -0.103502
  51 C :   -0.234050
  52 C :   -0.231430
  53 N :   -0.134793
  54 S :    0.689695
  55 N :   -0.138598
  56 C :   -0.286903
  57 S :    0.807837
  58 C :   -0.329673
  59 C :   -0.083055
  60 C :   -0.120965
  61 C :   -0.316324
  62 C :   -0.085200
  63 C :   -0.180795
  64 S :    0.799312
  65 C :   -0.334093
  66 C :   -0.084980
  67 O :    0.272582
  68 O :    0.239551
  69 C :   -0.314259
  70 C :   -0.300503
  71 C :   -0.324687
  72 C :   -0.297116
  73 C :   -0.219003
  74 C :   -0.291547
  75 C :   -0.213305
  76 C :   -0.294832
  77 C :   -0.219278
  78 C :   -0.289277
  79 C :   -0.217856
  80 C :   -0.295222
  81 H :    0.164441
  82 H :    0.167893
  83 H :    0.169271
  84 H :    0.164170
  85 H :    0.167647
  86 H :    0.168716
  87 H :    0.156581
  88 H :    0.151093
  89 H :    0.152690
  90 H :    0.156863
  91 H :    0.131305
  92 H :    0.123350
  93 H :    0.121525
  94 H :    0.124567
  95 H :    0.118558
  96 H :    0.128198
  97 H :    0.125957
  98 H :    0.117186
  99 H :    0.126896
 100 H :    0.118958
 101 H :    0.135684
 102 H :    0.140202
 103 H :    0.121087
 104 H :    0.118426
 105 H :    0.123429
 106 H :    0.152104
 107 H :    0.140952
 108 H :    0.120800
 109 H :    0.123397
 110 H :    0.114341
 111 H :    0.139106
 112 H :    0.137678
 113 H :    0.128132
 114 H :    0.119285
 115 H :    0.120516
 116 H :    0.144930
 117 H :    0.138911
 118 H :    0.119579
 119 H :    0.121036
 120 H :    0.118426

  Mayer bond orders larger than 0.100000
B(  0-C ,  1-O ) :   2.1728 B(  0-C ,  2-C ) :   0.9553 B(  0-C , 14-C ) :   1.0142
B(  1-O ,  2-C ) :  -0.1514 B(  1-O , 14-C ) :  -0.1419 B(  1-O , 16-C ) :   0.1066
B(  2-C ,  3-C ) :   1.3130 B(  2-C ,  7-C ) :   1.3277 B(  3-C ,  4-C ) :   1.3539
B(  3-C , 81-H ) :   0.9834 B(  4-C ,  5-C ) :   1.3480 B(  4-C , 17-F ) :   1.0607
B(  5-C ,  6-C ) :   1.3861 B(  5-C , 15-F ) :   1.0743 B(  6-C ,  7-C ) :   1.3084
B(  6-C , 82-H ) :   0.9421 B(  7-C ,  8-C ) :   1.0300 B(  8-C ,  9-C ) :   1.4094
B(  8-C , 14-C ) :   1.1778 B(  9-C , 10-C ) :   1.0576 B(  9-C , 12-C ) :   1.0519
B( 10-C , 11-N ) :   2.9382 B( 12-C , 13-N ) :   2.9957 B( 14-C , 16-C ) :   1.4754
B( 16-C , 65-C ) :   1.1500 B( 16-C , 83-H ) :   0.9424 B( 18-C , 19-O ) :   2.1773
B( 18-C , 20-C ) :   0.9530 B( 18-C , 32-C ) :   1.0150 B( 19-O , 20-C ) :  -0.1533
B( 19-O , 32-C ) :  -0.1432 B( 19-O , 34-C ) :   0.1061 B( 20-C , 21-C ) :   1.3138
B( 20-C , 25-C ) :   1.3263 B( 21-C , 22-C ) :   1.3528 B( 21-C , 84-H ) :   0.9837
B( 22-C , 23-C ) :   1.3489 B( 22-C , 35-F ) :   1.0608 B( 23-C , 24-C ) :   1.3851
B( 23-C , 33-F ) :   1.0744 B( 24-C , 25-C ) :   1.3093 B( 24-C , 85-H ) :   0.9435
B( 25-C , 26-C ) :   1.0286 B( 26-C , 27-C ) :   1.3945 B( 26-C , 32-C ) :   1.1821
B( 27-C , 28-C ) :   1.0635 B( 27-C , 30-C ) :   1.0545 B( 28-C , 29-N ) :   2.8949
B( 30-C , 31-N ) :   2.9965 B( 32-C , 34-C ) :   1.4589 B( 34-C , 36-C ) :   1.1634
B( 34-C , 86-H ) :   0.9435 B( 36-C , 37-S ) :   1.1535 B( 36-C , 40-C ) :   1.3578
B( 37-S , 38-C ) :   1.4150 B( 37-S , 40-C ) :   0.1513 B( 38-C , 39-C ) :   1.2606
B( 38-C , 41-C ) :   1.0356 B( 39-C , 40-C ) :   1.3131 B( 39-C , 43-C ) :   1.0905
B( 40-C , 87-H ) :   0.9477 B( 41-C , 42-C ) :   1.2584 B( 41-C , 44-S ) :   1.4005
B( 42-C , 43-C ) :   1.0401 B( 42-C , 46-C ) :   1.2843 B( 43-C , 77-C ) :   0.7975
B( 43-C , 79-C ) :   0.8026 B( 44-S , 45-C ) :   1.2729 B( 44-S , 46-C ) :   0.1371
B( 45-C , 46-C ) :   1.4479 B( 45-C , 47-C ) :   1.1397 B( 46-C , 88-H ) :   0.9542
B( 47-C , 48-C ) :   1.3496 B( 47-C , 52-C ) :   1.0770 B( 48-C , 49-C ) :   1.3478
B( 48-C , 67-O ) :   1.0808 B( 49-C , 50-C ) :   1.3900 B( 49-C , 68-O ) :   0.8833
B( 50-C , 51-C ) :   1.0853 B( 50-C , 56-C ) :   1.1072 B( 51-C , 52-C ) :   1.2082
B( 51-C , 53-N ) :   1.4685 B( 51-C , 54-S ) :   0.1287 B( 52-C , 54-S ) :   0.1260
B( 52-C , 55-N ) :   1.4709 B( 53-N , 54-S ) :   1.3097 B( 53-N , 55-N ) :   0.1195
B( 54-S , 55-N ) :   1.3040 B( 56-C , 57-S ) :   1.2637 B( 56-C , 60-C ) :   1.4378
B( 57-S , 58-C ) :   1.3920 B( 57-S , 60-C ) :   0.1244 B( 58-C , 59-C ) :   1.2873
B( 58-C , 61-C ) :   1.0245 B( 59-C , 60-C ) :   1.2829 B( 59-C , 63-C ) :   1.0875
B( 60-C , 89-H ) :   0.9317 B( 61-C , 62-C ) :   1.2643 B( 61-C , 64-S ) :   1.4148
B( 62-C , 63-C ) :   1.0324 B( 62-C , 66-C ) :   1.2952 B( 63-C , 73-C ) :   0.7734
B( 63-C , 75-C ) :   0.8415 B( 64-S , 65-C ) :   1.1540 B( 64-S , 66-C ) :   0.1526
B( 65-C , 66-C ) :   1.3638 B( 66-C , 90-H ) :   0.9685 B( 67-O , 69-C ) :   0.8857
B( 68-O , 71-C ) :   0.8588 B( 69-C , 70-C ) :   0.9685 B( 69-C , 91-H ) :   0.9608
B( 69-C , 92-H ) :   0.9621 B( 70-C , 93-H ) :   0.9749 B( 70-C , 94-H ) :   0.9684
B( 70-C , 95-H ) :   0.9740 B( 71-C , 72-C ) :   0.9773 B( 71-C , 96-H ) :   0.9576
B( 71-C , 97-H ) :   0.9582 B( 72-C , 98-H ) :   0.9770 B( 72-C , 99-H ) :   0.9706
B( 72-C ,100-H ) :   0.9721 B( 73-C , 74-C ) :   0.9755 B( 73-C ,101-H ) :   0.9669
B( 73-C ,102-H ) :   0.9609 B( 74-C ,103-H ) :   0.9746 B( 74-C ,104-H ) :   0.9791
B( 74-C ,105-H ) :   0.9729 B( 75-C , 76-C ) :   0.9455 B( 75-C ,106-H ) :   0.9640
B( 75-C ,107-H ) :   0.9614 B( 76-C ,108-H ) :   0.9765 B( 76-C ,109-H ) :   0.9783
B( 76-C ,110-H ) :   0.9764 B( 77-C , 78-C ) :   0.9752 B( 77-C ,111-H ) :   0.9634
B( 77-C ,112-H ) :   0.9586 B( 78-C ,113-H ) :   0.9612 B( 78-C ,114-H ) :   0.9749
B( 78-C ,115-H ) :   0.9723 B( 79-C , 80-C ) :   0.9519 B( 79-C ,116-H ) :   0.9703
B( 79-C ,117-H ) :   0.9647 B( 80-C ,118-H ) :   0.9753 B( 80-C ,119-H ) :   0.9785
B( 80-C ,120-H ) :   0.9754

-----------------------------------------------------------------------------
  SOC CORRECTED ABSORPTION SPECTRUM VIA TRANSITION ELECTRIC DIPOLE MOMENTS*
-----------------------------------------------------------------------------
State   Energy  Wavelength   fosc         T2         TX        TY        TZ
        (cm-1)    (nm)                  (au**2)     (au)      (au)      (au)
-----------------------------------------------------------------------------
   1    7975.3   1253.9   0.000000008   0.00000   0.00024   0.00005   0.00052
   2    7975.3   1253.9   0.000000000   0.00000   0.00003   0.00000   0.00000
   3    7975.3   1253.9   0.000000002   0.00000   0.00018   0.00004   0.00019
   4   10426.8    959.1   0.000000101   0.00000   0.00078   0.00016   0.00160
   5   10426.8    959.1   0.000000006   0.00000   0.00020   0.00006   0.00039
   6   10426.8    959.1   0.000000000   0.00000   0.00000   0.00001   0.00004
   7   12752.7    784.1   3.310846103  85.46979   3.99165   0.90804   8.28927
   8   12847.9    778.3   0.000000701   0.00002   0.00180   0.00043   0.00381
   9   12847.9    778.3   0.000000123   0.00000   0.00080   0.00020   0.00157
  10   12847.9    778.3   0.000000142   0.00000   0.00082   0.00025   0.00171
  11   14934.6    669.6   0.105395380   2.32329   0.58013   0.04922   1.40866
  12   16538.0    604.7   0.006527127   0.12993   0.06386   0.33122   0.12708

FINAL SINGLE POINT ENERGY     -5405.356320926842

DIPOLE MOMENT
-------------
                                X             Y             Z
Electronic contribution:    -71.99742       2.30916      30.65104
Nuclear contribution   :     73.80578      -2.22317     -32.01280
                        -----------------------------------------
Total Dipole Moment    :      1.80836       0.08599      -1.36176
                        -----------------------------------------
Magnitude (a.u.)       :      2.26538
Magnitude (Debye)      :      5.75813

Rotational constants in cm-1:     0.002936     0.000156     0.000153
Rotational constants in MHz :    88.032623     4.670359     4.579373

                             ****ORCA TERMINATED NORMALLY****
TOTAL RUN TIME: 1 days 1 hours 42 minutes 57 seconds 279 msec
