                         Program Version 4.2.0 -  RELEASE  -
|  1> # ORCA input file
|  2> # BCDT-4Cl.out: Geometry 185
|  3> ! B3LYP def2-TZVP def2/J RIJCOSX Grid4 TightSCF
|  4>
|  5> %maxcore 6000
|  6> %tddft
|  7>   maxdim 5
|  8>   nroots 3
|  9>   dosoc true
| 10>   end
| 11> %pal
| 12>   nprocs 6
| 13>   end
| 14>
| 15>
| 16> * xyz 0 1
| 17>    C        3.64646         1.33005        -4.75212
| 18>    O        4.47663         2.20989        -4.59179
| 19>    C        2.89895         1.10779        -6.01378
| 20>    C        2.98957         1.84600        -7.18234
| 21>    C        2.17621         1.47913        -8.25894
| 22>    C        1.29127         0.38665        -8.13265
| 23>    C        1.21673        -0.35560        -6.94631
| 24>    C        2.03304         0.00904        -5.87214
| 25>    C        2.19168        -0.54498        -4.50342
| 26>    C        1.53882        -1.67951        -4.04693
| 27>    C        1.69235        -2.22556        -2.73432
| 28>    N        1.79209        -2.70082        -1.67764
| 29>    C        0.65683        -2.44838        -4.86951
| 30>    N       -0.05720        -3.09522        -5.51994
| 31>    C        3.16304         0.29709        -3.79718
| 32>   Cl        0.26641        -0.06188        -9.45438
| 33>    C        3.53735         0.13926        -2.47169
| 34>   Cl        2.26579         2.37648        -9.73575
| 35>    C       16.31282        -1.77057        16.47900
| 36>    O       15.45633        -2.58278        16.76222
| 37>    C       17.36799        -1.23467        17.37868
| 38>    C       17.55556        -1.49331        18.72694
| 39>    C       18.61138        -0.85235        19.38565
| 40>    C       19.46204         0.01605        18.66820
| 41>    C       19.26780         0.26361        17.30221
| 42>    C       18.20407        -0.36328        16.65138
| 43>    C       17.75368        -0.33907        15.23394
| 44>    C       18.51893         0.12192        14.17085
| 45>    C       18.22463        -0.21326        12.81830
| 46>    N       18.01116        -0.49942        11.71204
| 47>    C       19.72924         0.85918        14.35144
| 48>    N       20.70383         1.47934        14.48242
| 49>    C       16.50058        -1.06205        15.16875
| 50>   Cl       20.78267         0.80278        19.46526
| 51>    C       15.45200        -1.14169        14.27051
| 52>   Cl       18.85865        -1.13380        21.07599
| 53>    C       15.04326        -0.37992        13.15460
| 54>    S       13.66613        -1.02545        12.23635
| 55>    C       13.69544         0.32776        11.19310
| 56>    C       14.69009         1.26909        11.52753
| 57>    C       15.44918         0.86661        12.62714
| 58>    C       13.03362         0.74298        10.00271
| 59>    C       13.60489         1.93160         9.54182
| 60>    C       14.65855         2.44194        10.53743
| 61>    S       11.75035         0.17234         9.01731
| 62>    C       12.01215         1.50525         7.87427
| 63>    C       13.03947         2.35229         8.32090
| 64>    C       11.19590         1.62772         6.67811
| 65>    C       10.03000         0.88467         6.48527
| 66>    C        9.13692         1.08375         5.38321
| 67>    C        9.43272         1.87304         4.27269
| 68>    C       10.69511         2.57512         4.36769
| 69>    C       11.53134         2.49759         5.57124
| 70>    N       11.22346         3.35118         3.42450
| 71>    S       12.64393         3.94526         3.99524
| 72>    N       12.63851         3.22975         5.47257
| 73>    C        8.56127         1.94802         3.11341
| 74>    S        7.14493         0.88392         2.96584
| 75>    C        6.81381         1.51739         1.40270
| 76>    C        7.71484         2.51026         1.00168
| 77>    C        8.70937         2.74603         1.97004
| 78>    C        5.90078         1.24596         0.34133
| 79>    C        6.22253         2.06782        -0.75761
| 80>    C        7.39075         2.99092        -0.41624
| 81>    S        4.61470         0.17009         0.01314
| 82>    C        4.48613         0.79389        -1.65438
| 83>    C        5.43049         1.82170        -1.87467
| 84>    O        9.68611        -0.05566         7.40195
| 85>    O        7.95511         0.41084         5.43570
| 86>    C        9.65638        -1.43608         6.95153
| 87>    C       10.93023        -1.85319         6.23616
| 88>    C        6.96782         0.97421         6.32931
| 89>    C        5.81640         0.00439         6.45822
| 90>    C        8.57819         2.79113        -1.38698
| 91>    C        9.08937         1.35491        -1.48653
| 92>    C        6.87953         4.45819        -0.43797
| 93>    C        7.90558         5.53100        -0.08474
| 94>    C       16.03053         2.70824         9.88179
| 95>    C       16.60939         1.51535         9.12533
| 96>    C       14.08539         3.71712        11.22727
| 97>    C       14.93906         4.32270        12.33948
| 98>    H        3.67385         2.69218        -7.25457
| 99>    H        0.52246        -1.19043        -6.90592
|100>    H        3.01365        -0.65423        -1.93853
|101>    H       16.89297        -2.17488        19.26223
|102>    H       19.95446         0.93910        16.79713
|103>    H       14.74804        -1.93284        14.56424
|104>    H       16.26059         1.44352        13.06488
|105>    H       13.34705         3.22325         7.74562
|106>    H        9.54458         3.43495         1.87070
|107>    H        5.49285         2.31384        -2.84312
|108>    H        8.77727        -1.57637         6.30678
|109>    H        9.51065        -2.00989         7.87704
|110>    H       11.10323        -1.24737         5.33404
|111>    H       10.84175        -2.90257         5.91461
|112>    H       11.80970        -1.76045         6.88910
|113>    H        6.63525         1.93833         5.90681
|114>    H        7.44069         1.16353         7.30568
|115>    H        5.36869        -0.21081         5.47676
|116>    H        5.03860         0.43793         7.10560
|117>    H        6.14980        -0.94317         6.90744
|118>    H        9.39962         3.45282        -1.06784
|119>    H        8.25679         3.15063        -2.38035
|120>    H        9.43766         0.98533        -0.50948
|121>    H        9.93375         1.28615        -2.18903
|122>    H        8.30350         0.67205        -1.84309
|123>    H        6.02375         4.52361         0.25307
|124>    H        6.47512         4.65220        -1.44584
|125>    H        8.33852         5.37225         0.91552
|126>    H        7.42387         6.52152        -0.08523
|127>    H        8.73519         5.57055        -0.80604
|128>    H       16.73637         3.02332        10.66756
|129>    H       15.91806         3.57384         9.20587
|130>    H       16.82566         0.67677         9.80284
|131>    H       17.55399         1.79605         8.63454
|132>    H       15.91949         1.16247         8.34290
|133>    H       13.09248         3.45675        11.62900
|134>    H       13.91195         4.47166        10.44176
|135>    H       15.15522         3.59131        13.13295
|136>    H       14.40560         5.16375        12.80925
|137>    H       15.89787         4.71171        11.96539
|138> *
|139>
|140>                          ****END OF INPUT****

CARTESIAN COORDINATES (ANGSTROEM)
---------------------------------
  C      3.646460    1.330050   -4.752120
  O      4.476630    2.209890   -4.591790
  C      2.898950    1.107790   -6.013780
  C      2.989570    1.846000   -7.182340
  C      2.176210    1.479130   -8.258940
  C      1.291270    0.386650   -8.132650
  C      1.216730   -0.355600   -6.946310
  C      2.033040    0.009040   -5.872140
  C      2.191680   -0.544980   -4.503420
  C      1.538820   -1.679510   -4.046930
  C      1.692350   -2.225560   -2.734320
  N      1.792090   -2.700820   -1.677640
  C      0.656830   -2.448380   -4.869510
  N     -0.057200   -3.095220   -5.519940
  C      3.163040    0.297090   -3.797180
  Cl     0.266410   -0.061880   -9.454380
  C      3.537350    0.139260   -2.471690
  Cl     2.265790    2.376480   -9.735750
  C     16.312820   -1.770570   16.479000
  O     15.456330   -2.582780   16.762220
  C     17.367990   -1.234670   17.378680
  C     17.555560   -1.493310   18.726940
  C     18.611380   -0.852350   19.385650
  C     19.462040    0.016050   18.668200
  C     19.267800    0.263610   17.302210
  C     18.204070   -0.363280   16.651380
  C     17.753680   -0.339070   15.233940
  C     18.518930    0.121920   14.170850
  C     18.224630   -0.213260   12.818300
  N     18.011160   -0.499420   11.712040
  C     19.729240    0.859180   14.351440
  N     20.703830    1.479340   14.482420
  C     16.500580   -1.062050   15.168750
  Cl    20.782670    0.802780   19.465260
  C     15.452000   -1.141690   14.270510
  Cl    18.858650   -1.133800   21.075990
  C     15.043260   -0.379920   13.154600
  S     13.666130   -1.025450   12.236350
  C     13.695440    0.327760   11.193100
  C     14.690090    1.269090   11.527530
  C     15.449180    0.866610   12.627140
  C     13.033620    0.742980   10.002710
  C     13.604890    1.931600    9.541820
  C     14.658550    2.441940   10.537430
  S     11.750350    0.172340    9.017310
  C     12.012150    1.505250    7.874270
  C     13.039470    2.352290    8.320900
  C     11.195900    1.627720    6.678110
  C     10.030000    0.884670    6.485270
  C      9.136920    1.083750    5.383210
  C      9.432720    1.873040    4.272690
  C     10.695110    2.575120    4.367690
  C     11.531340    2.497590    5.571240
  N     11.223460    3.351180    3.424500
  S     12.643930    3.945260    3.995240
  N     12.638510    3.229750    5.472570
  C      8.561270    1.948020    3.113410
  S      7.144930    0.883920    2.965840
  C      6.813810    1.517390    1.402700
  C      7.714840    2.510260    1.001680
  C      8.709370    2.746030    1.970040
  C      5.900780    1.245960    0.341330
  C      6.222530    2.067820   -0.757610
  C      7.390750    2.990920   -0.416240
  S      4.614700    0.170090    0.013140
  C      4.486130    0.793890   -1.654380
  C      5.430490    1.821700   -1.874670
  O      9.686110   -0.055660    7.401950
  O      7.955110    0.410840    5.435700
  C      9.656380   -1.436080    6.951530
  C     10.930230   -1.853190    6.236160
  C      6.967820    0.974210    6.329310
  C      5.816400    0.004390    6.458220
  C      8.578190    2.791130   -1.386980
  C      9.089370    1.354910   -1.486530
  C      6.879530    4.458190   -0.437970
  C      7.905580    5.531000   -0.084740
  C     16.030530    2.708240    9.881790
  C     16.609390    1.515350    9.125330
  C     14.085390    3.717120   11.227270
  C     14.939060    4.322700   12.339480
  H      3.673850    2.692180   -7.254570
  H      0.522460   -1.190430   -6.905920
  H      3.013650   -0.654230   -1.938530
  H     16.892970   -2.174880   19.262230
  H     19.954460    0.939100   16.797130
  H     14.748040   -1.932840   14.564240
  H     16.260590    1.443520   13.064880
  H     13.347050    3.223250    7.745620
  H      9.544580    3.434950    1.870700
  H      5.492850    2.313840   -2.843120
  H      8.777270   -1.576370    6.306780
  H      9.510650   -2.009890    7.877040
  H     11.103230   -1.247370    5.334040
  H     10.841750   -2.902570    5.914610
  H     11.809700   -1.760450    6.889100
  H      6.635250    1.938330    5.906810
  H      7.440690    1.163530    7.305680
  H      5.368690   -0.210810    5.476760
  H      5.038600    0.437930    7.105600
  H      6.149800   -0.943170    6.907440
  H      9.399620    3.452820   -1.067840
  H      8.256790    3.150630   -2.380350
  H      9.437660    0.985330   -0.509480
  H      9.933750    1.286150   -2.189030
  H      8.303500    0.672050   -1.843090
  H      6.023750    4.523610    0.253070
  H      6.475120    4.652200   -1.445840
  H      8.338520    5.372250    0.915520
  H      7.423870    6.521520   -0.085230
  H      8.735190    5.570550   -0.806040
  H     16.736370    3.023320   10.667560
  H     15.918060    3.573840    9.205870
  H     16.825660    0.676770    9.802840
  H     17.553990    1.796050    8.634540
  H     15.919490    1.162470    8.342900
  H     13.092480    3.456750   11.629000
  H     13.911950    4.471660   10.441760
  H     15.155220    3.591310   13.132950
  H     14.405600    5.163750   12.809250
  H     15.897870    4.711710   11.965390

 Total Charge           Charge          ....    0
 Multiplicity           Mult            ....    1
 Number of Electrons    NEL             ....  634
 Basis Dimension        Dim             .... 2805

ORBITAL ENERGIES
----------------

  NO   OCC          E(Eh)            E(eV)
   0   2.0000    -101.546485     -2763.2203
   1   2.0000    -101.546301     -2763.2153
   2   2.0000    -101.544777     -2763.1739
   3   2.0000    -101.543802     -2763.1473
   4   2.0000     -88.963077     -2420.8084
   5   2.0000     -88.914711     -2419.4923
   6   2.0000     -88.913806     -2419.4677
   7   2.0000     -88.910803     -2419.3859
   8   2.0000     -88.909300     -2419.3451
   9   2.0000     -19.183074      -521.9980
  10   2.0000     -19.182627      -521.9858
  11   2.0000     -19.131957      -520.6070
  12   2.0000     -19.129818      -520.5488
  13   2.0000     -14.372905      -391.1066
  14   2.0000     -14.372245      -391.0887
  15   2.0000     -14.332094      -389.9961
  16   2.0000     -14.331875      -389.9901
  17   2.0000     -14.330675      -389.9575
  18   2.0000     -14.327984      -389.8843
  19   2.0000     -10.278768      -279.6995
  20   2.0000     -10.275969      -279.6233
  21   2.0000     -10.274935      -279.5952
  22   2.0000     -10.274175      -279.5745
  23   2.0000     -10.272145      -279.5193
  24   2.0000     -10.271566      -279.5035
  25   2.0000     -10.271418      -279.4995
  26   2.0000     -10.270815      -279.4831
  27   2.0000     -10.260520      -279.2029
  28   2.0000     -10.260192      -279.1940
  29   2.0000     -10.259326      -279.1705
  30   2.0000     -10.258693      -279.1532
  31   2.0000     -10.257749      -279.1275
  32   2.0000     -10.257294      -279.1152
  33   2.0000     -10.253575      -279.0140
  34   2.0000     -10.251028      -278.9447
  35   2.0000     -10.246468      -278.8206
  36   2.0000     -10.245594      -278.7968
  37   2.0000     -10.245187      -278.7857
  38   2.0000     -10.244862      -278.7769
  39   2.0000     -10.240820      -278.6669
  40   2.0000     -10.239726      -278.6371
  41   2.0000     -10.237014      -278.5633
  42   2.0000     -10.235608      -278.5251
  43   2.0000     -10.232184      -278.4319
  44   2.0000     -10.231626      -278.4167
  45   2.0000     -10.231013      -278.4000
  46   2.0000     -10.230887      -278.3966
  47   2.0000     -10.230871      -278.3961
  48   2.0000     -10.230788      -278.3939
  49   2.0000     -10.230002      -278.3725
  50   2.0000     -10.229095      -278.3478
  51   2.0000     -10.228445      -278.3302
  52   2.0000     -10.228166      -278.3226
  53   2.0000     -10.224103      -278.2120
  54   2.0000     -10.223470      -278.1948
  55   2.0000     -10.219882      -278.0971
  56   2.0000     -10.219237      -278.0796
  57   2.0000     -10.218696      -278.0648
  58   2.0000     -10.218585      -278.0618
  59   2.0000     -10.218135      -278.0496
  60   2.0000     -10.216025      -277.9922
  61   2.0000     -10.213804      -277.9317
  62   2.0000     -10.213071      -277.9118
  63   2.0000     -10.211727      -277.8752
  64   2.0000     -10.211686      -277.8741
  65   2.0000     -10.210778      -277.8494
  66   2.0000     -10.209618      -277.8178
  67   2.0000     -10.208607      -277.7903
  68   2.0000     -10.207056      -277.7481
  69   2.0000     -10.205820      -277.7145
  70   2.0000     -10.205597      -277.7084
  71   2.0000     -10.193761      -277.3864
  72   2.0000     -10.193028      -277.3664
  73   2.0000     -10.191489      -277.3245
  74   2.0000     -10.190294      -277.2920
  75   2.0000     -10.188265      -277.2368
  76   2.0000     -10.186006      -277.1753
  77   2.0000     -10.177761      -276.9509
  78   2.0000     -10.177744      -276.9505
  79   2.0000     -10.172939      -276.8197
  80   2.0000     -10.159742      -276.4606
  81   2.0000      -9.478720      -257.9291
  82   2.0000      -9.478581      -257.9253
  83   2.0000      -9.477064      -257.8840
  84   2.0000      -9.476084      -257.8574
  85   2.0000      -8.033569      -218.6045
  86   2.0000      -7.990625      -217.4360
  87   2.0000      -7.989594      -217.4079
  88   2.0000      -7.985992      -217.3099
  89   2.0000      -7.984634      -217.2729
  90   2.0000      -7.240452      -197.0227
  91   2.0000      -7.240281      -197.0181
  92   2.0000      -7.238800      -196.9778
  93   2.0000      -7.237821      -196.9511
  94   2.0000      -7.231979      -196.7921
  95   2.0000      -7.231853      -196.7887
  96   2.0000      -7.231240      -196.7720
  97   2.0000      -7.231102      -196.7683
  98   2.0000      -7.230315      -196.7469
  99   2.0000      -7.229565      -196.7265
 100   2.0000      -7.229327      -196.7200
 101   2.0000      -7.228583      -196.6997
 102   2.0000      -5.998227      -163.2201
 103   2.0000      -5.991042      -163.0246
 104   2.0000      -5.990312      -163.0047
 105   2.0000      -5.953011      -161.9897
 106   2.0000      -5.951955      -161.9609
 107   2.0000      -5.949367      -161.8905
 108   2.0000      -5.948661      -161.8713
 109   2.0000      -5.948323      -161.8621
 110   2.0000      -5.947406      -161.8372
 111   2.0000      -5.947261      -161.8332
 112   2.0000      -5.946410      -161.8101
 113   2.0000      -5.944713      -161.7639
 114   2.0000      -5.943318      -161.7259
 115   2.0000      -5.942552      -161.7051
 116   2.0000      -5.941234      -161.6692
 117   2.0000      -1.111283       -30.2395
 118   2.0000      -1.084550       -29.5121
 119   2.0000      -1.059031       -28.8177
 120   2.0000      -1.057548       -28.7774
 121   2.0000      -1.039110       -28.2756
 122   2.0000      -0.941487       -25.6192
 123   2.0000      -0.940656       -25.5966
 124   2.0000      -0.939102       -25.5543
 125   2.0000      -0.938825       -25.5467
 126   2.0000      -0.931999       -25.3610
 127   2.0000      -0.931442       -25.3458
 128   2.0000      -0.918867       -25.0037
 129   2.0000      -0.918231       -24.9863
 130   2.0000      -0.916997       -24.9527
 131   2.0000      -0.905288       -24.6341
 132   2.0000      -0.903412       -24.5831
 133   2.0000      -0.901203       -24.5230
 134   2.0000      -0.897029       -24.4094
 135   2.0000      -0.882835       -24.0232
 136   2.0000      -0.876653       -23.8549
 137   2.0000      -0.876139       -23.8410
 138   2.0000      -0.858715       -23.3668
 139   2.0000      -0.853517       -23.2254
 140   2.0000      -0.846830       -23.0434
 141   2.0000      -0.846156       -23.0251
 142   2.0000      -0.823536       -22.4096
 143   2.0000      -0.821693       -22.3594
 144   2.0000      -0.817937       -22.2572
 145   2.0000      -0.804842       -21.9009
 146   2.0000      -0.801214       -21.8021
 147   2.0000      -0.798405       -21.7257
 148   2.0000      -0.784184       -21.3387
 149   2.0000      -0.779397       -21.2085
 150   2.0000      -0.778867       -21.1940
 151   2.0000      -0.777852       -21.1664
 152   2.0000      -0.770402       -20.9637
 153   2.0000      -0.769299       -20.9337
 154   2.0000      -0.766493       -20.8573
 155   2.0000      -0.764852       -20.8127
 156   2.0000      -0.763943       -20.7879
 157   2.0000      -0.762986       -20.7619
 158   2.0000      -0.759459       -20.6659
 159   2.0000      -0.757891       -20.6233
 160   2.0000      -0.732801       -19.9405
 161   2.0000      -0.721311       -19.6279
 162   2.0000      -0.707887       -19.2626
 163   2.0000      -0.694337       -18.8939
 164   2.0000      -0.691561       -18.8183
 165   2.0000      -0.688163       -18.7259
 166   2.0000      -0.685280       -18.6474
 167   2.0000      -0.681997       -18.5581
 168   2.0000      -0.675108       -18.3706
 169   2.0000      -0.668254       -18.1841
 170   2.0000      -0.656614       -17.8674
 171   2.0000      -0.644134       -17.5278
 172   2.0000      -0.636751       -17.3269
 173   2.0000      -0.632046       -17.1989
 174   2.0000      -0.628826       -17.1112
 175   2.0000      -0.626595       -17.0505
 176   2.0000      -0.623857       -16.9760
 177   2.0000      -0.618324       -16.8255
 178   2.0000      -0.616062       -16.7639
 179   2.0000      -0.614851       -16.7309
 180   2.0000      -0.611041       -16.6273
 181   2.0000      -0.608401       -16.5554
 182   2.0000      -0.605081       -16.4651
 183   2.0000      -0.592742       -16.1293
 184   2.0000      -0.583263       -15.8714
 185   2.0000      -0.573460       -15.6047
 186   2.0000      -0.571966       -15.5640
 187   2.0000      -0.568338       -15.4653
 188   2.0000      -0.562450       -15.3050
 189   2.0000      -0.559985       -15.2380
 190   2.0000      -0.556780       -15.1507
 191   2.0000      -0.553142       -15.0518
 192   2.0000      -0.548033       -14.9127
 193   2.0000      -0.543488       -14.7891
 194   2.0000      -0.541787       -14.7428
 195   2.0000      -0.536003       -14.5854
 196   2.0000      -0.529902       -14.4194
 197   2.0000      -0.525287       -14.2938
 198   2.0000      -0.516323       -14.0499
 199   2.0000      -0.513793       -13.9810
 200   2.0000      -0.509151       -13.8547
 201   2.0000      -0.507656       -13.8140
 202   2.0000      -0.502687       -13.6788
 203   2.0000      -0.497971       -13.5505
 204   2.0000      -0.494106       -13.4453
 205   2.0000      -0.490957       -13.3596
 206   2.0000      -0.489394       -13.3171
 207   2.0000      -0.485517       -13.2116
 208   2.0000      -0.482693       -13.1348
 209   2.0000      -0.480286       -13.0693
 210   2.0000      -0.478954       -13.0330
 211   2.0000      -0.476211       -12.9584
 212   2.0000      -0.475529       -12.9398
 213   2.0000      -0.472369       -12.8538
 214   2.0000      -0.471404       -12.8276
 215   2.0000      -0.470846       -12.8124
 216   2.0000      -0.467214       -12.7136
 217   2.0000      -0.463276       -12.6064
 218   2.0000      -0.462857       -12.5950
 219   2.0000      -0.461910       -12.5692
 220   2.0000      -0.461270       -12.5518
 221   2.0000      -0.459839       -12.5129
 222   2.0000      -0.458775       -12.4839
 223   2.0000      -0.455952       -12.4071
 224   2.0000      -0.453944       -12.3524
 225   2.0000      -0.451787       -12.2937
 226   2.0000      -0.448454       -12.2030
 227   2.0000      -0.447795       -12.1851
 228   2.0000      -0.439981       -11.9725
 229   2.0000      -0.435486       -11.8502
 230   2.0000      -0.432691       -11.7741
 231   2.0000      -0.431807       -11.7501
 232   2.0000      -0.429740       -11.6938
 233   2.0000      -0.428822       -11.6688
 234   2.0000      -0.425069       -11.5667
 235   2.0000      -0.422170       -11.4878
 236   2.0000      -0.422007       -11.4834
 237   2.0000      -0.419838       -11.4244
 238   2.0000      -0.418294       -11.3824
 239   2.0000      -0.417130       -11.3507
 240   2.0000      -0.414718       -11.2850
 241   2.0000      -0.412629       -11.2282
 242   2.0000      -0.412337       -11.2203
 243   2.0000      -0.410759       -11.1773
 244   2.0000      -0.409965       -11.1557
 245   2.0000      -0.409319       -11.1381
 246   2.0000      -0.407854       -11.0983
 247   2.0000      -0.404763       -11.0142
 248   2.0000      -0.403138       -10.9699
 249   2.0000      -0.402275       -10.9465
 250   2.0000      -0.400228       -10.8908
 251   2.0000      -0.397354       -10.8126
 252   2.0000      -0.396556       -10.7908
 253   2.0000      -0.395967       -10.7748
 254   2.0000      -0.394087       -10.7237
 255   2.0000      -0.391755       -10.6602
 256   2.0000      -0.391205       -10.6452
 257   2.0000      -0.387964       -10.5570
 258   2.0000      -0.387409       -10.5419
 259   2.0000      -0.385968       -10.5027
 260   2.0000      -0.385846       -10.4994
 261   2.0000      -0.381937       -10.3930
 262   2.0000      -0.381864       -10.3910
 263   2.0000      -0.379954       -10.3391
 264   2.0000      -0.379156       -10.3174
 265   2.0000      -0.375187       -10.2094
 266   2.0000      -0.374371       -10.1871
 267   2.0000      -0.373502       -10.1635
 268   2.0000      -0.372743       -10.1429
 269   2.0000      -0.369112       -10.0440
 270   2.0000      -0.368753       -10.0343
 271   2.0000      -0.365487        -9.9454
 272   2.0000      -0.362684        -9.8691
 273   2.0000      -0.361954        -9.8493
 274   2.0000      -0.361889        -9.8475
 275   2.0000      -0.360516        -9.8101
 276   2.0000      -0.360021        -9.7967
 277   2.0000      -0.358299        -9.7498
 278   2.0000      -0.357371        -9.7246
 279   2.0000      -0.354598        -9.6491
 280   2.0000      -0.354514        -9.6468
 281   2.0000      -0.349792        -9.5183
 282   2.0000      -0.349221        -9.5028
 283   2.0000      -0.347068        -9.4442
 284   2.0000      -0.345505        -9.4017
 285   2.0000      -0.344845        -9.3837
 286   2.0000      -0.344265        -9.3679
 287   2.0000      -0.343252        -9.3404
 288   2.0000      -0.341763        -9.2999
 289   2.0000      -0.340411        -9.2631
 290   2.0000      -0.338956        -9.2234
 291   2.0000      -0.338299        -9.2056
 292   2.0000      -0.337248        -9.1770
 293   2.0000      -0.335499        -9.1294
 294   2.0000      -0.324801        -8.8383
 295   2.0000      -0.322891        -8.7863
 296   2.0000      -0.322344        -8.7714
 297   2.0000      -0.321650        -8.7525
 298   2.0000      -0.318256        -8.6602
 299   2.0000      -0.312590        -8.5060
 300   2.0000      -0.304574        -8.2879
 301   2.0000      -0.295295        -8.0354
 302   2.0000      -0.285563        -7.7706
 303   2.0000      -0.283000        -7.7008
 304   2.0000      -0.282329        -7.6826
 305   2.0000      -0.281333        -7.6555
 306   2.0000      -0.279181        -7.5969
 307   2.0000      -0.278091        -7.5672
 308   2.0000      -0.276182        -7.5153
 309   2.0000      -0.275570        -7.4986
 310   2.0000      -0.275010        -7.4834
 311   2.0000      -0.269934        -7.3453
 312   2.0000      -0.260944        -7.1006
 313   2.0000      -0.259008        -7.0480
 314   2.0000      -0.251651        -6.8478
 315   2.0000      -0.223722        -6.0878
 316   2.0000      -0.204737        -5.5712
 317   0.0000      -0.137789        -3.7494
 318   0.0000      -0.126053        -3.4301
 319   0.0000      -0.114632        -3.1193
 320   0.0000      -0.106807        -2.9064
 321   0.0000      -0.104554        -2.8451

MULLIKEN ATOMIC CHARGES
-----------------------
   0 C :    0.230531
   1 O :   -0.363147
   2 C :    0.120410
   3 C :   -0.328696
   4 C :    0.169617
   5 C :    0.112432
   6 C :   -0.262238
   7 C :    0.098385
   8 C :    0.028162
   9 C :    0.156648
  10 C :   -0.195933
  11 N :    0.010530
  12 C :   -0.208722
  13 N :    0.007275
  14 C :   -0.081671
  15 Cl:   -0.051595
  16 C :   -0.187018
  17 Cl:   -0.062445
  18 C :    0.236574
  19 O :   -0.296850
  20 C :    0.002213
  21 C :   -0.298764
  22 C :    0.158680
  23 C :    0.119919
  24 C :   -0.253721
  25 C :    0.139807
  26 C :    0.024119
  27 C :    0.070765
  28 C :   -0.183416
  29 N :   -0.013556
  30 C :   -0.207072
  31 N :    0.005043
  32 C :   -0.042698
  33 Cl:   -0.053148
  34 C :   -0.218654
  35 Cl:   -0.061165
  36 C :    0.284205
  37 S :    0.058549
  38 C :   -0.039832
  39 C :   -0.023178
  40 C :   -0.407302
  41 C :    0.000692
  42 C :   -0.015187
  43 C :    0.421057
  44 S :    0.035345
  45 C :    0.104935
  46 C :   -0.280098
  47 C :    0.012010
  48 C :    0.104018
  49 C :    0.248049
  50 C :    0.050341
  51 C :    0.025091
  52 C :    0.032539
  53 N :   -0.275610
  54 S :    0.332514
  55 N :   -0.268464
  56 C :    0.048905
  57 S :    0.044336
  58 C :   -0.000429
  59 C :   -0.081013
  60 C :   -0.306278
  61 C :   -0.018072
  62 C :    0.016835
  63 C :    0.416910
  64 S :    0.052196
  65 C :    0.131836
  66 C :   -0.346782
  67 O :   -0.356108
  68 O :   -0.382458
  69 C :   -0.017659
  70 C :   -0.355992
  71 C :   -0.008328
  72 C :   -0.331737
  73 C :   -0.237269
  74 C :   -0.363969
  75 C :   -0.177240
  76 C :   -0.378047
  77 C :   -0.236985
  78 C :   -0.373566
  79 C :   -0.176548
  80 C :   -0.375363
  81 H :    0.138315
  82 H :    0.160113
  83 H :    0.171453
  84 H :    0.142747
  85 H :    0.159712
  86 H :    0.145491
  87 H :    0.170798
  88 H :    0.146419
  89 H :    0.170569
  90 H :    0.196472
  91 H :    0.126466
  92 H :    0.118319
  93 H :    0.125407
  94 H :    0.125373
  95 H :    0.130332
  96 H :    0.107909
  97 H :    0.120892
  98 H :    0.123396
  99 H :    0.119357
 100 H :    0.115971
 101 H :    0.102152
 102 H :    0.105004
 103 H :    0.121697
 104 H :    0.116353
 105 H :    0.125025
 106 H :    0.103754
 107 H :    0.107530
 108 H :    0.115612
 109 H :    0.120440
 110 H :    0.117206
 111 H :    0.103454
 112 H :    0.093331
 113 H :    0.168171
 114 H :    0.108347
 115 H :    0.112598
 116 H :    0.104873
 117 H :    0.097644
 118 H :    0.111775
 119 H :    0.120654
 120 H :    0.121419
Sum of atomic charges:   -0.0000000

LOEWDIN ATOMIC CHARGES
----------------------
   0 C :   -0.244727
   1 O :    0.113312
   2 C :   -0.063597
   3 C :   -0.076030
   4 C :   -0.419142
   5 C :   -0.415085
   6 C :   -0.079192
   7 C :   -0.040336
   8 C :    0.017042
   9 C :   -0.137447
  10 C :   -0.159947
  11 N :    0.068401
  12 C :   -0.154099
  13 N :    0.070671
  14 C :   -0.083476
  15 Cl:    0.434642
  16 C :   -0.073689
  17 Cl:    0.430780
  18 C :   -0.249348
  19 O :    0.128657
  20 C :   -0.062227
  21 C :   -0.074564
  22 C :   -0.418776
  23 C :   -0.414843
  24 C :   -0.082760
  25 C :   -0.038521
  26 C :    0.008239
  27 C :   -0.147571
  28 C :   -0.151990
  29 N :    0.081451
  30 C :   -0.156545
  31 N :    0.069185
  32 C :   -0.087736
  33 Cl:    0.434421
  34 C :   -0.077640
  35 Cl:    0.430342
  36 C :   -0.320390
  37 S :    0.784307
  38 C :   -0.317154
  39 C :   -0.074791
  40 C :   -0.089396
  41 C :   -0.341918
  42 C :   -0.075567
  43 C :   -0.168157
  44 S :    0.781502
  45 C :   -0.267161
  46 C :   -0.110550
  47 C :   -0.097029
  48 C :   -0.212151
  49 C :   -0.206541
  50 C :   -0.097082
  51 C :   -0.213990
  52 C :   -0.214708
  53 N :   -0.125092
  54 S :    0.660225
  55 N :   -0.122760
  56 C :   -0.269628
  57 S :    0.775308
  58 C :   -0.337812
  59 C :   -0.076076
  60 C :   -0.117909
  61 C :   -0.318988
  62 C :   -0.086143
  63 C :   -0.172420
  64 S :    0.781974
  65 C :   -0.311138
  66 C :   -0.083682
  67 O :    0.244063
  68 O :    0.240595
  69 C :   -0.309276
  70 C :   -0.309927
  71 C :   -0.314456
  72 C :   -0.303441
  73 C :   -0.223342
  74 C :   -0.296156
  75 C :   -0.221414
  76 C :   -0.302791
  77 C :   -0.226431
  78 C :   -0.296801
  79 C :   -0.221407
  80 C :   -0.302049
  81 H :    0.161604
  82 H :    0.165792
  83 H :    0.173309
  84 H :    0.162768
  85 H :    0.164898
  86 H :    0.173969
  87 H :    0.156734
  88 H :    0.153469
  89 H :    0.153032
  90 H :    0.161849
  91 H :    0.128090
  92 H :    0.130566
  93 H :    0.126825
  94 H :    0.130789
  95 H :    0.119128
  96 H :    0.125083
  97 H :    0.131593
  98 H :    0.122644
  99 H :    0.130145
 100 H :    0.122809
 101 H :    0.140875
 102 H :    0.144338
 103 H :    0.123795
 104 H :    0.121398
 105 H :    0.124250
 106 H :    0.145704
 107 H :    0.144158
 108 H :    0.121373
 109 H :    0.123922
 110 H :    0.119190
 111 H :    0.141727
 112 H :    0.140505
 113 H :    0.128580
 114 H :    0.122066
 115 H :    0.121193
 116 H :    0.145943
 117 H :    0.140946
 118 H :    0.120607
 119 H :    0.123898
 120 H :    0.120327

  Mayer bond orders larger than 0.100000
B(  0-C ,  1-O ) :   2.0059 B(  0-C ,  2-C ) :   1.0270 B(  0-C , 14-C ) :   1.0203
B(  1-O ,  2-C ) :  -0.1704 B(  1-O ,  3-C ) :   0.1015 B(  2-C ,  3-C ) :   1.3740
B(  2-C ,  7-C ) :   1.3479 B(  3-C ,  4-C ) :   1.3440 B(  3-C , 81-H ) :   0.9812
B(  4-C ,  5-C ) :   1.2572 B(  4-C , 17-Cl) :   1.0398 B(  5-C ,  6-C ) :   1.3749
B(  5-C , 15-Cl) :   1.1037 B(  6-C ,  7-C ) :   1.3979 B(  6-C , 82-H ) :   0.9235
B(  7-C ,  8-C ) :   1.0261 B(  8-C ,  9-C ) :   1.4582 B(  8-C , 14-C ) :   1.1653
B(  9-C , 10-C ) :   1.0281 B(  9-C , 12-C ) :   1.0206 B( 10-C , 11-N ) :   2.9759
B( 12-C , 13-N ) :   2.9781 B( 14-C , 16-C ) :   1.3978 B( 16-C , 65-C ) :   1.3401
B( 16-C , 83-H ) :   0.8762 B( 18-C , 19-O ) :   2.1393 B( 18-C , 20-C ) :   0.9612
B( 18-C , 32-C ) :   1.0085 B( 19-O , 20-C ) :  -0.1543 B( 19-O , 32-C ) :  -0.1107
B( 20-C , 21-C ) :   1.3910 B( 20-C , 25-C ) :   1.3304 B( 21-C , 22-C ) :   1.3359
B( 21-C , 84-H ) :   0.9770 B( 22-C , 23-C ) :   1.2606 B( 22-C , 35-Cl) :   1.0463
B( 23-C , 24-C ) :   1.3741 B( 23-C , 33-Cl) :   1.0902 B( 24-C , 25-C ) :   1.3974
B( 24-C , 85-H ) :   0.9294 B( 25-C , 26-C ) :   1.0231 B( 26-C , 27-C ) :   1.3975
B( 26-C , 32-C ) :   1.1905 B( 27-C , 28-C ) :   1.0650 B( 27-C , 30-C ) :   1.0455
B( 28-C , 29-N ) :   2.8996 B( 30-C , 31-N ) :   2.9821 B( 32-C , 34-C ) :   1.4734
B( 34-C , 36-C ) :   1.1707 B( 34-C , 86-H ) :   0.9315 B( 36-C , 37-S ) :   1.1509
B( 36-C , 40-C ) :   1.3787 B( 37-S , 38-C ) :   1.4049 B( 37-S , 40-C ) :   0.1644
B( 38-C , 39-C ) :   1.2724 B( 38-C , 41-C ) :   1.0382 B( 39-C , 40-C ) :   1.2946
B( 39-C , 43-C ) :   1.1109 B( 40-C , 87-H ) :   0.9386 B( 41-C , 42-C ) :   1.3069
B( 41-C , 44-S ) :   1.3779 B( 42-C , 43-C ) :   1.0609 B( 42-C , 46-C ) :   1.2912
B( 43-C , 77-C ) :   0.7926 B( 43-C , 79-C ) :   0.8143 B( 44-S , 45-C ) :   1.2242
B( 44-S , 46-C ) :   0.1116 B( 45-C , 46-C ) :   1.4661 B( 45-C , 47-C ) :   1.1084
B( 46-C , 88-H ) :   0.9295 B( 47-C , 48-C ) :   1.3795 B( 47-C , 52-C ) :   1.0942
B( 48-C , 49-C ) :   1.3001 B( 48-C , 67-O ) :   0.9933 B( 49-C , 50-C ) :   1.3892
B( 49-C , 68-O ) :   0.9304 B( 50-C , 51-C ) :   1.0742 B( 50-C , 56-C ) :   1.0893
B( 51-C , 52-C ) :   1.1844 B( 51-C , 53-N ) :   1.5090 B( 51-C , 54-S ) :   0.1216
B( 52-C , 54-S ) :   0.1257 B( 52-C , 55-N ) :   1.5141 B( 53-N , 54-S ) :   1.2792
B( 53-N , 55-N ) :   0.1255 B( 54-S , 55-N ) :   1.2806 B( 56-C , 57-S ) :   1.2360
B( 56-C , 60-C ) :   1.4844 B( 57-S , 58-C ) :   1.3806 B( 57-S , 60-C ) :   0.1190
B( 58-C , 59-C ) :   1.3106 B( 58-C , 61-C ) :   1.0204 B( 59-C , 60-C ) :   1.2780
B( 59-C , 63-C ) :   1.1125 B( 60-C , 89-H ) :   0.9102 B( 61-C , 62-C ) :   1.2694
B( 61-C , 64-S ) :   1.4155 B( 62-C , 63-C ) :   1.0656 B( 62-C , 66-C ) :   1.3147
B( 63-C , 73-C ) :   0.7774 B( 63-C , 75-C ) :   0.8235 B( 64-S , 65-C ) :   1.1627
B( 64-S , 66-C ) :   0.1498 B( 65-C , 66-C ) :   1.4338 B( 66-C , 90-H ) :   0.9114
B( 67-O , 69-C ) :   0.8514 B( 68-O , 71-C ) :   0.8325 B( 69-C , 70-C ) :   0.9660
B( 69-C , 91-H ) :   0.9599 B( 69-C , 92-H ) :   0.9678 B( 70-C , 93-H ) :   0.9654
B( 70-C , 94-H ) :   0.9624 B( 70-C , 95-H ) :   0.9685 B( 71-C , 72-C ) :   0.9901
B( 71-C , 96-H ) :   0.9573 B( 71-C , 97-H ) :   0.9508 B( 72-C , 98-H ) :   0.9727
B( 72-C , 99-H ) :   0.9673 B( 72-C ,100-H ) :   0.9707 B( 73-C , 74-C ) :   0.9821
B( 73-C ,101-H ) :   0.9676 B( 73-C ,102-H ) :   0.9596 B( 74-C ,103-H ) :   0.9716
B( 74-C ,104-H ) :   0.9768 B( 74-C ,105-H ) :   0.9730 B( 75-C , 76-C ) :   0.9561
B( 75-C ,106-H ) :   0.9681 B( 75-C ,107-H ) :   0.9610 B( 76-C ,108-H ) :   0.9745
B( 76-C ,109-H ) :   0.9760 B( 76-C ,110-H ) :   0.9734 B( 77-C , 78-C ) :   0.9868
B( 77-C ,111-H ) :   0.9640 B( 77-C ,112-H ) :   0.9604 B( 78-C ,113-H ) :   0.9597
B( 78-C ,114-H ) :   0.9740 B( 78-C ,115-H ) :   0.9711 B( 79-C , 80-C ) :   0.9588
B( 79-C ,116-H ) :   0.9683 B( 79-C ,117-H ) :   0.9604 B( 80-C ,118-H ) :   0.9731
B( 80-C ,119-H ) :   0.9759 B( 80-C ,120-H ) :   0.9736

-----------------------------------------------------------------------------
  SOC CORRECTED ABSORPTION SPECTRUM VIA TRANSITION ELECTRIC DIPOLE MOMENTS*
-----------------------------------------------------------------------------
State   Energy  Wavelength   fosc         T2         TX        TY        TZ
        (cm-1)    (nm)                  (au**2)     (au)      (au)      (au)
-----------------------------------------------------------------------------
   1    9010.9   1109.8   0.000000000   0.00000   0.00001   0.00004   0.00000
   2    9010.9   1109.8   0.000000001   0.00000   0.00011   0.00007   0.00013
   3    9010.9   1109.8   0.000000000   0.00000   0.00000   0.00006   0.00003
   4   11092.7    901.5   0.000000146   0.00000   0.00121   0.00004   0.00169
   5   11092.7    901.5   0.000000001   0.00000   0.00012   0.00000   0.00017
   6   11092.7    901.5   0.000000010   0.00000   0.00033   0.00002   0.00044
   7   13549.2    738.1   3.730759852  90.64844   5.75174   0.09084   7.58667
   8   13717.8    729.0   0.000001955   0.00005   0.00423   0.00016   0.00539
   9   13717.8    729.0   0.000000018   0.00000   0.00038   0.00002   0.00054
  10   13717.8    729.0   0.000033598   0.00081   0.01724   0.00011   0.02256
  11   15772.5    634.0   0.007204147   0.15037   0.04836   0.37308   0.09402
  12   17512.5    571.0   0.013400043   0.25190   0.01988   0.10253   0.49091

FINAL SINGLE POINT ENERGY     -6846.628890890375

DIPOLE MOMENT
-------------
                                X             Y             Z
Electronic contribution:    -10.92145     -33.86046       0.73991
Nuclear contribution   :     10.82400      36.73592      -0.09929
                        -----------------------------------------
Total Dipole Moment    :     -0.09745       2.87546       0.64062
                        -----------------------------------------
Magnitude (a.u.)       :      2.94757
Magnitude (Debye)      :      7.49212

Rotational constants in cm-1:     0.002464     0.000124     0.000121
Rotational constants in MHz :    73.870570     3.730545     3.616832

                             ****ORCA TERMINATED NORMALLY****
TOTAL RUN TIME: 0 days 3 hours 33 minutes 59 seconds 866 msec
