                         Program Version 4.2.0 -  RELEASE  -
|  1> # ORCA input file
|  2> # BDTN-Th.out
|  3> ! B3LYP def2-TZVP def2/J RIJCOSX Grid4 TightSCF
|  4>
|  5> %maxcore 2000
|  6> %tddft
|  7>   maxdim 5
|  8>   nroots 3
|  9>   dosoc true
| 10>   end
| 11>
| 12>
| 13>
| 14> * xyz 0 1
| 15>    C        2.60451         2.77279         1.26833
| 16>    O        2.67041         3.58666         0.37659
| 17>    C        2.15387         2.96298         2.65663
| 18>    C        2.19193         1.70569         3.34559
| 19>    C        2.60741         0.67219         2.41667
| 20>    C        2.38898        -0.67045         2.60135
| 21>    C        1.95896        -1.18529         3.83869
| 22>    N        1.65167        -1.62710         4.85301
| 23>    C        2.49412        -1.63443         1.58274
| 24>    N        2.51532        -2.44888         0.77350
| 25>    C        3.02442         1.34263         1.20392
| 26>    C        3.75727         0.90654         0.13720
| 27>    C       12.47364       -14.61491         1.71233
| 28>    O       12.32805       -13.54023         2.26350
| 29>    C       13.05731       -15.83414         2.28656
| 30>    C       13.04462       -16.87185         1.29933
| 31>    C       12.45700       -16.35564         0.07743
| 32>    C       12.28987       -17.09382        -1.06791
| 33>    C       12.69583       -18.44218        -1.13124
| 34>    N       13.02287       -19.54025        -1.20261
| 35>    C       11.72270       -16.64478        -2.27442
| 36>    N       11.26706       -16.34715        -3.28696
| 37>    C       12.10580       -14.97077         0.33011
| 38>    C       11.52047       -14.13382        -0.58778
| 39>    C        4.58397        -0.23245         0.04888
| 40>    C        5.20296        -0.93715         1.07066
| 41>    C        5.98527        -1.97882         0.58395
| 42>    C        5.94566        -2.09190        -0.82772
| 43>    S        4.99385        -0.85875        -1.54795
| 44>    N        6.77951        -2.96404         1.11188
| 45>    C        7.22506        -3.72480         0.05763
| 46>    C        6.70563        -3.21119        -1.14463
| 47>    C        7.99360        -4.90672        -0.13609
| 48>    C        7.93872        -5.33467        -1.49686
| 49>    S        7.08197        -4.17405        -2.52515
| 50>    C        8.75761        -5.65385         0.76952
| 51>    C        9.20078        -6.89940         0.36439
| 52>    C        9.02018        -7.40949        -0.94785
| 53>    C        8.47394        -6.54425        -1.92552
| 54>    S       10.03133        -7.97073         1.46522
| 55>    C       10.09044        -9.16157         0.21295
| 56>    C        9.52064        -8.74388        -1.01152
| 57>    C       10.51715       -10.47629         0.06425
| 58>    C       10.18083       -10.83654        -1.26598
| 59>    N        9.58776        -9.77956        -1.90889
| 60>    S       11.26265       -11.76026         0.93364
| 61>    C       11.11728       -12.79655        -0.48960
| 62>    C       10.52039       -12.14046        -1.57253
| 63>    O        9.08657        -5.20842         2.02775
| 64>    O        8.51645        -6.99738        -3.20421
| 65>    C       10.12359        -4.23171         2.03965
| 66>    C       11.46619        -4.77067         1.56325
| 67>    C        8.38275        -6.12341        -4.31500
| 68>    C        8.90303        -6.85465        -5.54377
| 69>    C        8.99807        -9.92727        -3.21374
| 70>    C        7.66315       -10.69383        -3.18099
| 71>    C        6.63127        -9.97599        -2.29554
| 72>    C        6.55855       -10.53521        -0.87851
| 73>    C        7.15754       -10.85599        -4.62073
| 74>    C        6.11050       -11.95549        -4.75390
| 75>    C        6.81103        -3.27955         2.52108
| 76>    C        6.02809        -4.55699         2.87019
| 77>    C        6.10569        -4.82137         4.37834
| 78>    C        7.52022        -5.04825         4.90221
| 79>    C        4.56869        -4.44889         2.41257
| 80>    C        3.85829        -5.79527         2.34913
| 81>    C        1.71828         3.98321         3.43687
| 82>    S        1.35552         3.42560         5.02955
| 83>    C        1.78229         1.79986         4.63881
| 84>    C       13.58970       -16.22640         3.47034
| 85>    S       14.08704       -17.87773         3.39771
| 86>    C       13.57226       -18.03887         1.75846
| 87>    H        3.74616         1.56107        -0.72860
| 88>    H       11.32284       -14.56236        -1.56356
| 89>    H        5.11021        -0.65989         2.10536
| 90>    H       10.35978       -12.63007        -2.51633
| 91>    H       10.19503        -3.92415         3.08575
| 92>    H        9.83097        -3.36723         1.42604
| 93>    H       11.75257        -5.63641         2.15448
| 94>    H       12.22318        -3.99903         1.67249
| 95>    H       11.41377        -5.06362         0.51651
| 96>    H        8.96616        -5.21199        -4.14611
| 97>    H        7.33076        -5.85335        -4.46114
| 98>    H        9.93828        -7.15098        -5.39575
| 99>    H        8.84272        -6.19625        -6.40503
|100>    H        8.30778        -7.74295        -5.73748
|101>    H        9.71459       -10.47090        -3.83819
|102>    H        8.83788        -8.93939        -3.63599
|103>    H        7.84833       -11.69101        -2.76765
|104>    H        5.64232       -10.06928        -2.74679
|105>    H        6.86656        -8.91107        -2.25702
|106>    H        6.27755       -11.58620        -0.89987
|107>    H        5.81162        -9.99535        -0.30051
|108>    H        7.51048       -10.44893        -0.36176
|109>    H        8.00000       -11.10003        -5.27243
|110>    H        6.74031        -9.90577        -4.96152
|111>    H        6.53115       -12.91631        -4.46602
|112>    H        5.76791       -12.02717        -5.78331
|113>    H        5.24826       -11.75812        -4.12212
|114>    H        6.37858        -2.42776         3.05006
|115>    H        7.84456        -3.40234         2.83960
|116>    H        6.50192        -5.39296         2.34634
|117>    H        5.51399        -5.71185         4.59187
|118>    H        5.64525        -3.98665         4.91321
|119>    H        8.05791        -5.74031         4.25954
|120>    H        7.48132        -5.46563         5.90561
|121>    H        8.08050        -4.11766         4.95277
|122>    H        4.52439        -4.00259         1.41709
|123>    H        4.02573        -3.78511         3.09049
|124>    H        4.39560        -6.47729         1.69307
|125>    H        2.85374        -5.65996         1.95679
|126>    H        3.77994        -6.25161         3.33226
|127>    H        1.58265         5.01592         3.18573
|128>    H        1.70885         1.03822         5.38924
|129>    H       13.72226       -15.66334         4.37222
|130>    H       13.69681       -18.97836         1.25858
|131> *
|132>
|133>                          ****END OF INPUT****

CARTESIAN COORDINATES (ANGSTROEM)
---------------------------------
  C      2.604510    2.772790    1.268330
  O      2.670410    3.586660    0.376590
  C      2.153870    2.962980    2.656630
  C      2.191930    1.705690    3.345590
  C      2.607410    0.672190    2.416670
  C      2.388980   -0.670450    2.601350
  C      1.958960   -1.185290    3.838690
  N      1.651670   -1.627100    4.853010
  C      2.494120   -1.634430    1.582740
  N      2.515320   -2.448880    0.773500
  C      3.024420    1.342630    1.203920
  C      3.757270    0.906540    0.137200
  C     12.473640  -14.614910    1.712330
  O     12.328050  -13.540230    2.263500
  C     13.057310  -15.834140    2.286560
  C     13.044620  -16.871850    1.299330
  C     12.457000  -16.355640    0.077430
  C     12.289870  -17.093820   -1.067910
  C     12.695830  -18.442180   -1.131240
  N     13.022870  -19.540250   -1.202610
  C     11.722700  -16.644780   -2.274420
  N     11.267060  -16.347150   -3.286960
  C     12.105800  -14.970770    0.330110
  C     11.520470  -14.133820   -0.587780
  C      4.583970   -0.232450    0.048880
  C      5.202960   -0.937150    1.070660
  C      5.985270   -1.978820    0.583950
  C      5.945660   -2.091900   -0.827720
  S      4.993850   -0.858750   -1.547950
  N      6.779510   -2.964040    1.111880
  C      7.225060   -3.724800    0.057630
  C      6.705630   -3.211190   -1.144630
  C      7.993600   -4.906720   -0.136090
  C      7.938720   -5.334670   -1.496860
  S      7.081970   -4.174050   -2.525150
  C      8.757610   -5.653850    0.769520
  C      9.200780   -6.899400    0.364390
  C      9.020180   -7.409490   -0.947850
  C      8.473940   -6.544250   -1.925520
  S     10.031330   -7.970730    1.465220
  C     10.090440   -9.161570    0.212950
  C      9.520640   -8.743880   -1.011520
  C     10.517150  -10.476290    0.064250
  C     10.180830  -10.836540   -1.265980
  N      9.587760   -9.779560   -1.908890
  S     11.262650  -11.760260    0.933640
  C     11.117280  -12.796550   -0.489600
  C     10.520390  -12.140460   -1.572530
  O      9.086570   -5.208420    2.027750
  O      8.516450   -6.997380   -3.204210
  C     10.123590   -4.231710    2.039650
  C     11.466190   -4.770670    1.563250
  C      8.382750   -6.123410   -4.315000
  C      8.903030   -6.854650   -5.543770
  C      8.998070   -9.927270   -3.213740
  C      7.663150  -10.693830   -3.180990
  C      6.631270   -9.975990   -2.295540
  C      6.558550  -10.535210   -0.878510
  C      7.157540  -10.855990   -4.620730
  C      6.110500  -11.955490   -4.753900
  C      6.811030   -3.279550    2.521080
  C      6.028090   -4.556990    2.870190
  C      6.105690   -4.821370    4.378340
  C      7.520220   -5.048250    4.902210
  C      4.568690   -4.448890    2.412570
  C      3.858290   -5.795270    2.349130
  C      1.718280    3.983210    3.436870
  S      1.355520    3.425600    5.029550
  C      1.782290    1.799860    4.638810
  C     13.589700  -16.226400    3.470340
  S     14.087040  -17.877730    3.397710
  C     13.572260  -18.038870    1.758460
  H      3.746160    1.561070   -0.728600
  H     11.322840  -14.562360   -1.563560
  H      5.110210   -0.659890    2.105360
  H     10.359780  -12.630070   -2.516330
  H     10.195030   -3.924150    3.085750
  H      9.830970   -3.367230    1.426040
  H     11.752570   -5.636410    2.154480
  H     12.223180   -3.999030    1.672490
  H     11.413770   -5.063620    0.516510
  H      8.966160   -5.211990   -4.146110
  H      7.330760   -5.853350   -4.461140
  H      9.938280   -7.150980   -5.395750
  H      8.842720   -6.196250   -6.405030
  H      8.307780   -7.742950   -5.737480
  H      9.714590  -10.470900   -3.838190
  H      8.837880   -8.939390   -3.635990
  H      7.848330  -11.691010   -2.767650
  H      5.642320  -10.069280   -2.746790
  H      6.866560   -8.911070   -2.257020
  H      6.277550  -11.586200   -0.899870
  H      5.811620   -9.995350   -0.300510
  H      7.510480  -10.448930   -0.361760
  H      8.000000  -11.100030   -5.272430
  H      6.740310   -9.905770   -4.961520
  H      6.531150  -12.916310   -4.466020
  H      5.767910  -12.027170   -5.783310
  H      5.248260  -11.758120   -4.122120
  H      6.378580   -2.427760    3.050060
  H      7.844560   -3.402340    2.839600
  H      6.501920   -5.392960    2.346340
  H      5.513990   -5.711850    4.591870
  H      5.645250   -3.986650    4.913210
  H      8.057910   -5.740310    4.259540
  H      7.481320   -5.465630    5.905610
  H      8.080500   -4.117660    4.952770
  H      4.524390   -4.002590    1.417090
  H      4.025730   -3.785110    3.090490
  H      4.395600   -6.477290    1.693070
  H      2.853740   -5.659960    1.956790
  H      3.779940   -6.251610    3.332260
  H      1.582650    5.015920    3.185730
  H      1.708850    1.038220    5.389240
  H     13.722260  -15.663340    4.372220
  H     13.696810  -18.978360    1.258580

 Total Charge           Charge          ....    0
 Multiplicity           Mult            ....    1
 Number of Electrons    NEL             ....  550
 Basis Dimension        Dim             .... 2532

ORBITAL ENERGIES
----------------

  NO   OCC          E(Eh)            E(eV)
   0   2.0000     -88.918260     -2419.5889
   1   2.0000     -88.912144     -2419.4224
   2   2.0000     -88.905470     -2419.2408
   3   2.0000     -88.901607     -2419.1357
   4   2.0000     -88.895508     -2418.9697
   5   2.0000     -88.892036     -2418.8753
   6   2.0000     -19.189134      -522.1629
   7   2.0000     -19.171527      -521.6838
   8   2.0000     -19.125326      -520.4266
   9   2.0000     -19.123816      -520.3855
  10   2.0000     -14.394353      -391.6903
  11   2.0000     -14.388126      -391.5208
  12   2.0000     -14.324628      -389.7929
  13   2.0000     -14.323485      -389.7619
  14   2.0000     -14.320054      -389.6685
  15   2.0000     -14.315239      -389.5375
  16   2.0000     -10.274821      -279.5921
  17   2.0000     -10.273123      -279.5459
  18   2.0000     -10.271464      -279.5007
  19   2.0000     -10.256025      -279.0806
  20   2.0000     -10.254518      -279.0396
  21   2.0000     -10.250890      -278.9409
  22   2.0000     -10.248148      -278.8663
  23   2.0000     -10.245095      -278.7832
  24   2.0000     -10.244100      -278.7561
  25   2.0000     -10.243969      -278.7526
  26   2.0000     -10.243662      -278.7442
  27   2.0000     -10.240996      -278.6717
  28   2.0000     -10.237495      -278.5764
  29   2.0000     -10.236749      -278.5561
  30   2.0000     -10.233256      -278.4611
  31   2.0000     -10.231726      -278.4194
  32   2.0000     -10.230658      -278.3904
  33   2.0000     -10.229530      -278.3597
  34   2.0000     -10.228050      -278.3194
  35   2.0000     -10.227795      -278.3124
  36   2.0000     -10.227449      -278.3030
  37   2.0000     -10.226194      -278.2689
  38   2.0000     -10.225355      -278.2461
  39   2.0000     -10.224633      -278.2264
  40   2.0000     -10.224360      -278.2190
  41   2.0000     -10.224342      -278.2185
  42   2.0000     -10.223957      -278.2080
  43   2.0000     -10.223217      -278.1879
  44   2.0000     -10.221554      -278.1426
  45   2.0000     -10.220941      -278.1259
  46   2.0000     -10.219621      -278.0900
  47   2.0000     -10.219374      -278.0833
  48   2.0000     -10.218142      -278.0498
  49   2.0000     -10.217589      -278.0347
  50   2.0000     -10.215662      -277.9823
  51   2.0000     -10.214418      -277.9484
  52   2.0000     -10.214323      -277.9459
  53   2.0000     -10.212953      -277.9086
  54   2.0000     -10.208445      -277.7859
  55   2.0000     -10.208176      -277.7786
  56   2.0000     -10.207489      -277.7599
  57   2.0000     -10.204161      -277.6693
  58   2.0000     -10.203085      -277.6401
  59   2.0000     -10.197858      -277.4978
  60   2.0000     -10.189233      -277.2631
  61   2.0000     -10.184257      -277.1277
  62   2.0000     -10.179263      -276.9918
  63   2.0000     -10.177282      -276.9379
  64   2.0000     -10.176752      -276.9235
  65   2.0000     -10.171205      -276.7726
  66   2.0000     -10.168840      -276.7082
  67   2.0000     -10.164299      -276.5846
  68   2.0000     -10.160477      -276.4806
  69   2.0000     -10.159305      -276.4487
  70   2.0000     -10.157810      -276.4081
  71   2.0000     -10.151407      -276.2338
  72   2.0000      -7.993970      -217.5270
  73   2.0000      -7.987884      -217.3614
  74   2.0000      -7.981392      -217.1847
  75   2.0000      -7.978116      -217.0956
  76   2.0000      -7.971910      -216.9267
  77   2.0000      -7.966670      -216.7841
  78   2.0000      -5.956395      -162.0818
  79   2.0000      -5.952044      -161.9634
  80   2.0000      -5.951454      -161.9473
  81   2.0000      -5.950277      -161.9153
  82   2.0000      -5.945982      -161.7984
  83   2.0000      -5.945345      -161.7811
  84   2.0000      -5.944180      -161.7494
  85   2.0000      -5.941207      -161.6684
  86   2.0000      -5.940374      -161.6458
  87   2.0000      -5.937555      -161.5691
  88   2.0000      -5.937407      -161.5651
  89   2.0000      -5.934859      -161.4957
  90   2.0000      -5.933463      -161.4577
  91   2.0000      -5.931135      -161.3944
  92   2.0000      -5.929731      -161.3562
  93   2.0000      -5.927545      -161.2967
  94   2.0000      -5.925485      -161.2406
  95   2.0000      -5.922592      -161.1619
  96   2.0000      -1.104863       -30.0649
  97   2.0000      -1.087316       -29.5874
  98   2.0000      -1.057055       -28.7639
  99   2.0000      -1.054921       -28.7059
 100   2.0000      -1.029691       -28.0193
 101   2.0000      -1.024553       -27.8795
 102   2.0000      -0.942091       -25.6356
 103   2.0000      -0.935350       -25.4522
 104   2.0000      -0.926620       -25.2146
 105   2.0000      -0.921838       -25.0845
 106   2.0000      -0.921253       -25.0686
 107   2.0000      -0.920938       -25.0600
 108   2.0000      -0.913329       -24.8529
 109   2.0000      -0.907368       -24.6907
 110   2.0000      -0.898990       -24.4628
 111   2.0000      -0.896278       -24.3890
 112   2.0000      -0.878457       -23.9040
 113   2.0000      -0.872340       -23.7376
 114   2.0000      -0.853661       -23.2293
 115   2.0000      -0.839818       -22.8526
 116   2.0000      -0.828850       -22.5542
 117   2.0000      -0.824117       -22.4254
 118   2.0000      -0.818865       -22.2824
 119   2.0000      -0.818165       -22.2634
 120   2.0000      -0.809351       -22.0236
 121   2.0000      -0.801931       -21.8216
 122   2.0000      -0.790696       -21.5159
 123   2.0000      -0.782788       -21.3007
 124   2.0000      -0.778102       -21.1732
 125   2.0000      -0.771913       -21.0048
 126   2.0000      -0.767794       -20.8927
 127   2.0000      -0.764252       -20.7964
 128   2.0000      -0.762805       -20.7570
 129   2.0000      -0.760089       -20.6831
 130   2.0000      -0.757790       -20.6205
 131   2.0000      -0.754912       -20.5422
 132   2.0000      -0.749033       -20.3822
 133   2.0000      -0.734789       -19.9946
 134   2.0000      -0.726122       -19.7588
 135   2.0000      -0.719827       -19.5875
 136   2.0000      -0.704372       -19.1669
 137   2.0000      -0.702800       -19.1242
 138   2.0000      -0.687654       -18.7120
 139   2.0000      -0.676779       -18.4161
 140   2.0000      -0.675464       -18.3803
 141   2.0000      -0.671366       -18.2688
 142   2.0000      -0.666343       -18.1321
 143   2.0000      -0.659315       -17.9409
 144   2.0000      -0.650499       -17.7010
 145   2.0000      -0.641691       -17.4613
 146   2.0000      -0.624076       -16.9820
 147   2.0000      -0.622201       -16.9309
 148   2.0000      -0.616920       -16.7873
 149   2.0000      -0.613005       -16.6807
 150   2.0000      -0.612253       -16.6602
 151   2.0000      -0.609158       -16.5760
 152   2.0000      -0.602132       -16.3849
 153   2.0000      -0.597163       -16.2496
 154   2.0000      -0.593933       -16.1617
 155   2.0000      -0.588551       -16.0153
 156   2.0000      -0.586553       -15.9609
 157   2.0000      -0.585405       -15.9297
 158   2.0000      -0.572867       -15.5885
 159   2.0000      -0.571604       -15.5541
 160   2.0000      -0.565615       -15.3912
 161   2.0000      -0.563147       -15.3240
 162   2.0000      -0.561756       -15.2862
 163   2.0000      -0.548419       -14.9232
 164   2.0000      -0.545627       -14.8473
 165   2.0000      -0.543820       -14.7981
 166   2.0000      -0.532796       -14.4981
 167   2.0000      -0.529960       -14.4210
 168   2.0000      -0.526889       -14.3374
 169   2.0000      -0.523845       -14.2545
 170   2.0000      -0.520936       -14.1754
 171   2.0000      -0.517243       -14.0749
 172   2.0000      -0.510658       -13.8957
 173   2.0000      -0.507792       -13.8177
 174   2.0000      -0.500655       -13.6235
 175   2.0000      -0.497031       -13.5249
 176   2.0000      -0.492114       -13.3911
 177   2.0000      -0.487027       -13.2527
 178   2.0000      -0.482322       -13.1246
 179   2.0000      -0.476876       -12.9765
 180   2.0000      -0.475203       -12.9309
 181   2.0000      -0.471789       -12.8380
 182   2.0000      -0.468066       -12.7367
 183   2.0000      -0.460577       -12.5329
 184   2.0000      -0.458985       -12.4896
 185   2.0000      -0.457897       -12.4600
 186   2.0000      -0.457439       -12.4475
 187   2.0000      -0.455362       -12.3910
 188   2.0000      -0.452476       -12.3125
 189   2.0000      -0.452153       -12.3037
 190   2.0000      -0.450375       -12.2553
 191   2.0000      -0.448533       -12.2052
 192   2.0000      -0.445483       -12.1222
 193   2.0000      -0.442926       -12.0526
 194   2.0000      -0.438640       -11.9360
 195   2.0000      -0.435912       -11.8618
 196   2.0000      -0.435414       -11.8482
 197   2.0000      -0.434389       -11.8203
 198   2.0000      -0.430893       -11.7252
 199   2.0000      -0.430128       -11.7044
 200   2.0000      -0.426615       -11.6088
 201   2.0000      -0.424951       -11.5635
 202   2.0000      -0.424380       -11.5480
 203   2.0000      -0.422895       -11.5076
 204   2.0000      -0.420976       -11.4553
 205   2.0000      -0.419569       -11.4171
 206   2.0000      -0.418664       -11.3924
 207   2.0000      -0.417455       -11.3595
 208   2.0000      -0.415857       -11.3160
 209   2.0000      -0.413365       -11.2482
 210   2.0000      -0.411839       -11.2067
 211   2.0000      -0.406972       -11.0743
 212   2.0000      -0.406151       -11.0519
 213   2.0000      -0.404904       -11.0180
 214   2.0000      -0.403652       -10.9839
 215   2.0000      -0.402346       -10.9484
 216   2.0000      -0.401367       -10.9218
 217   2.0000      -0.397446       -10.8151
 218   2.0000      -0.394074       -10.7233
 219   2.0000      -0.393848       -10.7172
 220   2.0000      -0.391173       -10.6444
 221   2.0000      -0.386051       -10.5050
 222   2.0000      -0.384994       -10.4762
 223   2.0000      -0.384364       -10.4591
 224   2.0000      -0.381213       -10.3733
 225   2.0000      -0.380405       -10.3513
 226   2.0000      -0.378506       -10.2997
 227   2.0000      -0.377293       -10.2667
 228   2.0000      -0.376746       -10.2518
 229   2.0000      -0.375678       -10.2227
 230   2.0000      -0.373850       -10.1730
 231   2.0000      -0.373450       -10.1621
 232   2.0000      -0.370464       -10.0808
 233   2.0000      -0.368139       -10.0176
 234   2.0000      -0.367356        -9.9963
 235   2.0000      -0.364940        -9.9305
 236   2.0000      -0.363478        -9.8907
 237   2.0000      -0.362611        -9.8671
 238   2.0000      -0.360185        -9.8011
 239   2.0000      -0.359390        -9.7795
 240   2.0000      -0.358236        -9.7481
 241   2.0000      -0.355637        -9.6774
 242   2.0000      -0.354330        -9.6418
 243   2.0000      -0.353495        -9.6191
 244   2.0000      -0.350456        -9.5364
 245   2.0000      -0.348760        -9.4903
 246   2.0000      -0.346775        -9.4362
 247   2.0000      -0.345724        -9.4076
 248   2.0000      -0.344049        -9.3621
 249   2.0000      -0.342348        -9.3158
 250   2.0000      -0.336086        -9.1454
 251   2.0000      -0.333753        -9.0819
 252   2.0000      -0.332488        -9.0475
 253   2.0000      -0.331151        -9.0111
 254   2.0000      -0.326383        -8.8813
 255   2.0000      -0.324193        -8.8217
 256   2.0000      -0.318478        -8.6662
 257   2.0000      -0.316221        -8.6048
 258   2.0000      -0.312423        -8.5014
 259   2.0000      -0.308013        -8.3814
 260   2.0000      -0.297220        -8.0878
 261   2.0000      -0.291337        -7.9277
 262   2.0000      -0.280750        -7.6396
 263   2.0000      -0.279102        -7.5948
 264   2.0000      -0.274973        -7.4824
 265   2.0000      -0.273532        -7.4432
 266   2.0000      -0.271439        -7.3862
 267   2.0000      -0.266069        -7.2401
 268   2.0000      -0.258637        -7.0379
 269   2.0000      -0.254121        -6.9150
 270   2.0000      -0.249988        -6.8025
 271   2.0000      -0.234215        -6.3733
 272   2.0000      -0.225111        -6.1256
 273   2.0000      -0.219134        -5.9629
 274   2.0000      -0.196166        -5.3379
 275   0.0000      -0.130203        -3.5430
 276   0.0000      -0.116767        -3.1774
 277   0.0000      -0.090117        -2.4522
 278   0.0000      -0.086352        -2.3498
 279   0.0000      -0.065793        -1.7903

MULLIKEN ATOMIC CHARGES
-----------------------
   0 C :    0.172519
   1 O :   -0.285111
   2 C :   -0.113302
   3 C :    0.090690
   4 C :   -0.042459
   5 C :    0.103213
   6 C :   -0.232864
   7 N :    0.021917
   8 C :   -0.211699
   9 N :    0.021245
  10 C :    0.014900
  11 C :   -0.217718
  12 C :    0.155646
  13 O :   -0.328169
  14 C :   -0.032382
  15 C :    0.070836
  16 C :    0.009299
  17 C :    0.130396
  18 C :   -0.238868
  19 N :    0.021648
  20 C :   -0.228258
  21 N :    0.035114
  22 C :   -0.002838
  23 C :   -0.178908
  24 C :    0.206400
  25 C :   -0.400231
  26 C :    0.266378
  27 C :   -0.067358
  28 S :    0.039116
  29 N :   -0.017994
  30 C :    0.241750
  31 C :   -0.078094
  32 C :   -0.016163
  33 C :   -0.017140
  34 S :   -0.028748
  35 C :    0.028523
  36 C :    0.077206
  37 C :   -0.125288
  38 C :    0.100481
  39 S :    0.002581
  40 C :   -0.026352
  41 C :    0.220673
  42 C :   -0.104438
  43 C :    0.218968
  44 N :    0.005337
  45 S :    0.087257
  46 C :    0.057738
  47 C :   -0.331006
  48 O :   -0.378556
  49 O :   -0.332565
  50 C :   -0.040897
  51 C :   -0.338704
  52 C :   -0.070164
  53 C :   -0.329204
  54 C :   -0.231504
  55 C :    0.048154
  56 C :   -0.181840
  57 C :   -0.368229
  58 C :   -0.184084
  59 C :   -0.332703
  60 C :   -0.165451
  61 C :    0.032697
  62 C :   -0.186828
  63 C :   -0.356065
  64 C :   -0.170136
  65 C :   -0.363842
  66 C :   -0.138848
  67 S :    0.119151
  68 C :   -0.178222
  69 C :   -0.136462
  70 S :    0.113871
  71 C :   -0.184324
  72 H :    0.146934
  73 H :    0.163825
  74 H :    0.157978
  75 H :    0.147687
  76 H :    0.113877
  77 H :    0.102929
  78 H :    0.123082
  79 H :    0.117768
  80 H :    0.125479
  81 H :    0.120027
  82 H :    0.115386
  83 H :    0.120616
  84 H :    0.126198
  85 H :    0.121312
  86 H :    0.114602
  87 H :    0.150577
  88 H :    0.076535
  89 H :    0.089046
  90 H :    0.104805
  91 H :    0.107394
  92 H :    0.110728
  93 H :    0.134428
  94 H :    0.084337
  95 H :    0.090090
  96 H :    0.111871
  97 H :    0.112915
  98 H :    0.105017
  99 H :    0.107816
 100 H :    0.135146
 101 H :    0.068746
 102 H :    0.093895
 103 H :    0.091142
 104 H :    0.126163
 105 H :    0.112831
 106 H :    0.095266
 107 H :    0.133013
 108 H :    0.081682
 109 H :    0.100116
 110 H :    0.128162
 111 H :    0.103843
 112 H :    0.168026
 113 H :    0.184124
 114 H :    0.166384
 115 H :    0.188516
Sum of atomic charges:   -0.0000000

LOEWDIN ATOMIC CHARGES
----------------------
   0 C :   -0.262355
   1 O :    0.131816
   2 C :   -0.127204
   3 C :   -0.116843
   4 C :   -0.002445
   5 C :   -0.151659
   6 C :   -0.164671
   7 N :    0.072374
   8 C :   -0.162036
   9 N :    0.095361
  10 C :   -0.080167
  11 C :   -0.063267
  12 C :   -0.262218
  13 O :    0.117971
  14 C :   -0.127848
  15 C :   -0.115402
  16 C :    0.004416
  17 C :   -0.144324
  18 C :   -0.159286
  19 N :    0.071125
  20 C :   -0.172905
  21 N :    0.068968
  22 C :   -0.087482
  23 C :   -0.056903
  24 C :   -0.338833
  25 C :   -0.099325
  26 C :   -0.181778
  27 C :   -0.338417
  28 S :    0.768057
  29 N :    0.306585
  30 C :   -0.130127
  31 C :   -0.351308
  32 C :   -0.097709
  33 C :   -0.260413
  34 S :    0.720203
  35 C :   -0.247303
  36 C :   -0.276045
  37 C :   -0.090203
  38 C :   -0.226212
  39 S :    0.750915
  40 C :   -0.353395
  41 C :   -0.128065
  42 C :   -0.340320
  43 C :   -0.186869
  44 N :    0.305640
  45 S :    0.786555
  46 C :   -0.320568
  47 C :   -0.103871
  48 O :    0.237913
  49 O :    0.264743
  50 C :   -0.333878
  51 C :   -0.304904
  52 C :   -0.343008
  53 C :   -0.296757
  54 C :   -0.219656
  55 C :   -0.247933
  56 C :   -0.257012
  57 C :   -0.300112
  58 C :   -0.263306
  59 C :   -0.300365
  60 C :   -0.205768
  61 C :   -0.253671
  62 C :   -0.255525
  63 C :   -0.307413
  64 C :   -0.261237
  65 C :   -0.298781
  66 C :   -0.314184
  67 S :    0.758825
  68 C :   -0.323839
  69 C :   -0.316525
  70 S :    0.755984
  71 C :   -0.320312
  72 H :    0.168502
  73 H :    0.179384
  74 H :    0.154094
  75 H :    0.152624
  76 H :    0.127936
  77 H :    0.124788
  78 H :    0.119167
  79 H :    0.124016
  80 H :    0.123949
  81 H :    0.127215
  82 H :    0.121949
  83 H :    0.122808
  84 H :    0.127215
  85 H :    0.119473
  86 H :    0.139118
  87 H :    0.147450
  88 H :    0.152261
  89 H :    0.135300
  90 H :    0.139616
  91 H :    0.117959
  92 H :    0.118337
  93 H :    0.122981
  94 H :    0.133721
  95 H :    0.133002
  96 H :    0.119026
  97 H :    0.118089
  98 H :    0.115775
  99 H :    0.144170
 100 H :    0.142672
 101 H :    0.157671
 102 H :    0.138536
 103 H :    0.135113
 104 H :    0.120753
 105 H :    0.117054
 106 H :    0.110882
 107 H :    0.143474
 108 H :    0.137623
 109 H :    0.115877
 110 H :    0.122432
 111 H :    0.113366
 112 H :    0.135634
 113 H :    0.139070
 114 H :    0.134450
 115 H :    0.139979

  Mayer bond orders larger than 0.100000
B(  0-C ,  1-O ) :   2.2175 B(  0-C ,  2-C ) :   0.9815 B(  0-C , 10-C ) :   0.9772
B(  1-O ,  2-C ) :  -0.1165 B(  1-O , 10-C ) :  -0.1502 B(  1-O , 11-C ) :   0.1023
B(  2-C ,  3-C ) :   1.1453 B(  2-C , 66-C ) :   1.6289 B(  3-C ,  4-C ) :   1.0363
B(  3-C , 68-C ) :   1.5874 B(  4-C ,  5-C ) :   1.4083 B(  4-C , 10-C ) :   1.1271
B(  5-C ,  6-C ) :   1.0451 B(  5-C ,  8-C ) :   1.0591 B(  6-C ,  7-N ) :   2.9951
B(  8-C ,  9-N ) :   2.9381 B( 10-C , 11-C ) :   1.5080 B( 11-C , 24-C ) :   1.0957
B( 11-C , 72-H ) :   0.9490 B( 12-C , 13-O ) :   2.0470 B( 12-C , 14-C ) :   1.0743
B( 12-C , 22-C ) :   0.9858 B( 13-O , 14-C ) :  -0.1126 B( 14-C , 15-C ) :   1.1513
B( 14-C , 69-C ) :   1.6356 B( 15-C , 16-C ) :   1.0437 B( 15-C , 71-C ) :   1.6014
B( 16-C , 17-C ) :   1.4350 B( 16-C , 22-C ) :   1.1233 B( 17-C , 18-C ) :   1.0293
B( 17-C , 20-C ) :   1.0428 B( 18-C , 19-N ) :   3.0011 B( 20-C , 21-N ) :   2.9942
B( 22-C , 23-C ) :   1.3554 B( 23-C , 46-C ) :   1.3232 B( 23-C , 73-H ) :   0.8929
B( 24-C , 25-C ) :   1.4435 B( 24-C , 28-S ) :   1.1663 B( 25-C , 26-C ) :   1.2911
B( 25-C , 28-S ) :   0.1499 B( 25-C , 74-H ) :   0.9536 B( 26-C , 27-C ) :   1.2236
B( 26-C , 29-N ) :   1.1696 B( 27-C , 28-S ) :   1.3284 B( 27-C , 31-C ) :   1.1516
B( 29-N , 30-C ) :   1.1564 B( 29-N , 60-C ) :   0.8896 B( 30-C , 31-C ) :   1.2958
B( 30-C , 32-C ) :   1.1016 B( 31-C , 34-S ) :   1.2848 B( 32-C , 33-C ) :   1.2532
B( 32-C , 35-C ) :   1.2381 B( 33-C , 34-S ) :   1.1610 B( 33-C , 38-C ) :   1.3800
B( 35-C , 36-C ) :   1.3850 B( 35-C , 39-S ) :  -0.1250 B( 35-C , 48-O ) :   0.9378
B( 36-C , 37-C ) :   1.2892 B( 36-C , 39-S ) :   1.3003 B( 37-C , 38-C ) :   1.2227
B( 37-C , 39-S ) :   0.1112 B( 37-C , 41-C ) :   1.1363 B( 38-C , 49-O ) :   1.1306
B( 39-S , 40-C ) :   1.2402 B( 40-C , 41-C ) :   1.2975 B( 40-C , 42-C ) :   1.1360
B( 41-C , 44-N ) :   1.1711 B( 42-C , 43-C ) :   1.1950 B( 42-C , 45-S ) :   1.4089
B( 43-C , 44-N ) :   1.1528 B( 43-C , 47-C ) :   1.3717 B( 44-N , 54-C ) :   0.8950
B( 45-S , 46-C ) :   1.2662 B( 45-S , 47-C ) :   0.1045 B( 46-C , 47-C ) :   1.3387
B( 47-C , 75-H ) :   0.9493 B( 48-O , 50-C ) :   0.8995 B( 49-O , 52-C ) :   0.9045
B( 50-C , 51-C ) :   0.9798 B( 50-C , 76-H ) :   0.9596 B( 50-C , 77-H ) :   0.9632
B( 51-C , 78-H ) :   0.9713 B( 51-C , 79-H ) :   0.9645 B( 51-C , 80-H ) :   0.9725
B( 52-C , 53-C ) :   0.9757 B( 52-C , 81-H ) :   0.9598 B( 52-C , 82-H ) :   0.9462
B( 53-C , 83-H ) :   0.9796 B( 53-C , 84-H ) :   0.9664 B( 53-C , 85-H ) :   0.9731
B( 54-C , 55-C ) :   0.9296 B( 54-C , 86-H ) :   0.9726 B( 54-C , 87-H ) :   0.9652
B( 55-C , 56-C ) :   0.9102 B( 55-C , 58-C ) :   0.9152 B( 55-C , 88-H ) :   0.9811
B( 56-C , 57-C ) :   0.9547 B( 56-C , 89-H ) :   0.9690 B( 56-C , 90-H ) :   0.9678
B( 57-C , 91-H ) :   0.9737 B( 57-C , 92-H ) :   0.9794 B( 57-C , 93-H ) :   0.9764
B( 58-C , 59-C ) :   0.9712 B( 58-C , 94-H ) :   0.9729 B( 58-C , 95-H ) :   0.9665
B( 59-C , 96-H ) :   0.9787 B( 59-C , 97-H ) :   0.9807 B( 59-C , 98-H ) :   0.9732
B( 60-C , 61-C ) :   0.8992 B( 60-C , 99-H ) :   0.9608 B( 60-C ,100-H ) :   0.9837
B( 61-C , 62-C ) :   0.9683 B( 61-C , 64-C ) :   0.9308 B( 61-C ,101-H ) :   0.9681
B( 62-C , 63-C ) :   0.9497 B( 62-C ,102-H ) :   0.9722 B( 62-C ,103-H ) :   0.9654
B( 63-C ,104-H ) :   0.9732 B( 63-C ,105-H ) :   0.9770 B( 63-C ,106-H ) :   0.9780
B( 64-C , 65-C ) :   0.9690 B( 64-C ,107-H ) :   0.9680 B( 64-C ,108-H ) :   0.9599
B( 65-C ,109-H ) :   0.9790 B( 65-C ,110-H ) :   0.9823 B( 65-C ,111-H ) :   0.9763
B( 66-C , 67-S ) :   1.2760 B( 66-C ,112-H ) :   0.9211 B( 67-S , 68-C ) :   1.3105
B( 68-C ,113-H ) :   0.9068 B( 69-C , 70-S ) :   1.2683 B( 69-C ,114-H ) :   0.9227
B( 70-S , 71-C ) :   1.3210 B( 71-C ,115-H ) :   0.8956

-----------------------------------------------------------------------------
  SOC CORRECTED ABSORPTION SPECTRUM VIA TRANSITION ELECTRIC DIPOLE MOMENTS*
-----------------------------------------------------------------------------
State   Energy  Wavelength   fosc         T2         TX        TY        TZ
        (cm-1)    (nm)                  (au**2)     (au)      (au)      (au)
-----------------------------------------------------------------------------
   1    9398.3   1064.0   0.000000001   0.00000   0.00009   0.00012   0.00002
   2    9398.3   1064.0   0.000000001   0.00000   0.00004   0.00017   0.00006
   3    9398.3   1064.0   0.000000217   0.00001   0.00167   0.00205   0.00078
   4   11690.8    855.4   0.000000002   0.00000   0.00011   0.00003   0.00019
   5   11690.8    855.4   0.000000000   0.00000   0.00005   0.00007   0.00001
   6   11690.8    855.4   0.000000037   0.00000   0.00062   0.00075   0.00031
   7   13148.7    760.5   1.239771734  31.04091   3.06818   4.62749   0.46212
   8   14332.9    697.7   0.000000031   0.00000   0.00045   0.00071   0.00001
   9   14332.9    697.7   0.000000110   0.00000   0.00084   0.00135   0.00001
  10   14332.9    697.7   0.000000285   0.00001   0.00160   0.00185   0.00076
  11   16025.4    624.0   0.466654040   9.58654   1.28710   2.78784   0.39729
  12   17199.2    581.4   0.901753066  17.26057   2.12619   3.41922   1.02412

FINAL SINGLE POINT ENERGY     -5177.942001550292

DIPOLE MOMENT
-------------
                                X             Y             Z
Electronic contribution:     16.27098       6.83899      21.82414
Nuclear contribution   :    -15.20266      -3.55010     -21.43619
                        -----------------------------------------
Total Dipole Moment    :      1.06832       3.28889       0.38795
                        -----------------------------------------
Magnitude (a.u.)       :      3.47974
Magnitude (Debye)      :      8.84481

Rotational constants in cm-1:     0.002031     0.000290     0.000271
Rotational constants in MHz :    60.895409     8.686262     8.118279

                             ****ORCA TERMINATED NORMALLY****
TOTAL RUN TIME: 0 days 14 hours 44 minutes 19 seconds 149 msec
