                         Program Version 4.2.0 -  RELEASE  -
|  1> # ORCA input file
|  2> # BDTN-BF.out
|  3> ! B3LYP def2-TZVP def2/J RIJCOSX Grid4 TightSCF
|  4>
|  5> %maxcore 2000
|  6> %tddft
|  7>   maxdim 5
|  8>   nroots 3
|  9>   dosoc true
| 10>   end
| 11>
| 12>
| 13>
| 14> * xyz 0 1
| 15>    C        4.20765         2.22270        -1.24381
| 16>    O        4.12158         1.11940        -1.74872
| 17>    C        3.28610         3.35637        -1.47093
| 18>    C        2.17610         3.40671        -2.28988
| 19>    C        1.46967         4.59764        -2.34039
| 20>    C        1.87691         5.69712        -1.58474
| 21>    C        2.99199         5.64449        -0.76105
| 22>    C        3.70476         4.45702        -0.70518
| 23>    C        4.90570         4.08059         0.04392
| 24>    C        5.58523         4.90541         0.90339
| 25>    C        6.74258         4.56533         1.63447
| 26>    N        7.68568         4.37355         2.26219
| 27>    C        5.21149         6.23735         1.18259
| 28>    N        4.96380         7.32448         1.45492
| 29>    C        5.21740         2.70837        -0.29969
| 30>    F        1.17712         6.83529        -1.65365
| 31>    C        6.29110         1.99009         0.17040
| 32>    F        0.38740         4.69459        -3.12226
| 33>    C       13.15198       -15.99610         0.52972
| 34>    O       12.31345       -16.82019         0.81264
| 35>    C       14.61564       -16.07663         0.75438
| 36>    C       15.33814       -17.06552         1.39222
| 37>    C       16.70909       -16.89314         1.50020
| 38>    C       17.32934       -15.75689         0.97955
| 39>    C       16.60700       -14.76822         0.32797
| 40>    C       15.23673       -14.93496         0.21679
| 41>    C       14.21801       -14.11116        -0.43260
| 42>    C       14.45385       -13.20239        -1.43102
| 43>    C       13.43247       -12.68000        -2.25244
| 44>    N       12.63456       -12.28945        -2.97959
| 45>    C       15.73925       -12.77329        -1.81647
| 46>    N       16.76367       -12.38185        -2.15497
| 47>    C       12.93111       -14.65627        -0.06459
| 48>    F       18.65275       -15.61283         1.11279
| 49>    C       11.67495       -14.12403        -0.11315
| 50>    F       17.44733       -17.82644         2.11412
| 51>    C        6.71346         0.68590        -0.10982
| 52>    C        7.88595         0.16957         0.45604
| 53>    C        8.15997        -1.11360         0.02140
| 54>    C        7.15475        -1.60885        -0.85144
| 55>    S        5.91330        -0.46782        -1.17823
| 56>    N        9.12404        -2.07470         0.22976
| 57>    C        8.73032        -3.18805        -0.47634
| 58>    C        7.51235        -2.92243        -1.12863
| 59>    C        9.14427        -4.54329        -0.62619
| 60>    C        8.13739        -5.31012        -1.28943
| 61>    S        6.80693        -4.30502        -1.87761
| 62>    C       10.33448        -5.19030        -0.26125
| 63>    C       10.35957        -6.57216        -0.31393
| 64>    C        9.29679        -7.36227        -0.82422
| 65>    C        8.20738        -6.69256        -1.42651
| 66>    S       11.75455        -7.47753         0.22613
| 67>    C       10.93005        -8.93845        -0.18696
| 68>    C        9.62875        -8.74508        -0.70736
| 69>    C       11.16606       -10.30530        -0.15000
| 70>    C        9.98366       -10.92331        -0.62128
| 71>    N        9.06233        -9.96756        -0.95763
| 72>    S       12.37927       -11.45502         0.24949
| 73>    C       11.29659       -12.77076        -0.22446
| 74>    C       10.05143       -12.31185        -0.62702
| 75>    O       11.48281        -4.51814         0.08786
| 76>    O        7.31347        -7.47924        -2.07681
| 77>    C       12.21070        -4.03866        -1.04400
| 78>    C       12.67304        -5.11957        -2.01260
| 79>    C        6.46553        -6.96838        -3.09655
| 80>    C        5.98020        -8.14700        -3.92750
| 81>    C        7.70470       -10.31265        -1.28947
| 82>    C        6.88280       -10.72275        -0.05367
| 83>    C        6.85421        -9.59462         0.99122
| 84>    C        7.87877        -9.78002         2.10581
| 85>    C        5.46989       -11.10612        -0.51314
| 86>    C        4.71592       -11.92335         0.52933
| 87>    C       10.09284        -2.00574         1.30235
| 88>    C       11.44858        -1.34506         0.99052
| 89>    C       11.34540         0.08130         0.43961
| 90>    C       11.11646         0.13585        -1.06723
| 91>    C       12.27505        -1.37341         2.28694
| 92>    C       13.77449        -1.26420         2.03754
| 93>    H        1.86686         2.55348        -2.87221
| 94>    H        3.26266         6.52307        -0.19914
| 95>    H        6.94476         2.50386         0.86463
| 96>    H       14.85922       -17.94406         1.79414
| 97>    H       17.12548       -13.90532        -0.05748
| 98>    H       10.86493       -14.83335         0.02778
| 99>    H        8.47157         0.74704         1.14724
|100>    H        9.27195       -12.97832        -0.94830
|101>    H       13.08289        -3.54459        -0.61095
|102>    H       11.59882        -3.30233        -1.58514
|103>    H       13.29245        -5.85088        -1.50086
|104>    H       13.25756        -4.65442        -2.80188
|105>    H       11.82505        -5.62991        -2.46473
|106>    H        7.02098        -6.26752        -3.72817
|107>    H        5.60901        -6.44915        -2.65188
|108>    H        6.82543        -8.68362        -4.35044
|109>    H        5.35296        -7.78149        -4.73478
|110>    H        5.40026        -8.83124        -3.31395
|111>    H        7.73921       -11.14377        -2.00072
|112>    H        7.23599        -9.45612        -1.76536
|113>    H        7.34988       -11.60585         0.39559
|114>    H        5.86387        -9.54926         1.44644
|115>    H        7.02240        -8.63691         0.49502
|116>    H        7.69321       -10.70931         2.64062
|117>    H        7.81220        -8.95961         2.81700
|118>    H        8.89404        -9.80774         1.71926
|119>    H        5.53824       -11.69413        -1.43161
|120>    H        4.91111       -10.19666        -0.74414
|121>    H        5.23801       -12.85603         0.73119
|122>    H        3.71727       -12.16129         0.17143
|123>    H        4.61994       -11.37816         1.46476
|124>    H       10.28878        -3.02971         1.62890
|125>    H        9.62134        -1.46105         2.12741
|126>    H       11.96302        -1.95521         0.25090
|127>    H       12.28061         0.60150         0.65263
|128>    H       10.55757         0.62506         0.96004
|129>    H       11.94268        -0.34230        -1.59008
|130>    H       11.05817         1.16992        -1.39930
|131>    H       10.19543        -0.36233        -1.35582
|132>    H       12.08598        -2.31278         2.81018
|133>    H       11.94966        -0.55914         2.93817
|134>    H       14.12259        -2.11132         1.45094
|135>    H       14.31137        -1.26205         2.98287
|136>    H       14.02617        -0.35075         1.50469
|137> *
|138>
|139>                          ****END OF INPUT****

CARTESIAN COORDINATES (ANGSTROEM)
---------------------------------
  C      4.207650    2.222700   -1.243810
  O      4.121580    1.119400   -1.748720
  C      3.286100    3.356370   -1.470930
  C      2.176100    3.406710   -2.289880
  C      1.469670    4.597640   -2.340390
  C      1.876910    5.697120   -1.584740
  C      2.991990    5.644490   -0.761050
  C      3.704760    4.457020   -0.705180
  C      4.905700    4.080590    0.043920
  C      5.585230    4.905410    0.903390
  C      6.742580    4.565330    1.634470
  N      7.685680    4.373550    2.262190
  C      5.211490    6.237350    1.182590
  N      4.963800    7.324480    1.454920
  C      5.217400    2.708370   -0.299690
  F      1.177120    6.835290   -1.653650
  C      6.291100    1.990090    0.170400
  F      0.387400    4.694590   -3.122260
  C     13.151980  -15.996100    0.529720
  O     12.313450  -16.820190    0.812640
  C     14.615640  -16.076630    0.754380
  C     15.338140  -17.065520    1.392220
  C     16.709090  -16.893140    1.500200
  C     17.329340  -15.756890    0.979550
  C     16.607000  -14.768220    0.327970
  C     15.236730  -14.934960    0.216790
  C     14.218010  -14.111160   -0.432600
  C     14.453850  -13.202390   -1.431020
  C     13.432470  -12.680000   -2.252440
  N     12.634560  -12.289450   -2.979590
  C     15.739250  -12.773290   -1.816470
  N     16.763670  -12.381850   -2.154970
  C     12.931110  -14.656270   -0.064590
  F     18.652750  -15.612830    1.112790
  C     11.674950  -14.124030   -0.113150
  F     17.447330  -17.826440    2.114120
  C      6.713460    0.685900   -0.109820
  C      7.885950    0.169570    0.456040
  C      8.159970   -1.113600    0.021400
  C      7.154750   -1.608850   -0.851440
  S      5.913300   -0.467820   -1.178230
  N      9.124040   -2.074700    0.229760
  C      8.730320   -3.188050   -0.476340
  C      7.512350   -2.922430   -1.128630
  C      9.144270   -4.543290   -0.626190
  C      8.137390   -5.310120   -1.289430
  S      6.806930   -4.305020   -1.877610
  C     10.334480   -5.190300   -0.261250
  C     10.359570   -6.572160   -0.313930
  C      9.296790   -7.362270   -0.824220
  C      8.207380   -6.692560   -1.426510
  S     11.754550   -7.477530    0.226130
  C     10.930050   -8.938450   -0.186960
  C      9.628750   -8.745080   -0.707360
  C     11.166060  -10.305300   -0.150000
  C      9.983660  -10.923310   -0.621280
  N      9.062330   -9.967560   -0.957630
  S     12.379270  -11.455020    0.249490
  C     11.296590  -12.770760   -0.224460
  C     10.051430  -12.311850   -0.627020
  O     11.482810   -4.518140    0.087860
  O      7.313470   -7.479240   -2.076810
  C     12.210700   -4.038660   -1.044000
  C     12.673040   -5.119570   -2.012600
  C      6.465530   -6.968380   -3.096550
  C      5.980200   -8.147000   -3.927500
  C      7.704700  -10.312650   -1.289470
  C      6.882800  -10.722750   -0.053670
  C      6.854210   -9.594620    0.991220
  C      7.878770   -9.780020    2.105810
  C      5.469890  -11.106120   -0.513140
  C      4.715920  -11.923350    0.529330
  C     10.092840   -2.005740    1.302350
  C     11.448580   -1.345060    0.990520
  C     11.345400    0.081300    0.439610
  C     11.116460    0.135850   -1.067230
  C     12.275050   -1.373410    2.286940
  C     13.774490   -1.264200    2.037540
  H      1.866860    2.553480   -2.872210
  H      3.262660    6.523070   -0.199140
  H      6.944760    2.503860    0.864630
  H     14.859220  -17.944060    1.794140
  H     17.125480  -13.905320   -0.057480
  H     10.864930  -14.833350    0.027780
  H      8.471570    0.747040    1.147240
  H      9.271950  -12.978320   -0.948300
  H     13.082890   -3.544590   -0.610950
  H     11.598820   -3.302330   -1.585140
  H     13.292450   -5.850880   -1.500860
  H     13.257560   -4.654420   -2.801880
  H     11.825050   -5.629910   -2.464730
  H      7.020980   -6.267520   -3.728170
  H      5.609010   -6.449150   -2.651880
  H      6.825430   -8.683620   -4.350440
  H      5.352960   -7.781490   -4.734780
  H      5.400260   -8.831240   -3.313950
  H      7.739210  -11.143770   -2.000720
  H      7.235990   -9.456120   -1.765360
  H      7.349880  -11.605850    0.395590
  H      5.863870   -9.549260    1.446440
  H      7.022400   -8.636910    0.495020
  H      7.693210  -10.709310    2.640620
  H      7.812200   -8.959610    2.817000
  H      8.894040   -9.807740    1.719260
  H      5.538240  -11.694130   -1.431610
  H      4.911110  -10.196660   -0.744140
  H      5.238010  -12.856030    0.731190
  H      3.717270  -12.161290    0.171430
  H      4.619940  -11.378160    1.464760
  H     10.288780   -3.029710    1.628900
  H      9.621340   -1.461050    2.127410
  H     11.963020   -1.955210    0.250900
  H     12.280610    0.601500    0.652630
  H     10.557570    0.625060    0.960040
  H     11.942680   -0.342300   -1.590080
  H     11.058170    1.169920   -1.399300
  H     10.195430   -0.362330   -1.355820
  H     12.085980   -2.312780    2.810180
  H     11.949660   -0.559140    2.938170
  H     14.122590   -2.111320    1.450940
  H     14.311370   -1.262050    2.982870
  H     14.026170   -0.350750    1.504690

 Total Charge           Charge          ....    0
 Multiplicity           Mult            ....    1
 Number of Electrons    NEL             ....  578
 Basis Dimension        Dim             .... 2706

ORBITAL ENERGIES
----------------

  NO   OCC          E(Eh)            E(eV)
   0   2.0000     -88.904010     -2419.2011
   1   2.0000     -88.903827     -2419.1961
   2   2.0000     -88.900804     -2419.1139
   3   2.0000     -88.900399     -2419.1028
   4   2.0000     -24.723938      -672.7726
   5   2.0000     -24.722093      -672.7224
   6   2.0000     -24.721916      -672.7175
   7   2.0000     -24.721656      -672.7104
   8   2.0000     -19.191746      -522.2340
   9   2.0000     -19.174142      -521.7549
  10   2.0000     -19.136875      -520.7408
  11   2.0000     -19.128365      -520.5093
  12   2.0000     -14.396426      -391.7467
  13   2.0000     -14.395384      -391.7183
  14   2.0000     -14.329901      -389.9364
  15   2.0000     -14.325584      -389.8190
  16   2.0000     -14.325389      -389.8136
  17   2.0000     -14.322665      -389.7395
  18   2.0000     -10.298382      -280.2332
  19   2.0000     -10.297749      -280.2160
  20   2.0000     -10.297396      -280.2064
  21   2.0000     -10.296331      -280.1774
  22   2.0000     -10.279128      -279.7093
  23   2.0000     -10.277610      -279.6680
  24   2.0000     -10.274410      -279.5809
  25   2.0000     -10.260279      -279.1964
  26   2.0000     -10.256975      -279.1065
  27   2.0000     -10.254536      -279.0401
  28   2.0000     -10.253468      -279.0110
  29   2.0000     -10.252776      -278.9922
  30   2.0000     -10.250961      -278.9428
  31   2.0000     -10.249889      -278.9137
  32   2.0000     -10.247734      -278.8550
  33   2.0000     -10.245914      -278.8055
  34   2.0000     -10.241049      -278.6731
  35   2.0000     -10.236842      -278.5586
  36   2.0000     -10.235748      -278.5289
  37   2.0000     -10.234760      -278.5020
  38   2.0000     -10.233909      -278.4788
  39   2.0000     -10.233367      -278.4641
  40   2.0000     -10.230494      -278.3859
  41   2.0000     -10.229101      -278.3480
  42   2.0000     -10.228149      -278.3221
  43   2.0000     -10.228106      -278.3209
  44   2.0000     -10.228075      -278.3201
  45   2.0000     -10.227421      -278.3023
  46   2.0000     -10.227213      -278.2966
  47   2.0000     -10.226205      -278.2692
  48   2.0000     -10.225606      -278.2529
  49   2.0000     -10.225407      -278.2475
  50   2.0000     -10.224643      -278.2267
  51   2.0000     -10.224314      -278.2177
  52   2.0000     -10.223690      -278.2007
  53   2.0000     -10.223677      -278.2004
  54   2.0000     -10.223522      -278.1962
  55   2.0000     -10.221251      -278.1344
  56   2.0000     -10.218993      -278.0729
  57   2.0000     -10.217594      -278.0349
  58   2.0000     -10.217341      -278.0280
  59   2.0000     -10.216967      -278.0178
  60   2.0000     -10.216328      -278.0004
  61   2.0000     -10.215157      -277.9686
  62   2.0000     -10.214655      -277.9549
  63   2.0000     -10.213750      -277.9303
  64   2.0000     -10.210477      -277.8412
  65   2.0000     -10.207617      -277.7634
  66   2.0000     -10.191266      -277.3185
  67   2.0000     -10.190880      -277.3079
  68   2.0000     -10.188109      -277.2325
  69   2.0000     -10.183159      -277.0978
  70   2.0000     -10.178728      -276.9773
  71   2.0000     -10.178051      -276.9589
  72   2.0000     -10.177616      -276.9470
  73   2.0000     -10.177232      -276.9366
  74   2.0000     -10.171460      -276.7795
  75   2.0000     -10.168800      -276.7071
  76   2.0000     -10.166454      -276.6433
  77   2.0000     -10.165687      -276.6224
  78   2.0000      -7.980608      -217.1634
  79   2.0000      -7.980217      -217.1527
  80   2.0000      -7.976837      -217.0608
  81   2.0000      -7.975537      -217.0254
  82   2.0000      -5.943669      -161.7355
  83   2.0000      -5.942989      -161.7170
  84   2.0000      -5.939855      -161.6317
  85   2.0000      -5.939816      -161.6306
  86   2.0000      -5.939227      -161.6146
  87   2.0000      -5.938584      -161.5971
  88   2.0000      -5.936208      -161.5324
  89   2.0000      -5.936054      -161.5282
  90   2.0000      -5.936004      -161.5269
  91   2.0000      -5.934323      -161.4811
  92   2.0000      -5.932399      -161.4288
  93   2.0000      -5.931493      -161.4041
  94   2.0000      -1.266331       -34.4586
  95   2.0000      -1.265022       -34.4230
  96   2.0000      -1.252939       -34.0942
  97   2.0000      -1.251667       -34.0596
  98   2.0000      -1.107449       -30.1352
  99   2.0000      -1.088383       -29.6164
 100   2.0000      -1.068479       -29.0748
 101   2.0000      -1.059138       -28.8206
 102   2.0000      -1.031712       -28.0743
 103   2.0000      -1.030226       -28.0339
 104   2.0000      -0.944444       -25.6996
 105   2.0000      -0.942083       -25.6354
 106   2.0000      -0.926553       -25.2128
 107   2.0000      -0.925312       -25.1790
 108   2.0000      -0.923210       -25.1218
 109   2.0000      -0.922709       -25.1082
 110   2.0000      -0.920809       -25.0565
 111   2.0000      -0.907266       -24.6880
 112   2.0000      -0.906930       -24.6788
 113   2.0000      -0.900515       -24.5043
 114   2.0000      -0.878620       -23.9085
 115   2.0000      -0.877030       -23.8652
 116   2.0000      -0.858300       -23.3555
 117   2.0000      -0.846043       -23.0220
 118   2.0000      -0.835131       -22.7251
 119   2.0000      -0.830011       -22.5857
 120   2.0000      -0.827025       -22.5045
 121   2.0000      -0.822532       -22.3822
 122   2.0000      -0.816933       -22.2299
 123   2.0000      -0.810418       -22.0526
 124   2.0000      -0.799398       -21.7527
 125   2.0000      -0.797954       -21.7134
 126   2.0000      -0.794642       -21.6233
 127   2.0000      -0.790112       -21.5000
 128   2.0000      -0.781455       -21.2645
 129   2.0000      -0.774615       -21.0784
 130   2.0000      -0.771395       -20.9907
 131   2.0000      -0.770633       -20.9700
 132   2.0000      -0.767231       -20.8774
 133   2.0000      -0.766569       -20.8594
 134   2.0000      -0.758754       -20.6468
 135   2.0000      -0.741391       -20.1743
 136   2.0000      -0.738291       -20.0899
 137   2.0000      -0.728707       -19.8291
 138   2.0000      -0.717732       -19.5305
 139   2.0000      -0.710323       -19.3289
 140   2.0000      -0.702508       -19.1162
 141   2.0000      -0.699939       -19.0463
 142   2.0000      -0.694985       -18.9115
 143   2.0000      -0.680151       -18.5079
 144   2.0000      -0.675968       -18.3940
 145   2.0000      -0.665507       -18.1094
 146   2.0000      -0.663755       -18.0617
 147   2.0000      -0.656567       -17.8661
 148   2.0000      -0.650989       -17.7143
 149   2.0000      -0.641586       -17.4584
 150   2.0000      -0.636858       -17.3298
 151   2.0000      -0.630908       -17.1679
 152   2.0000      -0.628199       -17.0942
 153   2.0000      -0.626938       -17.0598
 154   2.0000      -0.619101       -16.8466
 155   2.0000      -0.616034       -16.7632
 156   2.0000      -0.611944       -16.6518
 157   2.0000      -0.604507       -16.4495
 158   2.0000      -0.603091       -16.4109
 159   2.0000      -0.598171       -16.2771
 160   2.0000      -0.590363       -16.0646
 161   2.0000      -0.589365       -16.0375
 162   2.0000      -0.587603       -15.9895
 163   2.0000      -0.579056       -15.7569
 164   2.0000      -0.576313       -15.6823
 165   2.0000      -0.574469       -15.6321
 166   2.0000      -0.573213       -15.5979
 167   2.0000      -0.570303       -15.5187
 168   2.0000      -0.569713       -15.5027
 169   2.0000      -0.555107       -15.1052
 170   2.0000      -0.545573       -14.8458
 171   2.0000      -0.544472       -14.8158
 172   2.0000      -0.538996       -14.6668
 173   2.0000      -0.534998       -14.5580
 174   2.0000      -0.532076       -14.4785
 175   2.0000      -0.529410       -14.4060
 176   2.0000      -0.525474       -14.2989
 177   2.0000      -0.523217       -14.2374
 178   2.0000      -0.521646       -14.1947
 179   2.0000      -0.518705       -14.1147
 180   2.0000      -0.518441       -14.1075
 181   2.0000      -0.516984       -14.0678
 182   2.0000      -0.513279       -13.9670
 183   2.0000      -0.507819       -13.8185
 184   2.0000      -0.504561       -13.7298
 185   2.0000      -0.499394       -13.5892
 186   2.0000      -0.495601       -13.4860
 187   2.0000      -0.490068       -13.3354
 188   2.0000      -0.488242       -13.2857
 189   2.0000      -0.484985       -13.1971
 190   2.0000      -0.483632       -13.1603
 191   2.0000      -0.483222       -13.1491
 192   2.0000      -0.481969       -13.1150
 193   2.0000      -0.481637       -13.1060
 194   2.0000      -0.477258       -12.9869
 195   2.0000      -0.472155       -12.8480
 196   2.0000      -0.469092       -12.7647
 197   2.0000      -0.467208       -12.7134
 198   2.0000      -0.466356       -12.6902
 199   2.0000      -0.464088       -12.6285
 200   2.0000      -0.463260       -12.6059
 201   2.0000      -0.461262       -12.5516
 202   2.0000      -0.457960       -12.4617
 203   2.0000      -0.456587       -12.4244
 204   2.0000      -0.454070       -12.3559
 205   2.0000      -0.452399       -12.3104
 206   2.0000      -0.449385       -12.2284
 207   2.0000      -0.446589       -12.1523
 208   2.0000      -0.444826       -12.1043
 209   2.0000      -0.443152       -12.0588
 210   2.0000      -0.440552       -11.9880
 211   2.0000      -0.438814       -11.9407
 212   2.0000      -0.434857       -11.8331
 213   2.0000      -0.431100       -11.7308
 214   2.0000      -0.430588       -11.7169
 215   2.0000      -0.429222       -11.6797
 216   2.0000      -0.429069       -11.6756
 217   2.0000      -0.428322       -11.6552
 218   2.0000      -0.427868       -11.6429
 219   2.0000      -0.426818       -11.6143
 220   2.0000      -0.425748       -11.5852
 221   2.0000      -0.424612       -11.5543
 222   2.0000      -0.423083       -11.5127
 223   2.0000      -0.421632       -11.4732
 224   2.0000      -0.419411       -11.4128
 225   2.0000      -0.415706       -11.3119
 226   2.0000      -0.410449       -11.1689
 227   2.0000      -0.409810       -11.1515
 228   2.0000      -0.405323       -11.0294
 229   2.0000      -0.403979       -10.9928
 230   2.0000      -0.402736       -10.9590
 231   2.0000      -0.400733       -10.9045
 232   2.0000      -0.396295       -10.7837
 233   2.0000      -0.396117       -10.7789
 234   2.0000      -0.393842       -10.7170
 235   2.0000      -0.392177       -10.6717
 236   2.0000      -0.391234       -10.6460
 237   2.0000      -0.388884       -10.5821
 238   2.0000      -0.388177       -10.5628
 239   2.0000      -0.387140       -10.5346
 240   2.0000      -0.384891       -10.4734
 241   2.0000      -0.383806       -10.4439
 242   2.0000      -0.382949       -10.4206
 243   2.0000      -0.380522       -10.3545
 244   2.0000      -0.379459       -10.3256
 245   2.0000      -0.378648       -10.3035
 246   2.0000      -0.375982       -10.2310
 247   2.0000      -0.373997       -10.1770
 248   2.0000      -0.373452       -10.1621
 249   2.0000      -0.370060       -10.0698
 250   2.0000      -0.369471       -10.0538
 251   2.0000      -0.366696        -9.9783
 252   2.0000      -0.365447        -9.9443
 253   2.0000      -0.364128        -9.9084
 254   2.0000      -0.363341        -9.8870
 255   2.0000      -0.362391        -9.8612
 256   2.0000      -0.361238        -9.8298
 257   2.0000      -0.359001        -9.7689
 258   2.0000      -0.355721        -9.6797
 259   2.0000      -0.354719        -9.6524
 260   2.0000      -0.353743        -9.6258
 261   2.0000      -0.350290        -9.5319
 262   2.0000      -0.345995        -9.4150
 263   2.0000      -0.343832        -9.3562
 264   2.0000      -0.342448        -9.3185
 265   2.0000      -0.340692        -9.2707
 266   2.0000      -0.338876        -9.2213
 267   2.0000      -0.334963        -9.1148
 268   2.0000      -0.332940        -9.0598
 269   2.0000      -0.331089        -9.0094
 270   2.0000      -0.329073        -8.9545
 271   2.0000      -0.323848        -8.8124
 272   2.0000      -0.316376        -8.6090
 273   2.0000      -0.309686        -8.4270
 274   2.0000      -0.302343        -8.2272
 275   2.0000      -0.295130        -8.0309
 276   2.0000      -0.293889        -7.9971
 277   2.0000      -0.291418        -7.9299
 278   2.0000      -0.285150        -7.7593
 279   2.0000      -0.277725        -7.5573
 280   2.0000      -0.277152        -7.5417
 281   2.0000      -0.274367        -7.4659
 282   2.0000      -0.265271        -7.2184
 283   2.0000      -0.260619        -7.0918
 284   2.0000      -0.255398        -6.9497
 285   2.0000      -0.238607        -6.4928
 286   2.0000      -0.230540        -6.2733
 287   2.0000      -0.223073        -6.0701
 288   2.0000      -0.200902        -5.4668
 289   0.0000      -0.132262        -3.5990
 290   0.0000      -0.121967        -3.3189
 291   0.0000      -0.107383        -2.9220
 292   0.0000      -0.101851        -2.7715
 293   0.0000      -0.068481        -1.8635

MULLIKEN ATOMIC CHARGES
-----------------------
   0 C :    0.202244
   1 O :   -0.335101
   2 C :    0.103239
   3 C :   -0.313895
   4 C :    0.285181
   5 C :    0.252741
   6 C :   -0.260927
   7 C :    0.075372
   8 C :    0.006824
   9 C :    0.154933
  10 C :   -0.221853
  11 N :    0.039388
  12 C :   -0.234184
  13 N :    0.043567
  14 C :   -0.015968
  15 F :   -0.177137
  16 C :   -0.181518
  17 F :   -0.180964
  18 C :    0.200328
  19 O :   -0.288432
  20 C :   -0.006916
  21 C :   -0.295272
  22 C :    0.281664
  23 C :    0.261673
  24 C :   -0.266596
  25 C :    0.116589
  26 C :   -0.001043
  27 C :    0.143417
  28 C :   -0.226427
  29 N :    0.036439
  30 C :   -0.245646
  31 N :    0.041544
  32 C :   -0.003748
  33 F :   -0.177742
  34 C :   -0.261018
  35 F :   -0.181497
  36 C :    0.073700
  37 C :   -0.347297
  38 C :    0.197421
  39 C :   -0.079619
  40 S :    0.089542
  41 N :   -0.015803
  42 C :    0.240997
  43 C :   -0.065463
  44 C :   -0.029396
  45 C :    0.016399
  46 S :   -0.029941
  47 C :    0.044166
  48 C :    0.025597
  49 C :   -0.128114
  50 C :    0.097629
  51 S :    0.005989
  52 C :   -0.029831
  53 C :    0.236273
  54 C :   -0.057989
  55 C :    0.231635
  56 N :    0.013701
  57 S :    0.013080
  58 C :    0.219547
  59 C :   -0.320465
  60 O :   -0.359715
  61 O :   -0.337273
  62 C :   -0.054769
  63 C :   -0.334787
  64 C :   -0.064743
  65 C :   -0.333204
  66 C :   -0.235772
  67 C :    0.048619
  68 C :   -0.179292
  69 C :   -0.365219
  70 C :   -0.187265
  71 C :   -0.331440
  72 C :   -0.221062
  73 C :    0.098481
  74 C :   -0.192314
  75 C :   -0.343010
  76 C :   -0.167266
  77 C :   -0.346147
  78 H :    0.147141
  79 H :    0.164817
  80 H :    0.161928
  81 H :    0.149958
  82 H :    0.161344
  83 H :    0.143188
  84 H :    0.148681
  85 H :    0.131827
  86 H :    0.117246
  87 H :    0.110033
  88 H :    0.126696
  89 H :    0.121012
  90 H :    0.129093
  91 H :    0.121459
  92 H :    0.114211
  93 H :    0.124936
  94 H :    0.126928
  95 H :    0.119898
  96 H :    0.118945
  97 H :    0.151429
  98 H :    0.072938
  99 H :    0.088455
 100 H :    0.106418
 101 H :    0.106744
 102 H :    0.108382
 103 H :    0.135012
 104 H :    0.083453
 105 H :    0.093928
 106 H :    0.105653
 107 H :    0.114697
 108 H :    0.106074
 109 H :    0.139670
 110 H :    0.130901
 111 H :    0.026151
 112 H :    0.090990
 113 H :    0.085172
 114 H :    0.101966
 115 H :    0.115735
 116 H :    0.123249
 117 H :    0.089921
 118 H :    0.094000
 119 H :    0.104482
 120 H :    0.116353
 121 H :    0.104043
Sum of atomic charges:    0.0000000

LOEWDIN ATOMIC CHARGES
----------------------
   0 C :   -0.257720
   1 O :    0.121955
   2 C :   -0.058306
   3 C :   -0.047370
   4 C :   -0.225288
   5 C :   -0.223976
   6 C :   -0.048651
   7 C :   -0.043413
   8 C :    0.010003
   9 C :   -0.136661
  10 C :   -0.168835
  11 N :    0.076780
  12 C :   -0.164852
  13 N :    0.082060
  14 C :   -0.092080
  15 F :    0.216064
  16 C :   -0.054793
  17 F :    0.212631
  18 C :   -0.256834
  19 O :    0.134246
  20 C :   -0.057775
  21 C :   -0.046220
  22 C :   -0.225432
  23 C :   -0.223396
  24 C :   -0.050646
  25 C :   -0.043668
  26 C :   -0.004393
  27 C :   -0.151143
  28 C :   -0.177753
  29 N :    0.086546
  30 C :   -0.163810
  31 N :    0.082149
  32 C :   -0.091637
  33 F :    0.215852
  34 C :   -0.058508
  35 F :    0.211896
  36 C :   -0.321769
  37 C :   -0.103794
  38 C :   -0.186793
  39 C :   -0.338450
  40 S :    0.790873
  41 N :    0.297860
  42 C :   -0.125699
  43 C :   -0.353939
  44 C :   -0.095050
  45 C :   -0.261182
  46 S :    0.724812
  47 C :   -0.242715
  48 C :   -0.275113
  49 C :   -0.091081
  50 C :   -0.227015
  51 S :    0.755174
  52 C :   -0.350571
  53 C :   -0.127718
  54 C :   -0.338885
  55 C :   -0.182500
  56 N :    0.311521
  57 S :    0.795228
  58 C :   -0.328268
  59 C :   -0.095991
  60 O :    0.231790
  61 O :    0.263686
  62 C :   -0.337563
  63 C :   -0.305805
  64 C :   -0.341686
  65 C :   -0.296796
  66 C :   -0.217767
  67 C :   -0.248183
  68 C :   -0.256151
  69 C :   -0.300087
  70 C :   -0.263234
  71 C :   -0.300693
  72 C :   -0.210222
  73 C :   -0.252209
  74 C :   -0.257731
  75 C :   -0.303562
  76 C :   -0.256667
  77 C :   -0.301606
  78 H :    0.163540
  79 H :    0.169492
  80 H :    0.179250
  81 H :    0.164435
  82 H :    0.167875
  83 H :    0.172012
  84 H :    0.150462
  85 H :    0.151435
  86 H :    0.126852
  87 H :    0.124311
  88 H :    0.117608
  89 H :    0.125863
  90 H :    0.124791
  91 H :    0.127878
  92 H :    0.121439
  93 H :    0.123638
  94 H :    0.127498
  95 H :    0.119387
  96 H :    0.139748
  97 H :    0.148407
  98 H :    0.151155
  99 H :    0.135058
 100 H :    0.139956
 101 H :    0.117627
 102 H :    0.118145
 103 H :    0.123323
 104 H :    0.133442
 105 H :    0.134220
 106 H :    0.117393
 107 H :    0.118373
 108 H :    0.116085
 109 H :    0.150281
 110 H :    0.145472
 111 H :    0.154301
 112 H :    0.137912
 113 H :    0.131039
 114 H :    0.115632
 115 H :    0.119655
 116 H :    0.120408
 117 H :    0.137187
 118 H :    0.136613
 119 H :    0.115165
 120 H :    0.119482
 121 H :    0.114689

  Mayer bond orders larger than 0.100000
B(  0-C ,  1-O ) :   2.0144 B(  0-C ,  2-C ) :   1.0366 B(  0-C , 14-C ) :   1.0230
B(  1-O ,  2-C ) :  -0.1513 B(  2-C ,  3-C ) :   1.3067 B(  2-C ,  7-C ) :   1.3376
B(  3-C ,  4-C ) :   1.3545 B(  3-C , 78-H ) :   0.9851 B(  4-C ,  5-C ) :   1.3469
B(  4-C , 17-F ) :   1.0615 B(  5-C ,  6-C ) :   1.3858 B(  5-C , 15-F ) :   1.0837
B(  6-C ,  7-C ) :   1.3307 B(  6-C , 79-H ) :   0.9280 B(  7-C ,  8-C ) :   1.0451
B(  8-C ,  9-C ) :   1.4568 B(  8-C , 14-C ) :   1.1572 B(  9-C , 10-C ) :   1.0361
B(  9-C , 12-C ) :   1.0225 B( 10-C , 11-N ) :   2.9829 B( 12-C , 13-N ) :   2.9886
B( 14-C , 16-C ) :   1.3822 B( 16-C , 36-C ) :   1.3095 B( 16-C , 80-H ) :   0.8889
B( 18-C , 19-O ) :   2.1894 B( 18-C , 20-C ) :   0.9555 B( 18-C , 32-C ) :   1.0036
B( 19-O , 20-C ) :  -0.1514 B( 19-O , 32-C ) :  -0.1485 B( 19-O , 34-C ) :   0.1122
B( 20-C , 21-C ) :   1.3095 B( 20-C , 25-C ) :   1.3232 B( 21-C , 22-C ) :   1.3569
B( 21-C , 81-H ) :   0.9837 B( 22-C , 23-C ) :   1.3439 B( 22-C , 35-F ) :   1.0603
B( 23-C , 24-C ) :   1.3870 B( 23-C , 33-F ) :   1.0727 B( 24-C , 25-C ) :   1.3090
B( 24-C , 82-H ) :   0.9460 B( 25-C , 26-C ) :   1.0396 B( 26-C , 27-C ) :   1.4233
B( 26-C , 32-C ) :   1.1600 B( 27-C , 28-C ) :   1.0337 B( 27-C , 30-C ) :   1.0509
B( 28-C , 29-N ) :   2.9947 B( 30-C , 31-N ) :   2.9956 B( 32-C , 34-C ) :   1.4976
B( 34-C , 58-C ) :   1.1029 B( 34-C , 83-H ) :   0.9530 B( 36-C , 37-C ) :   1.3418
B( 36-C , 40-S ) :   1.2608 B( 37-C , 38-C ) :   1.3796 B( 37-C , 40-S ) :   0.1044
B( 37-C , 84-H ) :   0.9368 B( 38-C , 39-C ) :   1.1759 B( 38-C , 41-N ) :   1.1365
B( 39-C , 40-S ) :   1.4135 B( 39-C , 43-C ) :   1.1500 B( 41-N , 42-C ) :   1.1562
B( 41-N , 72-C ) :   0.8720 B( 42-C , 43-C ) :   1.2792 B( 42-C , 44-C ) :   1.1292
B( 43-C , 46-S ) :   1.2800 B( 44-C , 45-C ) :   1.2441 B( 44-C , 47-C ) :   1.2073
B( 45-C , 46-S ) :   1.1580 B( 45-C , 50-C ) :   1.3777 B( 47-C , 48-C ) :   1.4035
B( 47-C , 60-O ) :   1.0879 B( 48-C , 49-C ) :   1.3325 B( 48-C , 51-S ) :   1.2619
B( 49-C , 50-C ) :   1.2388 B( 49-C , 51-S ) :   0.1009 B( 49-C , 53-C ) :   1.1066
B( 50-C , 61-O ) :   1.1229 B( 51-S , 52-C ) :   1.2365 B( 52-C , 53-C ) :   1.3114
B( 52-C , 54-C ) :   1.1412 B( 53-C , 56-N ) :   1.1751 B( 54-C , 55-C ) :   1.2532
B( 54-C , 57-S ) :   1.2903 B( 55-C , 56-N ) :   1.1539 B( 55-C , 59-C ) :   1.3182
B( 56-N , 66-C ) :   0.8943 B( 57-S , 58-C ) :   1.1515 B( 57-S , 59-C ) :   0.1270
B( 58-C , 59-C ) :   1.4363 B( 59-C , 85-H ) :   0.9544 B( 60-O , 62-C ) :   0.9013
B( 61-O , 64-C ) :   0.9034 B( 62-C , 63-C ) :   0.9660 B( 62-C , 86-H ) :   0.9549
B( 62-C , 87-H ) :   0.9646 B( 63-C , 88-H ) :   0.9705 B( 63-C , 89-H ) :   0.9620
B( 63-C , 90-H ) :   0.9756 B( 64-C , 65-C ) :   0.9745 B( 64-C , 91-H ) :   0.9601
B( 64-C , 92-H ) :   0.9459 B( 65-C , 93-H ) :   0.9797 B( 65-C , 94-H ) :   0.9659
B( 65-C , 95-H ) :   0.9728 B( 66-C , 67-C ) :   0.9282 B( 66-C , 96-H ) :   0.9746
B( 66-C , 97-H ) :   0.9636 B( 67-C , 68-C ) :   0.9105 B( 67-C , 70-C ) :   0.9155
B( 67-C , 98-H ) :   0.9808 B( 68-C , 69-C ) :   0.9541 B( 68-C , 99-H ) :   0.9693
B( 68-C ,100-H ) :   0.9664 B( 69-C ,101-H ) :   0.9746 B( 69-C ,102-H ) :   0.9782
B( 69-C ,103-H ) :   0.9764 B( 70-C , 71-C ) :   0.9707 B( 70-C ,104-H ) :   0.9741
B( 70-C ,105-H ) :   0.9669 B( 71-C ,106-H ) :   0.9781 B( 71-C ,107-H ) :   0.9812
B( 71-C ,108-H ) :   0.9740 B( 72-C , 73-C ) :   0.9323 B( 72-C ,109-H ) :   0.9780
B( 72-C ,110-H ) :   0.9614 B( 73-C , 74-C ) :   0.9468 B( 73-C , 76-C ) :   0.9387
B( 73-C ,111-H ) :   0.9677 B( 74-C , 75-C ) :   0.9494 B( 74-C ,112-H ) :   0.9649
B( 74-C ,113-H ) :   0.9760 B( 75-C ,114-H ) :   0.9718 B( 75-C ,115-H ) :   0.9795
B( 75-C ,116-H ) :   0.9787 B( 76-C , 77-C ) :   0.9680 B( 76-C ,117-H ) :   0.9690
B( 76-C ,118-H ) :   0.9634 B( 77-C ,119-H ) :   0.9805 B( 77-C ,120-H ) :   0.9798
B( 77-C ,121-H ) :   0.9733

-----------------------------------------------------------------------------
  SOC CORRECTED ABSORPTION SPECTRUM VIA TRANSITION ELECTRIC DIPOLE MOMENTS*
-----------------------------------------------------------------------------
State   Energy  Wavelength   fosc         T2         TX        TY        TZ
        (cm-1)    (nm)                  (au**2)     (au)      (au)      (au)
-----------------------------------------------------------------------------
   1    9774.4   1023.1   0.000000003   0.00000   0.00010   0.00030   0.00004
   2    9774.4   1023.1   0.000000006   0.00000   0.00018   0.00040   0.00001
   3    9774.4   1023.1   0.000000013   0.00000   0.00029   0.00059   0.00009
   4   11855.0    843.5   0.000000005   0.00000   0.00034   0.00002   0.00016
   5   11855.0    843.5   0.000000000   0.00000   0.00003   0.00010   0.00003
   6   11855.0    843.5   0.000000014   0.00000   0.00029   0.00056   0.00000
   7   13951.7    716.8   1.840522657  43.43009   3.38185   5.65600   0.05392
   8   14512.1    689.1   0.000000002   0.00000   0.00013   0.00020   0.00001
   9   14512.1    689.1   0.000003667   0.00008   0.00469   0.00782   0.00015
  10   14512.1    689.1   0.000000794   0.00002   0.00228   0.00358   0.00007
  11   15722.7    636.0   0.008644937   0.18101   0.17024   0.38245   0.07593
  12   17253.0    579.6   0.773579144  14.76099   1.63240   3.46049   0.34821

FINAL SINGLE POINT ENERGY     -4933.422771152480

DIPOLE MOMENT
-------------
                                X             Y             Z
Electronic contribution:      3.99275       7.55410      -7.67046
Nuclear contribution   :     -5.57548      -9.15199       7.19561
                        -----------------------------------------
Total Dipole Moment    :     -1.58273      -1.59789      -0.47485
                        -----------------------------------------
Magnitude (a.u.)       :      2.29864
Magnitude (Debye)      :      5.84269

Rotational constants in cm-1:     0.001877     0.000231     0.000214
Rotational constants in MHz :    56.265972     6.927801     6.420128

                             ****ORCA TERMINATED NORMALLY****
TOTAL RUN TIME: 0 days 17 hours 11 minutes 20 seconds 391 msec
