                         Program Version 4.2.0 -  RELEASE  -
|  1> # ORCA input file
|  2> # BDTN-BF.out: Geometry 82
|  3> ! B3LYP def2-TZVP def2/J RIJCOSX Grid4 TightSCF
|  4>
|  5> %maxcore 6000
|  6> %tddft
|  7>   maxdim 5
|  8>   nroots 3
|  9>   dosoc true
| 10>   end
| 11> %pal
| 12>   nprocs 6
| 13>   end
| 14>
| 15>
| 16> * xyz 0 1
| 17>    C        3.93011         2.07820         0.29023
| 18>    O        3.63391         0.89970         0.19207
| 19>    C        3.00847         3.21845         0.07316
| 20>    C        1.67110         3.16179        -0.29983
| 21>    C        1.00811         4.36848        -0.48873
| 22>    C        1.68160         5.58878        -0.30056
| 23>    C        3.01898         5.64112         0.08614
| 24>    C        3.69866         4.42908         0.27303
| 25>    C        5.10379         4.12063         0.64904
| 26>    C        6.08081         5.07421         0.88405
| 27>    C        7.43729         4.76367         1.21222
| 28>    N        8.54960         4.55090         1.47610
| 29>    C        5.83943         6.47994         0.78984
| 30>    N        5.68055         7.62903         0.71658
| 31>    C        5.24252         2.66321         0.65419
| 32>    F        1.00360         6.71474        -0.50811
| 33>    C        6.39147         1.94259         0.92253
| 34>    F       -0.26801         4.39680        -0.86216
| 35>    C       12.81899       -16.15866         0.87892
| 36>    O       11.89562       -16.94166         0.94482
| 37>    C       14.09956       -16.19373         1.64901
| 38>    C       14.46336       -17.05367         2.68079
| 39>    C       15.68519       -16.82332         3.30671
| 40>    C       16.52061       -15.76911         2.89442
| 41>    C       16.17205       -14.92628         1.84278
| 42>    C       14.93628       -15.13962         1.22197
| 43>    C       14.26429       -14.42352         0.11475
| 44>    C       14.88649       -13.64371        -0.84166
| 45>    C       14.21986       -13.24752        -2.04317
| 46>    N       13.69694       -12.95514        -3.03855
| 47>    C       16.25823       -13.25812        -0.73946
| 48>    N       17.36962       -12.93168        -0.64313
| 49>    C       12.88618       -14.89088         0.08136
| 50>    F       17.66462       -15.57929         3.54680
| 51>    C       11.71762       -14.29354        -0.32438
| 52>    F       16.08688       -17.58538         4.32014
| 53>    C        6.73786         0.57759         0.76650
| 54>    C        8.06162         0.15510         1.01789
| 55>    C        8.28136        -1.16374         0.61192
| 56>    C        7.12239        -1.77041         0.06693
| 57>    S        5.74219        -0.72973         0.07430
| 58>    N        9.35341        -2.04451         0.54499
| 59>    C        8.87981        -3.22564        -0.02340
| 60>    C        7.50348        -3.05954        -0.32184
| 61>    C        9.34187        -4.57125        -0.31051
| 62>    C        8.25153        -5.34029        -0.84754
| 63>    S        6.72732        -4.46828        -0.98180
| 64>    C       10.56264        -5.25975        -0.09841
| 65>    C       10.59483        -6.64265        -0.29972
| 66>    C        9.50300        -7.40000        -0.85335
| 67>    C        8.33185        -6.69113        -1.18164
| 68>    S       11.97746        -7.63126         0.18095
| 69>    C       11.13233        -9.05307        -0.36116
| 70>    C        9.84357        -8.80131        -0.89053
| 71>    C       11.33695       -10.43662        -0.39299
| 72>    C       10.16079       -11.01016        -0.93757
| 73>    N        9.24994       -10.00967        -1.23460
| 74>    S       12.51140       -11.62955         0.01593
| 75>    C       11.42334       -12.91991        -0.53919
| 76>    C       10.20423       -12.41267        -1.00906
| 77>    O       11.68526        -4.63107         0.36867
| 78>    O        7.24259        -7.29910        -1.74205
| 79>    C       12.57051        -4.07856        -0.62750
| 80>    C       13.50903        -5.07281        -1.28212
| 81>    C        7.00022        -7.01392        -3.13483
| 82>    C        5.53885        -7.26911        -3.42441
| 83>    C        7.95596       -10.29853        -1.84539
| 84>    C        6.94375       -11.03083        -0.93944
| 85>    C        6.23258       -10.10362         0.05915
| 86>    C        7.11479        -9.44070         1.11444
| 87>    C        5.93627       -11.76684        -1.84296
| 88>    C        4.97990       -12.70757        -1.11188
| 89>    C       10.71503        -1.62659         0.85974
| 90>    C       11.49986        -0.89450        -0.25615
| 91>    C       10.73648         0.22339        -0.99366
| 92>    C        9.84204        -0.26015        -2.13592
| 93>    C       12.79971        -0.36945         0.38083
| 94>    C       13.88574         0.02472        -0.61874
| 95>    H        1.16317         2.20860        -0.45443
| 96>    H        3.47570         6.61929         0.22263
| 97>    H        7.24536         2.51893         1.27991
| 98>    H       13.81337       -17.86732         3.00763
| 99>    H       16.85889       -14.12942         1.56131
|100>    H       10.85031       -14.96547        -0.33748
|101>    H        8.80241         0.83145         1.44224
|102>    H        9.40584       -13.06321        -1.36432
|103>    H       13.14675        -3.31430        -0.08687
|104>    H       11.96327        -3.57110        -1.39358
|105>    H       14.11929        -5.60215        -0.53575
|106>    H       14.18674        -4.51964        -1.95376
|107>    H       12.97045        -5.81910        -1.88242
|108>    H        7.65648        -7.65700        -3.74820
|109>    H        7.26990        -5.96678        -3.34570
|110>    H        5.27289        -8.32032        -3.23363
|111>    H        5.31281        -7.03824        -4.47682
|112>    H        4.90811        -6.63512        -2.78552
|113>    H        8.15763       -10.91895        -2.73405
|114>    H        7.52555        -9.35377        -2.18209
|115>    H        7.49327       -11.79927        -0.36459
|116>    H        5.46021       -10.69270         0.57873
|117>    H        5.69445        -9.32676        -0.51204
|118>    H        7.71908       -10.18303         1.66234
|119>    H        6.49507        -8.90579         1.85135
|120>    H        7.80392        -8.70498         0.68312
|121>    H        6.50147       -12.35085        -2.59056
|122>    H        5.35923       -11.01961        -2.41949
|123>    H        5.53711       -13.43379        -0.49631
|124>    H        4.36587       -13.27884        -1.82579
|125>    H        4.28887       -12.16846        -0.44577
|126>    H       11.27018        -2.51574         1.18396
|127>    H       10.63980        -0.95988         1.73340
|128>    H       11.77338        -1.63962        -1.01725
|129>    H       11.47735         0.91990        -1.41746
|130>    H       10.15922         0.82640        -0.27669
|131>    H       10.44316        -0.77685        -2.90248
|132>    H        9.33426         0.58482        -2.62608
|133>    H        9.06491        -0.96079        -1.80250
|134>    H       13.20611        -1.13563         1.06509
|135>    H       12.54644         0.49383         1.02205
|136>    H       14.21435        -0.84473        -1.21284
|137>    H       14.76957         0.42960        -0.10182
|138>    H       13.54136         0.79461        -1.32651
|139> *
|140>
|141>                          ****END OF INPUT****

CARTESIAN COORDINATES (ANGSTROEM)
---------------------------------
  C      3.930110    2.078200    0.290230
  O      3.633910    0.899700    0.192070
  C      3.008470    3.218450    0.073160
  C      1.671100    3.161790   -0.299830
  C      1.008110    4.368480   -0.488730
  C      1.681600    5.588780   -0.300560
  C      3.018980    5.641120    0.086140
  C      3.698660    4.429080    0.273030
  C      5.103790    4.120630    0.649040
  C      6.080810    5.074210    0.884050
  C      7.437290    4.763670    1.212220
  N      8.549600    4.550900    1.476100
  C      5.839430    6.479940    0.789840
  N      5.680550    7.629030    0.716580
  C      5.242520    2.663210    0.654190
  F      1.003600    6.714740   -0.508110
  C      6.391470    1.942590    0.922530
  F     -0.268010    4.396800   -0.862160
  C     12.818990  -16.158660    0.878920
  O     11.895620  -16.941660    0.944820
  C     14.099560  -16.193730    1.649010
  C     14.463360  -17.053670    2.680790
  C     15.685190  -16.823320    3.306710
  C     16.520610  -15.769110    2.894420
  C     16.172050  -14.926280    1.842780
  C     14.936280  -15.139620    1.221970
  C     14.264290  -14.423520    0.114750
  C     14.886490  -13.643710   -0.841660
  C     14.219860  -13.247520   -2.043170
  N     13.696940  -12.955140   -3.038550
  C     16.258230  -13.258120   -0.739460
  N     17.369620  -12.931680   -0.643130
  C     12.886180  -14.890880    0.081360
  F     17.664620  -15.579290    3.546800
  C     11.717620  -14.293540   -0.324380
  F     16.086880  -17.585380    4.320140
  C      6.737860    0.577590    0.766500
  C      8.061620    0.155100    1.017890
  C      8.281360   -1.163740    0.611920
  C      7.122390   -1.770410    0.066930
  S      5.742190   -0.729730    0.074300
  N      9.353410   -2.044510    0.544990
  C      8.879810   -3.225640   -0.023400
  C      7.503480   -3.059540   -0.321840
  C      9.341870   -4.571250   -0.310510
  C      8.251530   -5.340290   -0.847540
  S      6.727320   -4.468280   -0.981800
  C     10.562640   -5.259750   -0.098410
  C     10.594830   -6.642650   -0.299720
  C      9.503000   -7.400000   -0.853350
  C      8.331850   -6.691130   -1.181640
  S     11.977460   -7.631260    0.180950
  C     11.132330   -9.053070   -0.361160
  C      9.843570   -8.801310   -0.890530
  C     11.336950  -10.436620   -0.392990
  C     10.160790  -11.010160   -0.937570
  N      9.249940  -10.009670   -1.234600
  S     12.511400  -11.629550    0.015930
  C     11.423340  -12.919910   -0.539190
  C     10.204230  -12.412670   -1.009060
  O     11.685260   -4.631070    0.368670
  O      7.242590   -7.299100   -1.742050
  C     12.570510   -4.078560   -0.627500
  C     13.509030   -5.072810   -1.282120
  C      7.000220   -7.013920   -3.134830
  C      5.538850   -7.269110   -3.424410
  C      7.955960  -10.298530   -1.845390
  C      6.943750  -11.030830   -0.939440
  C      6.232580  -10.103620    0.059150
  C      7.114790   -9.440700    1.114440
  C      5.936270  -11.766840   -1.842960
  C      4.979900  -12.707570   -1.111880
  C     10.715030   -1.626590    0.859740
  C     11.499860   -0.894500   -0.256150
  C     10.736480    0.223390   -0.993660
  C      9.842040   -0.260150   -2.135920
  C     12.799710   -0.369450    0.380830
  C     13.885740    0.024720   -0.618740
  H      1.163170    2.208600   -0.454430
  H      3.475700    6.619290    0.222630
  H      7.245360    2.518930    1.279910
  H     13.813370  -17.867320    3.007630
  H     16.858890  -14.129420    1.561310
  H     10.850310  -14.965470   -0.337480
  H      8.802410    0.831450    1.442240
  H      9.405840  -13.063210   -1.364320
  H     13.146750   -3.314300   -0.086870
  H     11.963270   -3.571100   -1.393580
  H     14.119290   -5.602150   -0.535750
  H     14.186740   -4.519640   -1.953760
  H     12.970450   -5.819100   -1.882420
  H      7.656480   -7.657000   -3.748200
  H      7.269900   -5.966780   -3.345700
  H      5.272890   -8.320320   -3.233630
  H      5.312810   -7.038240   -4.476820
  H      4.908110   -6.635120   -2.785520
  H      8.157630  -10.918950   -2.734050
  H      7.525550   -9.353770   -2.182090
  H      7.493270  -11.799270   -0.364590
  H      5.460210  -10.692700    0.578730
  H      5.694450   -9.326760   -0.512040
  H      7.719080  -10.183030    1.662340
  H      6.495070   -8.905790    1.851350
  H      7.803920   -8.704980    0.683120
  H      6.501470  -12.350850   -2.590560
  H      5.359230  -11.019610   -2.419490
  H      5.537110  -13.433790   -0.496310
  H      4.365870  -13.278840   -1.825790
  H      4.288870  -12.168460   -0.445770
  H     11.270180   -2.515740    1.183960
  H     10.639800   -0.959880    1.733400
  H     11.773380   -1.639620   -1.017250
  H     11.477350    0.919900   -1.417460
  H     10.159220    0.826400   -0.276690
  H     10.443160   -0.776850   -2.902480
  H      9.334260    0.584820   -2.626080
  H      9.064910   -0.960790   -1.802500
  H     13.206110   -1.135630    1.065090
  H     12.546440    0.493830    1.022050
  H     14.214350   -0.844730   -1.212840
  H     14.769570    0.429600   -0.101820
  H     13.541360    0.794610   -1.326510

 Total Charge           Charge          ....    0
 Multiplicity           Mult            ....    1
 Number of Electrons    NEL             ....  578
 Basis Dimension        Dim             .... 2706

ORBITAL ENERGIES
----------------

  NO   OCC          E(Eh)            E(eV)
   0   2.0000     -88.906828     -2419.2778
   1   2.0000     -88.905863     -2419.2515
   2   2.0000     -88.904493     -2419.2142
   3   2.0000     -88.903627     -2419.1907
   4   2.0000     -24.726024      -672.8293
   5   2.0000     -24.725113      -672.8045
   6   2.0000     -24.724365      -672.7842
   7   2.0000     -24.723863      -672.7705
   8   2.0000     -19.179723      -521.9068
   9   2.0000     -19.176151      -521.8096
  10   2.0000     -19.135000      -520.6898
  11   2.0000     -19.131634      -520.5982
  12   2.0000     -14.399940      -391.8423
  13   2.0000     -14.399309      -391.8251
  14   2.0000     -14.335357      -390.0849
  15   2.0000     -14.331991      -389.9933
  16   2.0000     -14.330910      -389.9639
  17   2.0000     -14.328113      -389.8878
  18   2.0000     -10.299436      -280.2619
  19   2.0000     -10.299394      -280.2608
  20   2.0000     -10.298849      -280.2459
  21   2.0000     -10.298828      -280.2454
  22   2.0000     -10.280104      -279.7358
  23   2.0000     -10.279521      -279.7200
  24   2.0000     -10.270464      -279.4735
  25   2.0000     -10.269232      -279.4400
  26   2.0000     -10.261321      -279.2247
  27   2.0000     -10.261095      -279.2186
  28   2.0000     -10.260474      -279.2017
  29   2.0000     -10.257251      -279.1140
  30   2.0000     -10.257109      -279.1101
  31   2.0000     -10.254750      -279.0459
  32   2.0000     -10.252823      -278.9935
  33   2.0000     -10.252638      -278.9885
  34   2.0000     -10.242099      -278.7017
  35   2.0000     -10.241135      -278.6754
  36   2.0000     -10.240783      -278.6659
  37   2.0000     -10.240751      -278.6650
  38   2.0000     -10.240472      -278.6574
  39   2.0000     -10.239874      -278.6411
  40   2.0000     -10.236015      -278.5361
  41   2.0000     -10.235731      -278.5284
  42   2.0000     -10.234474      -278.4942
  43   2.0000     -10.233129      -278.4576
  44   2.0000     -10.232933      -278.4523
  45   2.0000     -10.232931      -278.4522
  46   2.0000     -10.232269      -278.4342
  47   2.0000     -10.232254      -278.4338
  48   2.0000     -10.232030      -278.4277
  49   2.0000     -10.231984      -278.4264
  50   2.0000     -10.231404      -278.4107
  51   2.0000     -10.231193      -278.4049
  52   2.0000     -10.230726      -278.3922
  53   2.0000     -10.230008      -278.3727
  54   2.0000     -10.228908      -278.3427
  55   2.0000     -10.226945      -278.2893
  56   2.0000     -10.223970      -278.2084
  57   2.0000     -10.222452      -278.1671
  58   2.0000     -10.221798      -278.1493
  59   2.0000     -10.220958      -278.1264
  60   2.0000     -10.220956      -278.1263
  61   2.0000     -10.220747      -278.1207
  62   2.0000     -10.218856      -278.0692
  63   2.0000     -10.216268      -277.9988
  64   2.0000     -10.215858      -277.9876
  65   2.0000     -10.213635      -277.9272
  66   2.0000     -10.197966      -277.5008
  67   2.0000     -10.197146      -277.4785
  68   2.0000     -10.191675      -277.3296
  69   2.0000     -10.189649      -277.2744
  70   2.0000     -10.188931      -277.2549
  71   2.0000     -10.185416      -277.1593
  72   2.0000     -10.183146      -277.0975
  73   2.0000     -10.179529      -276.9991
  74   2.0000     -10.178891      -276.9817
  75   2.0000     -10.177121      -276.9335
  76   2.0000     -10.172902      -276.8187
  77   2.0000     -10.168751      -276.7058
  78   2.0000      -7.982787      -217.2227
  79   2.0000      -7.981826      -217.1965
  80   2.0000      -7.979446      -217.1318
  81   2.0000      -7.978903      -217.1170
  82   2.0000      -5.945580      -161.7875
  83   2.0000      -5.944761      -161.7652
  84   2.0000      -5.942517      -161.7041
  85   2.0000      -5.941892      -161.6871
  86   2.0000      -5.941829      -161.6854
  87   2.0000      -5.941142      -161.6667
  88   2.0000      -5.938802      -161.6030
  89   2.0000      -5.938768      -161.6021
  90   2.0000      -5.937884      -161.5780
  91   2.0000      -5.937449      -161.5662
  92   2.0000      -5.934903      -161.4969
  93   2.0000      -5.934875      -161.4961
  94   2.0000      -1.271379       -34.5960
  95   2.0000      -1.271129       -34.5892
  96   2.0000      -1.256897       -34.2019
  97   2.0000      -1.256752       -34.1979
  98   2.0000      -1.092943       -29.7405
  99   2.0000      -1.087537       -29.5934
 100   2.0000      -1.062350       -28.9080
 101   2.0000      -1.059378       -28.8271
 102   2.0000      -1.022858       -27.8334
 103   2.0000      -1.022505       -27.8238
 104   2.0000      -0.938480       -25.5373
 105   2.0000      -0.936572       -25.4854
 106   2.0000      -0.921652       -25.0794
 107   2.0000      -0.919560       -25.0225
 108   2.0000      -0.918921       -25.0051
 109   2.0000      -0.918130       -24.9836
 110   2.0000      -0.916088       -24.9280
 111   2.0000      -0.904481       -24.6122
 112   2.0000      -0.902313       -24.5532
 113   2.0000      -0.895467       -24.3669
 114   2.0000      -0.873465       -23.7682
 115   2.0000      -0.873015       -23.7559
 116   2.0000      -0.854554       -23.2536
 117   2.0000      -0.844250       -22.9732
 118   2.0000      -0.832654       -22.6577
 119   2.0000      -0.825506       -22.4631
 120   2.0000      -0.823201       -22.4004
 121   2.0000      -0.817010       -22.2320
 122   2.0000      -0.814076       -22.1521
 123   2.0000      -0.807648       -21.9772
 124   2.0000      -0.795628       -21.6501
 125   2.0000      -0.795538       -21.6477
 126   2.0000      -0.790203       -21.5025
 127   2.0000      -0.788655       -21.4604
 128   2.0000      -0.780822       -21.2473
 129   2.0000      -0.773629       -21.0515
 130   2.0000      -0.769364       -20.9355
 131   2.0000      -0.768988       -20.9252
 132   2.0000      -0.765761       -20.8374
 133   2.0000      -0.763353       -20.7719
 134   2.0000      -0.755974       -20.5711
 135   2.0000      -0.738978       -20.1086
 136   2.0000      -0.735299       -20.0085
 137   2.0000      -0.726137       -19.7592
 138   2.0000      -0.716063       -19.4851
 139   2.0000      -0.708753       -19.2862
 140   2.0000      -0.699150       -19.0248
 141   2.0000      -0.695534       -18.9264
 142   2.0000      -0.692085       -18.8326
 143   2.0000      -0.676956       -18.4209
 144   2.0000      -0.669009       -18.2047
 145   2.0000      -0.665707       -18.1148
 146   2.0000      -0.663248       -18.0479
 147   2.0000      -0.655764       -17.8443
 148   2.0000      -0.646530       -17.5930
 149   2.0000      -0.640872       -17.4390
 150   2.0000      -0.634671       -17.2703
 151   2.0000      -0.630830       -17.1658
 152   2.0000      -0.628412       -17.1000
 153   2.0000      -0.627413       -17.0728
 154   2.0000      -0.616619       -16.7791
 155   2.0000      -0.612475       -16.6663
 156   2.0000      -0.611757       -16.6468
 157   2.0000      -0.606023       -16.4907
 158   2.0000      -0.602366       -16.3912
 159   2.0000      -0.597807       -16.2671
 160   2.0000      -0.590776       -16.0758
 161   2.0000      -0.587171       -15.9777
 162   2.0000      -0.583049       -15.8656
 163   2.0000      -0.580062       -15.7843
 164   2.0000      -0.575123       -15.6499
 165   2.0000      -0.572878       -15.5888
 166   2.0000      -0.570724       -15.5302
 167   2.0000      -0.570259       -15.5175
 168   2.0000      -0.569422       -15.4948
 169   2.0000      -0.551946       -15.0192
 170   2.0000      -0.547022       -14.8852
 171   2.0000      -0.543876       -14.7996
 172   2.0000      -0.540108       -14.6971
 173   2.0000      -0.537248       -14.6193
 174   2.0000      -0.532143       -14.4803
 175   2.0000      -0.527431       -14.3521
 176   2.0000      -0.523378       -14.2418
 177   2.0000      -0.520625       -14.1669
 178   2.0000      -0.520496       -14.1634
 179   2.0000      -0.519475       -14.1356
 180   2.0000      -0.517709       -14.0876
 181   2.0000      -0.513315       -13.9680
 182   2.0000      -0.504065       -13.7163
 183   2.0000      -0.503565       -13.7027
 184   2.0000      -0.500967       -13.6320
 185   2.0000      -0.497686       -13.5427
 186   2.0000      -0.492430       -13.3997
 187   2.0000      -0.488046       -13.2804
 188   2.0000      -0.485830       -13.2201
 189   2.0000      -0.485666       -13.2157
 190   2.0000      -0.485054       -13.1990
 191   2.0000      -0.480883       -13.0855
 192   2.0000      -0.480218       -13.0674
 193   2.0000      -0.479522       -13.0485
 194   2.0000      -0.475400       -12.9363
 195   2.0000      -0.473053       -12.8724
 196   2.0000      -0.467923       -12.7328
 197   2.0000      -0.465204       -12.6589
 198   2.0000      -0.463342       -12.6082
 199   2.0000      -0.462658       -12.5896
 200   2.0000      -0.460283       -12.5249
 201   2.0000      -0.458473       -12.4757
 202   2.0000      -0.456173       -12.4131
 203   2.0000      -0.455457       -12.3936
 204   2.0000      -0.455081       -12.3834
 205   2.0000      -0.453229       -12.3330
 206   2.0000      -0.448738       -12.2108
 207   2.0000      -0.446388       -12.1468
 208   2.0000      -0.444660       -12.0998
 209   2.0000      -0.443111       -12.0577
 210   2.0000      -0.439115       -11.9489
 211   2.0000      -0.436785       -11.8855
 212   2.0000      -0.433391       -11.7932
 213   2.0000      -0.431167       -11.7326
 214   2.0000      -0.430407       -11.7120
 215   2.0000      -0.428974       -11.6730
 216   2.0000      -0.428350       -11.6560
 217   2.0000      -0.427409       -11.6304
 218   2.0000      -0.425530       -11.5793
 219   2.0000      -0.424884       -11.5617
 220   2.0000      -0.423348       -11.5199
 221   2.0000      -0.422365       -11.4931
 222   2.0000      -0.419886       -11.4257
 223   2.0000      -0.417916       -11.3721
 224   2.0000      -0.415635       -11.3100
 225   2.0000      -0.413148       -11.2423
 226   2.0000      -0.410791       -11.1782
 227   2.0000      -0.409779       -11.1506
 228   2.0000      -0.403423       -10.9777
 229   2.0000      -0.401229       -10.9180
 230   2.0000      -0.400679       -10.9030
 231   2.0000      -0.398947       -10.8559
 232   2.0000      -0.397876       -10.8268
 233   2.0000      -0.393985       -10.7209
 234   2.0000      -0.392895       -10.6912
 235   2.0000      -0.391236       -10.6461
 236   2.0000      -0.390836       -10.6352
 237   2.0000      -0.389852       -10.6084
 238   2.0000      -0.389580       -10.6010
 239   2.0000      -0.386272       -10.5110
 240   2.0000      -0.385566       -10.4918
 241   2.0000      -0.385243       -10.4830
 242   2.0000      -0.383476       -10.4349
 243   2.0000      -0.381334       -10.3766
 244   2.0000      -0.380208       -10.3460
 245   2.0000      -0.379202       -10.3186
 246   2.0000      -0.377819       -10.2810
 247   2.0000      -0.377110       -10.2617
 248   2.0000      -0.374893       -10.2014
 249   2.0000      -0.370003       -10.0683
 250   2.0000      -0.369374       -10.0512
 251   2.0000      -0.367666       -10.0047
 252   2.0000      -0.365414        -9.9434
 253   2.0000      -0.363080        -9.8799
 254   2.0000      -0.361147        -9.8273
 255   2.0000      -0.360404        -9.8071
 256   2.0000      -0.358063        -9.7434
 257   2.0000      -0.357636        -9.7318
 258   2.0000      -0.354334        -9.6419
 259   2.0000      -0.352114        -9.5815
 260   2.0000      -0.351195        -9.5565
 261   2.0000      -0.350049        -9.5253
 262   2.0000      -0.344967        -9.3870
 263   2.0000      -0.344128        -9.3642
 264   2.0000      -0.343611        -9.3501
 265   2.0000      -0.341707        -9.2983
 266   2.0000      -0.337896        -9.1946
 267   2.0000      -0.336043        -9.1442
 268   2.0000      -0.334220        -9.0946
 269   2.0000      -0.331311        -9.0154
 270   2.0000      -0.325240        -8.8502
 271   2.0000      -0.318417        -8.6646
 272   2.0000      -0.315611        -8.5882
 273   2.0000      -0.309925        -8.4335
 274   2.0000      -0.302231        -8.2241
 275   2.0000      -0.299769        -8.1571
 276   2.0000      -0.293230        -7.9792
 277   2.0000      -0.291433        -7.9303
 278   2.0000      -0.285162        -7.7597
 279   2.0000      -0.279302        -7.6002
 280   2.0000      -0.277973        -7.5640
 281   2.0000      -0.274268        -7.4632
 282   2.0000      -0.264590        -7.1999
 283   2.0000      -0.260961        -7.1011
 284   2.0000      -0.258970        -7.0469
 285   2.0000      -0.240027        -6.5315
 286   2.0000      -0.232158        -6.3173
 287   2.0000      -0.224806        -6.1173
 288   2.0000      -0.206677        -5.6240
 289   0.0000      -0.133681        -3.6376
 290   0.0000      -0.123999        -3.3742
 291   0.0000      -0.107692        -2.9304
 292   0.0000      -0.103079        -2.8049
 293   0.0000      -0.069644        -1.8951

MULLIKEN ATOMIC CHARGES
-----------------------
   0 C :    0.209595
   1 O :   -0.336619
   2 C :    0.089211
   3 C :   -0.312081
   4 C :    0.285938
   5 C :    0.251261
   6 C :   -0.262482
   7 C :    0.077827
   8 C :    0.021474
   9 C :    0.151051
  10 C :   -0.188542
  11 N :   -0.003806
  12 C :   -0.200292
  13 N :    0.006563
  14 C :   -0.047051
  15 F :   -0.173390
  16 C :   -0.175011
  17 F :   -0.176491
  18 C :    0.196678
  19 O :   -0.290802
  20 C :   -0.017388
  21 C :   -0.280258
  22 C :    0.274963
  23 C :    0.258495
  24 C :   -0.256889
  25 C :    0.113114
  26 C :    0.022056
  27 C :    0.113276
  28 C :   -0.201469
  29 N :    0.017905
  30 C :   -0.207974
  31 N :    0.005517
  32 C :   -0.004921
  33 F :   -0.174004
  34 C :   -0.237350
  35 F :   -0.176849
  36 C :    0.046409
  37 C :   -0.281958
  38 C :    0.147764
  39 C :   -0.057695
  40 S :    0.077972
  41 N :   -0.009617
  42 C :    0.186927
  43 C :   -0.033978
  44 C :   -0.090706
  45 C :    0.024822
  46 S :    0.005991
  47 C :    0.123307
  48 C :   -0.028520
  49 C :   -0.125012
  50 C :    0.174696
  51 S :    0.022458
  52 C :   -0.056936
  53 C :    0.200224
  54 C :   -0.052197
  55 C :    0.184761
  56 N :   -0.010596
  57 S :    0.024503
  58 C :    0.225214
  59 C :   -0.313904
  60 O :   -0.363965
  61 O :   -0.389185
  62 C :   -0.034980
  63 C :   -0.335171
  64 C :   -0.048399
  65 C :   -0.328275
  66 C :   -0.146748
  67 C :   -0.051960
  68 C :   -0.167665
  69 C :   -0.344017
  70 C :   -0.143750
  71 C :   -0.356771
  72 C :   -0.231537
  73 C :    0.058774
  74 C :   -0.189448
  75 C :   -0.355498
  76 C :   -0.180165
  77 C :   -0.343648
  78 H :    0.150247
  79 H :    0.168439
  80 H :    0.159865
  81 H :    0.151977
  82 H :    0.165029
  83 H :    0.142720
  84 H :    0.160624
  85 H :    0.142223
  86 H :    0.114596
  87 H :    0.100170
  88 H :    0.124801
  89 H :    0.118355
  90 H :    0.132947
  91 H :    0.111962
  92 H :    0.130638
  93 H :    0.115618
  94 H :    0.120383
  95 H :    0.124076
  96 H :    0.122810
  97 H :    0.130173
  98 H :    0.075686
  99 H :    0.094451
 100 H :    0.090742
 101 H :    0.099208
 102 H :    0.114718
 103 H :    0.121595
 104 H :    0.089128
 105 H :    0.086138
 106 H :    0.106428
 107 H :    0.118332
 108 H :    0.115228
 109 H :    0.165064
 110 H :    0.131524
 111 H :    0.032112
 112 H :    0.093179
 113 H :    0.097421
 114 H :    0.100929
 115 H :    0.116840
 116 H :    0.134456
 117 H :    0.094566
 118 H :    0.100268
 119 H :    0.101813
 120 H :    0.120860
 121 H :    0.108889
Sum of atomic charges:   -0.0000000

LOEWDIN ATOMIC CHARGES
----------------------
   0 C :   -0.254714
   1 O :    0.120287
   2 C :   -0.062510
   3 C :   -0.049575
   4 C :   -0.233262
   5 C :   -0.231060
   6 C :   -0.053482
   7 C :   -0.039251
   8 C :    0.017045
   9 C :   -0.138330
  10 C :   -0.156030
  11 N :    0.062870
  12 C :   -0.154701
  13 N :    0.070979
  14 C :   -0.089852
  15 F :    0.225035
  16 C :   -0.056300
  17 F :    0.223974
  18 C :   -0.247935
  19 O :    0.130284
  20 C :   -0.058409
  21 C :   -0.050068
  22 C :   -0.233304
  23 C :   -0.230820
  24 C :   -0.054123
  25 C :   -0.040308
  26 C :   -0.002617
  27 C :   -0.150547
  28 C :   -0.165468
  29 N :    0.078670
  30 C :   -0.151704
  31 N :    0.072183
  32 C :   -0.089503
  33 F :    0.225200
  34 C :   -0.061324
  35 F :    0.223431
  36 C :   -0.315437
  37 C :   -0.104530
  38 C :   -0.187037
  39 C :   -0.342792
  40 S :    0.770346
  41 N :    0.291539
  42 C :   -0.115665
  43 C :   -0.349660
  44 C :   -0.082885
  45 C :   -0.267143
  46 S :    0.731037
  47 C :   -0.236313
  48 C :   -0.260140
  49 C :   -0.094191
  50 C :   -0.247235
  51 S :    0.740377
  52 C :   -0.342585
  53 C :   -0.126398
  54 C :   -0.336356
  55 C :   -0.175133
  56 N :    0.296367
  57 S :    0.783462
  58 C :   -0.319875
  59 C :   -0.100242
  60 O :    0.225700
  61 O :    0.231236
  62 C :   -0.325131
  63 C :   -0.317064
  64 C :   -0.330243
  65 C :   -0.306273
  66 C :   -0.205527
  67 C :   -0.254904
  68 C :   -0.264057
  69 C :   -0.301112
  70 C :   -0.265775
  71 C :   -0.307842
  72 C :   -0.212533
  73 C :   -0.255848
  74 C :   -0.258026
  75 C :   -0.304731
  76 C :   -0.266586
  77 C :   -0.306717
  78 H :    0.166043
  79 H :    0.170266
  80 H :    0.179627
  81 H :    0.166256
  82 H :    0.169294
  83 H :    0.174366
  84 H :    0.153619
  85 H :    0.153372
  86 H :    0.132273
  87 H :    0.124126
  88 H :    0.122560
  89 H :    0.129494
  90 H :    0.122622
  91 H :    0.121445
  92 H :    0.127523
  93 H :    0.118877
  94 H :    0.129353
  95 H :    0.124680
  96 H :    0.142064
  97 H :    0.150998
  98 H :    0.152980
  99 H :    0.138100
 100 H :    0.137867
 101 H :    0.120087
 102 H :    0.121666
 103 H :    0.123891
 104 H :    0.134619
 105 H :    0.134915
 106 H :    0.120240
 107 H :    0.121334
 108 H :    0.117558
 109 H :    0.148945
 110 H :    0.146506
 111 H :    0.147991
 112 H :    0.139535
 113 H :    0.137287
 114 H :    0.118081
 115 H :    0.122522
 116 H :    0.126092
 117 H :    0.135404
 118 H :    0.139814
 119 H :    0.116746
 120 H :    0.122686
 121 H :    0.117429

  Mayer bond orders larger than 0.100000
B(  0-C ,  1-O ) :   2.0416 B(  0-C ,  2-C ) :   1.0136 B(  0-C , 14-C ) :   1.0196
B(  1-O ,  2-C ) :  -0.1543 B(  2-C ,  3-C ) :   1.3009 B(  2-C ,  7-C ) :   1.3418
B(  3-C ,  4-C ) :   1.3619 B(  3-C , 78-H ) :   0.9795 B(  4-C ,  5-C ) :   1.3303
B(  4-C , 17-F ) :   1.0657 B(  5-C ,  6-C ) :   1.3989 B(  5-C , 15-F ) :   1.0862
B(  6-C ,  7-C ) :   1.3200 B(  6-C , 79-H ) :   0.9237 B(  7-C ,  8-C ) :   1.0284
B(  8-C ,  9-C ) :   1.4601 B(  8-C , 14-C ) :   1.1718 B(  9-C , 10-C ) :   1.0294
B(  9-C , 12-C ) :   1.0144 B( 10-C , 11-N ) :   2.9674 B( 12-C , 13-N ) :   2.9795
B( 14-C , 16-C ) :   1.3802 B( 16-C , 36-C ) :   1.3010 B( 16-C , 80-H ) :   0.8996
B( 18-C , 19-O ) :   2.1700 B( 18-C , 20-C ) :   0.9451 B( 18-C , 32-C ) :   1.0017
B( 19-O , 20-C ) :  -0.1410 B( 19-O , 32-C ) :  -0.1207 B( 20-C , 21-C ) :   1.3105
B( 20-C , 25-C ) :   1.3200 B( 21-C , 22-C ) :   1.3628 B( 21-C , 81-H ) :   0.9773
B( 22-C , 23-C ) :   1.3303 B( 22-C , 35-F ) :   1.0641 B( 23-C , 24-C ) :   1.3967
B( 23-C , 33-F ) :   1.0747 B( 24-C , 25-C ) :   1.3003 B( 24-C , 82-H ) :   0.9379
B( 25-C , 26-C ) :   1.0251 B( 26-C , 27-C ) :   1.4206 B( 26-C , 32-C ) :   1.1351
B( 27-C , 28-C ) :   1.0339 B( 27-C , 30-C ) :   1.0484 B( 28-C , 29-N ) :   3.0133
B( 30-C , 31-N ) :   2.9846 B( 32-C , 34-C ) :   1.5110 B( 34-C , 58-C ) :   1.1227
B( 34-C , 83-H ) :   0.9457 B( 36-C , 37-C ) :   1.3606 B( 36-C , 40-S ) :   1.2448
B( 37-C , 38-C ) :   1.3721 B( 37-C , 84-H ) :   0.9315 B( 38-C , 39-C ) :   1.2202
B( 38-C , 41-N ) :   1.1286 B( 39-C , 40-S ) :   1.3649 B( 39-C , 43-C ) :   1.1163
B( 41-N , 42-C ) :   1.1813 B( 41-N , 72-C ) :   0.8860 B( 42-C , 43-C ) :   1.3180
B( 42-C , 44-C ) :   1.1409 B( 43-C , 46-S ) :   1.2480 B( 44-C , 45-C ) :   1.2634
B( 44-C , 46-S ) :   0.1099 B( 44-C , 47-C ) :   1.2624 B( 45-C , 46-S ) :   1.2580
B( 45-C , 50-C ) :   1.3726 B( 46-S , 50-C ) :  -0.1069 B( 47-C , 48-C ) :   1.3943
B( 47-C , 50-C ) :   0.1047 B( 47-C , 60-O ) :   1.0367 B( 48-C , 49-C ) :   1.2807
B( 48-C , 51-S ) :   1.2558 B( 48-C , 53-C ) :  -0.1058 B( 49-C , 50-C ) :   1.2858
B( 49-C , 53-C ) :   1.1206 B( 50-C , 61-O ) :   0.9962 B( 51-S , 52-C ) :   1.2321
B( 52-C , 53-C ) :   1.3169 B( 52-C , 54-C ) :   1.1548 B( 53-C , 56-N ) :   1.1673
B( 54-C , 55-C ) :   1.2479 B( 54-C , 57-S ) :   1.3216 B( 55-C , 56-N ) :   1.1555
B( 55-C , 59-C ) :   1.3255 B( 56-N , 66-C ) :   0.9104 B( 57-S , 58-C ) :   1.1431
B( 57-S , 59-C ) :   0.1293 B( 58-C , 59-C ) :   1.4128 B( 59-C , 85-H ) :   0.9533
B( 60-O , 62-C ) :   0.8904 B( 61-O , 64-C ) :   0.8337 B( 62-C , 63-C ) :   0.9764
B( 62-C , 86-H ) :   0.9560 B( 62-C , 87-H ) :   0.9547 B( 63-C , 88-H ) :   0.9739
B( 63-C , 89-H ) :   0.9576 B( 63-C , 90-H ) :   0.9714 B( 64-C , 65-C ) :   0.9789
B( 64-C , 91-H ) :   0.9593 B( 64-C , 92-H ) :   0.9558 B( 65-C , 93-H ) :   0.9742
B( 65-C , 94-H ) :   0.9674 B( 65-C , 95-H ) :   0.9692 B( 66-C , 67-C ) :   0.8871
B( 66-C , 96-H ) :   0.9803 B( 66-C , 97-H ) :   0.9601 B( 67-C , 68-C ) :   0.9926
B( 67-C , 70-C ) :   0.9371 B( 67-C , 98-H ) :   0.9807 B( 68-C , 69-C ) :   0.9740
B( 68-C , 99-H ) :   0.9723 B( 68-C ,100-H ) :   0.9452 B( 69-C ,101-H ) :   0.9719
B( 69-C ,102-H ) :   0.9751 B( 69-C ,103-H ) :   0.9813 B( 70-C , 71-C ) :   0.9680
B( 70-C ,104-H ) :   0.9716 B( 70-C ,105-H ) :   0.9597 B( 71-C ,106-H ) :   0.9742
B( 71-C ,107-H ) :   0.9768 B( 71-C ,108-H ) :   0.9778 B( 72-C , 73-C ) :   0.9184
B( 72-C ,109-H ) :   0.9585 B( 72-C ,110-H ) :   0.9675 B( 73-C , 74-C ) :   0.9343
B( 73-C , 76-C ) :   0.9348 B( 73-C ,111-H ) :   0.9635 B( 74-C , 75-C ) :   0.9537
B( 74-C ,112-H ) :   0.9687 B( 74-C ,113-H ) :   0.9660 B( 75-C ,114-H ) :   0.9709
B( 75-C ,115-H ) :   0.9773 B( 75-C ,116-H ) :   0.9764 B( 76-C , 77-C ) :   0.9730
B( 76-C ,117-H ) :   0.9703 B( 76-C ,118-H ) :   0.9605 B( 77-C ,119-H ) :   0.9765
B( 77-C ,120-H ) :   0.9780 B( 77-C ,121-H ) :   0.9720

-----------------------------------------------------------------------------
  SOC CORRECTED ABSORPTION SPECTRUM VIA TRANSITION ELECTRIC DIPOLE MOMENTS*
-----------------------------------------------------------------------------
State   Energy  Wavelength   fosc         T2         TX        TY        TZ
        (cm-1)    (nm)                  (au**2)     (au)      (au)      (au)
-----------------------------------------------------------------------------
   1   10497.6    952.6   0.000000001   0.00000   0.00010   0.00019   0.00000
   2   10497.6    952.6   0.000000005   0.00000   0.00013   0.00039   0.00001
   3   10497.6    952.6   0.000000006   0.00000   0.00013   0.00042   0.00001
   4   12265.5    815.3   0.000000000   0.00000   0.00005   0.00008   0.00000
   5   12265.5    815.3   0.000000004   0.00000   0.00027   0.00019   0.00007
   6   12265.5    815.3   0.000000002   0.00000   0.00009   0.00023   0.00001
   7   14709.9    679.8   0.000287065   0.00642   0.04052   0.06915   0.00081
   8   14709.9    679.8   0.000000004   0.00000   0.00015   0.00025   0.00000
   9   14709.9    679.8   0.000000017   0.00000   0.00025   0.00056   0.00008
  10   14765.2    677.3   1.906494238  42.50819   3.30015   5.62256   0.06353
  11   16539.1    604.6   0.025249095   0.50258   0.00891   0.67850   0.20528
  12   17337.5    576.8   0.769836576  14.61795   1.51826   3.50496   0.16757

FINAL SINGLE POINT ENERGY     -4933.427619750722

DIPOLE MOMENT
-------------
                                X             Y             Z
Electronic contribution:      1.53859       1.16817      36.38880
Nuclear contribution   :     -3.01810      -2.33158     -37.09981
                        -----------------------------------------
Total Dipole Moment    :     -1.47951      -1.16341      -0.71101
                        -----------------------------------------
Magnitude (a.u.)       :      2.01197
Magnitude (Debye)      :      5.11402

Rotational constants in cm-1:     0.001715     0.000230     0.000212
Rotational constants in MHz :    51.408464     6.883863     6.354363

                             ****ORCA TERMINATED NORMALLY****
TOTAL RUN TIME: 0 days 3 hours 21 minutes 20 seconds 971 msec
