                         Program Version 4.2.0 -  RELEASE  -
|  1> # ORCA input file
|  2> # BT6IC-HD-4Cl.out: Geometry 49
|  3> ! B3LYP def2-TZVP def2/J RIJCOSX Grid4 TightSCF
|  4>
|  5> %maxcore 6000
|  6> %tddft
|  7>   maxdim 5
|  8>   nroots 3
|  9>   dosoc true
| 10>   end
| 11> %pal
| 12>   nprocs 6
| 13>   end
| 14>
| 15>
| 16> * xyz 0 1
| 17>    C        3.28537         6.67626        -0.29350
| 18>    O        4.26803         7.38619        -0.35043
| 19>    C        1.86343         7.10164        -0.33313
| 20>    C        1.35529         8.38498        -0.46032
| 21>    C       -0.03336         8.55020        -0.49890
| 22>    C       -0.87818         7.42193        -0.41475
| 23>    C       -0.35319         6.13102        -0.25930
| 24>    C        1.03265         5.96897        -0.21266
| 25>    C        1.88304         4.76988         0.00656
| 26>    C        1.42866         3.56444         0.51665
| 27>    C        2.31219         2.56557         1.02067
| 28>    N        3.01607         1.74930         1.45557
| 29>    C        0.04224         3.25488         0.67175
| 30>    N       -1.07918         2.97165         0.78761
| 31>    C        3.26297         5.17586        -0.20239
| 32>    C        4.48091         4.54320        -0.32426
| 33>    C        4.91899         3.21176        -0.54873
| 34>    S        6.53938         2.85520         0.08768
| 35>    C        6.43645         1.23108        -0.47890
| 36>    C        5.22883         0.99556        -1.17226
| 37>    C        4.36016         2.11089        -1.22765
| 38>    C        3.10591         2.18720        -2.05593
| 39>    C        2.19012         0.96080        -2.00020
| 40>    S        5.11123        -0.66383        -1.77776
| 41>    C        6.67433        -1.01234        -1.08920
| 42>    C        7.24510         0.07656        -0.42277
| 43>    N        8.50884        -0.25261         0.04127
| 44>    C        9.46536         0.83882         0.22118
| 45>    C       10.32562         1.15126        -1.01997
| 46>    C        8.75601        -1.58564        -0.32414
| 47>    C        7.61541        -2.06276        -1.04790
| 48>    C        7.57857        -3.37249        -1.62088
| 49>    N        6.58253        -3.91633        -2.30699
| 50>    S        7.08500        -5.42601        -2.76384
| 51>    N        8.59591        -5.40728        -2.08609
| 52>    C        8.73918        -4.22866        -1.49459
| 53>    C        9.85188        -3.77709        -0.71356
| 54>    C        9.85023        -2.49165        -0.07124
| 55>    N       10.97020        -2.43047         0.76259
| 56>    C       11.38599        -1.44894         1.76047
| 57>    C       12.45919        -0.42607         1.31998
| 58>    C       11.65978        -3.62437         0.64109
| 59>    C       11.01507        -4.45193        -0.28933
| 60>    S       11.82964        -5.97406        -0.54591
| 61>    C       13.04719        -5.50856         0.64951
| 62>    C       12.79237        -4.24099         1.21926
| 63>    S       13.96476        -3.85753         2.42383
| 64>    C       14.83100        -5.38710         2.12949
| 65>    C       14.22429        -6.14625         1.10652
| 66>    C       14.83831        -7.32574         0.40147
| 67>    C       15.22245        -6.99356        -1.05166
| 68>    C       16.04762        -5.50167         2.85162
| 69>    C       16.81742        -6.58786         3.21581
| 70>    C       18.16802        -6.50490         3.77154
| 71>    C       18.97412        -5.38421         3.89010
| 72>    C       18.61551        -4.08124         3.42218
| 73>    N       18.37204        -3.00793         3.04655
| 74>    C       20.26162        -5.42460         4.50986
| 75>    N       21.30344        -5.43798         5.02462
| 76>    C       18.57093        -7.87561         4.15992
| 77>    C       19.77174        -8.38091         4.66253
| 78>    C       19.88698        -9.75788         4.88297
| 79>    C       18.80920       -10.63215         4.62070
| 80>    C       17.59997       -10.12207         4.13349
| 81>    C       17.50409        -8.75795         3.90177
| 82>    C       16.35330        -8.00384         3.32991
| 83>    O       15.25453        -8.45931         3.07707
| 84>   Cl       18.97441       -12.33468         4.88351
| 85>   Cl       -0.69375        10.14323        -0.65005
| 86>    C       13.08272         0.23571         2.55997
| 87>    C       12.09648         0.98085         3.46215
| 88>    C       13.53723        -0.99377         0.39506
| 89>    C        9.51034         1.18197        -2.32144
| 90>    C       10.36402         1.31429        -3.58282
| 91>    C       11.06684         2.46984        -0.77067
| 92>   Cl       -2.59708         7.61383        -0.49317
| 93>   Cl       21.39354       -10.36765         5.47966
| 94>    H        2.02176         9.24559        -0.52851
| 95>    H       -1.04638         5.29701        -0.17658
| 96>    H        5.29978         5.27258        -0.23352
| 97>    H        3.42606         2.35423        -3.10166
| 98>    H        2.54024         3.08377        -1.78105
| 99>    H        2.65854         0.07505        -2.45365
|100>    H        1.26509         1.15912        -2.56096
|101>    H        1.91908         0.70377        -0.96698
|102>    H       10.10001         0.65300         1.09116
|103>    H        8.87221         1.72492         0.48600
|104>    H       11.07009         0.34150        -1.12427
|105>    H       11.77852        -2.02965         2.61113
|106>    H       10.48846        -0.94322         2.13730
|107>    H       11.95501         0.36776         0.75780
|108>    H       14.12944        -8.17039         0.43634
|109>    H       15.72539        -7.66435         0.94004
|110>    H       14.35471        -6.68521        -1.65351
|111>    H       15.67780        -7.87120        -1.53647
|112>    H       15.95479        -6.17154        -1.08139
|113>    H       16.42411        -4.53317         3.18832
|114>    H       20.62874        -7.75234         4.88956
|115>    H       16.75930       -10.78414         3.92113
|116>    H       13.85596         0.94021         2.21187
|117>    H       13.61915        -0.53298         3.14480
|118>    H       11.51201         1.72187         2.89087
|119>    H       12.62693         1.52618         4.25755
|120>    H       11.38071         0.30419         3.95661
|121>    H       14.17512        -1.72647         0.90926
|122>    H       14.18936        -0.17780         0.04913
|123>    H       13.10716        -1.47690        -0.49472
|124>    H        8.77693         2.00615        -2.26809
|125>    H        8.92202         0.25550        -2.40251
|126>    H       10.90735         2.27102        -3.62764
|127>    H        9.73635         1.24961        -4.48485
|128>    H       11.11319         0.50673        -3.64138
|129>    H       10.35388         3.31211        -0.76433
|130>    H       11.81653         2.66937        -1.54900
|131>    H       11.59286         2.46888         0.19719
|132> *
|133>
|134>                          ****END OF INPUT****

CARTESIAN COORDINATES (ANGSTROEM)
---------------------------------
  C      3.285370    6.676260   -0.293500
  O      4.268030    7.386190   -0.350430
  C      1.863430    7.101640   -0.333130
  C      1.355290    8.384980   -0.460320
  C     -0.033360    8.550200   -0.498900
  C     -0.878180    7.421930   -0.414750
  C     -0.353190    6.131020   -0.259300
  C      1.032650    5.968970   -0.212660
  C      1.883040    4.769880    0.006560
  C      1.428660    3.564440    0.516650
  C      2.312190    2.565570    1.020670
  N      3.016070    1.749300    1.455570
  C      0.042240    3.254880    0.671750
  N     -1.079180    2.971650    0.787610
  C      3.262970    5.175860   -0.202390
  C      4.480910    4.543200   -0.324260
  C      4.918990    3.211760   -0.548730
  S      6.539380    2.855200    0.087680
  C      6.436450    1.231080   -0.478900
  C      5.228830    0.995560   -1.172260
  C      4.360160    2.110890   -1.227650
  C      3.105910    2.187200   -2.055930
  C      2.190120    0.960800   -2.000200
  S      5.111230   -0.663830   -1.777760
  C      6.674330   -1.012340   -1.089200
  C      7.245100    0.076560   -0.422770
  N      8.508840   -0.252610    0.041270
  C      9.465360    0.838820    0.221180
  C     10.325620    1.151260   -1.019970
  C      8.756010   -1.585640   -0.324140
  C      7.615410   -2.062760   -1.047900
  C      7.578570   -3.372490   -1.620880
  N      6.582530   -3.916330   -2.306990
  S      7.085000   -5.426010   -2.763840
  N      8.595910   -5.407280   -2.086090
  C      8.739180   -4.228660   -1.494590
  C      9.851880   -3.777090   -0.713560
  C      9.850230   -2.491650   -0.071240
  N     10.970200   -2.430470    0.762590
  C     11.385990   -1.448940    1.760470
  C     12.459190   -0.426070    1.319980
  C     11.659780   -3.624370    0.641090
  C     11.015070   -4.451930   -0.289330
  S     11.829640   -5.974060   -0.545910
  C     13.047190   -5.508560    0.649510
  C     12.792370   -4.240990    1.219260
  S     13.964760   -3.857530    2.423830
  C     14.831000   -5.387100    2.129490
  C     14.224290   -6.146250    1.106520
  C     14.838310   -7.325740    0.401470
  C     15.222450   -6.993560   -1.051660
  C     16.047620   -5.501670    2.851620
  C     16.817420   -6.587860    3.215810
  C     18.168020   -6.504900    3.771540
  C     18.974120   -5.384210    3.890100
  C     18.615510   -4.081240    3.422180
  N     18.372040   -3.007930    3.046550
  C     20.261620   -5.424600    4.509860
  N     21.303440   -5.437980    5.024620
  C     18.570930   -7.875610    4.159920
  C     19.771740   -8.380910    4.662530
  C     19.886980   -9.757880    4.882970
  C     18.809200  -10.632150    4.620700
  C     17.599970  -10.122070    4.133490
  C     17.504090   -8.757950    3.901770
  C     16.353300   -8.003840    3.329910
  O     15.254530   -8.459310    3.077070
  Cl    18.974410  -12.334680    4.883510
  Cl    -0.693750   10.143230   -0.650050
  C     13.082720    0.235710    2.559970
  C     12.096480    0.980850    3.462150
  C     13.537230   -0.993770    0.395060
  C      9.510340    1.181970   -2.321440
  C     10.364020    1.314290   -3.582820
  C     11.066840    2.469840   -0.770670
  Cl    -2.597080    7.613830   -0.493170
  Cl    21.393540  -10.367650    5.479660
  H      2.021760    9.245590   -0.528510
  H     -1.046380    5.297010   -0.176580
  H      5.299780    5.272580   -0.233520
  H      3.426060    2.354230   -3.101660
  H      2.540240    3.083770   -1.781050
  H      2.658540    0.075050   -2.453650
  H      1.265090    1.159120   -2.560960
  H      1.919080    0.703770   -0.966980
  H     10.100010    0.653000    1.091160
  H      8.872210    1.724920    0.486000
  H     11.070090    0.341500   -1.124270
  H     11.778520   -2.029650    2.611130
  H     10.488460   -0.943220    2.137300
  H     11.955010    0.367760    0.757800
  H     14.129440   -8.170390    0.436340
  H     15.725390   -7.664350    0.940040
  H     14.354710   -6.685210   -1.653510
  H     15.677800   -7.871200   -1.536470
  H     15.954790   -6.171540   -1.081390
  H     16.424110   -4.533170    3.188320
  H     20.628740   -7.752340    4.889560
  H     16.759300  -10.784140    3.921130
  H     13.855960    0.940210    2.211870
  H     13.619150   -0.532980    3.144800
  H     11.512010    1.721870    2.890870
  H     12.626930    1.526180    4.257550
  H     11.380710    0.304190    3.956610
  H     14.175120   -1.726470    0.909260
  H     14.189360   -0.177800    0.049130
  H     13.107160   -1.476900   -0.494720
  H      8.776930    2.006150   -2.268090
  H      8.922020    0.255500   -2.402510
  H     10.907350    2.271020   -3.627640
  H      9.736350    1.249610   -4.484850
  H     11.113190    0.506730   -3.641380
  H     10.353880    3.312110   -0.764330
  H     11.816530    2.669370   -1.549000
  H     11.592860    2.468880    0.197190

 Total Charge           Charge          ....    0
 Multiplicity           Mult            ....    1
 Number of Electrons    NEL             ....  606
 Basis Dimension        Dim             .... 2669

ORBITAL ENERGIES
----------------

  NO   OCC          E(Eh)            E(eV)
   0   2.0000    -101.550961     -2763.3421
   1   2.0000    -101.549652     -2763.3065
   2   2.0000    -101.549433     -2763.3005
   3   2.0000    -101.546967     -2763.2335
   4   2.0000     -88.946547     -2420.3586
   5   2.0000     -88.914297     -2419.4810
   6   2.0000     -88.913954     -2419.4717
   7   2.0000     -88.911281     -2419.3990
   8   2.0000     -88.910243     -2419.3707
   9   2.0000     -19.136660      -520.7350
  10   2.0000     -19.134037      -520.6636
  11   2.0000     -14.411498      -392.1568
  12   2.0000     -14.406663      -392.0252
  13   2.0000     -14.361096      -390.7853
  14   2.0000     -14.360480      -390.7685
  15   2.0000     -14.337050      -390.1310
  16   2.0000     -14.336486      -390.1156
  17   2.0000     -14.335486      -390.0884
  18   2.0000     -14.332262      -390.0007
  19   2.0000     -10.282292      -279.7954
  20   2.0000     -10.282140      -279.7913
  21   2.0000     -10.277896      -279.6758
  22   2.0000     -10.276839      -279.6470
  23   2.0000     -10.275427      -279.6086
  24   2.0000     -10.274384      -279.5802
  25   2.0000     -10.268722      -279.4261
  26   2.0000     -10.266402      -279.3630
  27   2.0000     -10.266031      -279.3529
  28   2.0000     -10.263573      -279.2860
  29   2.0000     -10.263306      -279.2788
  30   2.0000     -10.260458      -279.2013
  31   2.0000     -10.250833      -278.9393
  32   2.0000     -10.249497      -278.9030
  33   2.0000     -10.248933      -278.8877
  34   2.0000     -10.246863      -278.8313
  35   2.0000     -10.246736      -278.8279
  36   2.0000     -10.246207      -278.8135
  37   2.0000     -10.245229      -278.7869
  38   2.0000     -10.244382      -278.7638
  39   2.0000     -10.243791      -278.7477
  40   2.0000     -10.243298      -278.7343
  41   2.0000     -10.237554      -278.5780
  42   2.0000     -10.237219      -278.5689
  43   2.0000     -10.237127      -278.5664
  44   2.0000     -10.236582      -278.5516
  45   2.0000     -10.236069      -278.5376
  46   2.0000     -10.235987      -278.5354
  47   2.0000     -10.235895      -278.5329
  48   2.0000     -10.234799      -278.5030
  49   2.0000     -10.234446      -278.4934
  50   2.0000     -10.234155      -278.4855
  51   2.0000     -10.233471      -278.4669
  52   2.0000     -10.232405      -278.4379
  53   2.0000     -10.231830      -278.4222
  54   2.0000     -10.231596      -278.4159
  55   2.0000     -10.225362      -278.2462
  56   2.0000     -10.225055      -278.2379
  57   2.0000     -10.223006      -278.1821
  58   2.0000     -10.221643      -278.1451
  59   2.0000     -10.221098      -278.1302
  60   2.0000     -10.221085      -278.1299
  61   2.0000     -10.221015      -278.1280
  62   2.0000     -10.220005      -278.1005
  63   2.0000     -10.219777      -278.0943
  64   2.0000     -10.217473      -278.0316
  65   2.0000     -10.208828      -277.7963
  66   2.0000     -10.206877      -277.7432
  67   2.0000     -10.204394      -277.6757
  68   2.0000     -10.196039      -277.4483
  69   2.0000     -10.193813      -277.3878
  70   2.0000     -10.189928      -277.2820
  71   2.0000     -10.188976      -277.2561
  72   2.0000     -10.186639      -277.1925
  73   2.0000     -10.181597      -277.0553
  74   2.0000     -10.181319      -277.0478
  75   2.0000     -10.179946      -277.0104
  76   2.0000     -10.179061      -276.9863
  77   2.0000      -9.483192      -258.0508
  78   2.0000      -9.481907      -258.0158
  79   2.0000      -9.481671      -258.0094
  80   2.0000      -9.479241      -257.9433
  81   2.0000      -8.016983      -218.1532
  82   2.0000      -7.990326      -217.4278
  83   2.0000      -7.990148      -217.4230
  84   2.0000      -7.986242      -217.3167
  85   2.0000      -7.985091      -217.2854
  86   2.0000      -7.244931      -197.1446
  87   2.0000      -7.243675      -197.1104
  88   2.0000      -7.243401      -197.1030
  89   2.0000      -7.241019      -197.0381
  90   2.0000      -7.236445      -196.9137
  91   2.0000      -7.235696      -196.8933
  92   2.0000      -7.235151      -196.8785
  93   2.0000      -7.234939      -196.8727
  94   2.0000      -7.234391      -196.8578
  95   2.0000      -7.234181      -196.8521
  96   2.0000      -7.232484      -196.8059
  97   2.0000      -7.231726      -196.7853
  98   2.0000      -5.981721      -162.7709
  99   2.0000      -5.974661      -162.5788
 100   2.0000      -5.973405      -162.5446
 101   2.0000      -5.953077      -161.9914
 102   2.0000      -5.952815      -161.9843
 103   2.0000      -5.949357      -161.8902
 104   2.0000      -5.949316      -161.8891
 105   2.0000      -5.949106      -161.8834
 106   2.0000      -5.948145      -161.8572
 107   2.0000      -5.946422      -161.8104
 108   2.0000      -5.946327      -161.8078
 109   2.0000      -5.945515      -161.7857
 110   2.0000      -5.944403      -161.7554
 111   2.0000      -5.941905      -161.6875
 112   2.0000      -5.940741      -161.6558
 113   2.0000      -1.064448       -28.9651
 114   2.0000      -1.061848       -28.8944
 115   2.0000      -1.036803       -28.2128
 116   2.0000      -1.024887       -27.8886
 117   2.0000      -1.022527       -27.8244
 118   2.0000      -0.946782       -25.7632
 119   2.0000      -0.944315       -25.6961
 120   2.0000      -0.937906       -25.5217
 121   2.0000      -0.935246       -25.4493
 122   2.0000      -0.932350       -25.3705
 123   2.0000      -0.930979       -25.3332
 124   2.0000      -0.922954       -25.1149
 125   2.0000      -0.920925       -25.0596
 126   2.0000      -0.908650       -24.7256
 127   2.0000      -0.906388       -24.6641
 128   2.0000      -0.903802       -24.5937
 129   2.0000      -0.888922       -24.1888
 130   2.0000      -0.881468       -23.9860
 131   2.0000      -0.879478       -23.9318
 132   2.0000      -0.878125       -23.8950
 133   2.0000      -0.868104       -23.6223
 134   2.0000      -0.854293       -23.2465
 135   2.0000      -0.851279       -23.1645
 136   2.0000      -0.844791       -22.9879
 137   2.0000      -0.841754       -22.9053
 138   2.0000      -0.825130       -22.4529
 139   2.0000      -0.823083       -22.3972
 140   2.0000      -0.820501       -22.3270
 141   2.0000      -0.818910       -22.2837
 142   2.0000      -0.808828       -22.0093
 143   2.0000      -0.794203       -21.6114
 144   2.0000      -0.786864       -21.4116
 145   2.0000      -0.784880       -21.3577
 146   2.0000      -0.784532       -21.3482
 147   2.0000      -0.781965       -21.2783
 148   2.0000      -0.779458       -21.2101
 149   2.0000      -0.763892       -20.7865
 150   2.0000      -0.755299       -20.5527
 151   2.0000      -0.753467       -20.5029
 152   2.0000      -0.746551       -20.3147
 153   2.0000      -0.736384       -20.0380
 154   2.0000      -0.735570       -20.0159
 155   2.0000      -0.727199       -19.7881
 156   2.0000      -0.715061       -19.4578
 157   2.0000      -0.711275       -19.3548
 158   2.0000      -0.706959       -19.2373
 159   2.0000      -0.695055       -18.9134
 160   2.0000      -0.688898       -18.7459
 161   2.0000      -0.683310       -18.5938
 162   2.0000      -0.664274       -18.0758
 163   2.0000      -0.662896       -18.0383
 164   2.0000      -0.660399       -17.9704
 165   2.0000      -0.652829       -17.7644
 166   2.0000      -0.651053       -17.7161
 167   2.0000      -0.648750       -17.6534
 168   2.0000      -0.638920       -17.3859
 169   2.0000      -0.633334       -17.2339
 170   2.0000      -0.630236       -17.1496
 171   2.0000      -0.619460       -16.8564
 172   2.0000      -0.617505       -16.8032
 173   2.0000      -0.611313       -16.6347
 174   2.0000      -0.605310       -16.4713
 175   2.0000      -0.601545       -16.3689
 176   2.0000      -0.595603       -16.2072
 177   2.0000      -0.594140       -16.1674
 178   2.0000      -0.588115       -16.0034
 179   2.0000      -0.577569       -15.7165
 180   2.0000      -0.576708       -15.6930
 181   2.0000      -0.574069       -15.6212
 182   2.0000      -0.565506       -15.3882
 183   2.0000      -0.550846       -14.9893
 184   2.0000      -0.547295       -14.8926
 185   2.0000      -0.545213       -14.8360
 186   2.0000      -0.541072       -14.7233
 187   2.0000      -0.533539       -14.5183
 188   2.0000      -0.530367       -14.4320
 189   2.0000      -0.526112       -14.3162
 190   2.0000      -0.523464       -14.2442
 191   2.0000      -0.514974       -14.0131
 192   2.0000      -0.513831       -13.9820
 193   2.0000      -0.508983       -13.8501
 194   2.0000      -0.507347       -13.8056
 195   2.0000      -0.505843       -13.7647
 196   2.0000      -0.501111       -13.6359
 197   2.0000      -0.497583       -13.5399
 198   2.0000      -0.491657       -13.3787
 199   2.0000      -0.485810       -13.2196
 200   2.0000      -0.485716       -13.2170
 201   2.0000      -0.482505       -13.1296
 202   2.0000      -0.480360       -13.0713
 203   2.0000      -0.477231       -12.9861
 204   2.0000      -0.475682       -12.9440
 205   2.0000      -0.473631       -12.8882
 206   2.0000      -0.470136       -12.7930
 207   2.0000      -0.467026       -12.7084
 208   2.0000      -0.465784       -12.6746
 209   2.0000      -0.464714       -12.6455
 210   2.0000      -0.462703       -12.5908
 211   2.0000      -0.460574       -12.5329
 212   2.0000      -0.457951       -12.4615
 213   2.0000      -0.454419       -12.3654
 214   2.0000      -0.453884       -12.3508
 215   2.0000      -0.450515       -12.2591
 216   2.0000      -0.449192       -12.2231
 217   2.0000      -0.446863       -12.1597
 218   2.0000      -0.446447       -12.1484
 219   2.0000      -0.444382       -12.0922
 220   2.0000      -0.443204       -12.0602
 221   2.0000      -0.438517       -11.9327
 222   2.0000      -0.436799       -11.8859
 223   2.0000      -0.434445       -11.8218
 224   2.0000      -0.432609       -11.7719
 225   2.0000      -0.431899       -11.7526
 226   2.0000      -0.430139       -11.7047
 227   2.0000      -0.428337       -11.6556
 228   2.0000      -0.426628       -11.6092
 229   2.0000      -0.425542       -11.5796
 230   2.0000      -0.423534       -11.5249
 231   2.0000      -0.421539       -11.4707
 232   2.0000      -0.420585       -11.4447
 233   2.0000      -0.418736       -11.3944
 234   2.0000      -0.416290       -11.3278
 235   2.0000      -0.415279       -11.3003
 236   2.0000      -0.410842       -11.1796
 237   2.0000      -0.407834       -11.0977
 238   2.0000      -0.404634       -11.0106
 239   2.0000      -0.403495       -10.9796
 240   2.0000      -0.402945       -10.9647
 241   2.0000      -0.401244       -10.9184
 242   2.0000      -0.399263       -10.8645
 243   2.0000      -0.396104       -10.7785
 244   2.0000      -0.394234       -10.7277
 245   2.0000      -0.392670       -10.6851
 246   2.0000      -0.389854       -10.6085
 247   2.0000      -0.387840       -10.5537
 248   2.0000      -0.387155       -10.5350
 249   2.0000      -0.384956       -10.4752
 250   2.0000      -0.383531       -10.4364
 251   2.0000      -0.382741       -10.4149
 252   2.0000      -0.379425       -10.3247
 253   2.0000      -0.377697       -10.2776
 254   2.0000      -0.373702       -10.1689
 255   2.0000      -0.373537       -10.1645
 256   2.0000      -0.371947       -10.1212
 257   2.0000      -0.370532       -10.0827
 258   2.0000      -0.369524       -10.0553
 259   2.0000      -0.368062       -10.0155
 260   2.0000      -0.367371        -9.9967
 261   2.0000      -0.366979        -9.9860
 262   2.0000      -0.365072        -9.9341
 263   2.0000      -0.364473        -9.9178
 264   2.0000      -0.362955        -9.8765
 265   2.0000      -0.362373        -9.8607
 266   2.0000      -0.359571        -9.7844
 267   2.0000      -0.359066        -9.7707
 268   2.0000      -0.358601        -9.7580
 269   2.0000      -0.357433        -9.7263
 270   2.0000      -0.355970        -9.6864
 271   2.0000      -0.353014        -9.6060
 272   2.0000      -0.351552        -9.5662
 273   2.0000      -0.349242        -9.5034
 274   2.0000      -0.348828        -9.4921
 275   2.0000      -0.348287        -9.4774
 276   2.0000      -0.346512        -9.4291
 277   2.0000      -0.345778        -9.4091
 278   2.0000      -0.344481        -9.3738
 279   2.0000      -0.339009        -9.2249
 280   2.0000      -0.337877        -9.1941
 281   2.0000      -0.337388        -9.1808
 282   2.0000      -0.333036        -9.0624
 283   2.0000      -0.330020        -8.9803
 284   2.0000      -0.326800        -8.8927
 285   2.0000      -0.324925        -8.8417
 286   2.0000      -0.314777        -8.5655
 287   2.0000      -0.307462        -8.3665
 288   2.0000      -0.304379        -8.2826
 289   2.0000      -0.295151        -8.0315
 290   2.0000      -0.288259        -7.8439
 291   2.0000      -0.285708        -7.7745
 292   2.0000      -0.284233        -7.7344
 293   2.0000      -0.280859        -7.6425
 294   2.0000      -0.279505        -7.6057
 295   2.0000      -0.268222        -7.2987
 296   2.0000      -0.267087        -7.2678
 297   2.0000      -0.263348        -7.1661
 298   2.0000      -0.261098        -7.1048
 299   2.0000      -0.245318        -6.6754
 300   2.0000      -0.238896        -6.5007
 301   2.0000      -0.235239        -6.4012
 302   2.0000      -0.208823        -5.6824
 303   0.0000      -0.136898        -3.7252
 304   0.0000      -0.128902        -3.5076
 305   0.0000      -0.112899        -3.0721
 306   0.0000      -0.110074        -2.9953
 307   0.0000      -0.094120        -2.5611

MULLIKEN ATOMIC CHARGES
-----------------------
   0 C :    0.262623
   1 O :   -0.295032
   2 C :   -0.009053
   3 C :   -0.296428
   4 C :    0.156068
   5 C :    0.117209
   6 C :   -0.251992
   7 C :    0.145738
   8 C :   -0.100420
   9 C :    0.137494
  10 C :   -0.218124
  11 N :    0.023486
  12 C :   -0.192849
  13 N :    0.011614
  14 C :   -0.056603
  15 C :   -0.163798
  16 C :    0.230475
  17 S :   -0.015736
  18 C :   -0.205082
  19 C :    0.135676
  20 C :   -0.170735
  21 C :   -0.170884
  22 C :   -0.373124
  23 S :    0.016797
  24 C :   -0.164399
  25 C :    0.344457
  26 N :   -0.055134
  27 C :   -0.216299
  28 C :    0.029227
  29 C :   -0.016254
  30 C :    0.141390
  31 C :   -0.005381
  32 N :   -0.251455
  33 S :    0.331988
  34 N :   -0.251789
  35 C :   -0.012058
  36 C :    0.100230
  37 C :   -0.026265
  38 N :    0.029301
  39 C :   -0.329505
  40 C :    0.040127
  41 C :    0.347812
  42 C :   -0.162356
  43 S :    0.047949
  44 C :    0.020010
  45 C :   -0.188303
  46 S :   -0.037581
  47 C :    0.084968
  48 C :    0.034685
  49 C :   -0.180626
  50 C :   -0.339831
  51 C :   -0.199239
  52 C :   -0.060997
  53 C :    0.029131
  54 C :    0.148654
  55 C :   -0.209289
  56 N :    0.011760
  57 C :   -0.198308
  58 N :    0.007934
  59 C :    0.088611
  60 C :   -0.261063
  61 C :    0.107505
  62 C :    0.164759
  63 C :   -0.305953
  64 C :    0.124149
  65 C :    0.133513
  66 O :   -0.298429
  67 Cl:   -0.058681
  68 Cl:   -0.057982
  69 C :   -0.177117
  70 C :   -0.362674
  71 C :   -0.363847
  72 C :   -0.166058
  73 C :   -0.358091
  74 C :   -0.385439
  75 Cl:   -0.048637
  76 Cl:   -0.049177
  77 H :    0.144529
  78 H :    0.162843
  79 H :    0.150174
  80 H :    0.115806
  81 H :    0.133096
  82 H :    0.124167
  83 H :    0.122749
  84 H :    0.148758
  85 H :    0.129111
  86 H :    0.125376
  87 H :    0.078538
  88 H :    0.149390
  89 H :    0.173247
  90 H :    0.037845
  91 H :    0.115849
  92 H :    0.110516
  93 H :    0.120197
  94 H :    0.117902
  95 H :    0.115701
  96 H :    0.164895
  97 H :    0.161823
  98 H :    0.141845
  99 H :    0.100930
 100 H :    0.107027
 101 H :    0.106668
 102 H :    0.129266
 103 H :    0.117931
 104 H :    0.136516
 105 H :    0.122324
 106 H :    0.121391
 107 H :    0.091883
 108 H :    0.123157
 109 H :    0.114472
 110 H :    0.121711
 111 H :    0.106522
 112 H :    0.119435
 113 H :    0.130226
 114 H :    0.118918
Sum of atomic charges:   -0.0000000

LOEWDIN ATOMIC CHARGES
----------------------
   0 C :   -0.248135
   1 O :    0.131016
   2 C :   -0.062770
   3 C :   -0.073247
   4 C :   -0.418002
   5 C :   -0.413230
   6 C :   -0.081238
   7 C :   -0.039155
   8 C :   -0.001631
   9 C :   -0.143771
  10 C :   -0.148704
  11 N :    0.092772
  12 C :   -0.154037
  13 N :    0.075968
  14 C :   -0.090879
  15 C :   -0.072519
  16 C :   -0.302016
  17 S :    0.749065
  18 C :   -0.340814
  19 C :   -0.301950
  20 C :   -0.124971
  21 C :   -0.230273
  22 C :   -0.295683
  23 S :    0.748325
  24 C :   -0.290921
  25 C :   -0.188912
  26 N :    0.288108
  27 C :   -0.219498
  28 C :   -0.287863
  29 C :   -0.087847
  30 C :   -0.091782
  31 C :   -0.244473
  32 N :   -0.118356
  33 S :    0.643080
  34 N :   -0.120405
  35 C :   -0.243477
  36 C :   -0.090038
  37 C :   -0.082541
  38 N :    0.295963
  39 C :   -0.213482
  40 C :   -0.294381
  41 C :   -0.183928
  42 C :   -0.284961
  43 S :    0.747614
  44 C :   -0.308477
  45 C :   -0.340000
  46 S :    0.752976
  47 C :   -0.289082
  48 C :   -0.112731
  49 C :   -0.233269
  50 C :   -0.293611
  51 C :   -0.069003
  52 C :   -0.090030
  53 C :    0.014621
  54 C :   -0.135836
  55 C :   -0.160569
  56 N :    0.068896
  57 C :   -0.153640
  58 N :    0.072757
  59 C :   -0.042433
  60 C :   -0.079137
  61 C :   -0.415252
  62 C :   -0.417067
  63 C :   -0.075593
  64 C :   -0.061092
  65 C :   -0.261252
  66 O :    0.139586
  67 Cl:    0.433311
  68 Cl:    0.433274
  69 C :   -0.261623
  70 C :   -0.309004
  71 C :   -0.282187
  72 C :   -0.261536
  73 C :   -0.302838
  74 C :   -0.278046
  75 Cl:    0.437871
  76 Cl:    0.436948
  77 H :    0.163163
  78 H :    0.165155
  79 H :    0.175753
  80 H :    0.155931
  81 H :    0.153351
  82 H :    0.115585
  83 H :    0.125938
  84 H :    0.129061
  85 H :    0.135325
  86 H :    0.143281
  87 H :    0.153341
  88 H :    0.147901
  89 H :    0.142621
  90 H :    0.152941
  91 H :    0.153046
  92 H :    0.150707
  93 H :    0.115450
  94 H :    0.122837
  95 H :    0.123166
  96 H :    0.173048
  97 H :    0.166486
  98 H :    0.162230
  99 H :    0.142160
 100 H :    0.138184
 101 H :    0.115953
 102 H :    0.124763
 103 H :    0.118626
 104 H :    0.118327
 105 H :    0.127329
 106 H :    0.124105
 107 H :    0.138577
 108 H :    0.148454
 109 H :    0.117847
 110 H :    0.122733
 111 H :    0.120528
 112 H :    0.126633
 113 H :    0.126111
 114 H :    0.120396

  Mayer bond orders larger than 0.100000
B(  0-C ,  1-O ) :   2.1400 B(  0-C ,  2-C ) :   0.9719 B(  0-C , 14-C ) :   1.0083
B(  1-O ,  2-C ) :  -0.1500 B(  1-O , 14-C ) :  -0.1167 B(  2-C ,  3-C ) :   1.3835
B(  2-C ,  7-C ) :   1.3310 B(  3-C ,  4-C ) :   1.3451 B(  3-C , 77-H ) :   0.9755
B(  4-C ,  5-C ) :   1.2559 B(  4-C , 68-Cl) :   1.0520 B(  5-C ,  6-C ) :   1.3822
B(  5-C , 75-Cl) :   1.0957 B(  6-C ,  7-C ) :   1.3929 B(  6-C , 78-H ) :   0.9242
B(  7-C ,  8-C ) :   1.0288 B(  8-C ,  9-C ) :   1.4074 B(  8-C , 14-C ) :   1.1598
B(  9-C , 10-C ) :   1.0504 B(  9-C , 12-C ) :   1.0296 B( 10-C , 11-N ) :   2.9573
B( 12-C , 13-N ) :   2.9793 B( 14-C , 15-C ) :   1.4968 B( 15-C , 16-C ) :   1.0955
B( 15-C , 79-H ) :   0.9305 B( 16-C , 17-S ) :   1.1874 B( 16-C , 20-C ) :   1.3622
B( 17-S , 18-C ) :   1.3114 B( 17-S , 20-C ) :   0.1188 B( 17-S , 25-C ) :  -0.1033
B( 18-C , 19-C ) :   1.3948 B( 18-C , 25-C ) :   1.0578 B( 19-C , 20-C ) :   1.2198
B( 19-C , 23-S ) :   1.1577 B( 20-C , 21-C ) :   0.9762 B( 21-C , 22-C ) :   0.9650
B( 21-C , 80-H ) :   0.9357 B( 21-C , 81-H ) :   0.9809 B( 22-C , 82-H ) :   0.9603
B( 22-C , 83-H ) :   0.9713 B( 22-C , 84-H ) :   0.9727 B( 23-S , 24-C ) :   1.3767
B( 24-C , 25-C ) :   1.2736 B( 24-C , 30-C ) :   1.1530 B( 25-C , 26-N ) :   1.1267
B( 26-N , 27-C ) :   0.8822 B( 26-N , 29-C ) :   1.1894 B( 27-C , 28-C ) :   0.9094
B( 27-C , 85-H ) :   0.9786 B( 27-C , 86-H ) :   0.9665 B( 28-C , 72-C ) :   0.9867
B( 28-C , 74-C ) :   0.9210 B( 28-C , 87-H ) :   0.9514 B( 29-C , 30-C ) :   1.2347
B( 29-C , 37-C ) :   1.3548 B( 30-C , 31-C ) :   1.0690 B( 31-C , 32-N ) :   1.6144
B( 31-C , 33-S ) :   0.1135 B( 31-C , 35-C ) :   1.1729 B( 32-N , 33-S ) :   1.2566
B( 32-N , 34-N ) :   0.1098 B( 33-S , 34-N ) :   1.2553 B( 33-S , 35-C ) :   0.1172
B( 34-N , 35-C ) :   1.6160 B( 35-C , 36-C ) :   1.0952 B( 36-C , 37-C ) :   1.2149
B( 36-C , 42-C ) :   1.1940 B( 37-C , 38-N ) :   1.2345 B( 38-N , 39-C ) :   0.8489
B( 38-N , 41-C ) :   1.1032 B( 39-C , 40-C ) :   0.8773 B( 39-C , 88-H ) :   0.9538
B( 39-C , 89-H ) :   0.9794 B( 40-C , 69-C ) :   0.9448 B( 40-C , 71-C ) :   0.9791
B( 40-C , 90-H ) :   0.9667 B( 41-C , 42-C ) :   1.2762 B( 41-C , 45-C ) :   1.0516
B( 41-C , 46-S ) :  -0.1397 B( 42-C , 43-S ) :   1.3201 B( 43-S , 44-C ) :   1.1671
B( 43-S , 45-C ) :   0.1176 B( 44-C , 45-C ) :   1.3688 B( 44-C , 48-C ) :   1.2261
B( 45-C , 46-S ) :   1.3169 B( 46-S , 47-C ) :   1.1740 B( 47-C , 48-C ) :   1.4192
B( 47-C , 51-C ) :   1.2486 B( 48-C , 49-C ) :   0.9756 B( 49-C , 50-C ) :   0.9401
B( 49-C , 91-H ) :   0.9539 B( 49-C , 92-H ) :   0.9854 B( 50-C , 93-H ) :   0.9732
B( 50-C , 94-H ) :   0.9725 B( 50-C , 95-H ) :   0.9710 B( 51-C , 52-C ) :   1.4520
B( 51-C , 96-H ) :   0.9047 B( 52-C , 53-C ) :   1.1533 B( 52-C , 65-C ) :   1.0179
B( 53-C , 54-C ) :   1.4680 B( 53-C , 59-C ) :   1.0290 B( 54-C , 55-C ) :   1.0246
B( 54-C , 57-C ) :   1.0210 B( 55-C , 56-N ) :   2.9904 B( 57-C , 58-N ) :   2.9711
B( 59-C , 60-C ) :   1.3978 B( 59-C , 64-C ) :   1.3301 B( 60-C , 61-C ) :   1.3815
B( 60-C , 97-H ) :   0.9223 B( 61-C , 62-C ) :   1.2562 B( 61-C , 76-Cl) :   1.1078
B( 62-C , 63-C ) :   1.3408 B( 62-C , 67-Cl) :   1.0470 B( 63-C , 64-C ) :   1.3845
B( 63-C , 98-H ) :   0.9783 B( 64-C , 65-C ) :   0.9522 B( 64-C , 66-O ) :  -0.1580
B( 65-C , 66-O ) :   2.1422 B( 69-C , 70-C ) :   0.9472 B( 69-C , 99-H ) :   0.9654
B( 69-C ,100-H ) :   0.9640 B( 70-C ,101-H ) :   0.9716 B( 70-C ,102-H ) :   0.9740
B( 70-C ,103-H ) :   0.9733 B( 71-C ,104-H ) :   0.9597 B( 71-C ,105-H ) :   0.9749
B( 71-C ,106-H ) :   0.9705 B( 72-C , 73-C ) :   0.9536 B( 72-C ,107-H ) :   0.9509
B( 72-C ,108-H ) :   0.9644 B( 73-C ,109-H ) :   0.9812 B( 73-C ,110-H ) :   0.9804
B( 73-C ,111-H ) :   0.9743 B( 74-C ,112-H ) :   0.9666 B( 74-C ,113-H ) :   0.9804
B( 74-C ,114-H ) :   0.9735

-----------------------------------------------------------------------------
  SOC CORRECTED ABSORPTION SPECTRUM VIA TRANSITION ELECTRIC DIPOLE MOMENTS*
-----------------------------------------------------------------------------
State   Energy  Wavelength   fosc         T2         TX        TY        TZ
        (cm-1)    (nm)                  (au**2)     (au)      (au)      (au)
-----------------------------------------------------------------------------
   1   10432.8    958.5   0.000000000   0.00000   0.00002   0.00001   0.00006
   2   10432.8    958.5   0.000000020   0.00000   0.00062   0.00048   0.00012
   3   10432.8    958.5   0.000000030   0.00000   0.00072   0.00062   0.00018
   4   12051.7    829.8   0.000000088   0.00000   0.00126   0.00083   0.00035
   5   12051.7    829.8   0.000000030   0.00000   0.00070   0.00057   0.00016
   6   12051.7    829.8   0.000000055   0.00000   0.00090   0.00082   0.00001
   7   14440.0    692.5   2.440010948  55.62898   5.95095   4.31427   1.26580
   8   16230.0    616.1   0.000003631   0.00007   0.00671   0.00217   0.00489
   9   16230.0    616.1   0.000000011   0.00000   0.00001   0.00019   0.00044
  10   16230.0    616.1   0.000000428   0.00001   0.00240   0.00160   0.00059
  11   16334.1    612.2   0.169159771   3.40940   1.37974   0.30920   1.18748
  12   18653.9    536.1   0.458981214   8.10028   1.97090   1.97118   0.57469

FINAL SINGLE POINT ENERGY     -6652.109898421233

DIPOLE MOMENT
-------------
                                X             Y             Z
Electronic contribution:    -33.67880     -33.15494      31.90354
Nuclear contribution   :     33.59221      33.87873     -33.74683
                        -----------------------------------------
Total Dipole Moment    :     -0.08659       0.72380      -1.84329
                        -----------------------------------------
Magnitude (a.u.)       :      1.98219
Magnitude (Debye)      :      5.03833

Rotational constants in cm-1:     0.001945     0.000184     0.000176
Rotational constants in MHz :    58.298287     5.501645     5.265529

                             ****ORCA TERMINATED NORMALLY****
TOTAL RUN TIME: 0 days 3 hours 52 minutes 39 seconds 570 msec
