                         Program Version 4.2.0 -  RELEASE  -
|  1> # ORCA input file
|  2> # BTDT2R.out: Geometry 48
|  3> ! B3LYP def2-TZVP def2/J RIJCOSX Grid4 TightSCF
|  4>
|  5> %maxcore 6000
|  6> %tddft
|  7>   maxdim 5
|  8>   nroots 3
|  9>   dosoc true
| 10>   end
| 11> %pal
| 12>   nprocs 6
| 13>   end
| 14>
| 15>
| 16> * xyz 0 1
| 17>    C        0.91670         1.93838         0.46829
| 18>    C        2.08553         1.24232         0.15150
| 19>    C        2.19921        -0.19462         0.18902
| 20>    C        1.11812        -1.04438         0.44719
| 21>    C       -0.11632        -0.35663         0.73379
| 22>    C       -0.20797         1.09456         0.77458
| 23>    N       -1.27495        -0.95096         1.00560
| 24>    S       -2.38959         0.21585         1.28389
| 25>    N       -1.42854         1.52992         1.07757
| 26>    O        3.20180         1.93118        -0.22133
| 27>    O        3.41021        -0.72574        -0.13026
| 28>    C        4.49006        -0.49818         0.77722
| 29>    C        3.49306         1.91962        -1.62117
| 30>    C        0.80898         3.38977         0.44979
| 31>    C        1.19177        -2.50002         0.41016
| 32>    S       -0.73588         4.21206         0.50556
| 33>    C        0.01848         5.78474         0.38677
| 34>    C        1.40614         5.65930         0.34396
| 35>    C        1.84442         4.32671         0.37811
| 36>    C        2.32721        -3.31243         0.31412
| 37>    C        2.02413        -4.67753         0.26911
| 38>    C        0.65422        -4.95838         0.31060
| 39>    S       -0.26510        -3.47759         0.45378
| 40>    C       -0.80113         6.95990         0.35594
| 41>    C       -0.40530         8.26056         0.27157
| 42>    C        0.16675        -6.30319         0.22749
| 43>    C       -1.08031        -6.85869         0.20994
| 44>    C       -1.39849         9.36070         0.21978
| 45>    N       -0.73331        10.59736         0.08974
| 46>    C        0.63822        10.57962         0.05546
| 47>    S        1.22762         8.91003         0.19408
| 48>    S       -1.33902        -8.60447         0.05763
| 49>    C       -3.09628        -8.43080         0.13297
| 50>    N       -3.42739        -7.10405         0.28209
| 51>    C       -2.37745        -6.16856         0.30276
| 52>    O       -2.60445         9.24926         0.27439
| 53>    C       -1.48415        11.83883        -0.01012
| 54>    S        1.63232        11.87653        -0.08603
| 55>    S       -4.14009        -9.69396         0.02861
| 56>    C       -4.80853        -6.66132         0.38313
| 57>    O       -2.56290        -4.96998         0.38897
| 58>    H        4.25139        -0.91346         1.77146
| 59>    H        4.71797         0.57336         0.86611
| 60>    H        5.35712        -1.02732         0.36001
| 61>    H        4.30394         2.64281        -1.77749
| 62>    H        2.60913         2.23761        -2.19876
| 63>    H        3.80944         0.91840        -1.95282
| 64>    H        2.08723         6.50597         0.28252
| 65>    H        2.88810         4.02977         0.35045
| 66>    H        3.33571        -2.91939         0.26406
| 67>    H        2.77778        -5.46340         0.19230
| 68>    H       -1.88823         6.82639         0.38104
| 69>    H        0.98934        -7.02329         0.14705
| 70>    H       -2.54576        11.57200        -0.08096
| 71>    H       -1.15748        12.40046        -0.89703
| 72>    H       -1.30554        12.46659         0.87610
| 73>    H       -5.34734        -7.30948         1.08604
| 74>    H       -5.30910        -6.72269        -0.59511
| 75>    H       -4.79479        -5.62118         0.72985
| 76> *
| 77>
| 78>                          ****END OF INPUT****

CARTESIAN COORDINATES (ANGSTROEM)
---------------------------------
  C      0.916700    1.938380    0.468290
  C      2.085530    1.242320    0.151500
  C      2.199210   -0.194620    0.189020
  C      1.118120   -1.044380    0.447190
  C     -0.116320   -0.356630    0.733790
  C     -0.207970    1.094560    0.774580
  N     -1.274950   -0.950960    1.005600
  S     -2.389590    0.215850    1.283890
  N     -1.428540    1.529920    1.077570
  O      3.201800    1.931180   -0.221330
  O      3.410210   -0.725740   -0.130260
  C      4.490060   -0.498180    0.777220
  C      3.493060    1.919620   -1.621170
  C      0.808980    3.389770    0.449790
  C      1.191770   -2.500020    0.410160
  S     -0.735880    4.212060    0.505560
  C      0.018480    5.784740    0.386770
  C      1.406140    5.659300    0.343960
  C      1.844420    4.326710    0.378110
  C      2.327210   -3.312430    0.314120
  C      2.024130   -4.677530    0.269110
  C      0.654220   -4.958380    0.310600
  S     -0.265100   -3.477590    0.453780
  C     -0.801130    6.959900    0.355940
  C     -0.405300    8.260560    0.271570
  C      0.166750   -6.303190    0.227490
  C     -1.080310   -6.858690    0.209940
  C     -1.398490    9.360700    0.219780
  N     -0.733310   10.597360    0.089740
  C      0.638220   10.579620    0.055460
  S      1.227620    8.910030    0.194080
  S     -1.339020   -8.604470    0.057630
  C     -3.096280   -8.430800    0.132970
  N     -3.427390   -7.104050    0.282090
  C     -2.377450   -6.168560    0.302760
  O     -2.604450    9.249260    0.274390
  C     -1.484150   11.838830   -0.010120
  S      1.632320   11.876530   -0.086030
  S     -4.140090   -9.693960    0.028610
  C     -4.808530   -6.661320    0.383130
  O     -2.562900   -4.969980    0.388970
  H      4.251390   -0.913460    1.771460
  H      4.717970    0.573360    0.866110
  H      5.357120   -1.027320    0.360010
  H      4.303940    2.642810   -1.777490
  H      2.609130    2.237610   -2.198760
  H      3.809440    0.918400   -1.952820
  H      2.087230    6.505970    0.282520
  H      2.888100    4.029770    0.350450
  H      3.335710   -2.919390    0.264060
  H      2.777780   -5.463400    0.192300
  H     -1.888230    6.826390    0.381040
  H      0.989340   -7.023290    0.147050
  H     -2.545760   11.572000   -0.080960
  H     -1.157480   12.400460   -0.897030
  H     -1.305540   12.466590    0.876100
  H     -5.347340   -7.309480    1.086040
  H     -5.309100   -6.722690   -0.595110
  H     -4.794790   -5.621180    0.729850

 Total Charge           Charge          ....    0
 Multiplicity           Mult            ....    1
 Number of Electrons    NEL             ....  346
 Basis Dimension        Dim             .... 1421

ORBITAL ENERGIES
----------------

  NO   OCC          E(Eh)            E(eV)
   0   2.0000     -88.955652     -2420.6063
   1   2.0000     -88.901439     -2419.1311
   2   2.0000     -88.899294     -2419.0728
   3   2.0000     -88.898726     -2419.0573
   4   2.0000     -88.891681     -2418.8656
   5   2.0000     -88.830454     -2417.1995
   6   2.0000     -88.826192     -2417.0836
   7   2.0000     -19.175526      -521.7926
   8   2.0000     -19.174548      -521.7660
   9   2.0000     -19.126056      -520.4464
  10   2.0000     -19.123835      -520.3860
  11   2.0000     -14.393955      -391.6794
  12   2.0000     -14.393245      -391.6601
  13   2.0000     -14.364217      -390.8702
  14   2.0000     -14.362898      -390.8343
  15   2.0000     -10.304251      -280.3929
  16   2.0000     -10.303686      -280.3776
  17   2.0000     -10.297635      -280.2129
  18   2.0000     -10.295318      -280.1499
  19   2.0000     -10.270128      -279.4644
  20   2.0000     -10.269340      -279.4429
  21   2.0000     -10.248665      -278.8803
  22   2.0000     -10.248122      -278.8656
  23   2.0000     -10.242878      -278.7229
  24   2.0000     -10.242809      -278.7210
  25   2.0000     -10.236179      -278.5406
  26   2.0000     -10.233382      -278.4645
  27   2.0000     -10.231407      -278.4107
  28   2.0000     -10.230041      -278.3736
  29   2.0000     -10.229029      -278.3460
  30   2.0000     -10.227579      -278.3066
  31   2.0000     -10.227177      -278.2956
  32   2.0000     -10.225883      -278.2604
  33   2.0000     -10.225031      -278.2372
  34   2.0000     -10.218883      -278.0699
  35   2.0000     -10.216651      -278.0092
  36   2.0000     -10.215733      -277.9842
  37   2.0000     -10.198884      -277.5257
  38   2.0000     -10.196775      -277.4683
  39   2.0000     -10.195820      -277.4424
  40   2.0000     -10.191628      -277.3283
  41   2.0000      -8.026006      -218.3987
  42   2.0000      -7.977828      -217.0877
  43   2.0000      -7.975069      -217.0127
  44   2.0000      -7.974726      -217.0033
  45   2.0000      -7.966285      -216.7736
  46   2.0000      -7.908507      -215.2014
  47   2.0000      -7.904274      -215.0862
  48   2.0000      -5.990547      -163.0111
  49   2.0000      -5.983476      -162.8186
  50   2.0000      -5.982880      -162.8024
  51   2.0000      -5.940772      -161.6566
  52   2.0000      -5.938113      -161.5843
  53   2.0000      -5.937140      -161.5578
  54   2.0000      -5.936921      -161.5518
  55   2.0000      -5.934260      -161.4794
  56   2.0000      -5.933379      -161.4554
  57   2.0000      -5.933290      -161.4530
  58   2.0000      -5.931603      -161.4071
  59   2.0000      -5.930458      -161.3760
  60   2.0000      -5.928828      -161.3316
  61   2.0000      -5.924804      -161.2221
  62   2.0000      -5.922991      -161.1728
  63   2.0000      -5.870946      -159.7566
  64   2.0000      -5.868533      -159.6909
  65   2.0000      -5.866772      -159.6430
  66   2.0000      -5.864179      -159.5724
  67   2.0000      -5.863371      -159.5504
  68   2.0000      -5.859195      -159.4368
  69   2.0000      -1.103955       -30.0401
  70   2.0000      -1.077712       -29.3260
  71   2.0000      -1.075515       -29.2663
  72   2.0000      -1.073434       -29.2096
  73   2.0000      -1.032696       -28.1011
  74   2.0000      -0.994819       -27.0704
  75   2.0000      -0.994092       -27.0506
  76   2.0000      -0.915010       -24.8987
  77   2.0000      -0.904125       -24.6025
  78   2.0000      -0.894756       -24.3476
  79   2.0000      -0.874908       -23.8074
  80   2.0000      -0.857045       -23.3214
  81   2.0000      -0.854682       -23.2571
  82   2.0000      -0.816609       -22.2211
  83   2.0000      -0.804924       -21.9031
  84   2.0000      -0.796867       -21.6839
  85   2.0000      -0.783429       -21.3182
  86   2.0000      -0.775308       -21.0972
  87   2.0000      -0.766342       -20.8532
  88   2.0000      -0.753941       -20.5158
  89   2.0000      -0.748922       -20.3792
  90   2.0000      -0.734731       -19.9930
  91   2.0000      -0.731758       -19.9121
  92   2.0000      -0.719970       -19.5914
  93   2.0000      -0.718983       -19.5645
  94   2.0000      -0.711885       -19.3714
  95   2.0000      -0.700870       -19.0716
  96   2.0000      -0.668899       -18.2017
  97   2.0000      -0.654609       -17.8128
  98   2.0000      -0.646229       -17.5848
  99   2.0000      -0.630506       -17.1569
 100   2.0000      -0.624957       -17.0059
 101   2.0000      -0.615266       -16.7422
 102   2.0000      -0.610015       -16.5994
 103   2.0000      -0.586618       -15.9627
 104   2.0000      -0.577678       -15.7194
 105   2.0000      -0.571119       -15.5409
 106   2.0000      -0.562742       -15.3130
 107   2.0000      -0.552321       -15.0294
 108   2.0000      -0.546418       -14.8688
 109   2.0000      -0.539248       -14.6737
 110   2.0000      -0.535545       -14.5729
 111   2.0000      -0.522110       -14.2073
 112   2.0000      -0.516765       -14.0619
 113   2.0000      -0.504814       -13.7367
 114   2.0000      -0.503791       -13.7089
 115   2.0000      -0.496499       -13.5104
 116   2.0000      -0.494660       -13.4604
 117   2.0000      -0.494546       -13.4573
 118   2.0000      -0.493145       -13.4192
 119   2.0000      -0.486506       -13.2385
 120   2.0000      -0.477792       -13.0014
 121   2.0000      -0.476189       -12.9578
 122   2.0000      -0.469088       -12.7645
 123   2.0000      -0.468556       -12.7500
 124   2.0000      -0.459684       -12.5086
 125   2.0000      -0.456038       -12.4094
 126   2.0000      -0.451157       -12.2766
 127   2.0000      -0.449477       -12.2309
 128   2.0000      -0.432851       -11.7785
 129   2.0000      -0.429029       -11.6745
 130   2.0000      -0.425658       -11.5827
 131   2.0000      -0.425274       -11.5723
 132   2.0000      -0.423333       -11.5195
 133   2.0000      -0.418429       -11.3860
 134   2.0000      -0.415067       -11.2945
 135   2.0000      -0.411894       -11.2082
 136   2.0000      -0.409879       -11.1534
 137   2.0000      -0.407907       -11.0997
 138   2.0000      -0.404672       -11.0117
 139   2.0000      -0.399499       -10.8709
 140   2.0000      -0.394584       -10.7372
 141   2.0000      -0.391502       -10.6533
 142   2.0000      -0.389045       -10.5864
 143   2.0000      -0.385980       -10.5030
 144   2.0000      -0.381962       -10.3937
 145   2.0000      -0.378555       -10.3010
 146   2.0000      -0.375895       -10.2286
 147   2.0000      -0.375451       -10.2166
 148   2.0000      -0.374196       -10.1824
 149   2.0000      -0.365615        -9.9489
 150   2.0000      -0.361799        -9.8450
 151   2.0000      -0.358424        -9.7532
 152   2.0000      -0.357371        -9.7246
 153   2.0000      -0.337086        -9.1726
 154   2.0000      -0.335955        -9.1418
 155   2.0000      -0.330679        -8.9982
 156   2.0000      -0.327047        -8.8994
 157   2.0000      -0.306920        -8.3517
 158   2.0000      -0.301259        -8.1977
 159   2.0000      -0.297012        -8.0821
 160   2.0000      -0.294832        -8.0228
 161   2.0000      -0.288437        -7.8488
 162   2.0000      -0.284427        -7.7396
 163   2.0000      -0.273011        -7.4290
 164   2.0000      -0.270832        -7.3697
 165   2.0000      -0.270309        -7.3555
 166   2.0000      -0.265122        -7.2143
 167   2.0000      -0.262881        -7.1534
 168   2.0000      -0.250316        -6.8115
 169   2.0000      -0.234998        -6.3946
 170   2.0000      -0.231911        -6.3106
 171   2.0000      -0.225613        -6.1392
 172   2.0000      -0.204685        -5.5698
 173   0.0000      -0.123722        -3.3666
 174   0.0000      -0.097830        -2.6621
 175   0.0000      -0.091333        -2.4853
 176   0.0000      -0.055477        -1.5096
 177   0.0000      -0.047548        -1.2938

MULLIKEN ATOMIC CHARGES
-----------------------
   0 C :    0.054239
   1 C :    0.213349
   2 C :    0.227741
   3 C :    0.025302
   4 C :    0.028102
   5 C :    0.039455
   6 N :   -0.257852
   7 S :    0.344205
   8 N :   -0.273647
   9 O :   -0.376740
  10 O :   -0.348313
  11 C :   -0.198070
  12 C :   -0.183249
  13 C :   -0.030630
  14 C :    0.006152
  15 S :    0.084115
  16 C :    0.194256
  17 C :   -0.148804
  18 C :   -0.194269
  19 C :   -0.226391
  20 C :   -0.113033
  21 C :    0.092230
  22 S :    0.139552
  23 C :   -0.291316
  24 C :    0.026309
  25 C :   -0.256588
  26 C :    0.048099
  27 C :    0.210409
  28 N :   -0.039675
  29 C :    0.086112
  30 S :    0.031801
  31 S :    0.053542
  32 C :    0.088874
  33 N :   -0.033997
  34 C :    0.250575
  35 O :   -0.325323
  36 C :   -0.263615
  37 S :   -0.273449
  38 S :   -0.280449
  39 C :   -0.262461
  40 O :   -0.358001
  41 H :    0.128953
  42 H :    0.145109
  43 H :    0.131228
  44 H :    0.128701
  45 H :    0.130103
  46 H :    0.139078
  47 H :    0.135118
  48 H :    0.149305
  49 H :    0.152698
  50 H :    0.116239
  51 H :    0.151570
  52 H :    0.118400
  53 H :    0.161007
  54 H :    0.138003
  55 H :    0.134592
  56 H :    0.141702
  57 H :    0.133420
  58 H :    0.156228
Sum of atomic charges:   -0.0000000

LOEWDIN ATOMIC CHARGES
----------------------
   0 C :   -0.095176
   1 C :   -0.190621
   2 C :   -0.189377
   3 C :   -0.091693
   4 C :   -0.228209
   5 C :   -0.230781
   6 N :   -0.122916
   7 S :    0.673880
   8 N :   -0.129067
   9 O :    0.222065
  10 O :    0.232096
  11 C :   -0.323597
  12 C :   -0.316285
  13 C :   -0.293878
  14 C :   -0.288182
  15 S :    0.794868
  16 C :   -0.354611
  17 C :   -0.157471
  18 C :   -0.146851
  19 C :   -0.154519
  20 C :   -0.149327
  21 C :   -0.347550
  22 S :    0.821481
  23 C :   -0.126720
  24 C :   -0.343092
  25 C :   -0.127317
  26 C :   -0.342032
  27 C :   -0.387425
  28 N :    0.200999
  29 C :   -0.764198
  30 S :    0.696725
  31 S :    0.696346
  32 C :   -0.770383
  33 N :    0.202559
  34 C :   -0.392407
  35 O :    0.108372
  36 C :   -0.269659
  37 S :    0.243647
  38 S :    0.232862
  39 C :   -0.269513
  40 O :    0.105371
  41 H :    0.111143
  42 H :    0.114097
  43 H :    0.115284
  44 H :    0.115421
  45 H :    0.113946
  46 H :    0.113136
  47 H :    0.139841
  48 H :    0.152295
  49 H :    0.149447
  50 H :    0.145408
  51 H :    0.170272
  52 H :    0.164563
  53 H :    0.134001
  54 H :    0.124895
  55 H :    0.125094
  56 H :    0.124982
  57 H :    0.125004
  58 H :    0.132756

  Mayer bond orders larger than 0.100000
B(  0-C ,  1-C ) :   1.4139 B(  0-C ,  5-C ) :   1.0603 B(  0-C , 13-C ) :   1.0569
B(  0-C , 15-S ) :  -0.1071 B(  1-C ,  2-C ) :   1.2952 B(  1-C ,  9-O ) :   0.9023
B(  2-C ,  3-C ) :   1.4144 B(  2-C , 10-O ) :   0.9857 B(  3-C ,  4-C ) :   1.0524
B(  3-C , 14-C ) :   1.0764 B(  3-C , 22-S ) :  -0.1357 B(  4-C ,  5-C ) :   1.1818
B(  4-C ,  6-N ) :   1.5337 B(  4-C ,  7-S ) :   0.1258 B(  5-C ,  7-S ) :   0.1202
B(  5-C ,  8-N ) :   1.5133 B(  6-N ,  7-S ) :   1.2850 B(  6-N ,  8-N ) :   0.1265
B(  7-S ,  8-N ) :   1.2792 B(  9-O , 12-C ) :   0.8837 B( 10-O , 11-C ) :   0.8737
B( 11-C , 41-H ) :   0.9656 B( 11-C , 42-H ) :   0.9575 B( 11-C , 43-H ) :   0.9754
B( 12-C , 44-H ) :   0.9731 B( 12-C , 45-H ) :   0.9680 B( 12-C , 46-H ) :   0.9612
B( 13-C , 15-S ) :   1.3418 B( 13-C , 18-C ) :   1.4431 B( 14-C , 19-C ) :   1.4131
B( 14-C , 22-S ) :   1.3722 B( 15-S , 16-C ) :   1.2135 B( 16-C , 17-C ) :   1.4113
B( 16-C , 23-C ) :   1.0798 B( 17-C , 18-C ) :   1.3756 B( 17-C , 47-H ) :   0.9428
B( 18-C , 48-H ) :   0.9319 B( 19-C , 20-C ) :   1.4263 B( 19-C , 22-S ) :   0.1121
B( 19-C , 49-H ) :   0.9223 B( 20-C , 21-C ) :   1.3378 B( 20-C , 50-H ) :   0.9558
B( 21-C , 22-S ) :   1.2917 B( 21-C , 25-C ) :   1.1667 B( 23-C , 24-C ) :   1.6210
B( 23-C , 51-H ) :   0.9327 B( 24-C , 27-C ) :   1.0148 B( 24-C , 30-S ) :   1.1099
B( 25-C , 26-C ) :   1.5421 B( 25-C , 52-H ) :   0.9485 B( 26-C , 31-S ) :   1.1178
B( 26-C , 34-C ) :   1.0369 B( 27-C , 28-N ) :   1.1129 B( 27-C , 35-O ) :   2.0206
B( 28-N , 29-C ) :   1.1899 B( 28-N , 36-C ) :   0.8982 B( 29-C , 30-S ) :   1.1831
B( 29-C , 37-S ) :   1.8403 B( 30-S , 37-S ) :   0.1117 B( 31-S , 32-C ) :   1.2020
B( 31-S , 38-S ) :   0.1182 B( 32-C , 33-N ) :   1.1773 B( 32-C , 38-S ) :   1.8335
B( 33-N , 34-C ) :   1.1303 B( 33-N , 39-C ) :   0.9000 B( 34-C , 40-O ) :   1.8983
B( 36-C , 53-H ) :   0.9507 B( 36-C , 54-H ) :   0.9578 B( 36-C , 55-H ) :   0.9612
B( 39-C , 56-H ) :   0.9560 B( 39-C , 57-H ) :   0.9623 B( 39-C , 58-H ) :   0.9523

-----------------------------------------------------------------------------
  SOC CORRECTED ABSORPTION SPECTRUM VIA TRANSITION ELECTRIC DIPOLE MOMENTS*
-----------------------------------------------------------------------------
State   Energy  Wavelength   fosc         T2         TX        TY        TZ
        (cm-1)    (nm)                  (au**2)     (au)      (au)      (au)
-----------------------------------------------------------------------------
   1   10765.5    928.9   0.000000000   0.00000   0.00001   0.00003   0.00001
   2   10765.6    928.9   0.000000000   0.00000   0.00002   0.00001   0.00001
   3   10765.6    928.9   0.000000000   0.00000   0.00001   0.00007   0.00001
   4   14540.7    687.7   0.000000331   0.00001   0.00023   0.00273   0.00006
   5   14540.9    687.7   0.000000146   0.00000   0.00027   0.00180   0.00000
   6   14540.9    687.7   0.000000007   0.00000   0.00004   0.00039   0.00000
   7   16729.1    597.8   1.851144495  36.42878   0.80835   5.98118   0.02986
   8   17186.6    581.8   0.000001567   0.00003   0.00108   0.00537   0.00014
   9   17186.8    581.8   0.000000046   0.00000   0.00014   0.00093   0.00001
  10   17186.8    581.8   0.000000035   0.00000   0.00014   0.00081   0.00001
  11   19859.9    503.5   0.024949854   0.41359   0.01713   0.64245   0.02341
  12   20239.2    494.1   0.000034374   0.00056   0.00726   0.01909   0.01192

FINAL SINGLE POINT ENERGY     -4308.244380807387

DIPOLE MOMENT
-------------
                                X             Y             Z
Electronic contribution:    -15.43684      -9.00990       5.07174
Nuclear contribution   :     17.38693       8.74447      -5.21863
                        -----------------------------------------
Total Dipole Moment    :      1.95009      -0.26544      -0.14689
                        -----------------------------------------
Magnitude (a.u.)       :      1.97355
Magnitude (Debye)      :      5.01636

Rotational constants in cm-1:     0.005786     0.000582     0.000533
Rotational constants in MHz :   173.466136    17.458315    15.993395

                             ****ORCA TERMINATED NORMALLY****
TOTAL RUN TIME: 0 days 0 hours 43 minutes 32 seconds 367 msec
