                         Program Version 4.2.0 -  RELEASE  -
|  1> # ORCA input file
|  2> # BTN-4F.out: Geometry 122
|  3> ! B3LYP def2-TZVP def2/J RIJCOSX Grid4 TightSCF
|  4>
|  5> %maxcore 6000
|  6> %tddft
|  7>   maxdim 5
|  8>   nroots 3
|  9>   dosoc true
| 10>   end
| 11> %pal
| 12>   nprocs 6
| 13>   end
| 14>
| 15>
| 16> * xyz 0 1
| 17>    C        0.55913        -0.81636        -0.86291
| 18>    C        1.34847         0.37790        -0.93436
| 19>    C        2.77700         0.27895        -0.86442
| 20>    C        3.37875        -0.96512        -0.49773
| 21>    C        2.59603        -2.15634        -0.36821
| 22>    C        1.16697        -2.09040        -0.61794
| 23>    N        3.03634        -3.37758        -0.09525
| 24>    S        1.72489        -4.38470        -0.14977
| 25>    N        0.56266        -3.26780        -0.52941
| 26>    N        3.79533         1.20753        -1.09403
| 27>    C        5.00485         0.58748        -0.82713
| 28>    C        4.76846        -0.74377        -0.44106
| 29>    C       -0.78906        -0.39020        -0.89436
| 30>    C       -0.80463         1.02153        -0.97731
| 31>    N        0.50193         1.48989        -0.99487
| 32>    N       -2.06279        -0.85255        -0.80981
| 33>    C       -2.91484         0.26299        -0.80240
| 34>    C       -2.13239         1.44648        -0.95688
| 35>    C        6.38693         0.88624        -0.90898
| 36>    C        7.16693        -0.22385        -0.52646
| 37>    S        6.21897        -1.64753        -0.10869
| 38>    S        7.39683         2.21524        -1.37790
| 39>    C        8.86038         1.27670        -1.03095
| 40>    C        8.56091        -0.02190        -0.57975
| 41>    C        0.82097         2.88044        -0.73077
| 42>    C       -4.31801         0.26233        -0.61264
| 43>    C       -5.09947        -0.63903         0.09352
| 44>    C       10.13798         1.82142        -1.35361
| 45>    C       11.35302         1.53072        -0.77930
| 46>    C       -4.57585        -1.52767         1.17291
| 47>    C       -5.75854        -2.21795         1.74489
| 48>    C       -6.92818        -1.78011         1.09657
| 49>    C       -6.55540        -0.75614         0.08549
| 50>    C       12.61057         1.66274        -1.59377
| 51>    C       13.63881         0.88093        -0.85096
| 52>    C       13.10867         0.45359         0.38351
| 53>    C       11.72456         0.96881         0.51267
| 54>    C       -5.76495        -3.17871         2.74788
| 55>    C       -6.98959        -3.73758         3.09333
| 56>    C       -8.16701        -3.32838         2.44186
| 57>    C       -8.15916        -2.34523         1.45508
| 58>    C       14.91684         0.53220        -1.27263
| 59>    C       15.67142        -0.28502        -0.43615
| 60>    C       15.15786        -0.71226         0.80255
| 61>    C       13.88594        -0.34361         1.23308
| 62>    O       -3.43297        -1.63891         1.57531
| 63>    C       -7.45359        -0.08736        -0.73016
| 64>    C       -7.05420         0.87465        -1.70919
| 65>    C       -8.86444        -0.30415        -0.66179
| 66>    F       -7.06372        -4.67577         4.03369
| 67>    F       -9.31383        -3.91042         2.78218
| 68>    O       12.74376         2.22144        -2.66115
| 69>    C       11.01030         1.05523         1.69294
| 70>    C        9.76039         1.73912         1.79112
| 71>    C       11.52089         0.54200         2.92517
| 72>    F       15.91425        -1.49552         1.56795
| 73>    F       16.88431        -0.69107        -0.79724
| 74>    N      -10.01337        -0.47452        -0.61112
| 75>    N       -6.74580         1.66127        -2.50786
| 76>    N       11.94616         0.10855         3.91586
| 77>    N        8.75293         2.30806         1.89503
| 78>    C        9.54015        -1.11858        -0.31029
| 79>    C        3.71944         2.47233        -1.80479
| 80>    C       -2.43722        -2.24947        -0.99084
| 81>    H       -2.54283         2.45305        -0.97854
| 82>    H       -0.02462         3.33660        -0.19686
| 83>    H        0.99530         3.45821        -1.65152
| 84>    H        1.70382         2.95368        -0.08413
| 85>    H       -4.80923         1.12846        -1.05909
| 86>    H       10.19884         2.46821        -2.23906
| 87>    H       -4.84564        -3.49727         3.24161
| 88>    H       -9.10867        -2.06999         1.00179
| 89>    H       15.31347         0.87342        -2.22998
| 90>    H       13.54413        -0.70699         2.19946
| 91>    H       10.46860        -0.98123        -0.87885
| 92>    H        9.09962        -2.08913        -0.58418
| 93>    H        9.81362        -1.16515         0.75662
| 94>    H        4.62197         2.58474        -2.42205
| 95>    H        3.65698         3.33277        -1.12209
| 96>    H        2.85243         2.47573        -2.47620
| 97>    H       -1.81010        -2.68934        -1.77560
| 98>    H       -3.49010        -2.30209        -1.29171
| 99>    H       -2.29296        -2.81368        -0.06389
|100> *
|101>
|102>                          ****END OF INPUT****

CARTESIAN COORDINATES (ANGSTROEM)
---------------------------------
  C      0.559130   -0.816360   -0.862910
  C      1.348470    0.377900   -0.934360
  C      2.777000    0.278950   -0.864420
  C      3.378750   -0.965120   -0.497730
  C      2.596030   -2.156340   -0.368210
  C      1.166970   -2.090400   -0.617940
  N      3.036340   -3.377580   -0.095250
  S      1.724890   -4.384700   -0.149770
  N      0.562660   -3.267800   -0.529410
  N      3.795330    1.207530   -1.094030
  C      5.004850    0.587480   -0.827130
  C      4.768460   -0.743770   -0.441060
  C     -0.789060   -0.390200   -0.894360
  C     -0.804630    1.021530   -0.977310
  N      0.501930    1.489890   -0.994870
  N     -2.062790   -0.852550   -0.809810
  C     -2.914840    0.262990   -0.802400
  C     -2.132390    1.446480   -0.956880
  C      6.386930    0.886240   -0.908980
  C      7.166930   -0.223850   -0.526460
  S      6.218970   -1.647530   -0.108690
  S      7.396830    2.215240   -1.377900
  C      8.860380    1.276700   -1.030950
  C      8.560910   -0.021900   -0.579750
  C      0.820970    2.880440   -0.730770
  C     -4.318010    0.262330   -0.612640
  C     -5.099470   -0.639030    0.093520
  C     10.137980    1.821420   -1.353610
  C     11.353020    1.530720   -0.779300
  C     -4.575850   -1.527670    1.172910
  C     -5.758540   -2.217950    1.744890
  C     -6.928180   -1.780110    1.096570
  C     -6.555400   -0.756140    0.085490
  C     12.610570    1.662740   -1.593770
  C     13.638810    0.880930   -0.850960
  C     13.108670    0.453590    0.383510
  C     11.724560    0.968810    0.512670
  C     -5.764950   -3.178710    2.747880
  C     -6.989590   -3.737580    3.093330
  C     -8.167010   -3.328380    2.441860
  C     -8.159160   -2.345230    1.455080
  C     14.916840    0.532200   -1.272630
  C     15.671420   -0.285020   -0.436150
  C     15.157860   -0.712260    0.802550
  C     13.885940   -0.343610    1.233080
  O     -3.432970   -1.638910    1.575310
  C     -7.453590   -0.087360   -0.730160
  C     -7.054200    0.874650   -1.709190
  C     -8.864440   -0.304150   -0.661790
  F     -7.063720   -4.675770    4.033690
  F     -9.313830   -3.910420    2.782180
  O     12.743760    2.221440   -2.661150
  C     11.010300    1.055230    1.692940
  C      9.760390    1.739120    1.791120
  C     11.520890    0.542000    2.925170
  F     15.914250   -1.495520    1.567950
  F     16.884310   -0.691070   -0.797240
  N    -10.013370   -0.474520   -0.611120
  N     -6.745800    1.661270   -2.507860
  N     11.946160    0.108550    3.915860
  N      8.752930    2.308060    1.895030
  C      9.540150   -1.118580   -0.310290
  C      3.719440    2.472330   -1.804790
  C     -2.437220   -2.249470   -0.990840
  H     -2.542830    2.453050   -0.978540
  H     -0.024620    3.336600   -0.196860
  H      0.995300    3.458210   -1.651520
  H      1.703820    2.953680   -0.084130
  H     -4.809230    1.128460   -1.059090
  H     10.198840    2.468210   -2.239060
  H     -4.845640   -3.497270    3.241610
  H     -9.108670   -2.069990    1.001790
  H     15.313470    0.873420   -2.229980
  H     13.544130   -0.706990    2.199460
  H     10.468600   -0.981230   -0.878850
  H      9.099620   -2.089130   -0.584180
  H      9.813620   -1.165150    0.756620
  H      4.621970    2.584740   -2.422050
  H      3.656980    3.332770   -1.122090
  H      2.852430    2.475730   -2.476200
  H     -1.810100   -2.689340   -1.775600
  H     -3.490100   -2.302090   -1.291710
  H     -2.292960   -2.813680   -0.063890

 Total Charge           Charge          ....    0
 Multiplicity           Mult            ....    1
 Number of Electrons    NEL             ....  458
 Basis Dimension        Dim             .... 2116

ORBITAL ENERGIES
----------------

  NO   OCC          E(Eh)            E(eV)
   0   2.0000     -88.947694     -2420.3898
   1   2.0000     -88.918133     -2419.5854
   2   2.0000     -88.913263     -2419.4529
   3   2.0000     -24.732028      -672.9927
   4   2.0000     -24.730831      -672.9601
   5   2.0000     -24.724949      -672.8001
   6   2.0000     -24.722786      -672.7412
   7   2.0000     -19.140644      -520.8434
   8   2.0000     -19.130147      -520.5578
   9   2.0000     -14.416138      -392.2830
  10   2.0000     -14.407742      -392.0546
  11   2.0000     -14.396786      -391.7565
  12   2.0000     -14.362688      -390.8286
  13   2.0000     -14.360563      -390.7708
  14   2.0000     -14.339229      -390.1903
  15   2.0000     -14.338324      -390.1656
  16   2.0000     -14.332090      -389.9960
  17   2.0000     -14.329853      -389.9351
  18   2.0000     -10.306910      -280.4653
  19   2.0000     -10.306412      -280.4517
  20   2.0000     -10.298231      -280.2291
  21   2.0000     -10.297588      -280.2116
  22   2.0000     -10.288328      -279.9596
  23   2.0000     -10.277976      -279.6780
  24   2.0000     -10.269376      -279.4439
  25   2.0000     -10.268730      -279.4263
  26   2.0000     -10.266541      -279.3668
  27   2.0000     -10.266098      -279.3547
  28   2.0000     -10.259559      -279.1768
  29   2.0000     -10.258044      -279.1356
  30   2.0000     -10.256802      -279.1018
  31   2.0000     -10.254515      -279.0395
  32   2.0000     -10.252038      -278.9721
  33   2.0000     -10.250667      -278.9348
  34   2.0000     -10.248134      -278.8659
  35   2.0000     -10.247071      -278.8370
  36   2.0000     -10.246499      -278.8214
  37   2.0000     -10.246263      -278.8150
  38   2.0000     -10.240806      -278.6665
  39   2.0000     -10.240474      -278.6575
  40   2.0000     -10.238777      -278.6113
  41   2.0000     -10.238678      -278.6086
  42   2.0000     -10.237730      -278.5828
  43   2.0000     -10.236585      -278.5516
  44   2.0000     -10.236276      -278.5432
  45   2.0000     -10.235813      -278.5306
  46   2.0000     -10.235499      -278.5221
  47   2.0000     -10.232362      -278.4367
  48   2.0000     -10.231353      -278.4093
  49   2.0000     -10.230411      -278.3836
  50   2.0000     -10.230160      -278.3768
  51   2.0000     -10.228616      -278.3348
  52   2.0000     -10.227932      -278.3162
  53   2.0000     -10.225507      -278.2502
  54   2.0000     -10.225373      -278.2465
  55   2.0000     -10.223238      -278.1884
  56   2.0000     -10.220440      -278.1123
  57   2.0000     -10.219562      -278.0884
  58   2.0000     -10.218995      -278.0730
  59   2.0000     -10.218948      -278.0717
  60   2.0000     -10.215957      -277.9903
  61   2.0000     -10.214936      -277.9626
  62   2.0000     -10.211564      -277.8708
  63   2.0000     -10.204787      -277.6864
  64   2.0000      -8.018184      -218.1859
  65   2.0000      -7.993678      -217.5190
  66   2.0000      -7.988338      -217.3737
  67   2.0000      -5.982930      -162.8038
  68   2.0000      -5.975881      -162.6120
  69   2.0000      -5.974579      -162.5766
  70   2.0000      -5.956501      -162.0846
  71   2.0000      -5.952675      -161.9805
  72   2.0000      -5.951368      -161.9449
  73   2.0000      -5.949809      -161.9025
  74   2.0000      -5.947590      -161.8422
  75   2.0000      -5.944068      -161.7463
  76   2.0000      -1.277658       -34.7668
  77   2.0000      -1.270029       -34.5592
  78   2.0000      -1.263526       -34.3823
  79   2.0000      -1.256060       -34.1791
  80   2.0000      -1.068437       -29.0737
  81   2.0000      -1.059593       -28.8330
  82   2.0000      -1.041784       -28.3484
  83   2.0000      -1.031593       -28.0711
  84   2.0000      -1.023989       -27.8642
  85   2.0000      -1.003982       -27.3198
  86   2.0000      -0.945592       -25.7309
  87   2.0000      -0.936158       -25.4741
  88   2.0000      -0.934763       -25.4362
  89   2.0000      -0.926439       -25.2097
  90   2.0000      -0.925062       -25.1722
  91   2.0000      -0.919162       -25.0117
  92   2.0000      -0.916710       -24.9450
  93   2.0000      -0.904822       -24.6215
  94   2.0000      -0.887684       -24.1551
  95   2.0000      -0.881037       -23.9742
  96   2.0000      -0.873129       -23.7590
  97   2.0000      -0.869352       -23.6563
  98   2.0000      -0.840996       -22.8847
  99   2.0000      -0.836390       -22.7593
 100   2.0000      -0.829980       -22.5849
 101   2.0000      -0.821487       -22.3538
 102   2.0000      -0.816067       -22.2063
 103   2.0000      -0.812705       -22.1148
 104   2.0000      -0.802808       -21.8455
 105   2.0000      -0.801156       -21.8006
 106   2.0000      -0.794432       -21.6176
 107   2.0000      -0.793873       -21.6024
 108   2.0000      -0.775500       -21.1024
 109   2.0000      -0.758362       -20.6361
 110   2.0000      -0.743541       -20.2328
 111   2.0000      -0.740368       -20.1464
 112   2.0000      -0.729657       -19.8550
 113   2.0000      -0.720514       -19.6062
 114   2.0000      -0.713052       -19.4031
 115   2.0000      -0.709496       -19.3064
 116   2.0000      -0.702710       -19.1217
 117   2.0000      -0.694406       -18.8957
 118   2.0000      -0.691814       -18.8252
 119   2.0000      -0.671974       -18.2854
 120   2.0000      -0.660313       -17.9680
 121   2.0000      -0.655260       -17.8305
 122   2.0000      -0.644393       -17.5348
 123   2.0000      -0.637898       -17.3581
 124   2.0000      -0.632682       -17.2162
 125   2.0000      -0.626313       -17.0428
 126   2.0000      -0.620158       -16.8754
 127   2.0000      -0.615716       -16.7545
 128   2.0000      -0.609393       -16.5824
 129   2.0000      -0.599872       -16.3234
 130   2.0000      -0.593754       -16.1569
 131   2.0000      -0.590303       -16.0630
 132   2.0000      -0.586718       -15.9654
 133   2.0000      -0.578380       -15.7385
 134   2.0000      -0.575368       -15.6566
 135   2.0000      -0.570102       -15.5133
 136   2.0000      -0.567009       -15.4291
 137   2.0000      -0.563948       -15.3458
 138   2.0000      -0.548388       -14.9224
 139   2.0000      -0.546415       -14.8687
 140   2.0000      -0.542323       -14.7574
 141   2.0000      -0.538421       -14.6512
 142   2.0000      -0.534389       -14.5415
 143   2.0000      -0.526947       -14.3390
 144   2.0000      -0.526441       -14.3252
 145   2.0000      -0.522406       -14.2154
 146   2.0000      -0.519521       -14.1369
 147   2.0000      -0.519299       -14.1308
 148   2.0000      -0.515797       -14.0355
 149   2.0000      -0.514388       -13.9972
 150   2.0000      -0.503955       -13.7133
 151   2.0000      -0.501320       -13.6416
 152   2.0000      -0.499291       -13.5864
 153   2.0000      -0.492980       -13.4147
 154   2.0000      -0.492324       -13.3968
 155   2.0000      -0.487031       -13.2528
 156   2.0000      -0.485021       -13.1981
 157   2.0000      -0.482753       -13.1364
 158   2.0000      -0.478697       -13.0260
 159   2.0000      -0.476281       -12.9603
 160   2.0000      -0.475494       -12.9389
 161   2.0000      -0.469920       -12.7872
 162   2.0000      -0.468417       -12.7463
 163   2.0000      -0.466886       -12.7046
 164   2.0000      -0.465421       -12.6647
 165   2.0000      -0.462983       -12.5984
 166   2.0000      -0.460892       -12.5415
 167   2.0000      -0.460385       -12.5277
 168   2.0000      -0.456956       -12.4344
 169   2.0000      -0.454021       -12.3546
 170   2.0000      -0.449736       -12.2379
 171   2.0000      -0.447296       -12.1715
 172   2.0000      -0.446636       -12.1536
 173   2.0000      -0.442304       -12.0357
 174   2.0000      -0.438706       -11.9378
 175   2.0000      -0.434975       -11.8363
 176   2.0000      -0.431778       -11.7493
 177   2.0000      -0.429740       -11.6938
 178   2.0000      -0.427916       -11.6442
 179   2.0000      -0.426065       -11.5938
 180   2.0000      -0.425129       -11.5683
 181   2.0000      -0.422052       -11.4846
 182   2.0000      -0.420634       -11.4460
 183   2.0000      -0.418038       -11.3754
 184   2.0000      -0.415656       -11.3106
 185   2.0000      -0.412765       -11.2319
 186   2.0000      -0.407592       -11.0911
 187   2.0000      -0.405747       -11.0409
 188   2.0000      -0.404387       -11.0039
 189   2.0000      -0.397901       -10.8274
 190   2.0000      -0.395297       -10.7566
 191   2.0000      -0.393924       -10.7192
 192   2.0000      -0.391591       -10.6557
 193   2.0000      -0.390105       -10.6153
 194   2.0000      -0.388827       -10.5805
 195   2.0000      -0.387046       -10.5321
 196   2.0000      -0.386649       -10.5212
 197   2.0000      -0.383150       -10.4260
 198   2.0000      -0.379939       -10.3387
 199   2.0000      -0.376150       -10.2356
 200   2.0000      -0.369627       -10.0580
 201   2.0000      -0.368061       -10.0155
 202   2.0000      -0.366616        -9.9761
 203   2.0000      -0.360146        -9.8001
 204   2.0000      -0.359406        -9.7799
 205   2.0000      -0.357562        -9.7298
 206   2.0000      -0.351665        -9.5693
 207   2.0000      -0.349810        -9.5188
 208   2.0000      -0.347759        -9.4630
 209   2.0000      -0.343869        -9.3572
 210   2.0000      -0.342261        -9.3134
 211   2.0000      -0.339955        -9.2507
 212   2.0000      -0.336407        -9.1541
 213   2.0000      -0.315793        -8.5932
 214   2.0000      -0.312723        -8.5096
 215   2.0000      -0.306040        -8.3278
 216   2.0000      -0.299878        -8.1601
 217   2.0000      -0.297443        -8.0938
 218   2.0000      -0.290628        -7.9084
 219   2.0000      -0.284693        -7.7469
 220   2.0000      -0.279747        -7.6123
 221   2.0000      -0.277378        -7.5478
 222   2.0000      -0.274265        -7.4631
 223   2.0000      -0.269011        -7.3202
 224   2.0000      -0.263040        -7.1577
 225   2.0000      -0.248792        -6.7700
 226   2.0000      -0.241897        -6.5824
 227   2.0000      -0.235516        -6.4087
 228   2.0000      -0.208317        -5.6686
 229   0.0000      -0.136894        -3.7251
 230   0.0000      -0.124751        -3.3947
 231   0.0000      -0.112712        -3.0671
 232   0.0000      -0.105777        -2.8783
 233   0.0000      -0.092058        -2.5050

MULLIKEN ATOMIC CHARGES
-----------------------
   0 C :   -0.061146
   1 C :    0.086016
   2 C :    0.029055
   3 C :    0.080985
   4 C :    0.009721
   5 C :    0.015356
   6 N :   -0.253136
   7 S :    0.323853
   8 N :   -0.277355
   9 N :   -0.084192
  10 C :    0.360524
  11 C :   -0.128239
  12 C :    0.092659
  13 C :    0.113288
  14 N :   -0.091968
  15 N :   -0.011184
  16 C :    0.202690
  17 C :   -0.294944
  18 C :   -0.222606
  19 C :    0.062660
  20 S :    0.038208
  21 S :    0.015559
  22 C :    0.100521
  23 C :   -0.006237
  24 C :   -0.298134
  25 C :   -0.208287
  26 C :   -0.109241
  27 C :   -0.206336
  28 C :   -0.056916
  29 C :    0.202963
  30 C :    0.088010
  31 C :    0.075527
  32 C :    0.041085
  33 C :    0.219256
  34 C :   -0.020183
  35 C :    0.150831
  36 C :    0.015235
  37 C :   -0.307335
  38 C :    0.281437
  39 C :    0.254073
  40 C :   -0.267908
  41 C :   -0.281644
  42 C :    0.276475
  43 C :    0.255439
  44 C :   -0.267752
  45 O :   -0.318178
  46 C :    0.133258
  47 C :   -0.191481
  48 C :   -0.196738
  49 F :   -0.176483
  50 F :   -0.173451
  51 O :   -0.282710
  52 C :    0.086532
  53 C :   -0.189709
  54 C :   -0.189219
  55 F :   -0.170677
  56 F :   -0.173293
  57 N :    0.003088
  58 N :    0.009959
  59 N :    0.009775
  60 N :    0.014526
  61 C :   -0.376885
  62 C :   -0.306824
  63 C :   -0.287761
  64 H :    0.134277
  65 H :    0.149030
  66 H :    0.136059
  67 H :    0.142851
  68 H :    0.161657
  69 H :    0.152210
  70 H :    0.149807
  71 H :    0.167008
  72 H :    0.154585
  73 H :    0.165921
  74 H :    0.140711
  75 H :    0.137149
  76 H :    0.151981
  77 H :    0.149677
  78 H :    0.145035
  79 H :    0.146988
  80 H :    0.143074
  81 H :    0.152022
  82 H :    0.159546
Sum of atomic charges:   -0.0000000

LOEWDIN ATOMIC CHARGES
----------------------
   0 C :   -0.066942
   1 C :   -0.084363
   2 C :   -0.091469
   3 C :   -0.087799
   4 C :   -0.241088
   5 C :   -0.238365
   6 N :   -0.119219
   7 S :    0.639967
   8 N :   -0.120846
   9 N :    0.263843
  10 C :   -0.174295
  11 C :   -0.288410
  12 C :   -0.101006
  13 C :   -0.150337
  14 N :    0.255436
  15 N :    0.293759
  16 C :   -0.153280
  17 C :   -0.089238
  18 C :   -0.332514
  19 C :   -0.321230
  20 S :    0.749397
  21 S :    0.752256
  22 C :   -0.310676
  23 C :   -0.155653
  24 C :   -0.263980
  25 C :   -0.033170
  26 C :   -0.095012
  27 C :   -0.063068
  28 C :   -0.085330
  29 C :   -0.260658
  30 C :   -0.064617
  31 C :   -0.040383
  32 C :    0.012101
  33 C :   -0.246953
  34 C :   -0.062524
  35 C :   -0.042102
  36 C :    0.001591
  37 C :   -0.051356
  38 C :   -0.233552
  39 C :   -0.231890
  40 C :   -0.054118
  41 C :   -0.047787
  42 C :   -0.232041
  43 C :   -0.228547
  44 C :   -0.053457
  45 O :    0.132943
  46 C :   -0.138649
  47 C :   -0.155779
  48 C :   -0.153455
  49 F :    0.222853
  50 F :    0.224928
  51 O :    0.136405
  52 C :   -0.141806
  53 C :   -0.144790
  54 C :   -0.153565
  55 F :    0.226527
  56 F :    0.226702
  57 N :    0.069239
  58 N :    0.067627
  59 N :    0.075651
  60 N :    0.086217
  61 C :   -0.238250
  62 C :   -0.262527
  63 C :   -0.253676
  64 H :    0.147091
  65 H :    0.132338
  66 H :    0.117706
  67 H :    0.127316
  68 H :    0.176572
  69 H :    0.169965
  70 H :    0.165718
  71 H :    0.170161
  72 H :    0.167208
  73 H :    0.169814
  74 H :    0.140797
  75 H :    0.133705
  76 H :    0.142590
  77 H :    0.128999
  78 H :    0.121010
  79 H :    0.128828
  80 H :    0.125307
  81 H :    0.129547
  82 H :    0.127658

  Mayer bond orders larger than 0.100000
B(  0-C ,  1-C ) :   1.3104 B(  0-C ,  5-C ) :   1.0984 B(  0-C , 12-C ) :   1.2172
B(  1-C ,  2-C ) :   1.2439 B(  1-C , 14-N ) :   1.1961 B(  2-C ,  3-C ) :   1.2761
B(  2-C ,  9-N ) :   1.2045 B(  3-C ,  4-C ) :   1.1171 B(  3-C , 11-C ) :   1.1901
B(  4-C ,  5-C ) :   1.1671 B(  4-C ,  6-N ) :   1.6091 B(  4-C ,  7-S ) :   0.1145
B(  5-C ,  7-S ) :   0.1188 B(  5-C ,  8-N ) :   1.5512 B(  6-N ,  7-S ) :   1.2574
B(  6-N ,  8-N ) :   0.1139 B(  7-S ,  8-N ) :   1.2500 B(  9-N , 10-C ) :   1.1310
B(  9-N , 62-C ) :   0.9130 B( 10-C , 11-C ) :   1.2674 B( 10-C , 18-C ) :   1.0748
B( 10-C , 21-S ) :  -0.1197 B( 11-C , 20-S ) :   1.3327 B( 12-C , 13-C ) :   1.2105
B( 12-C , 15-N ) :   1.2724 B( 13-C , 14-N ) :   1.1424 B( 13-C , 17-C ) :   1.4092
B( 14-N , 24-C ) :   0.9238 B( 15-N , 16-C ) :   1.1308 B( 15-N , 63-C ) :   0.8854
B( 16-C , 17-C ) :   1.3066 B( 16-C , 25-C ) :   1.2837 B( 17-C , 64-H ) :   0.9699
B( 18-C , 19-C ) :   1.4325 B( 18-C , 20-S ) :   0.1088 B( 18-C , 21-S ) :   1.3183
B( 19-C , 20-S ) :   1.1921 B( 19-C , 23-C ) :   1.2564 B( 21-S , 22-C ) :   1.1834
B( 21-S , 23-C ) :   0.1061 B( 22-C , 23-C ) :   1.4409 B( 22-C , 27-C ) :   1.0842
B( 23-C , 61-C ) :   0.9166 B( 24-C , 65-H ) :   0.9631 B( 24-C , 66-H ) :   0.9573
B( 24-C , 67-H ) :   0.9658 B( 25-C , 26-C ) :   1.4003 B( 25-C , 68-H ) :   0.9289
B( 26-C , 29-C ) :   1.0052 B( 26-C , 32-C ) :   1.1784 B( 27-C , 28-C ) :   1.5117
B( 27-C , 69-H ) :   0.9445 B( 28-C , 33-C ) :   0.9936 B( 28-C , 36-C ) :   1.1207
B( 28-C , 51-O ) :  -0.1287 B( 29-C , 30-C ) :   0.9592 B( 29-C , 45-O ) :   2.1027
B( 30-C , 31-C ) :   1.3312 B( 30-C , 37-C ) :   1.3062 B( 30-C , 45-O ) :  -0.1520
B( 31-C , 32-C ) :   1.0242 B( 31-C , 40-C ) :   1.3108 B( 32-C , 46-C ) :   1.4536
B( 33-C , 34-C ) :   0.9542 B( 33-C , 51-O ) :   2.1823 B( 34-C , 35-C ) :   1.3204
B( 34-C , 41-C ) :   1.3103 B( 34-C , 51-O ) :  -0.1404 B( 35-C , 36-C ) :   0.9868
B( 35-C , 44-C ) :   1.2974 B( 36-C , 52-C ) :   1.4054 B( 37-C , 38-C ) :   1.3621
B( 37-C , 70-H ) :   0.9779 B( 38-C , 39-C ) :   1.3341 B( 38-C , 49-F ) :   1.0663
B( 39-C , 40-C ) :   1.3962 B( 39-C , 50-F ) :   1.0857 B( 40-C , 71-H ) :   0.9285
B( 41-C , 42-C ) :   1.3630 B( 41-C , 72-H ) :   0.9773 B( 42-C , 43-C ) :   1.3297
B( 42-C , 56-F ) :   1.0683 B( 43-C , 44-C ) :   1.4043 B( 43-C , 55-F ) :   1.0810
B( 44-C , 73-H ) :   0.9359 B( 46-C , 47-C ) :   1.0236 B( 46-C , 48-C ) :   1.0221
B( 47-C , 58-N ) :   2.9923 B( 48-C , 57-N ) :   2.9728 B( 52-C , 53-C ) :   1.0601
B( 52-C , 54-C ) :   1.0493 B( 53-C , 60-N ) :   2.9766 B( 54-C , 59-N ) :   2.9726
B( 61-C , 74-H ) :   0.9814 B( 61-C , 75-H ) :   0.9663 B( 61-C , 76-H ) :   0.9513
B( 62-C , 77-H ) :   0.9600 B( 62-C , 78-H ) :   0.9552 B( 62-C , 79-H ) :   0.9661
B( 63-C , 80-H ) :   0.9583 B( 63-C , 81-H ) :   0.9580 B( 63-C , 82-H ) :   0.9554

-----------------------------------------------------------------------------
  SOC CORRECTED ABSORPTION SPECTRUM VIA TRANSITION ELECTRIC DIPOLE MOMENTS*
-----------------------------------------------------------------------------
State   Energy  Wavelength   fosc         T2         TX        TY        TZ
        (cm-1)    (nm)                  (au**2)     (au)      (au)      (au)
-----------------------------------------------------------------------------
   1   10171.0    983.2   0.000000000   0.00000   0.00000   0.00000   0.00004
   2   10171.0    983.2   0.000000012   0.00000   0.00062   0.00007   0.00005
   3   10171.0    983.2   0.000000004   0.00000   0.00034   0.00002   0.00004
   4   12383.4    807.5   0.000000120   0.00000   0.00178   0.00016   0.00007
   5   12383.4    807.5   0.000000003   0.00000   0.00027   0.00003   0.00001
   6   12383.4    807.5   0.000000086   0.00000   0.00150   0.00020   0.00004
   7   14515.0    688.9   1.738588461  39.43259   6.22868   0.76223   0.23469
   8   16250.0    615.4   0.000000332   0.00001   0.00257   0.00029   0.00017
   9   16250.0    615.4   0.000000028   0.00000   0.00074   0.00008   0.00002
  10   16250.0    615.4   0.000000133   0.00000   0.00164   0.00006   0.00003
  11   17182.9    582.0   0.933186295  17.87921   4.20530   0.29414   0.32889
  12   18631.5    536.7   0.172754219   3.05251   1.70274   0.29117   0.26154

FINAL SINGLE POINT ENERGY     -4000.714990750461

DIPOLE MOMENT
-------------
                                X             Y             Z
Electronic contribution:     10.93456     -22.57635      16.93728
Nuclear contribution   :     -8.94231      23.09547     -18.41818
                        -----------------------------------------
Total Dipole Moment    :      1.99225       0.51912      -1.48091
                        -----------------------------------------
Magnitude (a.u.)       :      2.53607
Magnitude (Debye)      :      6.44617

Rotational constants in cm-1:     0.003482     0.000299     0.000286
Rotational constants in MHz :   104.381886     8.954823     8.566400

                             ****ORCA TERMINATED NORMALLY****
TOTAL RUN TIME: 0 days 2 hours 5 minutes 37 seconds 539 msec
