                         Program Version 4.2.0 -  RELEASE  -
|  1> # ORCA input file
|  2> # BTN-4F.out
|  3> ! B3LYP def2-TZVP def2/J RIJCOSX Grid4 TightSCF
|  4>
|  5> %maxcore 2000
|  6> %tddft
|  7>   maxdim 5
|  8>   nroots 3
|  9>   dosoc true
| 10>   end
| 11>
| 12>
| 13>
| 14> * xyz 0 1
| 15>    C        0.58201        -0.50816         0.07026
| 16>    C        1.33094         0.67444        -0.02338
| 17>    C        2.79271         0.63292        -0.01305
| 18>    C        3.38164        -0.60516         0.17204
| 19>    C        2.64499        -1.81398         0.31162
| 20>    C        1.21909        -1.77036         0.24538
| 21>    N        3.19694        -3.00874         0.48909
| 22>    S        1.86025        -4.03543         0.58295
| 23>    N        0.59417        -2.93359         0.38084
| 24>    N        3.92151         1.52608        -0.13753
| 25>    C        5.11271         0.76843        -0.02893
| 26>    C        4.77600        -0.54996         0.22017
| 27>    C       -0.82319        -0.29359        -0.00469
| 28>    C       -0.94020         1.05869        -0.07294
| 29>    N        0.34019         1.65610        -0.08585
| 30>    N       -2.12617        -0.84360        -0.05968
| 31>    C       -3.08342         0.19449        -0.08985
| 32>    C       -2.33364         1.38529        -0.10676
| 33>    C        6.54091         1.01356        -0.13017
| 34>    C        7.33158        -0.09005         0.11602
| 35>    S        6.24100        -1.39751         0.43817
| 36>    S        7.49867         2.35761        -0.60371
| 37>    C        9.08345         1.40555        -0.49303
| 38>    C        8.75142         0.11498        -0.04160
| 39>    C        0.48557         3.08666        -0.09441
| 40>    C       -4.55690         0.11968        -0.25134
| 41>    C       -5.53120        -0.69131         0.23485
| 42>    C       10.30785         1.81530        -1.24155
| 43>    C       11.65417         1.91873        -0.99377
| 44>    C       -5.28315        -1.95910         1.02498
| 45>    C       -6.34006        -2.90773         0.60739
| 46>    C       -7.31659        -2.23415        -0.13691
| 47>    C       -7.03519        -0.76679        -0.07304
| 48>    C       12.38276         0.96792        -1.99475
| 49>    C       13.23458         0.08606        -1.13490
| 50>    C       13.26613         0.62288         0.16136
| 51>    C       12.75394         1.99436         0.06304
| 52>    C       -6.34670        -4.28634         0.76954
| 53>    C       -7.33746        -5.00516         0.10316
| 54>    C       -8.26909        -4.35768        -0.71342
| 55>    C       -8.26151        -2.96951        -0.84971
| 56>    C       13.72198        -1.17667        -1.41056
| 57>    C       14.10334        -1.95183        -0.31406
| 58>    C       13.98674        -1.46863         1.00062
| 59>    C       13.59150        -0.15686         1.25593
| 60>    O       -4.42176        -2.19731         1.84206
| 61>    C       -8.07607         0.14102        -0.03636
| 62>    C       -7.80643         1.63690        -0.03189
| 63>    C       -9.50634        -0.37340        -0.04702
| 64>    F       -7.36449        -6.34039         0.20851
| 65>    F       -9.17150        -5.07106        -1.40110
| 66>    O       12.24394         0.88423        -3.19483
| 67>    C       13.70330         3.02265         0.06162
| 68>    C       13.25020         4.33089        -0.31552
| 69>    C       15.21654         2.88001         0.07322
| 70>    F       14.20938        -2.29010         2.03584
| 71>    F       14.51897        -3.20884        -0.51907
| 72>    N      -10.69286        -0.80014        -0.05585
| 73>    N       -7.58275         2.87786        -0.02818
| 74>    N       16.47191         2.76168         0.08284
| 75>    N       12.87209         5.37648        -0.62700
| 76>    C        9.62678        -1.08579         0.05593
| 77>    C        3.84108         2.95829        -0.23916
| 78>    C       -2.32625        -2.26499        -0.21084
| 79>    H       -2.76103         2.37748        -0.16273
| 80>    H       -0.50017         3.56169        -0.08672
| 81>    H        1.01126         3.37854        -1.00363
| 82>    H        1.02416         3.38635         0.80570
| 83>    H       -4.91933         0.92587        -0.89194
| 84>    H       10.07470         1.70483        -2.30946
| 85>    H       -5.59081        -4.79895         1.35326
| 86>    H       -8.98053        -2.51980        -1.52800
| 87>    H       13.74187        -1.58307        -2.41446
| 88>    H       13.47299         0.18968         2.27729
| 89>    H       10.68346        -0.82313         0.06126
| 90>    H        9.44831        -1.75418        -0.79468
| 91>    H        9.42354        -1.64296         0.97675
| 92>    H        4.83301         3.40560        -0.25162
| 93>    H        3.30318         3.33231         0.63519
| 94>    H        3.31388         3.21356        -1.16021
| 95>    H       -1.61017        -2.65248        -0.93965
| 96>    H       -3.32074        -2.47165        -0.60445
| 97>    H       -2.18101        -2.74432         0.76055
| 98> *
| 99>
|100>                          ****END OF INPUT****

CARTESIAN COORDINATES (ANGSTROEM)
---------------------------------
  C      0.582010   -0.508160    0.070260
  C      1.330940    0.674440   -0.023380
  C      2.792710    0.632920   -0.013050
  C      3.381640   -0.605160    0.172040
  C      2.644990   -1.813980    0.311620
  C      1.219090   -1.770360    0.245380
  N      3.196940   -3.008740    0.489090
  S      1.860250   -4.035430    0.582950
  N      0.594170   -2.933590    0.380840
  N      3.921510    1.526080   -0.137530
  C      5.112710    0.768430   -0.028930
  C      4.776000   -0.549960    0.220170
  C     -0.823190   -0.293590   -0.004690
  C     -0.940200    1.058690   -0.072940
  N      0.340190    1.656100   -0.085850
  N     -2.126170   -0.843600   -0.059680
  C     -3.083420    0.194490   -0.089850
  C     -2.333640    1.385290   -0.106760
  C      6.540910    1.013560   -0.130170
  C      7.331580   -0.090050    0.116020
  S      6.241000   -1.397510    0.438170
  S      7.498670    2.357610   -0.603710
  C      9.083450    1.405550   -0.493030
  C      8.751420    0.114980   -0.041600
  C      0.485570    3.086660   -0.094410
  C     -4.556900    0.119680   -0.251340
  C     -5.531200   -0.691310    0.234850
  C     10.307850    1.815300   -1.241550
  C     11.654170    1.918730   -0.993770
  C     -5.283150   -1.959100    1.024980
  C     -6.340060   -2.907730    0.607390
  C     -7.316590   -2.234150   -0.136910
  C     -7.035190   -0.766790   -0.073040
  C     12.382760    0.967920   -1.994750
  C     13.234580    0.086060   -1.134900
  C     13.266130    0.622880    0.161360
  C     12.753940    1.994360    0.063040
  C     -6.346700   -4.286340    0.769540
  C     -7.337460   -5.005160    0.103160
  C     -8.269090   -4.357680   -0.713420
  C     -8.261510   -2.969510   -0.849710
  C     13.721980   -1.176670   -1.410560
  C     14.103340   -1.951830   -0.314060
  C     13.986740   -1.468630    1.000620
  C     13.591500   -0.156860    1.255930
  O     -4.421760   -2.197310    1.842060
  C     -8.076070    0.141020   -0.036360
  C     -7.806430    1.636900   -0.031890
  C     -9.506340   -0.373400   -0.047020
  F     -7.364490   -6.340390    0.208510
  F     -9.171500   -5.071060   -1.401100
  O     12.243940    0.884230   -3.194830
  C     13.703300    3.022650    0.061620
  C     13.250200    4.330890   -0.315520
  C     15.216540    2.880010    0.073220
  F     14.209380   -2.290100    2.035840
  F     14.518970   -3.208840   -0.519070
  N    -10.692860   -0.800140   -0.055850
  N     -7.582750    2.877860   -0.028180
  N     16.471910    2.761680    0.082840
  N     12.872090    5.376480   -0.627000
  C      9.626780   -1.085790    0.055930
  C      3.841080    2.958290   -0.239160
  C     -2.326250   -2.264990   -0.210840
  H     -2.761030    2.377480   -0.162730
  H     -0.500170    3.561690   -0.086720
  H      1.011260    3.378540   -1.003630
  H      1.024160    3.386350    0.805700
  H     -4.919330    0.925870   -0.891940
  H     10.074700    1.704830   -2.309460
  H     -5.590810   -4.798950    1.353260
  H     -8.980530   -2.519800   -1.528000
  H     13.741870   -1.583070   -2.414460
  H     13.472990    0.189680    2.277290
  H     10.683460   -0.823130    0.061260
  H      9.448310   -1.754180   -0.794680
  H      9.423540   -1.642960    0.976750
  H      4.833010    3.405600   -0.251620
  H      3.303180    3.332310    0.635190
  H      3.313880    3.213560   -1.160210
  H     -1.610170   -2.652480   -0.939650
  H     -3.320740   -2.471650   -0.604450
  H     -2.181010   -2.744320    0.760550

 Total Charge           Charge          ....    0
 Multiplicity           Mult            ....    1
 Number of Electrons    NEL             ....  458
 Basis Dimension        Dim             .... 2116

ORBITAL ENERGIES
----------------

  NO   OCC          E(Eh)            E(eV)
   0   2.0000     -88.935649     -2420.0620
   1   2.0000     -88.907153     -2419.2866
   2   2.0000     -88.898885     -2419.0617
   3   2.0000     -24.740807      -673.2316
   4   2.0000     -24.736200      -673.1062
   5   2.0000     -24.732259      -672.9990
   6   2.0000     -24.731634      -672.9820
   7   2.0000     -19.160081      -521.3723
   8   2.0000     -19.145694      -520.9808
   9   2.0000     -14.402568      -391.9138
  10   2.0000     -14.394042      -391.6818
  11   2.0000     -14.389009      -391.5448
  12   2.0000     -14.377905      -391.2427
  13   2.0000     -14.369824      -391.0228
  14   2.0000     -14.369334      -391.0095
  15   2.0000     -14.360379      -390.7658
  16   2.0000     -14.356714      -390.6661
  17   2.0000     -14.343770      -390.3138
  18   2.0000     -10.319857      -280.8176
  19   2.0000     -10.315830      -280.7080
  20   2.0000     -10.315296      -280.6935
  21   2.0000     -10.310169      -280.5540
  22   2.0000     -10.309240      -280.5287
  23   2.0000     -10.302441      -280.3437
  24   2.0000     -10.301457      -280.3169
  25   2.0000     -10.294282      -280.1217
  26   2.0000     -10.292385      -280.0700
  27   2.0000     -10.283519      -279.8288
  28   2.0000     -10.280458      -279.7455
  29   2.0000     -10.274290      -279.5777
  30   2.0000     -10.272778      -279.5365
  31   2.0000     -10.267565      -279.3947
  32   2.0000     -10.261047      -279.2173
  33   2.0000     -10.260663      -279.2068
  34   2.0000     -10.260259      -279.1959
  35   2.0000     -10.256665      -279.0980
  36   2.0000     -10.251243      -278.9505
  37   2.0000     -10.250361      -278.9265
  38   2.0000     -10.246491      -278.8212
  39   2.0000     -10.245498      -278.7942
  40   2.0000     -10.243836      -278.7490
  41   2.0000     -10.243821      -278.7486
  42   2.0000     -10.242076      -278.7010
  43   2.0000     -10.241027      -278.6725
  44   2.0000     -10.240868      -278.6682
  45   2.0000     -10.239634      -278.6346
  46   2.0000     -10.239266      -278.6246
  47   2.0000     -10.238040      -278.5912
  48   2.0000     -10.236462      -278.5483
  49   2.0000     -10.235825      -278.5309
  50   2.0000     -10.232863      -278.4504
  51   2.0000     -10.232312      -278.4354
  52   2.0000     -10.231866      -278.4232
  53   2.0000     -10.230749      -278.3928
  54   2.0000     -10.227433      -278.3026
  55   2.0000     -10.226716      -278.2831
  56   2.0000     -10.221946      -278.1533
  57   2.0000     -10.220899      -278.1248
  58   2.0000     -10.217457      -278.0311
  59   2.0000     -10.211053      -277.8569
  60   2.0000     -10.207178      -277.7514
  61   2.0000     -10.206805      -277.7413
  62   2.0000     -10.199725      -277.5486
  63   2.0000     -10.199314      -277.5374
  64   2.0000      -8.006057      -217.8559
  65   2.0000      -7.982304      -217.2095
  66   2.0000      -7.974965      -217.0098
  67   2.0000      -5.970584      -162.4679
  68   2.0000      -5.964087      -162.2910
  69   2.0000      -5.962275      -162.2418
  70   2.0000      -5.945156      -161.7759
  71   2.0000      -5.941398      -161.6737
  72   2.0000      -5.938362      -161.5910
  73   2.0000      -5.937774      -161.5751
  74   2.0000      -5.934098      -161.4750
  75   2.0000      -5.930761      -161.3842
  76   2.0000      -1.280835       -34.8533
  77   2.0000      -1.273945       -34.6658
  78   2.0000      -1.267498       -34.4904
  79   2.0000      -1.261087       -34.3159
  80   2.0000      -1.086698       -29.5706
  81   2.0000      -1.074957       -29.2511
  82   2.0000      -1.025367       -27.9017
  83   2.0000      -1.012762       -27.5587
  84   2.0000      -1.008164       -27.4335
  85   2.0000      -0.987454       -26.8700
  86   2.0000      -0.957086       -26.0436
  87   2.0000      -0.938637       -25.5416
  88   2.0000      -0.936835       -25.4926
  89   2.0000      -0.926769       -25.2187
  90   2.0000      -0.905337       -24.6355
  91   2.0000      -0.905215       -24.6322
  92   2.0000      -0.900388       -24.5008
  93   2.0000      -0.892406       -24.2836
  94   2.0000      -0.891737       -24.2654
  95   2.0000      -0.878598       -23.9079
  96   2.0000      -0.877486       -23.8776
  97   2.0000      -0.864364       -23.5205
  98   2.0000      -0.839332       -22.8394
  99   2.0000      -0.833542       -22.6818
 100   2.0000      -0.831885       -22.6367
 101   2.0000      -0.822246       -22.3744
 102   2.0000      -0.817701       -22.2508
 103   2.0000      -0.813840       -22.1457
 104   2.0000      -0.805556       -21.9203
 105   2.0000      -0.804707       -21.8972
 106   2.0000      -0.802359       -21.8333
 107   2.0000      -0.783585       -21.3224
 108   2.0000      -0.771164       -20.9845
 109   2.0000      -0.751109       -20.4387
 110   2.0000      -0.744124       -20.2486
 111   2.0000      -0.730367       -19.8743
 112   2.0000      -0.719122       -19.5683
 113   2.0000      -0.716062       -19.4850
 114   2.0000      -0.712360       -19.3843
 115   2.0000      -0.703764       -19.1504
 116   2.0000      -0.697925       -18.9915
 117   2.0000      -0.696428       -18.9508
 118   2.0000      -0.690895       -18.8002
 119   2.0000      -0.676259       -18.4019
 120   2.0000      -0.664264       -18.0755
 121   2.0000      -0.649546       -17.6750
 122   2.0000      -0.648653       -17.6508
 123   2.0000      -0.637858       -17.3570
 124   2.0000      -0.631685       -17.1890
 125   2.0000      -0.622759       -16.9461
 126   2.0000      -0.622103       -16.9283
 127   2.0000      -0.616882       -16.7862
 128   2.0000      -0.607682       -16.5359
 129   2.0000      -0.599517       -16.3137
 130   2.0000      -0.597140       -16.2490
 131   2.0000      -0.587220       -15.9791
 132   2.0000      -0.584066       -15.8933
 133   2.0000      -0.580628       -15.7997
 134   2.0000      -0.577997       -15.7281
 135   2.0000      -0.576487       -15.6870
 136   2.0000      -0.570063       -15.5122
 137   2.0000      -0.559576       -15.2268
 138   2.0000      -0.555564       -15.1177
 139   2.0000      -0.550485       -14.9795
 140   2.0000      -0.549481       -14.9521
 141   2.0000      -0.535281       -14.5657
 142   2.0000      -0.534008       -14.5311
 143   2.0000      -0.532314       -14.4850
 144   2.0000      -0.526443       -14.3252
 145   2.0000      -0.525584       -14.3019
 146   2.0000      -0.524874       -14.2825
 147   2.0000      -0.512443       -13.9443
 148   2.0000      -0.511431       -13.9168
 149   2.0000      -0.509010       -13.8509
 150   2.0000      -0.505261       -13.7488
 151   2.0000      -0.502595       -13.6763
 152   2.0000      -0.498020       -13.5518
 153   2.0000      -0.497232       -13.5304
 154   2.0000      -0.495787       -13.4910
 155   2.0000      -0.491520       -13.3749
 156   2.0000      -0.489800       -13.3281
 157   2.0000      -0.489537       -13.3210
 158   2.0000      -0.486917       -13.2497
 159   2.0000      -0.483254       -13.1500
 160   2.0000      -0.481628       -13.1058
 161   2.0000      -0.477180       -12.9847
 162   2.0000      -0.472983       -12.8705
 163   2.0000      -0.471226       -12.8227
 164   2.0000      -0.468800       -12.7567
 165   2.0000      -0.463330       -12.6078
 166   2.0000      -0.461374       -12.5546
 167   2.0000      -0.458833       -12.4855
 168   2.0000      -0.457293       -12.4436
 169   2.0000      -0.451879       -12.2963
 170   2.0000      -0.448563       -12.2060
 171   2.0000      -0.447399       -12.1743
 172   2.0000      -0.443566       -12.0700
 173   2.0000      -0.441599       -12.0165
 174   2.0000      -0.439556       -11.9609
 175   2.0000      -0.433727       -11.8023
 176   2.0000      -0.433005       -11.7827
 177   2.0000      -0.432825       -11.7778
 178   2.0000      -0.431663       -11.7462
 179   2.0000      -0.424673       -11.5559
 180   2.0000      -0.423564       -11.5258
 181   2.0000      -0.420034       -11.4297
 182   2.0000      -0.418184       -11.3794
 183   2.0000      -0.415834       -11.3154
 184   2.0000      -0.411148       -11.1879
 185   2.0000      -0.410450       -11.1689
 186   2.0000      -0.406715       -11.0673
 187   2.0000      -0.405534       -11.0352
 188   2.0000      -0.404722       -11.0131
 189   2.0000      -0.402934       -10.9644
 190   2.0000      -0.402735       -10.9590
 191   2.0000      -0.396096       -10.7783
 192   2.0000      -0.395684       -10.7671
 193   2.0000      -0.392224       -10.6730
 194   2.0000      -0.390787       -10.6339
 195   2.0000      -0.388734       -10.5780
 196   2.0000      -0.387354       -10.5405
 197   2.0000      -0.381756       -10.3881
 198   2.0000      -0.371675       -10.1138
 199   2.0000      -0.370662       -10.0862
 200   2.0000      -0.370396       -10.0790
 201   2.0000      -0.361750        -9.8437
 202   2.0000      -0.352529        -9.5928
 203   2.0000      -0.350780        -9.5452
 204   2.0000      -0.349628        -9.5139
 205   2.0000      -0.346721        -9.4348
 206   2.0000      -0.343814        -9.3556
 207   2.0000      -0.341844        -9.3020
 208   2.0000      -0.339125        -9.2281
 209   2.0000      -0.337812        -9.1923
 210   2.0000      -0.334133        -9.0922
 211   2.0000      -0.327499        -8.9117
 212   2.0000      -0.324831        -8.8391
 213   2.0000      -0.317711        -8.6454
 214   2.0000      -0.316920        -8.6238
 215   2.0000      -0.313157        -8.5214
 216   2.0000      -0.311850        -8.4859
 217   2.0000      -0.300791        -8.1849
 218   2.0000      -0.289782        -7.8854
 219   2.0000      -0.286077        -7.7846
 220   2.0000      -0.284150        -7.7321
 221   2.0000      -0.279984        -7.6187
 222   2.0000      -0.276780        -7.5316
 223   2.0000      -0.274989        -7.4828
 224   2.0000      -0.264671        -7.2021
 225   2.0000      -0.250801        -6.8246
 226   2.0000      -0.233239        -6.3467
 227   2.0000      -0.224171        -6.1000
 228   2.0000      -0.207945        -5.6585
 229   0.0000      -0.138469        -3.7679
 230   0.0000      -0.131573        -3.5803
 231   0.0000      -0.116754        -3.1770
 232   0.0000      -0.110280        -3.0009
 233   0.0000      -0.093908        -2.5554

MULLIKEN ATOMIC CHARGES
-----------------------
   0 C :    0.115356
   1 C :   -0.067889
   2 C :   -0.074479
   3 C :    0.207322
   4 C :    0.023314
   5 C :    0.051477
   6 N :   -0.254468
   7 S :    0.278827
   8 N :   -0.287223
   9 N :   -0.074299
  10 C :    0.289169
  11 C :   -0.172750
  12 C :   -0.023000
  13 C :    0.146320
  14 N :   -0.068684
  15 N :   -0.039125
  16 C :    0.224674
  17 C :   -0.279626
  18 C :   -0.164081
  19 C :    0.007347
  20 S :    0.034386
  21 S :   -0.020817
  22 C :    0.000226
  23 C :    0.001316
  24 C :   -0.280295
  25 C :   -0.294843
  26 C :    0.044351
  27 C :   -0.213011
  28 C :    0.011786
  29 C :    0.120755
  30 C :    0.053770
  31 C :    0.106779
  32 C :    0.021113
  33 C :    0.255651
  34 C :    0.000700
  35 C :    0.049897
  36 C :    0.148942
  37 C :   -0.283063
  38 C :    0.284694
  39 C :    0.258643
  40 C :   -0.236425
  41 C :   -0.269884
  42 C :    0.269784
  43 C :    0.271806
  44 C :   -0.231515
  45 O :   -0.272572
  46 C :    0.207716
  47 C :   -0.072721
  48 C :   -0.101711
  49 F :   -0.177315
  50 F :   -0.173894
  51 O :   -0.264662
  52 C :    0.118712
  53 C :   -0.214743
  54 C :   -0.071022
  55 F :   -0.173101
  56 F :   -0.176926
  57 N :   -0.123581
  58 N :   -0.131722
  59 N :   -0.114459
  60 N :    0.038187
  61 C :   -0.392284
  62 C :   -0.284573
  63 C :   -0.250241
  64 H :    0.120082
  65 H :    0.150552
  66 H :    0.121669
  67 H :    0.125782
  68 H :    0.154403
  69 H :    0.165826
  70 H :    0.156215
  71 H :    0.156683
  72 H :    0.161722
  73 H :    0.146961
  74 H :    0.133344
  75 H :    0.139278
  76 H :    0.138588
  77 H :    0.155400
  78 H :    0.123588
  79 H :    0.129071
  80 H :    0.137128
  81 H :    0.126604
  82 H :    0.145090
Sum of atomic charges:   -0.0000000

LOEWDIN ATOMIC CHARGES
----------------------
   0 C :   -0.089468
   1 C :   -0.084625
   2 C :   -0.067228
   3 C :   -0.116698
   4 C :   -0.250253
   5 C :   -0.253284
   6 N :   -0.100240
   7 S :    0.614447
   8 N :   -0.105789
   9 N :    0.249184
  10 C :   -0.166730
  11 C :   -0.311098
  12 C :   -0.088620
  13 C :   -0.148561
  14 N :    0.252502
  15 N :    0.266737
  16 C :   -0.145483
  17 C :   -0.121321
  18 C :   -0.381300
  19 C :   -0.347704
  20 S :    0.759222
  21 S :    0.684020
  22 C :   -0.269577
  23 C :   -0.177798
  24 C :   -0.266437
  25 C :   -0.042754
  26 C :   -0.064109
  27 C :   -0.066260
  28 C :   -0.028314
  29 C :   -0.258324
  30 C :   -0.070280
  31 C :   -0.049018
  32 C :    0.028966
  33 C :   -0.221459
  34 C :   -0.072295
  35 C :   -0.068538
  36 C :    0.020473
  37 C :   -0.043536
  38 C :   -0.220798
  39 C :   -0.217378
  40 C :   -0.048788
  41 C :   -0.038794
  42 C :   -0.220261
  43 C :   -0.214230
  44 C :   -0.055704
  45 O :    0.157039
  46 C :   -0.126439
  47 C :   -0.088299
  48 C :   -0.090091
  49 F :    0.213721
  50 F :    0.216401
  51 O :    0.156966
  52 C :   -0.108092
  53 C :   -0.155873
  54 C :   -0.076634
  55 F :    0.216904
  56 F :    0.213504
  57 N :    0.036841
  58 N :    0.032768
  59 N :    0.051323
  60 N :    0.100718
  61 C :   -0.250260
  62 C :   -0.273071
  63 C :   -0.272546
  64 H :    0.139094
  65 H :    0.132058
  66 H :    0.116644
  67 H :    0.117668
  68 H :    0.172356
  69 H :    0.180583
  70 H :    0.166045
  71 H :    0.167715
  72 H :    0.167982
  73 H :    0.164334
  74 H :    0.128608
  75 H :    0.139397
  76 H :    0.137112
  77 H :    0.124189
  78 H :    0.119391
  79 H :    0.118775
  80 H :    0.123561
  81 H :    0.120491
  82 H :    0.126620

  Mayer bond orders larger than 0.100000
B(  0-C ,  1-C ) :   1.3006 B(  0-C ,  5-C ) :   1.0414 B(  0-C , 12-C ) :   1.1789
B(  1-C ,  2-C ) :   1.2776 B(  1-C , 14-N ) :   1.2467 B(  2-C ,  3-C ) :   1.2965
B(  2-C ,  9-N ) :   1.2242 B(  3-C ,  4-C ) :   1.0813 B(  3-C , 11-C ) :   1.1443
B(  4-C ,  5-C ) :   1.2011 B(  4-C ,  6-N ) :   1.6103 B(  4-C ,  7-S ) :   0.1079
B(  5-C ,  7-S ) :   0.1129 B(  5-C ,  8-N ) :   1.5434 B(  6-N ,  7-S ) :   1.2386
B(  6-N ,  8-N ) :   0.1332 B(  7-S ,  8-N ) :   1.2305 B(  9-N , 10-C ) :   1.1198
B(  9-N , 62-C ) :   0.9221 B( 10-C , 11-C ) :   1.3264 B( 10-C , 18-C ) :   1.0773
B( 11-C , 20-S ) :   1.3677 B( 12-C , 13-C ) :   1.3332 B( 12-C , 15-N ) :   1.1938
B( 13-C , 14-N ) :   1.1126 B( 13-C , 17-C ) :   1.2898 B( 14-N , 24-C ) :   0.9155
B( 15-N , 16-C ) :   1.1830 B( 15-N , 63-C ) :   0.8992 B( 16-C , 17-C ) :   1.4182
B( 16-C , 25-C ) :   1.1104 B( 17-C , 64-H ) :   0.9715 B( 18-C , 19-C ) :   1.4959
B( 18-C , 20-S ) :   0.1136 B( 18-C , 21-S ) :   1.2657 B( 19-C , 20-S ) :   1.1864
B( 19-C , 23-C ) :   1.1304 B( 21-S , 22-C ) :   1.1520 B( 22-C , 23-C ) :   1.6150
B( 22-C , 27-C ) :   1.0265 B( 23-C , 61-C ) :   0.9390 B( 24-C , 65-H ) :   0.9718
B( 24-C , 66-H ) :   0.9625 B( 24-C , 67-H ) :   0.9682 B( 25-C , 26-C ) :   1.6051
B( 25-C , 68-H ) :   0.9389 B( 26-C , 29-C ) :   0.9749 B( 26-C , 32-C ) :   1.0361
B( 27-C , 28-C ) :   1.7099 B( 27-C , 69-H ) :   0.9280 B( 28-C , 33-C ) :   0.8897
B( 28-C , 36-C ) :   1.0158 B( 29-C , 30-C ) :   0.9633 B( 29-C , 45-O ) :   2.1193
B( 30-C , 31-C ) :   1.2808 B( 30-C , 37-C ) :   1.3209 B( 30-C , 45-O ) :  -0.1169
B( 31-C , 32-C ) :   0.9393 B( 31-C , 40-C ) :   1.2820 B( 32-C , 46-C ) :   1.5491
B( 33-C , 34-C ) :   0.9517 B( 33-C , 51-O ) :   2.0922 B( 34-C , 35-C ) :   1.2457
B( 34-C , 41-C ) :   1.3343 B( 35-C , 36-C ) :   0.9046 B( 35-C , 44-C ) :   1.3132
B( 36-C , 52-C ) :   1.6201 B( 37-C , 38-C ) :   1.3578 B( 37-C , 70-H ) :   0.9743
B( 38-C , 39-C ) :   1.3418 B( 38-C , 49-F ) :   1.0634 B( 39-C , 40-C ) :   1.3740
B( 39-C , 50-F ) :   1.0707 B( 40-C , 71-H ) :   0.9584 B( 41-C , 42-C ) :   1.3597
B( 41-C , 72-H ) :   0.9684 B( 42-C , 43-C ) :   1.3458 B( 42-C , 56-F ) :   1.0611
B( 43-C , 44-C ) :   1.3662 B( 43-C , 55-F ) :   1.0658 B( 44-C , 73-H ) :   0.9681
B( 46-C , 47-C ) :   0.9724 B( 46-C , 48-C ) :   0.9466 B( 47-C , 58-N ) :   2.9629
B( 48-C , 57-N ) :   2.9580 B( 52-C , 53-C ) :   1.0287 B( 52-C , 54-C ) :   0.9820
B( 53-C , 60-N ) :   3.0030 B( 54-C , 59-N ) :   2.9463 B( 61-C , 74-H ) :   0.9925
B( 61-C , 75-H ) :   0.9464 B( 61-C , 76-H ) :   0.9757 B( 62-C , 77-H ) :   0.9636
B( 62-C , 78-H ) :   0.9617 B( 62-C , 79-H ) :   0.9663 B( 63-C , 80-H ) :   0.9613
B( 63-C , 81-H ) :   0.9614 B( 63-C , 82-H ) :   0.9600

-----------------------------------------------------------------------------
  SOC CORRECTED ABSORPTION SPECTRUM VIA TRANSITION ELECTRIC DIPOLE MOMENTS*
-----------------------------------------------------------------------------
State   Energy  Wavelength   fosc         T2         TX        TY        TZ
        (cm-1)    (nm)                  (au**2)     (au)      (au)      (au)
-----------------------------------------------------------------------------
   1   11728.7    852.6   0.000000020   0.00000   0.00074   0.00011   0.00001
   2   11728.7    852.6   0.000000003   0.00000   0.00028   0.00003   0.00000
   3   11728.7    852.6   0.000000007   0.00000   0.00045   0.00005   0.00001
   4   12835.9    779.1   0.000000629   0.00002   0.00393   0.00085   0.00004
   5   12835.9    779.1   0.000000000   0.00000   0.00008   0.00004   0.00001
   6   12835.9    779.1   0.000000142   0.00000   0.00187   0.00041   0.00001
   7   12921.5    773.9   0.031621622   0.80565   0.88655   0.14028   0.00297
   8   14857.3    673.1   0.616077102  13.65123   3.65482   0.54014   0.04227
   9   16168.7    618.5   0.000000198   0.00000   0.00197   0.00038   0.00000
  10   16168.7    618.5   0.000000006   0.00000   0.00034   0.00004   0.00000
  11   16168.7    618.5   0.000000230   0.00000   0.00210   0.00052   0.00003
  12   16289.8    613.9   0.002014616   0.04071   0.19784   0.03762   0.01267

FINAL SINGLE POINT ENERGY     -4000.434155814130

DIPOLE MOMENT
-------------
                                X             Y             Z
Electronic contribution:      8.36914     -27.26905       4.09946
Nuclear contribution   :     -7.96137      26.57389      -4.30435
                        -----------------------------------------
Total Dipole Moment    :      0.40777      -0.69517      -0.20489
                        -----------------------------------------
Magnitude (a.u.)       :      0.83157
Magnitude (Debye)      :      2.11369

Rotational constants in cm-1:     0.003311     0.000280     0.000263
Rotational constants in MHz :    99.261792     8.402558     7.882903

                             ****ORCA TERMINATED NORMALLY****
TOTAL RUN TIME: 0 days 8 hours 44 minutes 15 seconds 39 msec
