                         Program Version 4.2.0 -  RELEASE  -
|  1> # ORCA input file
|  2> # BTP-4Cl.out: Geometry 28
|  3> ! B3LYP def2-TZVP def2/J RIJCOSX Grid4 TightSCF
|  4>
|  5> %maxcore 6000
|  6> %tddft
|  7>   maxdim 5
|  8>   nroots 3
|  9>   dosoc true
| 10>   end
| 11> %pal
| 12>   nprocs 6
| 13>   end
| 14>
| 15>
| 16> * xyz 0 1
| 17>    C        4.42603         2.78642         0.99198
| 18>    O        5.18529         2.05917         0.37293
| 19>    C        3.45818         3.72635         0.38338
| 20>    C        3.22616         3.94479        -0.96465
| 21>    C        2.25667         4.88525        -1.32620
| 22>   Cl        1.94216         5.18104        -3.00280
| 23>    C        1.54814         5.57953        -0.32166
| 24>   Cl        0.34360         6.74647        -0.74891
| 25>    C        1.79405         5.34855         1.03826
| 26>    C        2.76199         4.40799         1.39834
| 27>    C        3.24913         3.92702         2.71721
| 28>    C        2.77329         4.38443         3.93611
| 29>    C        3.23669         3.89941         5.19747
| 30>    N        3.59898         3.50901         6.23116
| 31>    C        1.76032         5.38727         4.04273
| 32>    N        0.93697         6.20175         4.14259
| 33>    C        4.27593         2.91561         2.45920
| 34>    C        4.96445         2.17895         3.40823
| 35>    C        5.94140         1.16226         3.33789
| 36>    S        6.72448         0.54772         1.86136
| 37>    C        7.67607        -0.53503         2.80469
| 38>    C        7.38802        -0.45874         4.18549
| 39>    C        6.41588         0.50015         4.50740
| 40>    C        5.89450         0.74507         5.89920
| 41>    C        4.48801         0.17168         6.13735
| 42>    S        8.33194        -1.61096         5.14726
| 43>    C        9.10010        -2.17777         3.68212
| 44>    C        8.64180        -1.52065         2.53168
| 45>    N        9.28213        -2.01019         1.40108
| 46>    C        9.58383        -1.05407         0.32093
| 47>    C       10.96884        -0.43549         0.48252
| 48>    C       10.14277        -3.02605         1.83760
| 49>    C       10.07341        -3.11768         3.26022
| 50>    C       10.95079        -3.99538         3.97754
| 51>    N       11.04168        -4.12821         5.29302
| 52>    S       12.25938        -5.21150         5.58471
| 53>    N       12.69678        -5.53392         4.01937
| 54>    C       11.90926        -4.80535         3.24000
| 55>    C       11.89303        -4.77987         1.80556
| 56>    C       10.98535        -3.92173         1.10422
| 57>    N       11.09193        -4.18208        -0.25845
| 58>    C       10.18617        -3.81451        -1.34666
| 59>    C       10.80885        -2.85931        -2.36090
| 60>    C       12.06173        -5.15253        -0.42712
| 61>    C       12.57793        -5.53156         0.82527
| 62>    S       13.79186        -6.78470         0.71602
| 63>    C       13.59056        -6.79616        -1.04281
| 64>    C       12.62331        -5.87498        -1.50012
| 65>    S       12.45188        -5.90148        -3.22032
| 66>    C       13.71141        -7.15657        -3.34363
| 67>    C       14.21928        -7.52284        -2.06444
| 68>    C       15.24822        -8.58549        -1.78789
| 69>    C       14.61215        -9.94144        -1.43686
| 70>    C       14.20819        -7.73151        -4.53593
| 71>    C       13.94059        -7.54998        -5.88391
| 72>    C       14.60522        -8.23152        -6.99728
| 73>    C       15.59810        -9.19643        -6.94485
| 74>    C       16.17513        -9.78015        -8.11448
| 75>    N       16.65567       -10.26454        -9.05500
| 76>    C       16.14588        -9.70145        -5.72649
| 77>    N       16.60248       -10.12214        -4.74355
| 78>    C       14.02443        -7.69640        -8.25655
| 79>    C       14.28193        -7.97492        -9.60244
| 80>    C       13.55871        -7.28491       -10.58551
| 81>   Cl       13.88540        -7.63270       -12.25090
| 82>    C       12.58335        -6.32423       -10.23967
| 83>   Cl       11.70254        -5.48206       -11.46848
| 84>    C       12.32435        -6.04797        -8.89293
| 85>    C       13.04718        -6.73679        -7.93127
| 86>    C       12.94886        -6.60978        -6.45691
| 87>    O       12.18979        -5.86237        -5.86269
| 88>    H        3.78644         3.39507        -1.72196
| 89>    H        1.21636         5.91331         1.76452
| 90>    H        4.70513         2.40099         4.44026
| 91>    H        5.88278         1.82537         6.11633
| 92>    H        6.59883         0.29694         6.61665
| 93>    H        3.74771         0.64031         5.47433
| 94>    H        4.16871         0.36654         7.17179
| 95>    H        4.46549        -0.91443         5.95672
| 96>    H        8.81144        -0.27483         0.36734
| 97>    H        9.47001        -1.53072        -0.65549
| 98>    H       11.75558        -1.20461         0.43962
| 99>    H       11.05063         0.08203         1.45038
|100>    H       11.16068         0.29525        -0.31734
|101>    H        9.27496        -3.40524        -0.89516
|102>    H        9.88186        -4.74651        -1.85041
|103>    H       10.06367        -2.57625        -3.11935
|104>    H       11.65130        -3.33259        -2.88473
|105>    H       11.18434        -1.94586        -1.87996
|106>    H       15.87247        -8.24236        -0.94584
|107>    H       15.92971        -8.71903        -2.63946
|108>    H       13.92521        -9.85043        -0.58132
|109>    H       15.39201       -10.67261        -1.17905
|110>    H       14.04353       -10.33890        -2.29088
|111>    H       14.98104        -8.46318        -4.31368
|112>    H       15.02146        -8.70332        -9.92506
|113>    H       11.57406        -5.31020        -8.60624
|114> *
|115>
|116>                          ****END OF INPUT****

CARTESIAN COORDINATES (ANGSTROEM)
---------------------------------
  C      4.426030    2.786420    0.991980
  O      5.185290    2.059170    0.372930
  C      3.458180    3.726350    0.383380
  C      3.226160    3.944790   -0.964650
  C      2.256670    4.885250   -1.326200
  Cl     1.942160    5.181040   -3.002800
  C      1.548140    5.579530   -0.321660
  Cl     0.343600    6.746470   -0.748910
  C      1.794050    5.348550    1.038260
  C      2.761990    4.407990    1.398340
  C      3.249130    3.927020    2.717210
  C      2.773290    4.384430    3.936110
  C      3.236690    3.899410    5.197470
  N      3.598980    3.509010    6.231160
  C      1.760320    5.387270    4.042730
  N      0.936970    6.201750    4.142590
  C      4.275930    2.915610    2.459200
  C      4.964450    2.178950    3.408230
  C      5.941400    1.162260    3.337890
  S      6.724480    0.547720    1.861360
  C      7.676070   -0.535030    2.804690
  C      7.388020   -0.458740    4.185490
  C      6.415880    0.500150    4.507400
  C      5.894500    0.745070    5.899200
  C      4.488010    0.171680    6.137350
  S      8.331940   -1.610960    5.147260
  C      9.100100   -2.177770    3.682120
  C      8.641800   -1.520650    2.531680
  N      9.282130   -2.010190    1.401080
  C      9.583830   -1.054070    0.320930
  C     10.968840   -0.435490    0.482520
  C     10.142770   -3.026050    1.837600
  C     10.073410   -3.117680    3.260220
  C     10.950790   -3.995380    3.977540
  N     11.041680   -4.128210    5.293020
  S     12.259380   -5.211500    5.584710
  N     12.696780   -5.533920    4.019370
  C     11.909260   -4.805350    3.240000
  C     11.893030   -4.779870    1.805560
  C     10.985350   -3.921730    1.104220
  N     11.091930   -4.182080   -0.258450
  C     10.186170   -3.814510   -1.346660
  C     10.808850   -2.859310   -2.360900
  C     12.061730   -5.152530   -0.427120
  C     12.577930   -5.531560    0.825270
  S     13.791860   -6.784700    0.716020
  C     13.590560   -6.796160   -1.042810
  C     12.623310   -5.874980   -1.500120
  S     12.451880   -5.901480   -3.220320
  C     13.711410   -7.156570   -3.343630
  C     14.219280   -7.522840   -2.064440
  C     15.248220   -8.585490   -1.787890
  C     14.612150   -9.941440   -1.436860
  C     14.208190   -7.731510   -4.535930
  C     13.940590   -7.549980   -5.883910
  C     14.605220   -8.231520   -6.997280
  C     15.598100   -9.196430   -6.944850
  C     16.175130   -9.780150   -8.114480
  N     16.655670  -10.264540   -9.055000
  C     16.145880   -9.701450   -5.726490
  N     16.602480  -10.122140   -4.743550
  C     14.024430   -7.696400   -8.256550
  C     14.281930   -7.974920   -9.602440
  C     13.558710   -7.284910  -10.585510
  Cl    13.885400   -7.632700  -12.250900
  C     12.583350   -6.324230  -10.239670
  Cl    11.702540   -5.482060  -11.468480
  C     12.324350   -6.047970   -8.892930
  C     13.047180   -6.736790   -7.931270
  C     12.948860   -6.609780   -6.456910
  O     12.189790   -5.862370   -5.862690
  H      3.786440    3.395070   -1.721960
  H      1.216360    5.913310    1.764520
  H      4.705130    2.400990    4.440260
  H      5.882780    1.825370    6.116330
  H      6.598830    0.296940    6.616650
  H      3.747710    0.640310    5.474330
  H      4.168710    0.366540    7.171790
  H      4.465490   -0.914430    5.956720
  H      8.811440   -0.274830    0.367340
  H      9.470010   -1.530720   -0.655490
  H     11.755580   -1.204610    0.439620
  H     11.050630    0.082030    1.450380
  H     11.160680    0.295250   -0.317340
  H      9.274960   -3.405240   -0.895160
  H      9.881860   -4.746510   -1.850410
  H     10.063670   -2.576250   -3.119350
  H     11.651300   -3.332590   -2.884730
  H     11.184340   -1.945860   -1.879960
  H     15.872470   -8.242360   -0.945840
  H     15.929710   -8.719030   -2.639460
  H     13.925210   -9.850430   -0.581320
  H     15.392010  -10.672610   -1.179050
  H     14.043530  -10.338900   -2.290880
  H     14.981040   -8.463180   -4.313680
  H     15.021460   -8.703320   -9.925060
  H     11.574060   -5.310200   -8.606240

 Total Charge           Charge          ....    0
 Multiplicity           Mult            ....    1
 Number of Electrons    NEL             ....  558
 Basis Dimension        Dim             .... 2411

ORBITAL ENERGIES
----------------

  NO   OCC          E(Eh)            E(eV)
   0   2.0000    -101.551363     -2763.3531
   1   2.0000    -101.551277     -2763.3507
   2   2.0000    -101.548530     -2763.2760
   3   2.0000    -101.548122     -2763.2649
   4   2.0000     -88.949696     -2420.4443
   5   2.0000     -88.913969     -2419.4721
   6   2.0000     -88.913281     -2419.4534
   7   2.0000     -88.912158     -2419.4228
   8   2.0000     -88.911005     -2419.3915
   9   2.0000     -19.139859      -520.8220
  10   2.0000     -19.139553      -520.8137
  11   2.0000     -14.412824      -392.1929
  12   2.0000     -14.406121      -392.0105
  13   2.0000     -14.364683      -390.8829
  14   2.0000     -14.364109      -390.8673
  15   2.0000     -14.339497      -390.1976
  16   2.0000     -14.339128      -390.1875
  17   2.0000     -14.333470      -390.0335
  18   2.0000     -14.333447      -390.0329
  19   2.0000     -10.284189      -279.8470
  20   2.0000     -10.283380      -279.8250
  21   2.0000     -10.277078      -279.6535
  22   2.0000     -10.276719      -279.6437
  23   2.0000     -10.276466      -279.6369
  24   2.0000     -10.275913      -279.6218
  25   2.0000     -10.268009      -279.4067
  26   2.0000     -10.265771      -279.3458
  27   2.0000     -10.264341      -279.3069
  28   2.0000     -10.264337      -279.3068
  29   2.0000     -10.263358      -279.2802
  30   2.0000     -10.263173      -279.2751
  31   2.0000     -10.256844      -279.1029
  32   2.0000     -10.252530      -278.9855
  33   2.0000     -10.251212      -278.9497
  34   2.0000     -10.250165      -278.9212
  35   2.0000     -10.249664      -278.9075
  36   2.0000     -10.248813      -278.8844
  37   2.0000     -10.245579      -278.7964
  38   2.0000     -10.245003      -278.7807
  39   2.0000     -10.243092      -278.7287
  40   2.0000     -10.243017      -278.7267
  41   2.0000     -10.240419      -278.6560
  42   2.0000     -10.239885      -278.6414
  43   2.0000     -10.239807      -278.6393
  44   2.0000     -10.238995      -278.6172
  45   2.0000     -10.237462      -278.5755
  46   2.0000     -10.236600      -278.5520
  47   2.0000     -10.235613      -278.5252
  48   2.0000     -10.234790      -278.5028
  49   2.0000     -10.234462      -278.4939
  50   2.0000     -10.233867      -278.4777
  51   2.0000     -10.233781      -278.4753
  52   2.0000     -10.233686      -278.4727
  53   2.0000     -10.233533      -278.4686
  54   2.0000     -10.233479      -278.4671
  55   2.0000     -10.227472      -278.3037
  56   2.0000     -10.225154      -278.2406
  57   2.0000     -10.224967      -278.2355
  58   2.0000     -10.224296      -278.2172
  59   2.0000     -10.223809      -278.2040
  60   2.0000     -10.222978      -278.1814
  61   2.0000     -10.220580      -278.1161
  62   2.0000     -10.219904      -278.0977
  63   2.0000     -10.218472      -278.0588
  64   2.0000     -10.217479      -278.0317
  65   2.0000     -10.202489      -277.6238
  66   2.0000     -10.202287      -277.6184
  67   2.0000     -10.202069      -277.6124
  68   2.0000     -10.201133      -277.5869
  69   2.0000     -10.180528      -277.0262
  70   2.0000     -10.179146      -276.9886
  71   2.0000      -9.483610      -258.0621
  72   2.0000      -9.483503      -258.0592
  73   2.0000      -9.480780      -257.9851
  74   2.0000      -9.480420      -257.9754
  75   2.0000      -8.020121      -218.2386
  76   2.0000      -7.988754      -217.3850
  77   2.0000      -7.988189      -217.3697
  78   2.0000      -7.986929      -217.3354
  79   2.0000      -7.985799      -217.3046
  80   2.0000      -7.245333      -197.1555
  81   2.0000      -7.245242      -197.1531
  82   2.0000      -7.242555      -197.0799
  83   2.0000      -7.242161      -197.0692
  84   2.0000      -7.236881      -196.9255
  85   2.0000      -7.236764      -196.9223
  86   2.0000      -7.236125      -196.9050
  87   2.0000      -7.236021      -196.9021
  88   2.0000      -7.234021      -196.8477
  89   2.0000      -7.233669      -196.8381
  90   2.0000      -7.233269      -196.8273
  91   2.0000      -7.232908      -196.8174
  92   2.0000      -5.984846      -162.8560
  93   2.0000      -5.977799      -162.6642
  94   2.0000      -5.976545      -162.6301
  95   2.0000      -5.951860      -161.9584
  96   2.0000      -5.951282      -161.9426
  97   2.0000      -5.949831      -161.9031
  98   2.0000      -5.948713      -161.8727
  99   2.0000      -5.948100      -161.8560
 100   2.0000      -5.947532      -161.8406
 101   2.0000      -5.945785      -161.7930
 102   2.0000      -5.944637      -161.7618
 103   2.0000      -5.944384      -161.7549
 104   2.0000      -5.943811      -161.7393
 105   2.0000      -5.943045      -161.7185
 106   2.0000      -5.941919      -161.6878
 107   2.0000      -1.067030       -29.0354
 108   2.0000      -1.066967       -29.0336
 109   2.0000      -1.040932       -28.3252
 110   2.0000      -1.027225       -27.9522
 111   2.0000      -1.025335       -27.9008
 112   2.0000      -0.946275       -25.7495
 113   2.0000      -0.946143       -25.7459
 114   2.0000      -0.938315       -25.5328
 115   2.0000      -0.937857       -25.5204
 116   2.0000      -0.932488       -25.3743
 117   2.0000      -0.930937       -25.3321
 118   2.0000      -0.923815       -25.1383
 119   2.0000      -0.923446       -25.1282
 120   2.0000      -0.908170       -24.7126
 121   2.0000      -0.908005       -24.7081
 122   2.0000      -0.907027       -24.6814
 123   2.0000      -0.888685       -24.1823
 124   2.0000      -0.881052       -23.9747
 125   2.0000      -0.880850       -23.9692
 126   2.0000      -0.877817       -23.8866
 127   2.0000      -0.869494       -23.6601
 128   2.0000      -0.853611       -23.2279
 129   2.0000      -0.852103       -23.1869
 130   2.0000      -0.836675       -22.7671
 131   2.0000      -0.823598       -22.4112
 132   2.0000      -0.820181       -22.3183
 133   2.0000      -0.818934       -22.2843
 134   2.0000      -0.818086       -22.2613
 135   2.0000      -0.813012       -22.1232
 136   2.0000      -0.794207       -21.6115
 137   2.0000      -0.791498       -21.5378
 138   2.0000      -0.784096       -21.3363
 139   2.0000      -0.783874       -21.3303
 140   2.0000      -0.783462       -21.3191
 141   2.0000      -0.775677       -21.1072
 142   2.0000      -0.759927       -20.6787
 143   2.0000      -0.757415       -20.6103
 144   2.0000      -0.746153       -20.3039
 145   2.0000      -0.731404       -19.9025
 146   2.0000      -0.729069       -19.8390
 147   2.0000      -0.726424       -19.7670
 148   2.0000      -0.710932       -19.3454
 149   2.0000      -0.693203       -18.8630
 150   2.0000      -0.691088       -18.8055
 151   2.0000      -0.686200       -18.6724
 152   2.0000      -0.683644       -18.6029
 153   2.0000      -0.682001       -18.5582
 154   2.0000      -0.663619       -18.0580
 155   2.0000      -0.655272       -17.8308
 156   2.0000      -0.652469       -17.7546
 157   2.0000      -0.647310       -17.6142
 158   2.0000      -0.640135       -17.4190
 159   2.0000      -0.628834       -17.1114
 160   2.0000      -0.626272       -17.0417
 161   2.0000      -0.621669       -16.9165
 162   2.0000      -0.621126       -16.9017
 163   2.0000      -0.615713       -16.7544
 164   2.0000      -0.602107       -16.3842
 165   2.0000      -0.594612       -16.1802
 166   2.0000      -0.592404       -16.1201
 167   2.0000      -0.585240       -15.9252
 168   2.0000      -0.575195       -15.6519
 169   2.0000      -0.566632       -15.4188
 170   2.0000      -0.562354       -15.3024
 171   2.0000      -0.552830       -15.0433
 172   2.0000      -0.551807       -15.0154
 173   2.0000      -0.547404       -14.8956
 174   2.0000      -0.544647       -14.8206
 175   2.0000      -0.542315       -14.7572
 176   2.0000      -0.533510       -14.5175
 177   2.0000      -0.529635       -14.4121
 178   2.0000      -0.521251       -14.1840
 179   2.0000      -0.516383       -14.0515
 180   2.0000      -0.514726       -14.0064
 181   2.0000      -0.507713       -13.8156
 182   2.0000      -0.506942       -13.7946
 183   2.0000      -0.502801       -13.6819
 184   2.0000      -0.498463       -13.5639
 185   2.0000      -0.491395       -13.3715
 186   2.0000      -0.487754       -13.2725
 187   2.0000      -0.484639       -13.1877
 188   2.0000      -0.482937       -13.1414
 189   2.0000      -0.480000       -13.0615
 190   2.0000      -0.479757       -13.0548
 191   2.0000      -0.478744       -13.0273
 192   2.0000      -0.472435       -12.8556
 193   2.0000      -0.470576       -12.8050
 194   2.0000      -0.469456       -12.7746
 195   2.0000      -0.469281       -12.7698
 196   2.0000      -0.466252       -12.6874
 197   2.0000      -0.464644       -12.6436
 198   2.0000      -0.463381       -12.6092
 199   2.0000      -0.460196       -12.5226
 200   2.0000      -0.458179       -12.4677
 201   2.0000      -0.454678       -12.3724
 202   2.0000      -0.447555       -12.1786
 203   2.0000      -0.445024       -12.1097
 204   2.0000      -0.444435       -12.0937
 205   2.0000      -0.443201       -12.0601
 206   2.0000      -0.441704       -12.0194
 207   2.0000      -0.436243       -11.8708
 208   2.0000      -0.434538       -11.8244
 209   2.0000      -0.433810       -11.8046
 210   2.0000      -0.430008       -11.7011
 211   2.0000      -0.428944       -11.6722
 212   2.0000      -0.425452       -11.5771
 213   2.0000      -0.425420       -11.5763
 214   2.0000      -0.423849       -11.5335
 215   2.0000      -0.421385       -11.4665
 216   2.0000      -0.418996       -11.4015
 217   2.0000      -0.417586       -11.3631
 218   2.0000      -0.416864       -11.3434
 219   2.0000      -0.415034       -11.2937
 220   2.0000      -0.412826       -11.2336
 221   2.0000      -0.410449       -11.1689
 222   2.0000      -0.405903       -11.0452
 223   2.0000      -0.403345       -10.9756
 224   2.0000      -0.403051       -10.9676
 225   2.0000      -0.398514       -10.8441
 226   2.0000      -0.397610       -10.8195
 227   2.0000      -0.394804       -10.7432
 228   2.0000      -0.392850       -10.6900
 229   2.0000      -0.392551       -10.6818
 230   2.0000      -0.391651       -10.6574
 231   2.0000      -0.387928       -10.5560
 232   2.0000      -0.384330       -10.4582
 233   2.0000      -0.384239       -10.4557
 234   2.0000      -0.383313       -10.4305
 235   2.0000      -0.374987       -10.2039
 236   2.0000      -0.374969       -10.2034
 237   2.0000      -0.372672       -10.1409
 238   2.0000      -0.369435       -10.0528
 239   2.0000      -0.368195       -10.0191
 240   2.0000      -0.368040       -10.0149
 241   2.0000      -0.367224        -9.9927
 242   2.0000      -0.366903        -9.9839
 243   2.0000      -0.366494        -9.9728
 244   2.0000      -0.366168        -9.9639
 245   2.0000      -0.363848        -9.9008
 246   2.0000      -0.362203        -9.8561
 247   2.0000      -0.360648        -9.8137
 248   2.0000      -0.356894        -9.7116
 249   2.0000      -0.354879        -9.6568
 250   2.0000      -0.353630        -9.6228
 251   2.0000      -0.351313        -9.5597
 252   2.0000      -0.347585        -9.4583
 253   2.0000      -0.346861        -9.4386
 254   2.0000      -0.346319        -9.4238
 255   2.0000      -0.346035        -9.4161
 256   2.0000      -0.344005        -9.3609
 257   2.0000      -0.341751        -9.2995
 258   2.0000      -0.336598        -9.1593
 259   2.0000      -0.334592        -9.1047
 260   2.0000      -0.326434        -8.8827
 261   2.0000      -0.326200        -8.8763
 262   2.0000      -0.318291        -8.6611
 263   2.0000      -0.312293        -8.4979
 264   2.0000      -0.309307        -8.4167
 265   2.0000      -0.296906        -8.0792
 266   2.0000      -0.289473        -7.8770
 267   2.0000      -0.287539        -7.8243
 268   2.0000      -0.286192        -7.7877
 269   2.0000      -0.282079        -7.6758
 270   2.0000      -0.281534        -7.6609
 271   2.0000      -0.269396        -7.3306
 272   2.0000      -0.268877        -7.3165
 273   2.0000      -0.265854        -7.2342
 274   2.0000      -0.262238        -7.1358
 275   2.0000      -0.248022        -6.7490
 276   2.0000      -0.239079        -6.5057
 277   2.0000      -0.239010        -6.5038
 278   2.0000      -0.211514        -5.7556
 279   0.0000      -0.138340        -3.7644
 280   0.0000      -0.127990        -3.4828
 281   0.0000      -0.114182        -3.1071
 282   0.0000      -0.111217        -3.0264
 283   0.0000      -0.096577        -2.6280

MULLIKEN ATOMIC CHARGES
-----------------------
   0 C :    0.208808
   1 O :   -0.347961
   2 C :    0.124152
   3 C :   -0.323597
   4 C :    0.158804
   5 Cl:   -0.059623
   6 C :    0.112074
   7 Cl:   -0.048967
   8 C :   -0.256079
   9 C :    0.105444
  10 C :    0.005578
  11 C :    0.145860
  12 C :   -0.169613
  13 N :   -0.012583
  14 C :   -0.204632
  15 N :    0.009499
  16 C :   -0.099909
  17 C :   -0.130463
  18 C :    0.079821
  19 S :    0.038827
  20 C :   -0.202556
  21 C :    0.043398
  22 C :    0.001582
  23 C :   -0.223072
  24 C :   -0.322499
  25 S :    0.041265
  26 C :   -0.166210
  27 C :    0.331029
  28 N :   -0.126085
  29 C :   -0.121206
  30 C :   -0.359253
  31 C :    0.097311
  32 C :    0.108001
  33 C :   -0.030756
  34 N :   -0.247551
  35 S :    0.335329
  36 N :   -0.250019
  37 C :   -0.016236
  38 C :    0.095210
  39 C :   -0.020385
  40 N :   -0.029381
  41 C :   -0.234950
  42 C :   -0.339613
  43 C :    0.348069
  44 C :   -0.138513
  45 S :    0.034569
  46 C :    0.015031
  47 C :   -0.193913
  48 S :    0.025656
  49 C :    0.011946
  50 C :    0.060597
  51 C :   -0.225140
  52 C :   -0.325753
  53 C :   -0.073443
  54 C :   -0.106437
  55 C :   -0.000164
  56 C :    0.134216
  57 C :   -0.199169
  58 N :    0.009947
  59 C :   -0.146883
  60 N :   -0.019930
  61 C :    0.109709
  62 C :   -0.253980
  63 C :    0.112426
  64 Cl:   -0.049114
  65 C :    0.160738
  66 Cl:   -0.059078
  67 C :   -0.313821
  68 C :    0.105706
  69 C :    0.209214
  70 O :   -0.348406
  71 H :    0.138968
  72 H :    0.164022
  73 H :    0.137368
  74 H :    0.136033
  75 H :    0.109492
  76 H :    0.118663
  77 H :    0.125083
  78 H :    0.114802
  79 H :    0.130433
  80 H :    0.121848
  81 H :    0.133780
  82 H :    0.134906
  83 H :    0.128834
  84 H :    0.163393
  85 H :    0.143506
  86 H :    0.127503
  87 H :    0.141766
  88 H :    0.128830
  89 H :    0.109082
  90 H :    0.140535
  91 H :    0.117236
  92 H :    0.124611
  93 H :    0.114862
  94 H :    0.107630
  95 H :    0.164879
  96 H :    0.139058
Sum of atomic charges:   -0.0000000

LOEWDIN ATOMIC CHARGES
----------------------
   0 C :   -0.253546
   1 O :    0.114314
   2 C :   -0.063143
   3 C :   -0.075446
   4 C :   -0.417791
   5 Cl:    0.431832
   6 C :   -0.414454
   7 Cl:    0.437821
   8 C :   -0.078987
   9 C :   -0.038863
  10 C :    0.018139
  11 C :   -0.137954
  12 C :   -0.153811
  13 N :    0.068718
  14 C :   -0.153598
  15 N :    0.072391
  16 C :   -0.089020
  17 C :   -0.056073
  18 C :   -0.292968
  19 S :    0.773172
  20 C :   -0.342286
  21 C :   -0.313164
  22 C :   -0.118265
  23 C :   -0.235641
  24 C :   -0.290269
  25 S :    0.732357
  26 C :   -0.278869
  27 C :   -0.186162
  28 N :    0.275047
  29 C :   -0.260601
  30 C :   -0.298465
  31 C :   -0.092230
  32 C :   -0.084354
  33 C :   -0.242431
  34 N :   -0.117652
  35 S :    0.644227
  36 N :   -0.119171
  37 C :   -0.240806
  38 C :   -0.087872
  39 C :   -0.091859
  40 N :    0.292413
  41 C :   -0.263584
  42 C :   -0.305034
  43 C :   -0.179327
  44 C :   -0.280268
  45 S :    0.736287
  46 C :   -0.315466
  47 C :   -0.335602
  48 S :    0.772888
  49 C :   -0.293467
  50 C :   -0.118729
  51 C :   -0.234932
  52 C :   -0.288396
  53 C :   -0.053409
  54 C :   -0.088847
  55 C :    0.017922
  56 C :   -0.138096
  57 C :   -0.154113
  58 N :    0.072943
  59 C :   -0.152966
  60 N :    0.063923
  61 C :   -0.038903
  62 C :   -0.078152
  63 C :   -0.413459
  64 Cl:    0.436136
  65 C :   -0.418389
  66 Cl:    0.432626
  67 C :   -0.075597
  68 C :   -0.062395
  69 C :   -0.253426
  70 O :    0.114067
  71 H :    0.161679
  72 H :    0.166119
  73 H :    0.179024
  74 H :    0.151554
  75 H :    0.143894
  76 H :    0.121056
  77 H :    0.127572
  78 H :    0.120849
  79 H :    0.140574
  80 H :    0.134048
  81 H :    0.125970
  82 H :    0.129747
  83 H :    0.128568
  84 H :    0.141565
  85 H :    0.144372
  86 H :    0.131067
  87 H :    0.121075
  88 H :    0.123559
  89 H :    0.146521
  90 H :    0.146793
  91 H :    0.119846
  92 H :    0.126574
  93 H :    0.123171
  94 H :    0.178358
  95 H :    0.166162
  96 H :    0.161365

  Mayer bond orders larger than 0.100000
B(  0-C ,  1-O ) :   2.0351 B(  0-C ,  2-C ) :   1.0408 B(  0-C , 16-C ) :   1.0044
B(  1-O ,  2-C ) :  -0.1677 B(  2-C ,  3-C ) :   1.3725 B(  2-C ,  9-C ) :   1.3334
B(  3-C ,  4-C ) :   1.3472 B(  3-C , 71-H ) :   0.9806 B(  4-C ,  5-Cl) :   1.0485
B(  4-C ,  6-C ) :   1.2570 B(  6-C ,  7-Cl) :   1.1104 B(  6-C ,  8-C ) :   1.3766
B(  8-C ,  9-C ) :   1.4156 B(  8-C , 72-H ) :   0.9151 B(  9-C , 10-C ) :   1.0393
B( 10-C , 11-C ) :   1.4467 B( 10-C , 16-C ) :   1.1782 B( 11-C , 12-C ) :   1.0613
B( 11-C , 14-C ) :   1.0226 B( 12-C , 13-N ) :   2.8965 B( 14-C , 15-N ) :   2.9722
B( 16-C , 17-C ) :   1.4086 B( 17-C , 18-C ) :   1.2666 B( 17-C , 73-H ) :   0.8647
B( 18-C , 19-S ) :   1.2805 B( 18-C , 22-C ) :   1.3043 B( 19-S , 20-C ) :   1.3928
B( 19-S , 27-C ) :  -0.1418 B( 20-C , 21-C ) :   1.3025 B( 20-C , 27-C ) :   1.1052
B( 21-C , 22-C ) :   1.3387 B( 21-C , 25-S ) :   1.1876 B( 22-C , 23-C ) :   0.9580
B( 23-C , 24-C ) :   0.9694 B( 23-C , 74-H ) :   0.9450 B( 23-C , 75-H ) :   0.9753
B( 24-C , 76-H ) :   0.9737 B( 24-C , 77-H ) :   0.9707 B( 24-C , 78-H ) :   0.9663
B( 25-S , 26-C ) :   1.3341 B( 26-C , 27-C ) :   1.2995 B( 26-C , 32-C ) :   1.1613
B( 27-C , 28-N ) :   1.1445 B( 28-N , 29-C ) :   0.8958 B( 28-N , 31-C ) :   1.1483
B( 29-C , 30-C ) :   0.9599 B( 29-C , 79-H ) :   0.9596 B( 29-C , 80-H ) :   0.9582
B( 30-C , 81-H ) :   0.9705 B( 30-C , 82-H ) :   0.9655 B( 30-C , 83-H ) :   0.9674
B( 31-C , 32-C ) :   1.3100 B( 31-C , 39-C ) :   1.2697 B( 32-C , 33-C ) :   1.1014
B( 33-C , 34-N ) :   1.6216 B( 33-C , 35-S ) :   0.1135 B( 33-C , 37-C ) :   1.1651
B( 34-N , 35-S ) :   1.2580 B( 34-N , 36-N ) :   0.1091 B( 35-S , 36-N ) :   1.2556
B( 35-S , 37-C ) :   0.1141 B( 36-N , 37-C ) :   1.6204 B( 37-C , 38-C ) :   1.0948
B( 38-C , 39-C ) :   1.2203 B( 38-C , 44-C ) :   1.1964 B( 39-C , 40-N ) :   1.2337
B( 40-N , 41-C ) :   0.8591 B( 40-N , 43-C ) :   1.1202 B( 41-C , 42-C ) :   0.9351
B( 41-C , 84-H ) :   0.9727 B( 41-C , 85-H ) :   0.9566 B( 42-C , 86-H ) :   0.9673
B( 42-C , 87-H ) :   0.9577 B( 42-C , 88-H ) :   0.9769 B( 43-C , 44-C ) :   1.2760
B( 43-C , 47-C ) :   1.0790 B( 43-C , 48-S ) :  -0.1402 B( 44-C , 45-S ) :   1.3266
B( 45-S , 46-C ) :   1.1819 B( 45-S , 47-C ) :   0.1028 B( 46-C , 47-C ) :   1.2976
B( 46-C , 50-C ) :   1.3226 B( 47-C , 48-S ) :   1.3655 B( 48-S , 49-C ) :   1.2978
B( 49-C , 50-C ) :   1.2731 B( 49-C , 53-C ) :   1.2936 B( 50-C , 51-C ) :   0.9469
B( 51-C , 52-C ) :   0.9657 B( 51-C , 89-H ) :   0.9710 B( 51-C , 90-H ) :   0.9459
B( 52-C , 91-H ) :   0.9743 B( 52-C , 92-H ) :   0.9700 B( 52-C , 93-H ) :   0.9693
B( 53-C , 54-C ) :   1.3878 B( 53-C , 94-H ) :   0.8592 B( 54-C , 55-C ) :   1.1825
B( 54-C , 69-C ) :   1.0023 B( 55-C , 56-C ) :   1.4630 B( 55-C , 61-C ) :   1.0425
B( 56-C , 57-C ) :   1.0183 B( 56-C , 59-C ) :   1.0552 B( 57-C , 58-N ) :   2.9728
B( 59-C , 60-N ) :   2.8838 B( 61-C , 62-C ) :   1.4165 B( 61-C , 68-C ) :   1.3348
B( 62-C , 63-C ) :   1.3768 B( 62-C , 95-H ) :   0.9136 B( 63-C , 64-Cl) :   1.1049
B( 63-C , 65-C ) :   1.2584 B( 65-C , 66-Cl) :   1.0460 B( 65-C , 67-C ) :   1.3436
B( 67-C , 68-C ) :   1.3812 B( 67-C , 96-H ) :   0.9779 B( 68-C , 69-C ) :   1.0375
B( 68-C , 70-O ) :  -0.1635 B( 69-C , 70-O ) :   2.0397

-----------------------------------------------------------------------------
  SOC CORRECTED ABSORPTION SPECTRUM VIA TRANSITION ELECTRIC DIPOLE MOMENTS*
-----------------------------------------------------------------------------
State   Energy  Wavelength   fosc         T2         TX        TY        TZ
        (cm-1)    (nm)                  (au**2)     (au)      (au)      (au)
-----------------------------------------------------------------------------
   1   10551.3    947.8   0.000000001   0.00000   0.00012   0.00013   0.00008
   2   10551.3    947.8   0.000000000   0.00000   0.00001   0.00001   0.00001
   3   10551.3    947.8   0.000000000   0.00000   0.00002   0.00002   0.00001
   4   12577.8    795.0   0.000000000   0.00000   0.00005   0.00006   0.00004
   5   12577.8    795.0   0.000000000   0.00000   0.00004   0.00004   0.00003
   6   12577.8    795.0   0.000000009   0.00000   0.00030   0.00032   0.00020
   7   15023.7    665.6   2.557322978  56.03816   4.42214   4.73352   3.75189
   8   16366.7    611.0   0.000000000   0.00000   0.00003   0.00003   0.00005
   9   16366.7    611.0   0.000000000   0.00000   0.00004   0.00004   0.00001
  10   16366.7    611.0   0.000000002   0.00000   0.00012   0.00012   0.00005
  11   17136.7    583.5   0.093152998   1.78956   0.52980   0.45768   1.13991
  12   18921.4    528.5   0.203035121   3.53260   1.10083   1.20792   0.92828

FINAL SINGLE POINT ENERGY     -6416.362207649372

DIPOLE MOMENT
-------------
                                X             Y             Z
Electronic contribution:    -22.83019      19.94065     -52.68345
Nuclear contribution   :     23.04378     -19.79550      52.73781
                        -----------------------------------------
Total Dipole Moment    :      0.21359       0.14516       0.05436
                        -----------------------------------------
Magnitude (a.u.)       :      0.26391
Magnitude (Debye)      :      0.67080

Rotational constants in cm-1:     0.000960     0.000268     0.000211
Rotational constants in MHz :    28.768080     8.045106     6.324482

                             ****ORCA TERMINATED NORMALLY****
TOTAL RUN TIME: 0 days 2 hours 38 minutes 58 seconds 744 msec
