                         Program Version 4.2.0 -  RELEASE  -
|  1> # ORCA input file
|  2> # BTP-4Cl.out
|  3> ! B3LYP def2-TZVP def2/J RIJCOSX Grid4 TightSCF
|  4>
|  5> %maxcore 2000
|  6> %tddft
|  7>   maxdim 5
|  8>   nroots 3
|  9>   dosoc true
| 10>   end
| 11>
| 12>
| 13>
| 14> * xyz 0 1
| 15>    C        4.59755         2.87582         1.07531
| 16>    O        5.39216         2.17327         0.47468
| 17>    C        3.70908         3.89109         0.47533
| 18>    C        3.57391         4.24185        -0.85146
| 19>    C        2.65686         5.23304        -1.17927
| 20>   Cl        2.45262         5.69513        -2.82056
| 21>    C        1.89983         5.85060        -0.17863
| 22>   Cl        0.76836         7.07316        -0.59686
| 23>    C        2.04216         5.49383         1.15868
| 24>    C        2.95403         4.50559         1.48910
| 25>    C        3.32675         3.91708         2.77592
| 26>    C        2.81722         4.29679         3.99167
| 27>    C        3.17848         3.75788         5.24374
| 28>    N        3.41935         3.37722         6.30065
| 29>    C        1.84848         5.30859         4.16098
| 30>    N        1.06269         6.11838         4.37028
| 31>    C        4.32407         2.89989         2.51232
| 32>    C        4.89662         2.08581         3.46291
| 33>    C        5.85528         1.07743         3.35102
| 34>    S        6.64672         0.59327         1.84821
| 35>    C        7.55677        -0.59572         2.69830
| 36>    C        7.25364        -0.61134         4.07257
| 37>    C        6.30487         0.32547         4.45375
| 38>    C        5.80635         0.44801         5.85623
| 39>    C        4.51547        -0.35366         6.04658
| 40>    S        8.16234        -1.80782         4.97886
| 41>    C        8.94473        -2.27724         3.51058
| 42>    C        8.51866        -1.55889         2.38639
| 43>    N        9.18295        -1.99302         1.26783
| 44>    C        9.25690        -1.08742         0.14040
| 45>    C       10.32448        -0.01948         0.37118
| 46>    C       10.05313        -2.99516         1.66276
| 47>    C        9.93366        -3.16783         3.07427
| 48>    C       10.78167        -4.03687         3.79696
| 49>    N       10.80824        -4.26982         5.09957
| 50>    S       12.02585        -5.28821         5.41430
| 51>    N       12.56456        -5.47434         3.89922
| 52>    C       11.80900        -4.74598         3.09287
| 53>    C       11.85534        -4.65523         1.68347
| 54>    C       10.93519        -3.84765         0.94858
| 55>    N       11.11326        -4.10315        -0.39544
| 56>    C       10.26531        -3.81843        -1.53109
| 57>    C       10.89990        -2.80332        -2.48147
| 58>    C       12.13337        -5.00696        -0.52327
| 59>    C       12.62224        -5.35378         0.74401
| 60>    S       13.89334        -6.52471         0.70787
| 61>    C       13.75331        -6.57256        -1.04016
| 62>    C       12.76574        -5.70966        -1.55142
| 63>    S       12.64999        -5.80778        -3.26731
| 64>    C       13.93458        -7.01849        -3.29756
| 65>    C       14.42280        -7.30557        -2.00811
| 66>    C       15.47662        -8.31102        -1.67821
| 67>    C       14.88224        -9.71959        -1.59515
| 68>    C       14.41487        -7.64877        -4.44653
| 69>    C       14.04588        -7.52682        -5.76689
| 70>    C       14.61400        -8.28159        -6.86519
| 71>    C       15.59903        -9.23478        -6.80723
| 72>    C       16.09489        -9.92891        -7.93125
| 73>    N       16.54393       -10.53038        -8.79976
| 74>    C       16.26241        -9.66956        -5.64105
| 75>    N       16.85021       -10.08304        -4.74414
| 76>    C       13.93655        -7.84849        -8.08767
| 77>    C       14.07945        -8.24240        -9.40734
| 78>    C       13.27999        -7.64018       -10.37388
| 79>   Cl       13.45007        -8.12485       -12.01281
| 80>    C       12.34786        -6.65460       -10.03384
| 81>   Cl       11.37889        -5.93065       -11.25306
| 82>    C       12.20061        -6.25763        -8.71036
| 83>    C       12.99416        -6.85965        -7.75654
| 84>    C       13.02672        -6.62287        -6.29955
| 85>    O       12.33835        -5.82482        -5.68684
| 86>    H        4.16377         3.75625        -1.61305
| 87>    H        1.43979         5.99214         1.90004
| 88>    H        4.55070         2.23375         4.47666
| 89>    H        5.62745         1.49104         6.12094
| 90>    H        6.57235         0.05162         6.52560
| 91>    H        3.73149         0.01539         5.38949
| 92>    H        4.17499        -0.26244         7.07390
| 93>    H        4.68703        -1.40478         5.82679
| 94>    H        8.27621        -0.61324         0.04796
| 95>    H        9.46774        -1.62151        -0.77782
| 96>    H       11.30499        -0.47782         0.48434
| 97>    H       10.10342         0.55103         1.26974
| 98>    H       10.34946         0.66323        -0.47331
| 99>    H        9.28710        -3.49825        -1.16954
|100>    H       10.12182        -4.75750        -2.07672
|101>    H       10.18202        -2.51410        -3.24377
|102>    H       11.75837        -3.24763        -2.97719
|103>    H       11.23539        -1.91422        -1.95302
|104>    H       15.90489        -8.04890        -0.70893
|105>    H       16.27616        -8.29871        -2.42000
|106>    H       14.10754        -9.75906        -0.83336
|107>    H       15.66143       -10.43148        -1.33926
|108>    H       14.44899       -10.01306        -2.54805
|109>    H       15.20483        -8.35875        -4.24397
|110>    H       14.78632        -8.99739        -9.70938
|111>    H       11.48517        -5.49955        -8.43370
|112> *
|113>
|114>                          ****END OF INPUT****

CARTESIAN COORDINATES (ANGSTROEM)
---------------------------------
  C      4.597550    2.875820    1.075310
  O      5.392160    2.173270    0.474680
  C      3.709080    3.891090    0.475330
  C      3.573910    4.241850   -0.851460
  C      2.656860    5.233040   -1.179270
  Cl     2.452620    5.695130   -2.820560
  C      1.899830    5.850600   -0.178630
  Cl     0.768360    7.073160   -0.596860
  C      2.042160    5.493830    1.158680
  C      2.954030    4.505590    1.489100
  C      3.326750    3.917080    2.775920
  C      2.817220    4.296790    3.991670
  C      3.178480    3.757880    5.243740
  N      3.419350    3.377220    6.300650
  C      1.848480    5.308590    4.160980
  N      1.062690    6.118380    4.370280
  C      4.324070    2.899890    2.512320
  C      4.896620    2.085810    3.462910
  C      5.855280    1.077430    3.351020
  S      6.646720    0.593270    1.848210
  C      7.556770   -0.595720    2.698300
  C      7.253640   -0.611340    4.072570
  C      6.304870    0.325470    4.453750
  C      5.806350    0.448010    5.856230
  C      4.515470   -0.353660    6.046580
  S      8.162340   -1.807820    4.978860
  C      8.944730   -2.277240    3.510580
  C      8.518660   -1.558890    2.386390
  N      9.182950   -1.993020    1.267830
  C      9.256900   -1.087420    0.140400
  C     10.324480   -0.019480    0.371180
  C     10.053130   -2.995160    1.662760
  C      9.933660   -3.167830    3.074270
  C     10.781670   -4.036870    3.796960
  N     10.808240   -4.269820    5.099570
  S     12.025850   -5.288210    5.414300
  N     12.564560   -5.474340    3.899220
  C     11.809000   -4.745980    3.092870
  C     11.855340   -4.655230    1.683470
  C     10.935190   -3.847650    0.948580
  N     11.113260   -4.103150   -0.395440
  C     10.265310   -3.818430   -1.531090
  C     10.899900   -2.803320   -2.481470
  C     12.133370   -5.006960   -0.523270
  C     12.622240   -5.353780    0.744010
  S     13.893340   -6.524710    0.707870
  C     13.753310   -6.572560   -1.040160
  C     12.765740   -5.709660   -1.551420
  S     12.649990   -5.807780   -3.267310
  C     13.934580   -7.018490   -3.297560
  C     14.422800   -7.305570   -2.008110
  C     15.476620   -8.311020   -1.678210
  C     14.882240   -9.719590   -1.595150
  C     14.414870   -7.648770   -4.446530
  C     14.045880   -7.526820   -5.766890
  C     14.614000   -8.281590   -6.865190
  C     15.599030   -9.234780   -6.807230
  C     16.094890   -9.928910   -7.931250
  N     16.543930  -10.530380   -8.799760
  C     16.262410   -9.669560   -5.641050
  N     16.850210  -10.083040   -4.744140
  C     13.936550   -7.848490   -8.087670
  C     14.079450   -8.242400   -9.407340
  C     13.279990   -7.640180  -10.373880
  Cl    13.450070   -8.124850  -12.012810
  C     12.347860   -6.654600  -10.033840
  Cl    11.378890   -5.930650  -11.253060
  C     12.200610   -6.257630   -8.710360
  C     12.994160   -6.859650   -7.756540
  C     13.026720   -6.622870   -6.299550
  O     12.338350   -5.824820   -5.686840
  H      4.163770    3.756250   -1.613050
  H      1.439790    5.992140    1.900040
  H      4.550700    2.233750    4.476660
  H      5.627450    1.491040    6.120940
  H      6.572350    0.051620    6.525600
  H      3.731490    0.015390    5.389490
  H      4.174990   -0.262440    7.073900
  H      4.687030   -1.404780    5.826790
  H      8.276210   -0.613240    0.047960
  H      9.467740   -1.621510   -0.777820
  H     11.304990   -0.477820    0.484340
  H     10.103420    0.551030    1.269740
  H     10.349460    0.663230   -0.473310
  H      9.287100   -3.498250   -1.169540
  H     10.121820   -4.757500   -2.076720
  H     10.182020   -2.514100   -3.243770
  H     11.758370   -3.247630   -2.977190
  H     11.235390   -1.914220   -1.953020
  H     15.904890   -8.048900   -0.708930
  H     16.276160   -8.298710   -2.420000
  H     14.107540   -9.759060   -0.833360
  H     15.661430  -10.431480   -1.339260
  H     14.448990  -10.013060   -2.548050
  H     15.204830   -8.358750   -4.243970
  H     14.786320   -8.997390   -9.709380
  H     11.485170   -5.499550   -8.433700

 Total Charge           Charge          ....    0
 Multiplicity           Mult            ....    1
 Number of Electrons    NEL             ....  558
 Basis Dimension        Dim             .... 2411

ORBITAL ENERGIES
----------------

  NO   OCC          E(Eh)            E(eV)
   0   2.0000    -101.551270     -2763.3505
   1   2.0000    -101.551175     -2763.3479
   2   2.0000    -101.548742     -2763.2818
   3   2.0000    -101.548611     -2763.2782
   4   2.0000     -88.949379     -2420.4357
   5   2.0000     -88.909822     -2419.3593
   6   2.0000     -88.909660     -2419.3548
   7   2.0000     -88.906475     -2419.2682
   8   2.0000     -88.906206     -2419.2609
   9   2.0000     -19.141331      -520.8621
  10   2.0000     -19.141113      -520.8562
  11   2.0000     -14.410562      -392.1313
  12   2.0000     -14.408290      -392.0695
  13   2.0000     -14.356375      -390.6568
  14   2.0000     -14.356070      -390.6485
  15   2.0000     -14.333734      -390.0407
  16   2.0000     -14.333600      -390.0371
  17   2.0000     -14.327607      -389.8740
  18   2.0000     -14.327533      -389.8720
  19   2.0000     -10.283183      -279.8196
  20   2.0000     -10.283002      -279.8147
  21   2.0000     -10.273633      -279.5598
  22   2.0000     -10.273535      -279.5571
  23   2.0000     -10.273044      -279.5437
  24   2.0000     -10.272916      -279.5403
  25   2.0000     -10.265372      -279.3350
  26   2.0000     -10.264396      -279.3084
  27   2.0000     -10.257473      -279.1200
  28   2.0000     -10.257392      -279.1178
  29   2.0000     -10.256059      -279.0815
  30   2.0000     -10.256024      -279.0806
  31   2.0000     -10.254617      -279.0423
  32   2.0000     -10.250409      -278.9278
  33   2.0000     -10.245508      -278.7944
  34   2.0000     -10.244608      -278.7700
  35   2.0000     -10.241628      -278.6889
  36   2.0000     -10.241202      -278.6773
  37   2.0000     -10.237615      -278.5797
  38   2.0000     -10.237249      -278.5697
  39   2.0000     -10.237169      -278.5675
  40   2.0000     -10.236859      -278.5591
  41   2.0000     -10.233031      -278.4549
  42   2.0000     -10.232932      -278.4522
  43   2.0000     -10.232722      -278.4465
  44   2.0000     -10.232716      -278.4463
  45   2.0000     -10.231122      -278.4030
  46   2.0000     -10.231006      -278.3998
  47   2.0000     -10.230715      -278.3919
  48   2.0000     -10.230566      -278.3879
  49   2.0000     -10.229803      -278.3671
  50   2.0000     -10.229741      -278.3654
  51   2.0000     -10.226446      -278.2757
  52   2.0000     -10.226403      -278.2746
  53   2.0000     -10.225953      -278.2623
  54   2.0000     -10.225924      -278.2615
  55   2.0000     -10.222219      -278.1607
  56   2.0000     -10.222093      -278.1573
  57   2.0000     -10.220396      -278.1111
  58   2.0000     -10.220320      -278.1090
  59   2.0000     -10.219356      -278.0828
  60   2.0000     -10.218236      -278.0523
  61   2.0000     -10.216752      -278.0119
  62   2.0000     -10.216618      -278.0083
  63   2.0000     -10.213965      -277.9361
  64   2.0000     -10.213927      -277.9351
  65   2.0000     -10.198474      -277.5146
  66   2.0000     -10.197934      -277.4999
  67   2.0000     -10.197837      -277.4973
  68   2.0000     -10.195397      -277.4308
  69   2.0000     -10.176052      -276.9044
  70   2.0000     -10.174899      -276.8731
  71   2.0000      -9.483850      -258.0687
  72   2.0000      -9.483762      -258.0663
  73   2.0000      -9.481337      -258.0003
  74   2.0000      -9.481216      -257.9970
  75   2.0000      -8.020433      -218.2471
  76   2.0000      -7.985424      -217.2944
  77   2.0000      -7.985291      -217.2908
  78   2.0000      -7.981586      -217.1900
  79   2.0000      -7.981230      -217.1803
  80   2.0000      -7.245480      -197.1595
  81   2.0000      -7.245402      -197.1574
  82   2.0000      -7.243008      -197.0923
  83   2.0000      -7.242876      -197.0887
  84   2.0000      -7.237142      -196.9326
  85   2.0000      -7.237049      -196.9301
  86   2.0000      -7.236355      -196.9112
  87   2.0000      -7.236265      -196.9088
  88   2.0000      -7.234610      -196.8638
  89   2.0000      -7.234494      -196.8606
  90   2.0000      -7.233808      -196.8419
  91   2.0000      -7.233684      -196.8386
  92   2.0000      -5.985130      -162.8637
  93   2.0000      -5.977774      -162.6635
  94   2.0000      -5.977184      -162.6475
  95   2.0000      -5.948411      -161.8645
  96   2.0000      -5.948294      -161.8613
  97   2.0000      -5.944656      -161.7623
  98   2.0000      -5.944587      -161.7604
  99   2.0000      -5.944511      -161.7584
 100   2.0000      -5.944265      -161.7517
 101   2.0000      -5.941147      -161.6668
 102   2.0000      -5.941002      -161.6629
 103   2.0000      -5.940276      -161.6431
 104   2.0000      -5.939944      -161.6341
 105   2.0000      -5.937603      -161.5704
 106   2.0000      -5.937217      -161.5599
 107   2.0000      -1.071967       -29.1697
 108   2.0000      -1.071770       -29.1643
 109   2.0000      -1.049109       -28.5477
 110   2.0000      -1.036431       -28.2027
 111   2.0000      -1.035608       -28.1803
 112   2.0000      -0.952570       -25.9208
 113   2.0000      -0.952529       -25.9196
 114   2.0000      -0.943488       -25.6736
 115   2.0000      -0.943446       -25.6725
 116   2.0000      -0.936768       -25.4908
 117   2.0000      -0.935470       -25.4554
 118   2.0000      -0.926527       -25.2121
 119   2.0000      -0.926370       -25.2078
 120   2.0000      -0.914460       -24.8837
 121   2.0000      -0.914396       -24.8820
 122   2.0000      -0.906312       -24.6620
 123   2.0000      -0.895513       -24.3682
 124   2.0000      -0.884429       -24.0665
 125   2.0000      -0.884352       -24.0644
 126   2.0000      -0.882564       -24.0158
 127   2.0000      -0.874992       -23.8097
 128   2.0000      -0.858123       -23.3507
 129   2.0000      -0.856435       -23.3048
 130   2.0000      -0.841617       -22.9016
 131   2.0000      -0.828546       -22.5459
 132   2.0000      -0.824031       -22.4230
 133   2.0000      -0.823124       -22.3983
 134   2.0000      -0.822046       -22.3690
 135   2.0000      -0.818803       -22.2808
 136   2.0000      -0.798669       -21.7329
 137   2.0000      -0.795875       -21.6569
 138   2.0000      -0.788314       -21.4511
 139   2.0000      -0.787882       -21.4394
 140   2.0000      -0.787617       -21.4321
 141   2.0000      -0.777346       -21.1527
 142   2.0000      -0.763337       -20.7715
 143   2.0000      -0.759810       -20.6755
 144   2.0000      -0.748396       -20.3649
 145   2.0000      -0.732753       -19.9392
 146   2.0000      -0.730711       -19.8836
 147   2.0000      -0.728159       -19.8142
 148   2.0000      -0.713814       -19.4239
 149   2.0000      -0.698736       -19.0136
 150   2.0000      -0.697237       -18.9728
 151   2.0000      -0.690353       -18.7855
 152   2.0000      -0.686643       -18.6845
 153   2.0000      -0.685633       -18.6570
 154   2.0000      -0.666607       -18.1393
 155   2.0000      -0.657736       -17.8979
 156   2.0000      -0.654859       -17.8196
 157   2.0000      -0.649080       -17.6624
 158   2.0000      -0.642218       -17.4756
 159   2.0000      -0.633866       -17.2484
 160   2.0000      -0.628696       -17.1077
 161   2.0000      -0.625136       -17.0108
 162   2.0000      -0.624888       -17.0041
 163   2.0000      -0.618960       -16.8428
 164   2.0000      -0.602869       -16.4049
 165   2.0000      -0.596573       -16.2336
 166   2.0000      -0.596076       -16.2201
 167   2.0000      -0.588277       -16.0078
 168   2.0000      -0.577052       -15.7024
 169   2.0000      -0.567989       -15.4558
 170   2.0000      -0.566420       -15.4131
 171   2.0000      -0.556155       -15.1337
 172   2.0000      -0.555042       -15.1035
 173   2.0000      -0.552279       -15.0283
 174   2.0000      -0.549435       -14.9509
 175   2.0000      -0.546563       -14.8727
 176   2.0000      -0.536572       -14.6009
 177   2.0000      -0.530190       -14.4272
 178   2.0000      -0.524669       -14.2770
 179   2.0000      -0.519159       -14.1270
 180   2.0000      -0.518018       -14.0960
 181   2.0000      -0.510777       -13.8989
 182   2.0000      -0.508587       -13.8394
 183   2.0000      -0.504445       -13.7266
 184   2.0000      -0.499017       -13.5789
 185   2.0000      -0.494904       -13.4670
 186   2.0000      -0.492047       -13.3893
 187   2.0000      -0.487763       -13.2727
 188   2.0000      -0.485752       -13.2180
 189   2.0000      -0.485013       -13.1979
 190   2.0000      -0.483614       -13.1598
 191   2.0000      -0.481645       -13.1062
 192   2.0000      -0.476514       -12.9666
 193   2.0000      -0.475145       -12.9293
 194   2.0000      -0.474685       -12.9168
 195   2.0000      -0.474425       -12.9098
 196   2.0000      -0.470185       -12.7944
 197   2.0000      -0.468965       -12.7612
 198   2.0000      -0.466804       -12.7024
 199   2.0000      -0.464278       -12.6336
 200   2.0000      -0.460328       -12.5262
 201   2.0000      -0.458444       -12.4749
 202   2.0000      -0.450058       -12.2467
 203   2.0000      -0.448993       -12.2177
 204   2.0000      -0.446830       -12.1589
 205   2.0000      -0.445772       -12.1301
 206   2.0000      -0.442753       -12.0479
 207   2.0000      -0.440123       -11.9764
 208   2.0000      -0.438468       -11.9313
 209   2.0000      -0.434522       -11.8240
 210   2.0000      -0.431892       -11.7524
 211   2.0000      -0.430142       -11.7048
 212   2.0000      -0.429829       -11.6962
 213   2.0000      -0.429016       -11.6741
 214   2.0000      -0.426343       -11.6014
 215   2.0000      -0.424265       -11.5448
 216   2.0000      -0.419674       -11.4199
 217   2.0000      -0.418212       -11.3801
 218   2.0000      -0.417400       -11.3580
 219   2.0000      -0.416267       -11.3272
 220   2.0000      -0.413026       -11.2390
 221   2.0000      -0.412824       -11.2335
 222   2.0000      -0.405886       -11.0447
 223   2.0000      -0.404929       -11.0187
 224   2.0000      -0.404741       -11.0136
 225   2.0000      -0.400063       -10.8863
 226   2.0000      -0.399054       -10.8588
 227   2.0000      -0.393481       -10.7072
 228   2.0000      -0.393237       -10.7005
 229   2.0000      -0.390648       -10.6301
 230   2.0000      -0.390330       -10.6214
 231   2.0000      -0.388425       -10.5696
 232   2.0000      -0.385144       -10.4803
 233   2.0000      -0.381587       -10.3835
 234   2.0000      -0.381395       -10.3783
 235   2.0000      -0.378132       -10.2895
 236   2.0000      -0.377990       -10.2856
 237   2.0000      -0.374585       -10.1930
 238   2.0000      -0.370380       -10.0786
 239   2.0000      -0.370141       -10.0720
 240   2.0000      -0.369861       -10.0644
 241   2.0000      -0.369562       -10.0563
 242   2.0000      -0.369241       -10.0475
 243   2.0000      -0.367936       -10.0121
 244   2.0000      -0.367380        -9.9969
 245   2.0000      -0.365112        -9.9352
 246   2.0000      -0.364378        -9.9152
 247   2.0000      -0.363827        -9.9002
 248   2.0000      -0.358235        -9.7481
 249   2.0000      -0.354842        -9.6557
 250   2.0000      -0.354697        -9.6518
 251   2.0000      -0.351215        -9.5571
 252   2.0000      -0.347954        -9.4683
 253   2.0000      -0.347851        -9.4655
 254   2.0000      -0.346399        -9.4260
 255   2.0000      -0.344986        -9.3876
 256   2.0000      -0.344783        -9.3820
 257   2.0000      -0.338707        -9.2167
 258   2.0000      -0.336505        -9.1568
 259   2.0000      -0.336342        -9.1523
 260   2.0000      -0.325376        -8.8539
 261   2.0000      -0.325305        -8.8520
 262   2.0000      -0.312819        -8.5122
 263   2.0000      -0.311130        -8.4663
 264   2.0000      -0.309939        -8.4339
 265   2.0000      -0.297974        -8.1083
 266   2.0000      -0.290866        -7.9149
 267   2.0000      -0.287627        -7.8267
 268   2.0000      -0.286502        -7.7961
 269   2.0000      -0.280436        -7.6311
 270   2.0000      -0.280212        -7.6250
 271   2.0000      -0.269125        -7.3233
 272   2.0000      -0.267498        -7.2790
 273   2.0000      -0.265506        -7.2248
 274   2.0000      -0.261650        -7.1199
 275   2.0000      -0.245330        -6.6758
 276   2.0000      -0.237532        -6.4636
 277   2.0000      -0.235317        -6.4033
 278   2.0000      -0.208752        -5.6804
 279   0.0000      -0.136484        -3.7139
 280   0.0000      -0.125859        -3.4248
 281   0.0000      -0.114302        -3.1103
 282   0.0000      -0.111343        -3.0298
 283   0.0000      -0.091771        -2.4972

MULLIKEN ATOMIC CHARGES
-----------------------
   0 C :    0.191739
   1 O :   -0.343985
   2 C :    0.123620
   3 C :   -0.329053
   4 C :    0.166904
   5 Cl:   -0.058741
   6 C :    0.115279
   7 Cl:   -0.046909
   8 C :   -0.254614
   9 C :    0.090153
  10 C :   -0.013049
  11 C :    0.143187
  12 C :   -0.199902
  13 N :    0.021727
  14 C :   -0.224922
  15 N :    0.045684
  16 C :   -0.059642
  17 C :   -0.145371
  18 C :    0.104912
  19 S :    0.023182
  20 C :   -0.247847
  21 C :    0.091449
  22 C :   -0.026279
  23 C :   -0.219218
  24 C :   -0.321985
  25 S :    0.030156
  26 C :   -0.166230
  27 C :    0.377977
  28 N :   -0.105200
  29 C :   -0.135146
  30 C :   -0.334726
  31 C :    0.026621
  32 C :    0.101565
  33 C :   -0.024544
  34 N :   -0.251740
  35 S :    0.352535
  36 N :   -0.252134
  37 C :   -0.006789
  38 C :    0.106948
  39 C :    0.032579
  40 N :   -0.041565
  41 C :   -0.240931
  42 C :   -0.330664
  43 C :    0.372729
  44 C :   -0.177347
  45 S :    0.025289
  46 C :    0.020373
  47 C :   -0.220185
  48 S :    0.026930
  49 C :    0.075793
  50 C :    0.031529
  51 C :   -0.216516
  52 C :   -0.318298
  53 C :   -0.137490
  54 C :   -0.058122
  55 C :   -0.029036
  56 C :    0.159125
  57 C :   -0.232311
  58 N :    0.045478
  59 C :   -0.201690
  60 N :    0.023099
  61 C :    0.102477
  62 C :   -0.261212
  63 C :    0.117320
  64 Cl:   -0.046571
  65 C :    0.167944
  66 Cl:   -0.058293
  67 C :   -0.329674
  68 C :    0.117170
  69 C :    0.197503
  70 O :   -0.345875
  71 H :    0.134569
  72 H :    0.160165
  73 H :    0.138849
  74 H :    0.133807
  75 H :    0.106937
  76 H :    0.115899
  77 H :    0.123731
  78 H :    0.115185
  79 H :    0.138930
  80 H :    0.113271
  81 H :    0.121417
  82 H :    0.137392
  83 H :    0.123964
  84 H :    0.160973
  85 H :    0.142391
  86 H :    0.124189
  87 H :    0.145211
  88 H :    0.123114
  89 H :    0.106825
  90 H :    0.127616
  91 H :    0.115593
  92 H :    0.123335
  93 H :    0.117525
  94 H :    0.139505
  95 H :    0.160275
  96 H :    0.134163
Sum of atomic charges:    0.0000000

LOEWDIN ATOMIC CHARGES
----------------------
   0 C :   -0.256883
   1 O :    0.113801
   2 C :   -0.057541
   3 C :   -0.075129
   4 C :   -0.432125
   5 Cl:    0.446922
   6 C :   -0.428286
   7 Cl:    0.452718
   8 C :   -0.075752
   9 C :   -0.041918
  10 C :    0.009877
  11 C :   -0.136268
  12 C :   -0.167453
  13 N :    0.077846
  14 C :   -0.165062
  15 N :    0.083845
  16 C :   -0.091823
  17 C :   -0.053202
  18 C :   -0.297433
  19 S :    0.784794
  20 C :   -0.338618
  21 C :   -0.321631
  22 C :   -0.128422
  23 C :   -0.230248
  24 C :   -0.281768
  25 S :    0.752403
  26 C :   -0.286747
  27 C :   -0.187000
  28 N :    0.294293
  29 C :   -0.263424
  30 C :   -0.289059
  31 C :   -0.090830
  32 C :   -0.088336
  33 C :   -0.245293
  34 N :   -0.125403
  35 S :    0.660736
  36 N :   -0.125875
  37 C :   -0.245386
  38 C :   -0.090265
  39 C :   -0.089859
  40 N :    0.299458
  41 C :   -0.266408
  42 C :   -0.299220
  43 C :   -0.183659
  44 C :   -0.286403
  45 S :    0.752848
  46 C :   -0.321711
  47 C :   -0.336684
  48 S :    0.787983
  49 C :   -0.298029
  50 C :   -0.128417
  51 C :   -0.230369
  52 C :   -0.281963
  53 C :   -0.053393
  54 C :   -0.092067
  55 C :    0.009692
  56 C :   -0.136216
  57 C :   -0.164946
  58 N :    0.083725
  59 C :   -0.167740
  60 N :    0.079039
  61 C :   -0.041952
  62 C :   -0.075675
  63 C :   -0.428325
  64 Cl:    0.452825
  65 C :   -0.432033
  66 Cl:    0.446873
  67 C :   -0.075197
  68 C :   -0.057556
  69 C :   -0.256891
  70 O :    0.113052
  71 H :    0.158926
  72 H :    0.165174
  73 H :    0.178152
  74 H :    0.148008
  75 H :    0.143740
  76 H :    0.120466
  77 H :    0.124320
  78 H :    0.120071
  79 H :    0.141188
  80 H :    0.136193
  81 H :    0.122142
  82 H :    0.126732
  83 H :    0.125880
  84 H :    0.138236
  85 H :    0.144651
  86 H :    0.127097
  87 H :    0.120076
  88 H :    0.119881
  89 H :    0.143762
  90 H :    0.147437
  91 H :    0.119694
  92 H :    0.124707
  93 H :    0.120518
  94 H :    0.178257
  95 H :    0.165147
  96 H :    0.158705

  Mayer bond orders larger than 0.100000
B(  0-C ,  1-O ) :   2.0200 B(  0-C ,  2-C ) :   1.0475 B(  0-C , 16-C ) :   1.0209
B(  1-O ,  2-C ) :  -0.1646 B(  2-C ,  3-C ) :   1.3763 B(  2-C ,  9-C ) :   1.3340
B(  3-C ,  4-C ) :   1.3444 B(  3-C ,  5-Cl) :   0.1015 B(  3-C , 71-H ) :   0.9859
B(  4-C ,  5-Cl) :   1.0452 B(  4-C ,  6-C ) :   1.2654 B(  6-C ,  7-Cl) :   1.1084
B(  6-C ,  8-C ) :   1.3733 B(  8-C ,  9-C ) :   1.4357 B(  8-C , 72-H ) :   0.9159
B(  9-C , 10-C ) :   1.0578 B( 10-C , 11-C ) :   1.4593 B( 10-C , 16-C ) :   1.1708
B( 11-C , 12-C ) :   1.0640 B( 11-C , 14-C ) :   1.0266 B( 12-C , 13-N ) :   2.9133
B( 14-C , 15-N ) :   2.9813 B( 16-C , 17-C ) :   1.4152 B( 17-C , 18-C ) :   1.3020
B( 17-C , 73-H ) :   0.8510 B( 18-C , 19-S ) :   1.2815 B( 18-C , 22-C ) :   1.3048
B( 18-C , 38-C ) :   0.1562 B( 18-C , 44-C ) :  -0.1885 B( 19-S , 20-C ) :   1.4178
B( 19-S , 27-C ) :  -0.1442 B( 20-C , 21-C ) :   1.2593 B( 20-C , 25-S ) :   0.1095
B( 20-C , 27-C ) :   1.0651 B( 21-C , 22-C ) :   1.3416 B( 21-C , 25-S ) :   1.1894
B( 21-C , 38-C ) :   0.1009 B( 21-C , 44-C ) :  -0.1230 B( 22-C , 23-C ) :   0.9579
B( 22-C , 38-C ) :  -0.1696 B( 22-C , 44-C ) :   0.2174 B( 23-C , 24-C ) :   0.9615
B( 23-C , 74-H ) :   0.9517 B( 23-C , 75-H ) :   0.9711 B( 24-C , 76-H ) :   0.9741
B( 24-C , 77-H ) :   0.9729 B( 24-C , 78-H ) :   0.9715 B( 25-S , 26-C ) :   1.3601
B( 26-C , 27-C ) :   1.2417 B( 26-C , 32-C ) :   1.1923 B( 27-C , 28-N ) :   1.1355
B( 28-N , 29-C ) :   0.8963 B( 28-N , 31-C ) :   1.2031 B( 29-C , 30-C ) :   0.9620
B( 29-C , 79-H ) :   0.9564 B( 29-C , 80-H ) :   0.9602 B( 30-C , 81-H ) :   0.9687
B( 30-C , 82-H ) :   0.9692 B( 30-C , 83-H ) :   0.9708 B( 31-C , 32-C ) :   1.2872
B( 31-C , 39-C ) :   1.2500 B( 32-C , 33-C ) :   1.1193 B( 33-C , 34-N ) :   1.5872
B( 33-C , 35-S ) :   0.1157 B( 33-C , 37-C ) :   1.1858 B( 34-N , 35-S ) :   1.2883
B( 34-N , 36-N ) :   0.1009 B( 35-S , 36-N ) :   1.2856 B( 35-S , 37-C ) :   0.1203
B( 36-N , 37-C ) :   1.5846 B( 37-C , 38-C ) :   1.1188 B( 38-C , 39-C ) :   1.2481
B( 38-C , 44-C ) :   1.1706 B( 39-C , 40-N ) :   1.2361 B( 40-N , 41-C ) :   0.8688
B( 40-N , 43-C ) :   1.1265 B( 41-C , 42-C ) :   0.9355 B( 41-C , 84-H ) :   0.9708
B( 41-C , 85-H ) :   0.9563 B( 42-C , 86-H ) :   0.9704 B( 42-C , 87-H ) :   0.9581
B( 42-C , 88-H ) :   0.9771 B( 43-C , 44-C ) :   1.2405 B( 43-C , 47-C ) :   1.0691
B( 43-C , 48-S ) :  -0.1530 B( 44-C , 45-S ) :   1.3701 B( 45-S , 46-C ) :   1.1859
B( 45-S , 47-C ) :   0.1116 B( 46-C , 47-C ) :   1.2892 B( 46-C , 50-C ) :   1.3675
B( 47-C , 48-S ) :   1.4103 B( 48-S , 49-C ) :   1.2894 B( 49-C , 50-C ) :   1.2839
B( 49-C , 53-C ) :   1.2912 B( 50-C , 51-C ) :   0.9465 B( 51-C , 52-C ) :   0.9658
B( 51-C , 89-H ) :   0.9731 B( 51-C , 90-H ) :   0.9509 B( 52-C , 91-H ) :   0.9703
B( 52-C , 92-H ) :   0.9728 B( 52-C , 93-H ) :   0.9737 B( 53-C , 54-C ) :   1.3951
B( 53-C , 94-H ) :   0.8587 B( 54-C , 55-C ) :   1.1758 B( 54-C , 69-C ) :   1.0211
B( 55-C , 56-C ) :   1.4598 B( 55-C , 61-C ) :   1.0542 B( 56-C , 57-C ) :   1.0232
B( 56-C , 59-C ) :   1.0589 B( 57-C , 58-N ) :   2.9834 B( 59-C , 60-N ) :   2.9138
B( 61-C , 62-C ) :   1.4284 B( 61-C , 68-C ) :   1.3380 B( 62-C , 63-C ) :   1.3730
B( 62-C , 95-H ) :   0.9164 B( 63-C , 64-Cl) :   1.1038 B( 63-C , 65-C ) :   1.2641
B( 65-C , 66-Cl) :   1.0432 B( 65-C , 67-C ) :   1.3414 B( 66-Cl, 67-C ) :   0.1019
B( 67-C , 68-C ) :   1.3793 B( 67-C , 96-H ) :   0.9867 B( 68-C , 69-C ) :   1.0508
B( 68-C , 70-O ) :  -0.1579 B( 69-C , 70-O ) :   2.0146

-----------------------------------------------------------------------------
  SOC CORRECTED ABSORPTION SPECTRUM VIA TRANSITION ELECTRIC DIPOLE MOMENTS*
-----------------------------------------------------------------------------
State   Energy  Wavelength   fosc         T2         TX        TY        TZ
        (cm-1)    (nm)                  (au**2)     (au)      (au)      (au)
-----------------------------------------------------------------------------
   1   10413.0    960.3   0.000000000   0.00000   0.00000   0.00000   0.00000
   2   10413.0    960.3   0.000000000   0.00000   0.00001   0.00001   0.00001
   3   10413.0    960.3   0.000000000   0.00000   0.00002   0.00002   0.00002
   4   12538.2    797.6   0.000000004   0.00000   0.00020   0.00022   0.00016
   5   12538.2    797.6   0.000000001   0.00000   0.00007   0.00008   0.00007
   6   12538.2    797.6   0.000000000   0.00000   0.00002   0.00002   0.00001
   7   14973.8    667.8   2.629080636  57.80262   4.42572   4.86162   3.81841
   8   15892.7    629.2   0.000000000   0.00000   0.00003   0.00004   0.00002
   9   15892.7    629.2   0.000000000   0.00000   0.00005   0.00006   0.00005
  10   15892.7    629.2   0.000000022   0.00000   0.00042   0.00045   0.00029
  11   16929.0    590.7   0.065200833   1.26794   0.43106   0.36770   0.97310
  12   18292.1    546.7   0.233872393   4.20911   1.15450   1.32679   1.05635

FINAL SINGLE POINT ENERGY     -6416.354342942698

DIPOLE MOMENT
-------------
                                X             Y             Z
Electronic contribution:    -21.98373      19.86380     -50.24006
Nuclear contribution   :     21.99858     -19.60592      49.92314
                        -----------------------------------------
Total Dipole Moment    :      0.01485       0.25787      -0.31692
                        -----------------------------------------
Magnitude (a.u.)       :      0.40885
Magnitude (Debye)      :      1.03922

Rotational constants in cm-1:     0.001014     0.000269     0.000214
Rotational constants in MHz :    30.392305     8.054301     6.420837

                             ****ORCA TERMINATED NORMALLY****
TOTAL RUN TIME: 0 days 14 hours 46 minutes 27 seconds 778 msec
