                         Program Version 4.2.0 -  RELEASE  -
|  1> # ORCA input file
|  2> # BTTPC.out: Geometry 42
|  3> ! B3LYP def2-TZVP def2/J RIJCOSX Grid4 TightSCF
|  4>
|  5> %maxcore 6000
|  6> %tddft
|  7>   maxdim 5
|  8>   nroots 3
|  9>   dosoc true
| 10>   end
| 11> %pal
| 12>   nprocs 6
| 13>   end
| 14>
| 15>
| 16> * xyz 0 1
| 17>    C       -2.96553        -1.58001        -0.69591
| 18>    O       -2.55069        -0.91975        -1.63091
| 19>    C       -2.42565        -2.89196        -0.25895
| 20>    C       -1.38429        -3.59567        -0.83290
| 21>    C       -1.03607        -4.83936        -0.26785
| 22>    C       -1.77059        -5.30937         0.86379
| 23>    C       -2.82098        -4.58721         1.44808
| 24>    C       -3.14798        -3.35716         0.87357
| 25>    C       -4.17891        -2.35318         1.21672
| 26>    C       -5.13384        -2.49338         2.21165
| 27>    C       -5.18478        -3.63343         3.07299
| 28>    N       -5.23155        -4.55493         3.78028
| 29>    C       -6.17051        -1.53884         2.45716
| 30>    N       -7.02492        -0.78206         2.67890
| 31>    C       -4.04083        -1.23003         0.27976
| 32>    C       -4.60901         0.01452         0.45746
| 33>    C       -4.66859         1.19335        -0.34407
| 34>    S       -4.79266         2.69498         0.61812
| 35>    C       -4.91267         3.64961        -0.81062
| 36>    C       -4.90367         2.84004        -1.96524
| 37>    C       -4.77387         1.45184        -1.72574
| 38>    C       -4.96210         0.43266        -2.81405
| 39>    C       -6.44178         0.05322        -2.99242
| 40>    S       -5.04960         3.77990        -3.45721
| 41>    C       -5.09571         5.25085        -2.51343
| 42>    C       -4.99499         5.02065        -1.13499
| 43>    N       -5.03472         6.22213        -0.43958
| 44>    C       -5.68028         6.21979         0.87966
| 45>    C       -7.19916         6.13762         0.78223
| 46>    C       -5.12975         7.24303        -1.39767
| 47>    C       -5.20798         6.65422        -2.69520
| 48>    C       -5.39980         7.47413        -3.85636
| 49>    N       -5.55823         7.06478        -5.10776
| 50>    S       -5.80256         8.41640        -6.03173
| 51>    N       -5.70504         9.56261        -4.84107
| 52>    C       -5.48395         8.91920        -3.70296
| 53>    C       -5.26856         9.50190        -2.41203
| 54>    C       -5.06751         8.67056        -1.26528
| 55>    N       -4.73528         9.48647        -0.18480
| 56>    C       -4.07133         9.12954         1.06845
| 57>    C       -4.92766         9.38056         2.30730
| 58>    C       -4.73687        10.79681        -0.62923
| 59>    C       -5.06374        10.83800        -1.99310
| 60>    S       -4.93764        12.44230        -2.67595
| 61>    C       -4.41133        13.06377        -1.10357
| 62>    C       -4.35981        12.05653        -0.11603
| 63>    S       -3.81376        12.68103         1.39627
| 64>    C       -3.67917        14.31665         0.71294
| 65>    C       -4.00674        14.34610        -0.65724
| 66>    C       -3.72197        15.50414        -1.57742
| 67>    C       -4.85424        15.93286        -2.51762
| 68>    C       -3.19617        15.28723         1.63465
| 69>    C       -3.26974        16.65472         1.77860
| 70>    C       -4.05773        17.73655         1.20646
| 71>    C       -5.28588        17.61152         0.57379
| 72>    C       -5.96811        18.71801        -0.01713
| 73>    N       -6.51459        19.60874        -0.52685
| 74>    C       -6.00722        16.38278         0.56588
| 75>    N       -6.61202        15.39006         0.57920
| 76>    C       -3.43788        19.01799         1.62983
| 77>    C       -3.73267        20.34361         1.30730
| 78>    C       -3.00592        21.34147         1.97775
| 79>    C       -2.00680        21.05450         2.95902
| 80>    C       -1.72066        19.71025         3.26297
| 81>    C       -2.42993        18.73257         2.59428
| 82>    C       -2.30753        17.26779         2.75915
| 83>    O       -1.56280        16.67592         3.51473
| 84>    C       -1.43163        22.25120         3.50843
| 85>    C       -1.96661        23.38364         2.96948
| 86>    S       -3.19136        23.06703         1.76804
| 87>    S       -1.18227        -6.86986         1.39024
| 88>    C        0.01821        -6.88253         0.12527
| 89>    C       -0.01315        -5.76908        -0.66330
| 90>    H        0.68870        -7.73714         0.03763
| 91>    H       -1.70914        24.41420         3.21266
| 92>    H       -0.86027        -3.18810        -1.69968
| 93>    H       -3.34030        -4.98636         2.31558
| 94>    H       -5.06523         0.16946         1.43802
| 95>    H       -4.35240        -0.45118        -2.60698
| 96>    H       -4.57223         0.86050        -3.75269
| 97>    H       -6.85114        -0.38029        -2.06689
| 98>    H       -6.55850        -0.69086        -3.79560
| 99>    H       -7.05166         0.93170        -3.25423
|100>    H       -5.38100         7.10478         1.44070
|101>    H       -5.27241         5.35919         1.43016
|102>    H       -7.60791         7.02627         0.27716
|103>    H       -7.64424         6.07621         1.78658
|104>    H       -7.51132         5.24769         0.21552
|105>    H       -3.14796         9.72747         1.13116
|106>    H       -3.74677         8.08468         0.99199
|107>    H       -5.88200         8.83592         2.26545
|108>    H       -5.16717        10.44843         2.41614
|109>    H       -4.38304         9.06086         3.20945
|110>    H       -2.85833        15.19655        -2.19491
|111>    H       -3.37324        16.36263        -0.99036
|112>    H       -5.73909        16.28196        -1.97074
|113>    H       -5.17980        15.10881        -3.16956
|114>    H       -4.50713        16.75030        -3.16720
|115>    H       -2.58497        14.85836         2.44313
|116>    H       -4.49127        20.61137         0.57334
|117>    H       -0.97170        19.43291         4.00760
|118>    H       -0.65492        22.25101         4.27403
|119>    H        0.66169        -5.60125        -1.50326
|120> *
|121>
|122>                          ****END OF INPUT****

CARTESIAN COORDINATES (ANGSTROEM)
---------------------------------
  C     -2.965530   -1.580010   -0.695910
  O     -2.550690   -0.919750   -1.630910
  C     -2.425650   -2.891960   -0.258950
  C     -1.384290   -3.595670   -0.832900
  C     -1.036070   -4.839360   -0.267850
  C     -1.770590   -5.309370    0.863790
  C     -2.820980   -4.587210    1.448080
  C     -3.147980   -3.357160    0.873570
  C     -4.178910   -2.353180    1.216720
  C     -5.133840   -2.493380    2.211650
  C     -5.184780   -3.633430    3.072990
  N     -5.231550   -4.554930    3.780280
  C     -6.170510   -1.538840    2.457160
  N     -7.024920   -0.782060    2.678900
  C     -4.040830   -1.230030    0.279760
  C     -4.609010    0.014520    0.457460
  C     -4.668590    1.193350   -0.344070
  S     -4.792660    2.694980    0.618120
  C     -4.912670    3.649610   -0.810620
  C     -4.903670    2.840040   -1.965240
  C     -4.773870    1.451840   -1.725740
  C     -4.962100    0.432660   -2.814050
  C     -6.441780    0.053220   -2.992420
  S     -5.049600    3.779900   -3.457210
  C     -5.095710    5.250850   -2.513430
  C     -4.994990    5.020650   -1.134990
  N     -5.034720    6.222130   -0.439580
  C     -5.680280    6.219790    0.879660
  C     -7.199160    6.137620    0.782230
  C     -5.129750    7.243030   -1.397670
  C     -5.207980    6.654220   -2.695200
  C     -5.399800    7.474130   -3.856360
  N     -5.558230    7.064780   -5.107760
  S     -5.802560    8.416400   -6.031730
  N     -5.705040    9.562610   -4.841070
  C     -5.483950    8.919200   -3.702960
  C     -5.268560    9.501900   -2.412030
  C     -5.067510    8.670560   -1.265280
  N     -4.735280    9.486470   -0.184800
  C     -4.071330    9.129540    1.068450
  C     -4.927660    9.380560    2.307300
  C     -4.736870   10.796810   -0.629230
  C     -5.063740   10.838000   -1.993100
  S     -4.937640   12.442300   -2.675950
  C     -4.411330   13.063770   -1.103570
  C     -4.359810   12.056530   -0.116030
  S     -3.813760   12.681030    1.396270
  C     -3.679170   14.316650    0.712940
  C     -4.006740   14.346100   -0.657240
  C     -3.721970   15.504140   -1.577420
  C     -4.854240   15.932860   -2.517620
  C     -3.196170   15.287230    1.634650
  C     -3.269740   16.654720    1.778600
  C     -4.057730   17.736550    1.206460
  C     -5.285880   17.611520    0.573790
  C     -5.968110   18.718010   -0.017130
  N     -6.514590   19.608740   -0.526850
  C     -6.007220   16.382780    0.565880
  N     -6.612020   15.390060    0.579200
  C     -3.437880   19.017990    1.629830
  C     -3.732670   20.343610    1.307300
  C     -3.005920   21.341470    1.977750
  C     -2.006800   21.054500    2.959020
  C     -1.720660   19.710250    3.262970
  C     -2.429930   18.732570    2.594280
  C     -2.307530   17.267790    2.759150
  O     -1.562800   16.675920    3.514730
  C     -1.431630   22.251200    3.508430
  C     -1.966610   23.383640    2.969480
  S     -3.191360   23.067030    1.768040
  S     -1.182270   -6.869860    1.390240
  C      0.018210   -6.882530    0.125270
  C     -0.013150   -5.769080   -0.663300
  H      0.688700   -7.737140    0.037630
  H     -1.709140   24.414200    3.212660
  H     -0.860270   -3.188100   -1.699680
  H     -3.340300   -4.986360    2.315580
  H     -5.065230    0.169460    1.438020
  H     -4.352400   -0.451180   -2.606980
  H     -4.572230    0.860500   -3.752690
  H     -6.851140   -0.380290   -2.066890
  H     -6.558500   -0.690860   -3.795600
  H     -7.051660    0.931700   -3.254230
  H     -5.381000    7.104780    1.440700
  H     -5.272410    5.359190    1.430160
  H     -7.607910    7.026270    0.277160
  H     -7.644240    6.076210    1.786580
  H     -7.511320    5.247690    0.215520
  H     -3.147960    9.727470    1.131160
  H     -3.746770    8.084680    0.991990
  H     -5.882000    8.835920    2.265450
  H     -5.167170   10.448430    2.416140
  H     -4.383040    9.060860    3.209450
  H     -2.858330   15.196550   -2.194910
  H     -3.373240   16.362630   -0.990360
  H     -5.739090   16.281960   -1.970740
  H     -5.179800   15.108810   -3.169560
  H     -4.507130   16.750300   -3.167200
  H     -2.584970   14.858360    2.443130
  H     -4.491270   20.611370    0.573340
  H     -0.971700   19.432910    4.007600
  H     -0.654920   22.251010    4.274030
  H      0.661690   -5.601250   -1.503260

 Total Charge           Charge          ....    0
 Multiplicity           Mult            ....    1
 Number of Electrons    NEL             ....  550
 Basis Dimension        Dim             .... 2485

ORBITAL ENERGIES
----------------

  NO   OCC          E(Eh)            E(eV)
   0   2.0000     -88.941673     -2420.2260
   1   2.0000     -88.908168     -2419.3142
   2   2.0000     -88.907853     -2419.3057
   3   2.0000     -88.906557     -2419.2704
   4   2.0000     -88.905147     -2419.2320
   5   2.0000     -88.905141     -2419.2319
   6   2.0000     -88.904398     -2419.2117
   7   2.0000     -19.125445      -520.4298
   8   2.0000     -19.125077      -520.4198
   9   2.0000     -14.403951      -391.9514
  10   2.0000     -14.398824      -391.8119
  11   2.0000     -14.356504      -390.6603
  12   2.0000     -14.355707      -390.6387
  13   2.0000     -14.328524      -389.8990
  14   2.0000     -14.327437      -389.8694
  15   2.0000     -14.327218      -389.8634
  16   2.0000     -14.326442      -389.8423
  17   2.0000     -10.272715      -279.5348
  18   2.0000     -10.270137      -279.4646
  19   2.0000     -10.259061      -279.1632
  20   2.0000     -10.257844      -279.1301
  21   2.0000     -10.255045      -279.0540
  22   2.0000     -10.254949      -279.0514
  23   2.0000     -10.253890      -279.0225
  24   2.0000     -10.252726      -278.9908
  25   2.0000     -10.251554      -278.9590
  26   2.0000     -10.246258      -278.8149
  27   2.0000     -10.242535      -278.7135
  28   2.0000     -10.242073      -278.7010
  29   2.0000     -10.241702      -278.6909
  30   2.0000     -10.241149      -278.6758
  31   2.0000     -10.241073      -278.6738
  32   2.0000     -10.240887      -278.6687
  33   2.0000     -10.237993      -278.5899
  34   2.0000     -10.237910      -278.5877
  35   2.0000     -10.237256      -278.5699
  36   2.0000     -10.236296      -278.5438
  37   2.0000     -10.231089      -278.4021
  38   2.0000     -10.230963      -278.3987
  39   2.0000     -10.230804      -278.3943
  40   2.0000     -10.230567      -278.3879
  41   2.0000     -10.229669      -278.3634
  42   2.0000     -10.229645      -278.3628
  43   2.0000     -10.228876      -278.3419
  44   2.0000     -10.228451      -278.3303
  45   2.0000     -10.228098      -278.3207
  46   2.0000     -10.227938      -278.3164
  47   2.0000     -10.227675      -278.3092
  48   2.0000     -10.226923      -278.2887
  49   2.0000     -10.225732      -278.2563
  50   2.0000     -10.225048      -278.2377
  51   2.0000     -10.222554      -278.1698
  52   2.0000     -10.220161      -278.1047
  53   2.0000     -10.218750      -278.0663
  54   2.0000     -10.217433      -278.0305
  55   2.0000     -10.217317      -278.0273
  56   2.0000     -10.215686      -277.9829
  57   2.0000     -10.215081      -277.9665
  58   2.0000     -10.214246      -277.9438
  59   2.0000     -10.213318      -277.9185
  60   2.0000     -10.212309      -277.8911
  61   2.0000     -10.209879      -277.8249
  62   2.0000     -10.209011      -277.8013
  63   2.0000     -10.204336      -277.6741
  64   2.0000     -10.204087      -277.6673
  65   2.0000     -10.203621      -277.6546
  66   2.0000     -10.203084      -277.6400
  67   2.0000     -10.200089      -277.5585
  68   2.0000     -10.198441      -277.5137
  69   2.0000     -10.192647      -277.3560
  70   2.0000     -10.185256      -277.1549
  71   2.0000     -10.175097      -276.8785
  72   2.0000     -10.173296      -276.8295
  73   2.0000      -8.012151      -218.0217
  74   2.0000      -7.984207      -217.2613
  75   2.0000      -7.983791      -217.2500
  76   2.0000      -7.981358      -217.1838
  77   2.0000      -7.981088      -217.1765
  78   2.0000      -7.980366      -217.1568
  79   2.0000      -7.979925      -217.1448
  80   2.0000      -5.976892      -162.6395
  81   2.0000      -5.969820      -162.4471
  82   2.0000      -5.968582      -162.4134
  83   2.0000      -5.946939      -161.8244
  84   2.0000      -5.946525      -161.8132
  85   2.0000      -5.944400      -161.7553
  86   2.0000      -5.943789      -161.7387
  87   2.0000      -5.943161      -161.7216
  88   2.0000      -5.943064      -161.7190
  89   2.0000      -5.943018      -161.7177
  90   2.0000      -5.942777      -161.7112
  91   2.0000      -5.940666      -161.6537
  92   2.0000      -5.940381      -161.6460
  93   2.0000      -5.939950      -161.6343
  94   2.0000      -5.939779      -161.6296
  95   2.0000      -5.939241      -161.6150
  96   2.0000      -5.939070      -161.6103
  97   2.0000      -5.937608      -161.5705
  98   2.0000      -5.937073      -161.5560
  99   2.0000      -5.936886      -161.5509
 100   2.0000      -5.935577      -161.5153
 101   2.0000      -1.053445       -28.6657
 102   2.0000      -1.052806       -28.6483
 103   2.0000      -1.032157       -28.0864
 104   2.0000      -1.018930       -27.7265
 105   2.0000      -1.017365       -27.6839
 106   2.0000      -0.933307       -25.3966
 107   2.0000      -0.932054       -25.3625
 108   2.0000      -0.925613       -25.1872
 109   2.0000      -0.924277       -25.1508
 110   2.0000      -0.919526       -25.0216
 111   2.0000      -0.918791       -25.0016
 112   2.0000      -0.914668       -24.8894
 113   2.0000      -0.914045       -24.8724
 114   2.0000      -0.899044       -24.4642
 115   2.0000      -0.894509       -24.3408
 116   2.0000      -0.894043       -24.3281
 117   2.0000      -0.880853       -23.9692
 118   2.0000      -0.870151       -23.6780
 119   2.0000      -0.861108       -23.4319
 120   2.0000      -0.843579       -22.9550
 121   2.0000      -0.842063       -22.9137
 122   2.0000      -0.828127       -22.5345
 123   2.0000      -0.816601       -22.2208
 124   2.0000      -0.813557       -22.1380
 125   2.0000      -0.811739       -22.0885
 126   2.0000      -0.810420       -22.0526
 127   2.0000      -0.805284       -21.9129
 128   2.0000      -0.797622       -21.7044
 129   2.0000      -0.796209       -21.6659
 130   2.0000      -0.785434       -21.3728
 131   2.0000      -0.784252       -21.3406
 132   2.0000      -0.775220       -21.0948
 133   2.0000      -0.768094       -20.9009
 134   2.0000      -0.752817       -20.4852
 135   2.0000      -0.749367       -20.3913
 136   2.0000      -0.740831       -20.1590
 137   2.0000      -0.740059       -20.1380
 138   2.0000      -0.739587       -20.1252
 139   2.0000      -0.727367       -19.7927
 140   2.0000      -0.724729       -19.7209
 141   2.0000      -0.716919       -19.5083
 142   2.0000      -0.702687       -19.1211
 143   2.0000      -0.686398       -18.6778
 144   2.0000      -0.677780       -18.4433
 145   2.0000      -0.674599       -18.3568
 146   2.0000      -0.673535       -18.3278
 147   2.0000      -0.671357       -18.2686
 148   2.0000      -0.654271       -17.8036
 149   2.0000      -0.647828       -17.6283
 150   2.0000      -0.645488       -17.5646
 151   2.0000      -0.641756       -17.4631
 152   2.0000      -0.631254       -17.1773
 153   2.0000      -0.622929       -16.9507
 154   2.0000      -0.619537       -16.8585
 155   2.0000      -0.609669       -16.5899
 156   2.0000      -0.607107       -16.5202
 157   2.0000      -0.603902       -16.4330
 158   2.0000      -0.596385       -16.2285
 159   2.0000      -0.586937       -15.9714
 160   2.0000      -0.585792       -15.9402
 161   2.0000      -0.584667       -15.9096
 162   2.0000      -0.583806       -15.8862
 163   2.0000      -0.576247       -15.6805
 164   2.0000      -0.565809       -15.3964
 165   2.0000      -0.558796       -15.2056
 166   2.0000      -0.557133       -15.1604
 167   2.0000      -0.543006       -14.7760
 168   2.0000      -0.541674       -14.7397
 169   2.0000      -0.540175       -14.6989
 170   2.0000      -0.534310       -14.5393
 171   2.0000      -0.523805       -14.2535
 172   2.0000      -0.519373       -14.1329
 173   2.0000      -0.517428       -14.0799
 174   2.0000      -0.515492       -14.0272
 175   2.0000      -0.509390       -13.8612
 176   2.0000      -0.507777       -13.8173
 177   2.0000      -0.503625       -13.7043
 178   2.0000      -0.498753       -13.5717
 179   2.0000      -0.495779       -13.4908
 180   2.0000      -0.487737       -13.2720
 181   2.0000      -0.482035       -13.1168
 182   2.0000      -0.478666       -13.0252
 183   2.0000      -0.474620       -12.9151
 184   2.0000      -0.472441       -12.8558
 185   2.0000      -0.470843       -12.8123
 186   2.0000      -0.468218       -12.7409
 187   2.0000      -0.465142       -12.6572
 188   2.0000      -0.462468       -12.5844
 189   2.0000      -0.461090       -12.5469
 190   2.0000      -0.459604       -12.5065
 191   2.0000      -0.458660       -12.4808
 192   2.0000      -0.456789       -12.4299
 193   2.0000      -0.453418       -12.3381
 194   2.0000      -0.452945       -12.3253
 195   2.0000      -0.452531       -12.3140
 196   2.0000      -0.447785       -12.1848
 197   2.0000      -0.443562       -12.0699
 198   2.0000      -0.441686       -12.0189
 199   2.0000      -0.440294       -11.9810
 200   2.0000      -0.436893       -11.8885
 201   2.0000      -0.433356       -11.7922
 202   2.0000      -0.432756       -11.7759
 203   2.0000      -0.430011       -11.7012
 204   2.0000      -0.423609       -11.5270
 205   2.0000      -0.421758       -11.4766
 206   2.0000      -0.420929       -11.4541
 207   2.0000      -0.420438       -11.4407
 208   2.0000      -0.419532       -11.4160
 209   2.0000      -0.418163       -11.3788
 210   2.0000      -0.416915       -11.3448
 211   2.0000      -0.415100       -11.2954
 212   2.0000      -0.413158       -11.2426
 213   2.0000      -0.412083       -11.2134
 214   2.0000      -0.409157       -11.1337
 215   2.0000      -0.407969       -11.1014
 216   2.0000      -0.406071       -11.0498
 217   2.0000      -0.401759       -10.9324
 218   2.0000      -0.399662       -10.8754
 219   2.0000      -0.398628       -10.8472
 220   2.0000      -0.397288       -10.8108
 221   2.0000      -0.394567       -10.7367
 222   2.0000      -0.391442       -10.6517
 223   2.0000      -0.387957       -10.5569
 224   2.0000      -0.385885       -10.5005
 225   2.0000      -0.384647       -10.4668
 226   2.0000      -0.384521       -10.4633
 227   2.0000      -0.383002       -10.4220
 228   2.0000      -0.382220       -10.4007
 229   2.0000      -0.381295       -10.3756
 230   2.0000      -0.377063       -10.2604
 231   2.0000      -0.376498       -10.2450
 232   2.0000      -0.375850       -10.2274
 233   2.0000      -0.369611       -10.0576
 234   2.0000      -0.366146        -9.9633
 235   2.0000      -0.366033        -9.9603
 236   2.0000      -0.365135        -9.9358
 237   2.0000      -0.363999        -9.9049
 238   2.0000      -0.361733        -9.8432
 239   2.0000      -0.360598        -9.8124
 240   2.0000      -0.360111        -9.7991
 241   2.0000      -0.357050        -9.7158
 242   2.0000      -0.355732        -9.6800
 243   2.0000      -0.354611        -9.6494
 244   2.0000      -0.352064        -9.5802
 245   2.0000      -0.351530        -9.5656
 246   2.0000      -0.349923        -9.5219
 247   2.0000      -0.347112        -9.4454
 248   2.0000      -0.343084        -9.3358
 249   2.0000      -0.342362        -9.3161
 250   2.0000      -0.340544        -9.2667
 251   2.0000      -0.339475        -9.2376
 252   2.0000      -0.335280        -9.1234
 253   2.0000      -0.333473        -9.0743
 254   2.0000      -0.329414        -8.9638
 255   2.0000      -0.326627        -8.8880
 256   2.0000      -0.312885        -8.5140
 257   2.0000      -0.311746        -8.4830
 258   2.0000      -0.310064        -8.4373
 259   2.0000      -0.299204        -8.1418
 260   2.0000      -0.296291        -8.0625
 261   2.0000      -0.285869        -7.7789
 262   2.0000      -0.280409        -7.6303
 263   2.0000      -0.271665        -7.3924
 264   2.0000      -0.270605        -7.3635
 265   2.0000      -0.262344        -7.1387
 266   2.0000      -0.261129        -7.1057
 267   2.0000      -0.259211        -7.0535
 268   2.0000      -0.258447        -7.0327
 269   2.0000      -0.243814        -6.6345
 270   2.0000      -0.242914        -6.6100
 271   2.0000      -0.240343        -6.5401
 272   2.0000      -0.232783        -6.3343
 273   2.0000      -0.230744        -6.2789
 274   2.0000      -0.202765        -5.5175
 275   0.0000      -0.128946        -3.5088
 276   0.0000      -0.121260        -3.2997
 277   0.0000      -0.101076        -2.7504
 278   0.0000      -0.097510        -2.6534
 279   0.0000      -0.088493        -2.4080

MULLIKEN ATOMIC CHARGES
-----------------------
   0 C :    0.152162
   1 O :   -0.323643
   2 C :    0.139933
   3 C :   -0.330462
   4 C :    0.186678
   5 C :    0.060966
   6 C :   -0.244719
   7 C :    0.065629
   8 C :    0.040440
   9 C :    0.137333
  10 C :   -0.198721
  11 N :   -0.000702
  12 C :   -0.212124
  13 N :    0.014826
  14 C :   -0.062037
  15 C :   -0.199933
  16 C :    0.110024
  17 S :   -0.022242
  18 C :   -0.199722
  19 C :    0.046712
  20 C :    0.022466
  21 C :   -0.217007
  22 C :   -0.339868
  23 S :    0.039480
  24 C :   -0.137818
  25 C :    0.309322
  26 N :   -0.126942
  27 C :   -0.123295
  28 C :   -0.333583
  29 C :    0.021127
  30 C :    0.114472
  31 C :   -0.036816
  32 N :   -0.251662
  33 S :    0.330622
  34 N :   -0.248937
  35 C :   -0.010259
  36 C :    0.081045
  37 C :    0.062747
  38 N :   -0.041129
  39 C :   -0.240638
  40 C :   -0.324855
  41 C :    0.322322
  42 C :   -0.147058
  43 S :    0.021096
  44 C :    0.108492
  45 C :   -0.202412
  46 S :   -0.018501
  47 C :    0.234925
  48 C :   -0.128524
  49 C :   -0.188966
  50 C :   -0.350288
  51 C :   -0.165798
  52 C :   -0.065023
  53 C :   -0.093136
  54 C :    0.115166
  55 C :   -0.183019
  56 N :    0.002026
  57 C :   -0.222250
  58 N :    0.022817
  59 C :    0.120927
  60 C :   -0.243025
  61 C :    0.064495
  62 C :    0.189393
  63 C :   -0.315425
  64 C :    0.018376
  65 C :    0.243709
  66 O :   -0.305487
  67 C :   -0.226470
  68 C :   -0.117693
  69 S :    0.074444
  70 S :    0.076651
  71 C :   -0.121987
  72 C :   -0.213444
  73 H :    0.150959
  74 H :    0.151742
  75 H :    0.125585
  76 H :    0.167277
  77 H :    0.161251
  78 H :    0.142156
  79 H :    0.096764
  80 H :    0.123236
  81 H :    0.116078
  82 H :    0.113570
  83 H :    0.096658
  84 H :    0.128005
  85 H :    0.127008
  86 H :    0.124044
  87 H :    0.137168
  88 H :    0.140186
  89 H :    0.166703
  90 H :    0.121352
  91 H :    0.140831
  92 H :    0.125163
  93 H :    0.116170
  94 H :    0.132907
  95 H :    0.138521
  96 H :    0.120998
  97 H :    0.118198
  98 H :    0.147628
  99 H :    0.167230
 100 H :    0.128196
 101 H :    0.129759
 102 H :    0.129456
Sum of atomic charges:   -0.0000000

LOEWDIN ATOMIC CHARGES
----------------------
   0 C :   -0.256541
   1 O :    0.125630
   2 C :   -0.067738
   3 C :   -0.036643
   4 C :   -0.127362
   5 C :   -0.291424
   6 C :   -0.076897
   7 C :   -0.047266
   8 C :    0.015757
   9 C :   -0.139668
  10 C :   -0.152752
  11 N :    0.065653
  12 C :   -0.162828
  13 N :    0.067215
  14 C :   -0.082390
  15 C :   -0.069917
  16 C :   -0.283808
  17 S :    0.741596
  18 C :   -0.346141
  19 C :   -0.310956
  20 C :   -0.117881
  21 C :   -0.233984
  22 C :   -0.291495
  23 S :    0.739358
  24 C :   -0.282689
  25 C :   -0.186910
  26 N :    0.272314
  27 C :   -0.268122
  28 C :   -0.294064
  29 C :   -0.091400
  30 C :   -0.085683
  31 C :   -0.241500
  32 N :   -0.120285
  33 S :    0.639820
  34 N :   -0.120106
  35 C :   -0.241884
  36 C :   -0.089598
  37 C :   -0.089683
  38 N :    0.289124
  39 C :   -0.268423
  40 C :   -0.307151
  41 C :   -0.180407
  42 C :   -0.282927
  43 S :    0.739821
  44 C :   -0.303642
  45 C :   -0.339628
  46 S :    0.753062
  47 C :   -0.300010
  48 C :   -0.125222
  49 C :   -0.230763
  50 C :   -0.290714
  51 C :   -0.075660
  52 C :   -0.088341
  53 C :    0.001524
  54 C :   -0.148106
  55 C :   -0.156137
  56 N :    0.067191
  57 C :   -0.156800
  58 N :    0.086312
  59 C :   -0.043548
  60 C :   -0.079752
  61 C :   -0.290335
  62 C :   -0.128951
  63 C :   -0.034614
  64 C :   -0.069639
  65 C :   -0.251125
  66 O :    0.122712
  67 C :   -0.157368
  68 C :   -0.358379
  69 S :    0.725805
  70 S :    0.726526
  71 C :   -0.358171
  72 C :   -0.157626
  73 H :    0.132931
  74 H :    0.133106
  75 H :    0.159390
  76 H :    0.162675
  77 H :    0.173540
  78 H :    0.151872
  79 H :    0.144559
  80 H :    0.123175
  81 H :    0.121812
  82 H :    0.120127
  83 H :    0.136335
  84 H :    0.138058
  85 H :    0.126662
  86 H :    0.128754
  87 H :    0.129845
  88 H :    0.142157
  89 H :    0.142306
  90 H :    0.120918
  91 H :    0.121314
  92 H :    0.130036
  93 H :    0.155768
  94 H :    0.151623
  95 H :    0.127718
  96 H :    0.116328
  97 H :    0.125358
  98 H :    0.175317
  99 H :    0.161837
 100 H :    0.160369
 101 H :    0.149096
 102 H :    0.148648

  Mayer bond orders larger than 0.100000
B(  0-C ,  1-O ) :   2.0935 B(  0-C ,  2-C ) :   0.9740 B(  0-C , 14-C ) :   1.0316
B(  1-O ,  2-C ) :  -0.1762 B(  1-O ,  3-C ) :   0.1010 B(  2-C ,  3-C ) :   1.4396
B(  2-C ,  7-C ) :   1.2645 B(  3-C ,  4-C ) :   1.1908 B(  3-C , 75-H ) :   1.0023
B(  4-C ,  5-C ) :   1.2220 B(  4-C , 72-C ) :   1.1517 B(  5-C ,  6-C ) :   1.3121
B(  5-C , 70-S ) :   1.2627 B(  6-C ,  7-C ) :   1.4492 B(  6-C , 76-H ) :   0.9036
B(  7-C ,  8-C ) :   1.0572 B(  8-C ,  9-C ) :   1.4551 B(  8-C , 14-C ) :   1.1266
B(  9-C , 10-C ) :   1.0330 B(  9-C , 12-C ) :   1.0205 B( 10-C , 11-N ) :   2.9731
B( 12-C , 13-N ) :   3.0013 B( 14-C , 15-C ) :   1.5020 B( 15-C , 16-C ) :   1.1863
B( 15-C , 77-H ) :   0.9182 B( 16-C , 17-S ) :   1.1794 B( 16-C , 20-C ) :   1.4589
B( 17-S , 18-C ) :   1.3470 B( 17-S , 20-C ) :   0.1138 B( 17-S , 25-C ) :  -0.1259
B( 18-C , 19-C ) :   1.3572 B( 18-C , 23-S ) :   0.1060 B( 18-C , 25-C ) :   1.0757
B( 19-C , 20-C ) :   1.2584 B( 19-C , 23-S ) :   1.1719 B( 20-C , 21-C ) :   0.9332
B( 21-C , 22-C ) :   0.9380 B( 21-C , 78-H ) :   0.9712 B( 21-C , 79-H ) :   0.9686
B( 22-C , 80-H ) :   0.9759 B( 22-C , 81-H ) :   0.9731 B( 22-C , 82-H ) :   0.9715
B( 23-S , 24-C ) :   1.3319 B( 24-C , 25-C ) :   1.3060 B( 24-C , 30-C ) :   1.1614
B( 25-C , 26-N ) :   1.1353 B( 26-N , 27-C ) :   0.8994 B( 26-N , 29-C ) :   1.1512
B( 27-C , 28-C ) :   0.9679 B( 27-C , 83-H ) :   0.9627 B( 27-C , 84-H ) :   0.9615
B( 28-C , 85-H ) :   0.9661 B( 28-C , 86-H ) :   0.9671 B( 28-C , 87-H ) :   0.9692
B( 29-C , 30-C ) :   1.3063 B( 29-C , 37-C ) :   1.2840 B( 30-C , 31-C ) :   1.0913
B( 31-C , 32-N ) :   1.6180 B( 31-C , 33-S ) :   0.1135 B( 31-C , 35-C ) :   1.1648
B( 32-N , 33-S ) :   1.2587 B( 32-N , 34-N ) :   0.1089 B( 33-S , 34-N ) :   1.2560
B( 33-S , 35-C ) :   0.1142 B( 34-N , 35-C ) :   1.6151 B( 35-C , 36-C ) :   1.1030
B( 36-C , 37-C ) :   1.2279 B( 36-C , 42-C ) :   1.1913 B( 37-C , 38-N ) :   1.2317
B( 38-N , 39-C ) :   0.8662 B( 38-N , 41-C ) :   1.1209 B( 39-C , 40-C ) :   0.9346
B( 39-C , 88-H ) :   0.9571 B( 39-C , 89-H ) :   0.9678 B( 40-C , 90-H ) :   0.9707
B( 40-C , 91-H ) :   0.9604 B( 40-C , 92-H ) :   0.9704 B( 41-C , 42-C ) :   1.2816
B( 41-C , 45-C ) :   1.1038 B( 41-C , 46-S ) :  -0.1099 B( 42-C , 43-S ) :   1.3374
B( 43-S , 44-C ) :   1.1591 B( 43-S , 45-C ) :   0.1030 B( 44-C , 45-C ) :   1.3893
B( 44-C , 48-C ) :   1.2243 B( 45-C , 46-S ) :   1.3177 B( 46-S , 47-C ) :   1.1877
B( 46-S , 48-C ) :   0.1202 B( 47-C , 48-C ) :   1.3782 B( 47-C , 51-C ) :   1.0669
B( 48-C , 49-C ) :   0.9633 B( 49-C , 50-C ) :   0.9721 B( 49-C , 93-H ) :   0.9377
B( 49-C , 94-H ) :   0.9784 B( 50-C , 95-H ) :   0.9708 B( 50-C , 96-H ) :   0.9629
B( 50-C , 97-H ) :   0.9718 B( 51-C , 52-C ) :   1.5107 B( 51-C , 98-H ) :   0.9351
B( 52-C , 53-C ) :   1.1657 B( 52-C , 65-C ) :   1.0101 B( 52-C , 66-O ) :  -0.1159
B( 53-C , 54-C ) :   1.3878 B( 53-C , 59-C ) :   1.0531 B( 54-C , 55-C ) :   1.0374
B( 54-C , 57-C ) :   1.0425 B( 55-C , 56-N ) :   2.9799 B( 57-C , 58-N ) :   2.9747
B( 59-C , 60-C ) :   1.4393 B( 59-C , 64-C ) :   1.2724 B( 60-C , 61-C ) :   1.3117
B( 60-C , 99-H ) :   0.9099 B( 61-C , 62-C ) :   1.2228 B( 61-C , 69-S ) :   1.2599
B( 62-C , 63-C ) :   1.1963 B( 62-C , 67-C ) :   1.1496 B( 63-C , 64-C ) :   1.4349
B( 63-C , 66-O ) :   0.1014 B( 63-C ,100-H ) :   0.9992 B( 64-C , 65-C ) :   0.9843
B( 64-C , 66-O ) :  -0.1659 B( 65-C , 66-O ) :   2.1404 B( 67-C , 68-C ) :   1.7324
B( 67-C , 69-S ) :   0.1459 B( 67-C ,101-H ) :   0.9539 B( 68-C , 69-S ) :   1.1816
B( 68-C , 74-H ) :   0.9356 B( 70-S , 71-C ) :   1.1870 B( 70-S , 72-C ) :   0.1411
B( 71-C , 72-C ) :   1.7253 B( 71-C , 73-H ) :   0.9370 B( 72-C ,102-H ) :   0.9547

-----------------------------------------------------------------------------
  SOC CORRECTED ABSORPTION SPECTRUM VIA TRANSITION ELECTRIC DIPOLE MOMENTS*
-----------------------------------------------------------------------------
State   Energy  Wavelength   fosc         T2         TX        TY        TZ
        (cm-1)    (nm)                  (au**2)     (au)      (au)      (au)
-----------------------------------------------------------------------------
   1   10856.7    921.1   0.000000001   0.00000   0.00000   0.00020   0.00002
   2   10856.7    921.1   0.000000004   0.00000   0.00006   0.00020   0.00026
   3   10856.7    921.1   0.000000000   0.00000   0.00006   0.00007   0.00006
   4   12443.5    803.6   0.000000002   0.00000   0.00003   0.00021   0.00014
   5   12443.5    803.6   0.000000003   0.00000   0.00001   0.00030   0.00002
   6   12443.5    803.6   0.000000038   0.00000   0.00006   0.00100   0.00006
   7   14693.5    680.6   2.553314664  57.20783   0.06928   7.55951   0.23830
   8   16674.2    599.7   0.000002617   0.00005   0.00116   0.00566   0.00428
   9   16674.2    599.7   0.000000100   0.00000   0.00028   0.00088   0.00106
  10   16674.2    599.7   0.000000010   0.00000   0.00008   0.00018   0.00040
  11   16718.4    598.1   0.115011987   2.26477   0.30948   0.87692   1.18322
  12   19713.6    507.3   0.112208437   1.87385   0.04737   1.32141   0.35424

FINAL SINGLE POINT ENERGY     -5526.809409415814

DIPOLE MOMENT
-------------
                                X             Y             Z
Electronic contribution:      3.53344       0.53363      -7.97025
Nuclear contribution   :     -0.45389       0.08694       7.72422
                        -----------------------------------------
Total Dipole Moment    :      3.07955       0.62057      -0.24603
                        -----------------------------------------
Magnitude (a.u.)       :      3.15108
Magnitude (Debye)      :      8.00940

Rotational constants in cm-1:     0.001982     0.000202     0.000192
Rotational constants in MHz :    59.407612     6.064395     5.760381

                             ****ORCA TERMINATED NORMALLY****
TOTAL RUN TIME: 0 days 4 hours 1 minutes 31 seconds 127 msec
