                         Program Version 4.2.0 -  RELEASE  -
|  1> # ORCA input file
|  2> # BTTPC-Br.out
|  3> ! B3LYP def2-TZVP def2/J RIJCOSX Grid4 TightSCF
|  4>
|  5> %maxcore 2000
|  6> %tddft
|  7>   maxdim 5
|  8>   nroots 3
|  9>   dosoc true
| 10>   end
| 11>
| 12>
| 13>
| 14> * xyz 0 1
| 15>    C       -3.05815        -1.02164        -0.61355
| 16>    O       -2.61915        -0.13265        -1.31595
| 17>    C       -2.37905        -2.29067        -0.28294
| 18>    C       -1.15919        -2.73533        -0.72976
| 19>    C       -0.70101        -3.96905        -0.25461
| 20>    C       -1.50023        -4.69756         0.65810
| 21>    C       -2.73406        -4.24638         1.11154
| 22>    C       -3.17241        -3.02712         0.63041
| 23>    C       -4.39126        -2.27416         0.89745
| 24>    C       -5.46830        -2.71454         1.62337
| 25>    C       -5.51405        -3.95375         2.29356
| 26>    N       -5.60037        -4.94612         2.86429
| 27>    C       -6.68135        -2.00775         1.75896
| 28>    N       -7.70339        -1.49941         1.88511
| 29>    C       -4.30302        -1.01993         0.17770
| 30>    C       -5.09840         0.07411         0.39295
| 31>    C       -5.15651         1.27900        -0.33722
| 32>    S       -5.49341         2.71335         0.64929
| 33>    C       -5.38188         3.72638        -0.73571
| 34>    C       -5.17930         2.96829        -1.89670
| 35>    C       -5.05438         1.58857        -1.69127
| 36>    C       -4.94597         0.64187        -2.83849
| 37>    C       -5.99744        -0.46559        -2.81149
| 38>    S       -5.08662         3.94396        -3.34687
| 39>    C       -5.27013         5.36239        -2.37662
| 40>    C       -5.41864         5.09479        -1.00984
| 41>    N       -5.51543         6.26885        -0.30592
| 42>    C       -6.22005         6.28692         0.95937
| 43>    C       -7.65130         5.77303         0.80400
| 44>    C       -5.38888         7.30320        -1.21678
| 45>    C       -5.28838         6.75860        -2.52698
| 46>    C       -5.26994         7.59319        -3.66729
| 47>    N       -5.25094         7.24543        -4.94391
| 48>    S       -5.29936         8.58877        -5.84484
| 49>    N       -5.33697         9.66953        -4.64068
| 50>    C       -5.31658         9.01808        -3.48912
| 51>    C       -5.23615         9.54730        -2.18037
| 52>    C       -5.21107         8.69684        -1.03847
| 53>    N       -4.90902         9.45700         0.07262
| 54>    C       -4.46847         9.05585         1.39017
| 55>    C       -5.45809         9.47603         2.47632
| 56>    C       -4.75893        10.75390        -0.33798
| 57>    C       -4.98294        10.84658        -1.71753
| 58>    S       -4.74658        12.43697        -2.35205
| 59>    C       -4.29124        12.98747        -0.75436
| 60>    C       -4.33897        11.96976         0.20831
| 61>    S       -3.76516        12.52935         1.72926
| 62>    C       -3.51102        14.14620         1.07530
| 63>    C       -3.83742        14.22347        -0.27482
| 64>    C       -3.58184        15.38610        -1.18155
| 65>    C       -4.84026        15.84129        -1.92254
| 66>    C       -2.89068        15.06318         1.95504
| 67>    C       -2.91634        16.42486         2.00636
| 68>    C       -3.80759        17.41401         1.44764
| 69>    C       -5.13133        17.21926         1.14509
| 70>    C       -5.99263        18.23976         0.69790
| 71>    N       -6.72498        19.03618         0.31430
| 72>    C       -5.78170        15.98308         1.32628
| 73>    N       -6.35216        15.00074         1.49338
| 74>    C       -3.13362        18.70570         1.52942
| 75>    C       -3.47316        19.93576         1.00145
| 76>    C       -2.62017        20.99759         1.27943
| 77>    C       -1.45430        20.86130         2.07037
| 78>    C       -1.12586        19.60722         2.59677
| 79>    C       -1.96237        18.55546         2.31413
| 80>    C       -1.82578        17.14118         2.71879
| 81>    O       -0.98346        16.65188         3.43660
| 82>    C       -0.75353        22.09059         2.20998
| 83>    C       -1.36625        23.10208         1.55054
| 84>    S       -2.82656        22.63006         0.72228
| 85>    S       -0.73969        -6.18929         1.12356
| 86>    C        0.62215        -5.81870         0.09988
| 87>    C        0.51494        -4.64012        -0.55841
| 88>   Br        2.05819        -7.02066        -0.00107
| 89>   Br       -0.78740        24.88390         1.46312
| 90>    H       -0.57541        -2.15074        -1.42352
| 91>    H       -3.30331        -4.83289         1.81330
| 92>    H       -5.71186         0.06867         1.28809
| 93>    H       -3.94440         0.20318        -2.83606
| 94>    H       -5.05310         1.22173        -3.75812
| 95>    H       -5.87543        -1.10783        -1.94359
| 96>    H       -5.90796        -1.07676        -3.70583
| 97>    H       -6.99781        -0.03894        -2.78394
| 98>    H       -6.26093         7.30593         1.32866
| 99>    H       -5.67531         5.65830         1.67108
|100>    H       -8.19005         6.37348         0.07378
|101>    H       -8.16519         5.83970         1.75886
|102>    H       -7.66351         4.73622         0.48020
|103>    H       -3.51061         9.55237         1.58354
|104>    H       -4.29069         7.98040         1.39488
|105>    H       -6.46142         9.10818         2.27313
|106>    H       -5.50735        10.55949         2.53950
|107>    H       -5.13165         9.09022         3.43772
|108>    H       -2.84167        15.07078        -1.92405
|109>    H       -3.15179        16.21373        -0.61745
|110>    H       -5.65516        16.04441        -1.23266
|111>    H       -5.17161        15.07251        -2.61523
|112>    H       -4.62992        16.74656        -2.48668
|113>    H       -2.23077        14.60900         2.69090
|114>    H       -4.34865        20.08232         0.39034
|115>    H       -0.24482        19.46821         3.20335
|116>    H        0.15582        22.20380         2.77145
|117>    H        1.26242        -4.25689        -1.22871
|118> *
|119>
|120>                          ****END OF INPUT****

CARTESIAN COORDINATES (ANGSTROEM)
---------------------------------
  C     -3.058150   -1.021640   -0.613550
  O     -2.619150   -0.132650   -1.315950
  C     -2.379050   -2.290670   -0.282940
  C     -1.159190   -2.735330   -0.729760
  C     -0.701010   -3.969050   -0.254610
  C     -1.500230   -4.697560    0.658100
  C     -2.734060   -4.246380    1.111540
  C     -3.172410   -3.027120    0.630410
  C     -4.391260   -2.274160    0.897450
  C     -5.468300   -2.714540    1.623370
  C     -5.514050   -3.953750    2.293560
  N     -5.600370   -4.946120    2.864290
  C     -6.681350   -2.007750    1.758960
  N     -7.703390   -1.499410    1.885110
  C     -4.303020   -1.019930    0.177700
  C     -5.098400    0.074110    0.392950
  C     -5.156510    1.279000   -0.337220
  S     -5.493410    2.713350    0.649290
  C     -5.381880    3.726380   -0.735710
  C     -5.179300    2.968290   -1.896700
  C     -5.054380    1.588570   -1.691270
  C     -4.945970    0.641870   -2.838490
  C     -5.997440   -0.465590   -2.811490
  S     -5.086620    3.943960   -3.346870
  C     -5.270130    5.362390   -2.376620
  C     -5.418640    5.094790   -1.009840
  N     -5.515430    6.268850   -0.305920
  C     -6.220050    6.286920    0.959370
  C     -7.651300    5.773030    0.804000
  C     -5.388880    7.303200   -1.216780
  C     -5.288380    6.758600   -2.526980
  C     -5.269940    7.593190   -3.667290
  N     -5.250940    7.245430   -4.943910
  S     -5.299360    8.588770   -5.844840
  N     -5.336970    9.669530   -4.640680
  C     -5.316580    9.018080   -3.489120
  C     -5.236150    9.547300   -2.180370
  C     -5.211070    8.696840   -1.038470
  N     -4.909020    9.457000    0.072620
  C     -4.468470    9.055850    1.390170
  C     -5.458090    9.476030    2.476320
  C     -4.758930   10.753900   -0.337980
  C     -4.982940   10.846580   -1.717530
  S     -4.746580   12.436970   -2.352050
  C     -4.291240   12.987470   -0.754360
  C     -4.338970   11.969760    0.208310
  S     -3.765160   12.529350    1.729260
  C     -3.511020   14.146200    1.075300
  C     -3.837420   14.223470   -0.274820
  C     -3.581840   15.386100   -1.181550
  C     -4.840260   15.841290   -1.922540
  C     -2.890680   15.063180    1.955040
  C     -2.916340   16.424860    2.006360
  C     -3.807590   17.414010    1.447640
  C     -5.131330   17.219260    1.145090
  C     -5.992630   18.239760    0.697900
  N     -6.724980   19.036180    0.314300
  C     -5.781700   15.983080    1.326280
  N     -6.352160   15.000740    1.493380
  C     -3.133620   18.705700    1.529420
  C     -3.473160   19.935760    1.001450
  C     -2.620170   20.997590    1.279430
  C     -1.454300   20.861300    2.070370
  C     -1.125860   19.607220    2.596770
  C     -1.962370   18.555460    2.314130
  C     -1.825780   17.141180    2.718790
  O     -0.983460   16.651880    3.436600
  C     -0.753530   22.090590    2.209980
  C     -1.366250   23.102080    1.550540
  S     -2.826560   22.630060    0.722280
  S     -0.739690   -6.189290    1.123560
  C      0.622150   -5.818700    0.099880
  C      0.514940   -4.640120   -0.558410
  Br     2.058190   -7.020660   -0.001070
  Br    -0.787400   24.883900    1.463120
  H     -0.575410   -2.150740   -1.423520
  H     -3.303310   -4.832890    1.813300
  H     -5.711860    0.068670    1.288090
  H     -3.944400    0.203180   -2.836060
  H     -5.053100    1.221730   -3.758120
  H     -5.875430   -1.107830   -1.943590
  H     -5.907960   -1.076760   -3.705830
  H     -6.997810   -0.038940   -2.783940
  H     -6.260930    7.305930    1.328660
  H     -5.675310    5.658300    1.671080
  H     -8.190050    6.373480    0.073780
  H     -8.165190    5.839700    1.758860
  H     -7.663510    4.736220    0.480200
  H     -3.510610    9.552370    1.583540
  H     -4.290690    7.980400    1.394880
  H     -6.461420    9.108180    2.273130
  H     -5.507350   10.559490    2.539500
  H     -5.131650    9.090220    3.437720
  H     -2.841670   15.070780   -1.924050
  H     -3.151790   16.213730   -0.617450
  H     -5.655160   16.044410   -1.232660
  H     -5.171610   15.072510   -2.615230
  H     -4.629920   16.746560   -2.486680
  H     -2.230770   14.609000    2.690900
  H     -4.348650   20.082320    0.390340
  H     -0.244820   19.468210    3.203350
  H      0.155820   22.203800    2.771450
  H      1.262420   -4.256890   -1.228710

 Total Charge           Charge          ....    0
 Multiplicity           Mult            ....    1
 Number of Electrons    NEL             ....  618
 Basis Dimension        Dim             .... 2569

ORBITAL ENERGIES
----------------

  NO   OCC          E(Eh)            E(eV)
   0   2.0000    -482.889921    -13140.1028
   1   2.0000    -482.888424    -13140.0620
   2   2.0000     -88.943190     -2420.2673
   3   2.0000     -88.915609     -2419.5167
   4   2.0000     -88.913764     -2419.4665
   5   2.0000     -88.907317     -2419.2911
   6   2.0000     -88.907129     -2419.2860
   7   2.0000     -88.905508     -2419.2419
   8   2.0000     -88.904810     -2419.2229
   9   2.0000     -62.536778     -1701.7122
  10   2.0000     -62.535430     -1701.6756
  11   2.0000     -56.352385     -1533.4264
  12   2.0000     -56.351022     -1533.3893
  13   2.0000     -56.349761     -1533.3549
  14   2.0000     -56.349710     -1533.3536
  15   2.0000     -56.348407     -1533.3181
  16   2.0000     -56.348352     -1533.3166
  17   2.0000     -19.127125      -520.4755
  18   2.0000     -19.127064      -520.4739
  19   2.0000     -14.404691      -391.9716
  20   2.0000     -14.401063      -391.8729
  21   2.0000     -14.350232      -390.4897
  22   2.0000     -14.349797      -390.4778
  23   2.0000     -14.326224      -389.8364
  24   2.0000     -14.325442      -389.8151
  25   2.0000     -14.323021      -389.7492
  26   2.0000     -14.322837      -389.7442
  27   2.0000     -10.277386      -279.6619
  28   2.0000     -10.275999      -279.6241
  29   2.0000     -10.272268      -279.5226
  30   2.0000     -10.271908      -279.5128
  31   2.0000     -10.256343      -279.0893
  32   2.0000     -10.255706      -279.0720
  33   2.0000     -10.251739      -278.9640
  34   2.0000     -10.250585      -278.9326
  35   2.0000     -10.250281      -278.9243
  36   2.0000     -10.249845      -278.9125
  37   2.0000     -10.248177      -278.8671
  38   2.0000     -10.247300      -278.8432
  39   2.0000     -10.241702      -278.6909
  40   2.0000     -10.240209      -278.6502
  41   2.0000     -10.239928      -278.6426
  42   2.0000     -10.239175      -278.6221
  43   2.0000     -10.238434      -278.6019
  44   2.0000     -10.238148      -278.5942
  45   2.0000     -10.236037      -278.5367
  46   2.0000     -10.235628      -278.5256
  47   2.0000     -10.233443      -278.4662
  48   2.0000     -10.232390      -278.4375
  49   2.0000     -10.227223      -278.2969
  50   2.0000     -10.226988      -278.2905
  51   2.0000     -10.226734      -278.2836
  52   2.0000     -10.226690      -278.2824
  53   2.0000     -10.226647      -278.2812
  54   2.0000     -10.224748      -278.2295
  55   2.0000     -10.224604      -278.2256
  56   2.0000     -10.222782      -278.1760
  57   2.0000     -10.222115      -278.1579
  58   2.0000     -10.221988      -278.1544
  59   2.0000     -10.221893      -278.1519
  60   2.0000     -10.221829      -278.1501
  61   2.0000     -10.221794      -278.1492
  62   2.0000     -10.220251      -278.1072
  63   2.0000     -10.220207      -278.1060
  64   2.0000     -10.218881      -278.0699
  65   2.0000     -10.216428      -278.0031
  66   2.0000     -10.213764      -277.9306
  67   2.0000     -10.212877      -277.9065
  68   2.0000     -10.211947      -277.8812
  69   2.0000     -10.211237      -277.8619
  70   2.0000     -10.209625      -277.8180
  71   2.0000     -10.209446      -277.8131
  72   2.0000     -10.209296      -277.8091
  73   2.0000     -10.208657      -277.7917
  74   2.0000     -10.207994      -277.7736
  75   2.0000     -10.207050      -277.7480
  76   2.0000     -10.204541      -277.6797
  77   2.0000     -10.196508      -277.4611
  78   2.0000     -10.195575      -277.4357
  79   2.0000     -10.190085      -277.2863
  80   2.0000     -10.183082      -277.0957
  81   2.0000     -10.174049      -276.8499
  82   2.0000     -10.167687      -276.6768
  83   2.0000      -8.727661      -237.4917
  84   2.0000      -8.726452      -237.4588
  85   2.0000      -8.014296      -218.0801
  86   2.0000      -7.991860      -217.4696
  87   2.0000      -7.990007      -217.4191
  88   2.0000      -7.983728      -217.2483
  89   2.0000      -7.983657      -217.2463
  90   2.0000      -7.981042      -217.1752
  91   2.0000      -7.980416      -217.1582
  92   2.0000      -6.557586      -178.4410
  93   2.0000      -6.556314      -178.4064
  94   2.0000      -6.546040      -178.1268
  95   2.0000      -6.545653      -178.1163
  96   2.0000      -6.544830      -178.0939
  97   2.0000      -6.544433      -178.0831
  98   2.0000      -5.979031      -162.6977
  99   2.0000      -5.971641      -162.4966
 100   2.0000      -5.971023      -162.4798
 101   2.0000      -5.954746      -162.0369
 102   2.0000      -5.952898      -161.9866
 103   2.0000      -5.950620      -161.9246
 104   2.0000      -5.948766      -161.8741
 105   2.0000      -5.947978      -161.8527
 106   2.0000      -5.946429      -161.8105
 107   2.0000      -5.946386      -161.8094
 108   2.0000      -5.946119      -161.8021
 109   2.0000      -5.944014      -161.7448
 110   2.0000      -5.943387      -161.7278
 111   2.0000      -5.942680      -161.7086
 112   2.0000      -5.942561      -161.7053
 113   2.0000      -5.940241      -161.6422
 114   2.0000      -5.939876      -161.6322
 115   2.0000      -5.939812      -161.6305
 116   2.0000      -5.939604      -161.6248
 117   2.0000      -5.936813      -161.5489
 118   2.0000      -5.936192      -161.5320
 119   2.0000      -2.672195       -72.7141
 120   2.0000      -2.670966       -72.6807
 121   2.0000      -2.668942       -72.6256
 122   2.0000      -2.668627       -72.6170
 123   2.0000      -2.667614       -72.5895
 124   2.0000      -2.667348       -72.5822
 125   2.0000      -2.659131       -72.3586
 126   2.0000      -2.659098       -72.3577
 127   2.0000      -2.657904       -72.3252
 128   2.0000      -2.657890       -72.3249
 129   2.0000      -1.057885       -28.7865
 130   2.0000      -1.057718       -28.7820
 131   2.0000      -1.043520       -28.3956
 132   2.0000      -1.030267       -28.0350
 133   2.0000      -1.029477       -28.0135
 134   2.0000      -0.944208       -25.6932
 135   2.0000      -0.941138       -25.6097
 136   2.0000      -0.935631       -25.4598
 137   2.0000      -0.933316       -25.3968
 138   2.0000      -0.932711       -25.3804
 139   2.0000      -0.931966       -25.3601
 140   2.0000      -0.921684       -25.0803
 141   2.0000      -0.919053       -25.0087
 142   2.0000      -0.910077       -24.7644
 143   2.0000      -0.907990       -24.7077
 144   2.0000      -0.900235       -24.4967
 145   2.0000      -0.889868       -24.2145
 146   2.0000      -0.877925       -23.8895
 147   2.0000      -0.870808       -23.6959
 148   2.0000      -0.862387       -23.4667
 149   2.0000      -0.859916       -23.3995
 150   2.0000      -0.836107       -22.7516
 151   2.0000      -0.830778       -22.6066
 152   2.0000      -0.828496       -22.5445
 153   2.0000      -0.822231       -22.3740
 154   2.0000      -0.819158       -22.2904
 155   2.0000      -0.816792       -22.2260
 156   2.0000      -0.814039       -22.1511
 157   2.0000      -0.811627       -22.0855
 158   2.0000      -0.809599       -22.0303
 159   2.0000      -0.807300       -21.9677
 160   2.0000      -0.786060       -21.3898
 161   2.0000      -0.785376       -21.3712
 162   2.0000      -0.781202       -21.2576
 163   2.0000      -0.770761       -20.9735
 164   2.0000      -0.758439       -20.6382
 165   2.0000      -0.754626       -20.5344
 166   2.0000      -0.753686       -20.5089
 167   2.0000      -0.751879       -20.4597
 168   2.0000      -0.741644       -20.1812
 169   2.0000      -0.729289       -19.8450
 170   2.0000      -0.727639       -19.8001
 171   2.0000      -0.718415       -19.5491
 172   2.0000      -0.702919       -19.1274
 173   2.0000      -0.689972       -18.7751
 174   2.0000      -0.684010       -18.6129
 175   2.0000      -0.683198       -18.5908
 176   2.0000      -0.678631       -18.4665
 177   2.0000      -0.676743       -18.4151
 178   2.0000      -0.656447       -17.8628
 179   2.0000      -0.652808       -17.7638
 180   2.0000      -0.647856       -17.6291
 181   2.0000      -0.645329       -17.5603
 182   2.0000      -0.636092       -17.3089
 183   2.0000      -0.629934       -17.1414
 184   2.0000      -0.626469       -17.0471
 185   2.0000      -0.616850       -16.7853
 186   2.0000      -0.614644       -16.7253
 187   2.0000      -0.609917       -16.5967
 188   2.0000      -0.599877       -16.3235
 189   2.0000      -0.593490       -16.1497
 190   2.0000      -0.587919       -15.9981
 191   2.0000      -0.586630       -15.9630
 192   2.0000      -0.584881       -15.9154
 193   2.0000      -0.580238       -15.7891
 194   2.0000      -0.565769       -15.3954
 195   2.0000      -0.560908       -15.2631
 196   2.0000      -0.558089       -15.1864
 197   2.0000      -0.551915       -15.0184
 198   2.0000      -0.549126       -14.9425
 199   2.0000      -0.545093       -14.8327
 200   2.0000      -0.538717       -14.6592
 201   2.0000      -0.528461       -14.3802
 202   2.0000      -0.526785       -14.3346
 203   2.0000      -0.525662       -14.3040
 204   2.0000      -0.518506       -14.1093
 205   2.0000      -0.514433       -13.9984
 206   2.0000      -0.510503       -13.8915
 207   2.0000      -0.509612       -13.8673
 208   2.0000      -0.506330       -13.7779
 209   2.0000      -0.502290       -13.6680
 210   2.0000      -0.492120       -13.3913
 211   2.0000      -0.487692       -13.2708
 212   2.0000      -0.485215       -13.2034
 213   2.0000      -0.484422       -13.1818
 214   2.0000      -0.480847       -13.0845
 215   2.0000      -0.478178       -13.0119
 216   2.0000      -0.476532       -12.9671
 217   2.0000      -0.473603       -12.8874
 218   2.0000      -0.468881       -12.7589
 219   2.0000      -0.467588       -12.7237
 220   2.0000      -0.463962       -12.6250
 221   2.0000      -0.462711       -12.5910
 222   2.0000      -0.462326       -12.5805
 223   2.0000      -0.460205       -12.5228
 224   2.0000      -0.458416       -12.4741
 225   2.0000      -0.456923       -12.4335
 226   2.0000      -0.456015       -12.4088
 227   2.0000      -0.451189       -12.2775
 228   2.0000      -0.449536       -12.2325
 229   2.0000      -0.444668       -12.1000
 230   2.0000      -0.442515       -12.0414
 231   2.0000      -0.438636       -11.9359
 232   2.0000      -0.438054       -11.9201
 233   2.0000      -0.435637       -11.8543
 234   2.0000      -0.434048       -11.8110
 235   2.0000      -0.433319       -11.7912
 236   2.0000      -0.429852       -11.6969
 237   2.0000      -0.427025       -11.6199
 238   2.0000      -0.425532       -11.5793
 239   2.0000      -0.423971       -11.5368
 240   2.0000      -0.421360       -11.4658
 241   2.0000      -0.419436       -11.4134
 242   2.0000      -0.419212       -11.4073
 243   2.0000      -0.417233       -11.3535
 244   2.0000      -0.414221       -11.2715
 245   2.0000      -0.410745       -11.1770
 246   2.0000      -0.410112       -11.1597
 247   2.0000      -0.406542       -11.0626
 248   2.0000      -0.405593       -11.0368
 249   2.0000      -0.402229       -10.9452
 250   2.0000      -0.397935       -10.8284
 251   2.0000      -0.396895       -10.8001
 252   2.0000      -0.394792       -10.7428
 253   2.0000      -0.393711       -10.7134
 254   2.0000      -0.393250       -10.7009
 255   2.0000      -0.392278       -10.6744
 256   2.0000      -0.387649       -10.5485
 257   2.0000      -0.386401       -10.5145
 258   2.0000      -0.384726       -10.4689
 259   2.0000      -0.383325       -10.4308
 260   2.0000      -0.381913       -10.3924
 261   2.0000      -0.381163       -10.3720
 262   2.0000      -0.379951       -10.3390
 263   2.0000      -0.378433       -10.2977
 264   2.0000      -0.377206       -10.2643
 265   2.0000      -0.376082       -10.2337
 266   2.0000      -0.374515       -10.1911
 267   2.0000      -0.374321       -10.1858
 268   2.0000      -0.369394       -10.0517
 269   2.0000      -0.366731        -9.9792
 270   2.0000      -0.363544        -9.8925
 271   2.0000      -0.362404        -9.8615
 272   2.0000      -0.359629        -9.7860
 273   2.0000      -0.358256        -9.7486
 274   2.0000      -0.357571        -9.7300
 275   2.0000      -0.356756        -9.7078
 276   2.0000      -0.354876        -9.6567
 277   2.0000      -0.353069        -9.6075
 278   2.0000      -0.347045        -9.4436
 279   2.0000      -0.345628        -9.4050
 280   2.0000      -0.344957        -9.3868
 281   2.0000      -0.343618        -9.3503
 282   2.0000      -0.342337        -9.3155
 283   2.0000      -0.338076        -9.1995
 284   2.0000      -0.334537        -9.1032
 285   2.0000      -0.332718        -9.0537
 286   2.0000      -0.328250        -8.9321
 287   2.0000      -0.326339        -8.8801
 288   2.0000      -0.318785        -8.6746
 289   2.0000      -0.317654        -8.6438
 290   2.0000      -0.316056        -8.6003
 291   2.0000      -0.313112        -8.5202
 292   2.0000      -0.304579        -8.2880
 293   2.0000      -0.298405        -8.1200
 294   2.0000      -0.295208        -8.0330
 295   2.0000      -0.285575        -7.7709
 296   2.0000      -0.282046        -7.6748
 297   2.0000      -0.275397        -7.4939
 298   2.0000      -0.271683        -7.3929
 299   2.0000      -0.265829        -7.2336
 300   2.0000      -0.264194        -7.1891
 301   2.0000      -0.262298        -7.1375
 302   2.0000      -0.259823        -7.0702
 303   2.0000      -0.246640        -6.7114
 304   2.0000      -0.244626        -6.6566
 305   2.0000      -0.241016        -6.5584
 306   2.0000      -0.233449        -6.3525
 307   2.0000      -0.230083        -6.2609
 308   2.0000      -0.202018        -5.4972
 309   0.0000      -0.129552        -3.5253
 310   0.0000      -0.121895        -3.3169
 311   0.0000      -0.103306        -2.8111
 312   0.0000      -0.100292        -2.7291
 313   0.0000      -0.086122        -2.3435

MULLIKEN ATOMIC CHARGES
-----------------------
   0 C :    0.179073
   1 O :   -0.333707
   2 C :    0.152682
   3 C :   -0.339906
   4 C :    0.219537
   5 C :    0.060086
   6 C :   -0.247674
   7 C :    0.073857
   8 C :    0.059056
   9 C :    0.126018
  10 C :   -0.226956
  11 N :    0.036672
  12 C :   -0.238654
  13 N :    0.051479
  14 C :   -0.137770
  15 C :   -0.207939
  16 C :    0.144388
  17 S :   -0.021418
  18 C :   -0.266261
  19 C :    0.049305
  20 C :    0.043382
  21 C :   -0.225921
  22 C :   -0.346256
  23 S :    0.028962
  24 C :   -0.154978
  25 C :    0.393259
  26 N :   -0.102143
  27 C :   -0.121956
  28 C :   -0.347948
  29 C :   -0.055187
  30 C :    0.111379
  31 C :   -0.021782
  32 N :   -0.253245
  33 S :    0.348127
  34 N :   -0.250812
  35 C :   -0.009312
  36 C :    0.072065
  37 C :    0.107858
  38 N :   -0.044719
  39 C :   -0.228899
  40 C :   -0.318053
  41 C :    0.386463
  42 C :   -0.165124
  43 S :    0.015080
  44 C :    0.063439
  45 C :   -0.202699
  46 S :   -0.022296
  47 C :    0.143153
  48 C :   -0.005668
  49 C :   -0.175834
  50 C :   -0.350135
  51 C :   -0.223957
  52 C :    0.018791
  53 C :   -0.127805
  54 C :    0.095002
  55 C :   -0.207704
  56 N :    0.040864
  57 C :   -0.235692
  58 N :    0.050631
  59 C :    0.135020
  60 C :   -0.233608
  61 C :    0.051770
  62 C :    0.221280
  63 C :   -0.325413
  64 C :    0.044797
  65 C :    0.193593
  66 O :   -0.292283
  67 C :   -0.266828
  68 C :    0.038823
  69 S :    0.080721
  70 S :    0.080975
  71 C :    0.034630
  72 C :   -0.260546
  73 Br:   -0.011809
  74 Br:   -0.010736
  75 H :    0.123182
  76 H :    0.163976
  77 H :    0.156633
  78 H :    0.156505
  79 H :    0.092255
  80 H :    0.130697
  81 H :    0.113921
  82 H :    0.111818
  83 H :    0.094018
  84 H :    0.128448
  85 H :    0.123719
  86 H :    0.121339
  87 H :    0.141142
  88 H :    0.134772
  89 H :    0.168075
  90 H :    0.120132
  91 H :    0.143374
  92 H :    0.122801
  93 H :    0.111778
  94 H :    0.129235
  95 H :    0.134367
  96 H :    0.126225
  97 H :    0.116220
  98 H :    0.145751
  99 H :    0.157546
 100 H :    0.126435
 101 H :    0.137273
 102 H :    0.135776
Sum of atomic charges:   -0.0000000

LOEWDIN ATOMIC CHARGES
----------------------
   0 C :   -0.258213
   1 O :    0.133396
   2 C :   -0.061606
   3 C :   -0.033431
   4 C :   -0.131110
   5 C :   -0.295646
   6 C :   -0.074944
   7 C :   -0.048238
   8 C :    0.005899
   9 C :   -0.138267
  10 C :   -0.163252
  11 N :    0.077972
  12 C :   -0.170496
  13 N :    0.079972
  14 C :   -0.090958
  15 C :   -0.070147
  16 C :   -0.292048
  17 S :    0.752151
  18 C :   -0.347576
  19 C :   -0.318737
  20 C :   -0.123091
  21 C :   -0.230983
  22 C :   -0.284184
  23 S :    0.760859
  24 C :   -0.288140
  25 C :   -0.188283
  26 N :    0.287091
  27 C :   -0.269721
  28 C :   -0.286906
  29 C :   -0.094955
  30 C :   -0.088820
  31 C :   -0.244880
  32 N :   -0.127038
  33 S :    0.655942
  34 N :   -0.127380
  35 C :   -0.244176
  36 C :   -0.090932
  37 C :   -0.093535
  38 N :    0.298363
  39 C :   -0.267028
  40 C :   -0.297137
  41 C :   -0.182669
  42 C :   -0.289396
  43 S :    0.762108
  44 C :   -0.315199
  45 C :   -0.339772
  46 S :    0.767979
  47 C :   -0.310824
  48 C :   -0.135242
  49 C :   -0.225979
  50 C :   -0.283537
  51 C :   -0.068297
  52 C :   -0.088480
  53 C :   -0.007346
  54 C :   -0.146925
  55 C :   -0.167435
  56 N :    0.080189
  57 C :   -0.163247
  58 N :    0.094235
  59 C :   -0.048527
  60 C :   -0.077238
  61 C :   -0.295246
  62 C :   -0.130786
  63 C :   -0.031053
  64 C :   -0.061808
  65 C :   -0.255448
  66 O :    0.132527
  67 C :   -0.156082
  68 C :   -0.632459
  69 S :    0.751699
  70 S :    0.751777
  71 C :   -0.632884
  72 C :   -0.156754
  73 Br:    0.372307
  74 Br:    0.373159
  75 H :    0.157800
  76 H :    0.161791
  77 H :    0.170314
  78 H :    0.157394
  79 H :    0.139440
  80 H :    0.122569
  81 H :    0.120083
  82 H :    0.122073
  83 H :    0.140494
  84 H :    0.137022
  85 H :    0.125310
  86 H :    0.125567
  87 H :    0.123013
  88 H :    0.141233
  89 H :    0.141764
  90 H :    0.117303
  91 H :    0.120318
  92 H :    0.126244
  93 H :    0.150875
  94 H :    0.150525
  95 H :    0.128147
  96 H :    0.115062
  97 H :    0.122596
  98 H :    0.170010
  99 H :    0.160791
 100 H :    0.158866
 101 H :    0.150341
 102 H :    0.149920

  Mayer bond orders larger than 0.100000
B(  0-C ,  1-O ) :   2.0961 B(  0-C ,  2-C ) :   0.9726 B(  0-C , 14-C ) :   1.0218
B(  1-O ,  2-C ) :  -0.1875 B(  1-O ,  3-C ) :   0.1063 B(  2-C ,  3-C ) :   1.4424
B(  2-C ,  7-C ) :   1.2715 B(  3-C ,  4-C ) :   1.1811 B(  3-C , 75-H ) :   1.0081
B(  4-C ,  5-C ) :   1.2435 B(  4-C , 72-C ) :   1.1199 B(  5-C ,  6-C ) :   1.3057
B(  5-C , 70-S ) :   1.2329 B(  6-C ,  7-C ) :   1.4592 B(  6-C , 76-H ) :   0.9072
B(  7-C ,  8-C ) :   1.0649 B(  8-C ,  9-C ) :   1.4492 B(  8-C , 14-C ) :   1.0933
B(  9-C , 10-C ) :   1.0432 B(  9-C , 12-C ) :   1.0272 B( 10-C , 11-N ) :   2.9836
B( 12-C , 13-N ) :   3.0142 B( 14-C , 15-C ) :   1.4753 B( 15-C , 16-C ) :   1.2023
B( 15-C , 77-H ) :   0.9248 B( 16-C , 17-S ) :   1.1708 B( 16-C , 20-C ) :   1.4050
B( 17-S , 18-C ) :   1.3725 B( 17-S , 20-C ) :   0.1016 B( 17-S , 25-C ) :  -0.1543
B( 18-C , 19-C ) :   1.3404 B( 18-C , 23-S ) :   0.1222 B( 18-C , 25-C ) :   1.0389
B( 19-C , 20-C ) :   1.2339 B( 19-C , 23-S ) :   1.1948 B( 20-C , 21-C ) :   0.9441
B( 21-C , 22-C ) :   0.9469 B( 21-C , 78-H ) :   0.9518 B( 21-C , 79-H ) :   0.9672
B( 22-C , 80-H ) :   0.9769 B( 22-C , 81-H ) :   0.9759 B( 22-C , 82-H ) :   0.9716
B( 23-S , 24-C ) :   1.3611 B( 24-C , 25-C ) :   1.2669 B( 24-C , 30-C ) :   1.1448
B( 25-C , 26-N ) :   1.1153 B( 26-N , 27-C ) :   0.8877 B( 26-N , 29-C ) :   1.1925
B( 27-C , 28-C ) :   0.9674 B( 27-C , 83-H ) :   0.9533 B( 27-C , 84-H ) :   0.9623
B( 28-C , 85-H ) :   0.9679 B( 28-C , 86-H ) :   0.9693 B( 28-C , 87-H ) :   0.9741
B( 29-C , 30-C ) :   1.3026 B( 29-C , 37-C ) :   1.2575 B( 30-C , 31-C ) :   1.1055
B( 31-C , 32-N ) :   1.5877 B( 31-C , 33-S ) :   0.1142 B( 31-C , 35-C ) :   1.1857
B( 32-N , 33-S ) :   1.2890 B( 33-S , 34-N ) :   1.2860 B( 33-S , 35-C ) :   0.1212
B( 34-N , 35-C ) :   1.5857 B( 35-C , 36-C ) :   1.1281 B( 36-C , 37-C ) :   1.2456
B( 36-C , 42-C ) :   1.1949 B( 37-C , 38-N ) :   1.2303 B( 38-N , 39-C ) :   0.8770
B( 38-N , 41-C ) :   1.1279 B( 39-C , 40-C ) :   0.9404 B( 39-C , 88-H ) :   0.9586
B( 39-C , 89-H ) :   0.9641 B( 40-C , 90-H ) :   0.9662 B( 40-C , 91-H ) :   0.9617
B( 40-C , 92-H ) :   0.9703 B( 41-C , 42-C ) :   1.2553 B( 41-C , 45-C ) :   1.0459
B( 41-C , 46-S ) :  -0.1459 B( 42-C , 43-S ) :   1.3558 B( 43-S , 44-C ) :   1.1653
B( 43-S , 45-C ) :   0.1184 B( 44-C , 45-C ) :   1.4251 B( 44-C , 48-C ) :   1.2378
B( 45-C , 46-S ) :   1.3217 B( 46-S , 47-C ) :   1.1944 B( 47-C , 48-C ) :   1.4026
B( 47-C , 51-C ) :   1.0573 B( 48-C , 49-C ) :   0.9487 B( 49-C , 50-C ) :   0.9556
B( 49-C , 93-H ) :   0.9428 B( 49-C , 94-H ) :   0.9836 B( 50-C , 95-H ) :   0.9698
B( 50-C , 96-H ) :   0.9654 B( 50-C , 97-H ) :   0.9744 B( 51-C , 52-C ) :   1.5096
B( 51-C , 66-O ) :   0.1078 B( 51-C , 98-H ) :   0.9489 B( 52-C , 53-C ) :   1.1357
B( 52-C , 65-C ) :   1.0049 B( 52-C , 66-O ) :  -0.1435 B( 53-C , 54-C ) :   1.3650
B( 53-C , 59-C ) :   1.0388 B( 54-C , 55-C ) :   1.0568 B( 54-C , 57-C ) :   1.0749
B( 55-C , 56-N ) :   2.9902 B( 57-C , 58-N ) :   2.9761 B( 59-C , 60-C ) :   1.4246
B( 59-C , 64-C ) :   1.2719 B( 60-C , 61-C ) :   1.3080 B( 60-C , 99-H ) :   0.9250
B( 61-C , 62-C ) :   1.2490 B( 61-C , 69-S ) :   1.2261 B( 62-C , 63-C ) :   1.1795
B( 62-C , 67-C ) :   1.1230 B( 63-C , 64-C ) :   1.4334 B( 63-C , 66-O ) :   0.1025
B( 63-C ,100-H ) :   1.0083 B( 64-C , 65-C ) :   0.9769 B( 64-C , 66-O ) :  -0.1744
B( 65-C , 66-O ) :   2.1922 B( 67-C , 68-C ) :   1.6516 B( 67-C , 69-S ) :   0.1123
B( 67-C ,101-H ) :   0.9647 B( 68-C , 69-S ) :   1.1918 B( 68-C , 74-Br) :   1.0987
B( 70-S , 71-C ) :   1.1976 B( 70-S , 72-C ) :   0.1072 B( 71-C , 72-C ) :   1.6411
B( 71-C , 73-Br) :   1.1011 B( 72-C ,102-H ) :   0.9690

-----------------------------------------------------------------------------
  SOC CORRECTED ABSORPTION SPECTRUM VIA TRANSITION ELECTRIC DIPOLE MOMENTS*
-----------------------------------------------------------------------------
State   Energy  Wavelength   fosc         T2         TX        TY        TZ
        (cm-1)    (nm)                  (au**2)     (au)      (au)      (au)
-----------------------------------------------------------------------------
   1   10662.6    937.9   0.000000014   0.00000   0.00000   0.00066   0.00001
   2   10662.6    937.9   0.000000009   0.00000   0.00009   0.00050   0.00012
   3   10662.6    937.9   0.000000014   0.00000   0.00008   0.00062   0.00023
   4   12274.7    814.7   0.000000008   0.00000   0.00006   0.00045   0.00012
   5   12274.7    814.7   0.000000000   0.00000   0.00003   0.00005   0.00003
   6   12274.7    814.7   0.000000037   0.00000   0.00009   0.00098   0.00014
   7   14360.7    696.3   2.467315063  56.56200   0.07834   7.50934   0.40709
   8   16386.7    610.2   0.165597175   3.32687   0.36827   1.46560   1.02140
   9   16709.8    598.5   0.000000067   0.00000   0.00031   0.00052   0.00097
  10   16709.8    598.5   0.000000011   0.00000   0.00005   0.00033   0.00033
  11   16709.8    598.5   0.000000126   0.00000   0.00001   0.00158   0.00008
  12   19178.4    521.4   0.442834569   7.60161   0.08405   2.74507   0.24323

FINAL SINGLE POINT ENERGY    -10673.682165891900

DIPOLE MOMENT
-------------
                                X             Y             Z
Electronic contribution:    104.93986      22.85144      10.44741
Nuclear contribution   :   -102.16695     -21.68917     -10.99563
                        -----------------------------------------
Total Dipole Moment    :      2.77291       1.16227      -0.54822
                        -----------------------------------------
Magnitude (a.u.)       :      3.05622
Magnitude (Debye)      :      7.76829

Rotational constants in cm-1:     0.001422     0.000139     0.000134
Rotational constants in MHz :    42.637937     4.168398     4.025650

                             ****ORCA TERMINATED NORMALLY****
TOTAL RUN TIME: 0 days 21 hours 19 minutes 55 seconds 727 msec
