                         Program Version 4.2.0 -  RELEASE  -
|  1> # ORCA input file
|  2> # CH1007.out: Geometry 27
|  3> ! B3LYP def2-TZVP def2/J RIJCOSX Grid4 TightSCF
|  4>
|  5> %maxcore 6000
|  6> %tddft
|  7>   maxdim 5
|  8>   nroots 3
|  9>   dosoc true
| 10>   end
| 11> %pal
| 12>   nprocs 6
| 13>   end
| 14>
| 15>
| 16> * xyz 0 1
| 17>    C        4.27765         0.55529         0.94973
| 18>    O        3.78035         0.94856         1.98802
| 19>    C        5.50586         1.10864         0.32366
| 20>    C        6.30123         2.14253         0.80468
| 21>    C        7.45581         2.44633         0.09202
| 22>    F        8.27592         3.41020         0.50190
| 23>    C        7.78616         1.72584        -1.07067
| 24>    F        8.91616         2.02980        -1.70240
| 25>    C        6.97612         0.70505        -1.56102
| 26>    C        5.81403         0.38804        -0.84557
| 27>    C        4.77904        -0.65419        -1.04672
| 28>    C        4.67167        -1.47167        -2.15576
| 29>    C        3.63290        -2.44356        -2.30694
| 30>    N        2.79638        -3.23889        -2.44322
| 31>    C        5.57408        -1.38854        -3.26158
| 32>    N        6.30259        -1.32072        -4.16448
| 33>    C        3.87688        -0.60809         0.10563
| 34>    C        3.01465        -1.60811         0.51099
| 35>    C        2.11803        -1.60387         1.61402
| 36>   Se        2.06607        -3.26484         2.60287
| 37>    C        1.05507        -2.35253         3.88122
| 38>    C        0.78609        -1.03685         3.45062
| 39>    C        1.31796        -0.61736         2.20858
| 40>    C        0.91025         0.70599         1.60862
| 41>    C        0.53955         0.65927         0.12228
| 42>    S       -0.10565        -0.08306         4.63810
| 43>    C       -0.08369        -1.44574         5.71283
| 44>    C        0.55359        -2.57630         5.18490
| 45>    N        0.51260        -3.61524         6.11130
| 46>    C        0.50508        -4.98930         5.59721
| 47>    C       -0.88231        -5.43852         5.14828
| 48>    C       -0.14758        -3.12811         7.25672
| 49>    C       -0.53194        -1.77385         7.00796
| 50>    C       -1.25623        -0.99570         7.96553
| 51>    N       -1.63260         0.27199         7.85303
| 52>    S       -2.45611         0.64866         9.23926
| 53>    N       -2.34495        -0.81334        10.01029
| 54>    C       -1.66734        -1.62017         9.20349
| 55>    C       -1.26420        -2.96786         9.46257
| 56>    C       -0.44956        -3.70611         8.54222
| 57>    N       -0.08193        -4.90264         9.16400
| 58>    C        0.92576        -5.88176         8.77272
| 59>    C        0.33364        -7.20076         8.27708
| 60>    C       -0.67888        -4.94269        10.41453
| 61>    C       -1.42610        -3.77083        10.60745
| 62>    S       -2.21619        -3.69438        12.15031
| 63>    C       -1.51192        -5.26041        12.57585
| 64>    C       -0.70991        -5.79422        11.54190
| 65>   Se        0.00843        -7.44338        12.04131
| 66>    C       -0.87815        -7.19982        13.73313
| 67>    C       -1.64991        -6.02783        13.75941
| 68>    C       -2.70419        -5.73664        14.79895
| 69>    C       -2.71439        -4.31875        15.38185
| 70>    C       -0.69038        -8.25297        14.67082
| 71>    C       -0.62367        -8.21288        16.04903
| 72>    C       -0.50582        -9.36996        16.93934
| 73>    C       -0.71498       -10.70029        16.62145
| 74>    C       -0.55945       -11.75405        17.57566
| 75>    N       -0.43146       -12.62085        18.33920
| 76>    C       -1.12535       -11.15650        15.32881
| 77>    N       -1.46802       -11.57133        14.29825
| 78>    C       -0.15999        -8.86117        18.28915
| 79>    C        0.07193        -9.51480        19.50769
| 80>    C        0.36113        -8.73563        20.62432
| 81>    F        0.59131        -9.31963        21.79765
| 82>    C        0.41784        -7.33113        20.55565
| 83>    F        0.68272        -6.64780        21.66462
| 84>    C        0.19989        -6.67464        19.34995
| 85>    C       -0.08809        -7.45603        18.23732
| 86>    C       -0.37204        -6.98261        16.85841
| 87>    O       -0.33106        -5.82552        16.48748
| 88>    H        6.04066         2.68573         1.71434
| 89>    H        7.29242         0.18952        -2.46522
| 90>    H        3.11040        -2.57052        -0.00020
| 91>    H        1.71981         1.43027         1.78281
| 92>    H        0.04094         1.07124         2.17905
| 93>    H        1.40582         0.42764        -0.51267
| 94>    H        0.13984         1.63296        -0.20050
| 95>    H       -0.22946        -0.10334        -0.07380
| 96>    H        0.91826        -5.67159         6.34190
| 97>    H        1.21058        -5.01450         4.75390
| 98>    H       -1.59151        -5.42377         5.99033
| 99>    H       -0.84180        -6.46320         4.74744
|100>    H       -1.27171        -4.77699         4.35988
|101>    H        1.56351        -6.06541         9.65263
|102>    H        1.57948        -5.41004         8.02917
|103>    H       -0.21021        -7.71715         9.08248
|104>    H        1.13507        -7.86871         7.92519
|105>    H       -0.37508        -7.04294         7.45212
|106>    H       -2.62431        -6.46991        15.60857
|107>    H       -3.67426        -5.93110        14.30244
|108>    H       -1.73676        -4.06468        15.80916
|109>    H       -3.46678        -4.25031        16.18242
|110>    H       -2.97884        -3.56153        14.62960
|111>    H       -0.50385        -9.22712        14.21161
|112>    H        0.04118       -10.59576        19.63057
|113>    H        0.24991        -5.58629        19.28317
|114> *
|115>
|116>                          ****END OF INPUT****

CARTESIAN COORDINATES (ANGSTROEM)
---------------------------------
  C      4.277650    0.555290    0.949730
  O      3.780350    0.948560    1.988020
  C      5.505860    1.108640    0.323660
  C      6.301230    2.142530    0.804680
  C      7.455810    2.446330    0.092020
  F      8.275920    3.410200    0.501900
  C      7.786160    1.725840   -1.070670
  F      8.916160    2.029800   -1.702400
  C      6.976120    0.705050   -1.561020
  C      5.814030    0.388040   -0.845570
  C      4.779040   -0.654190   -1.046720
  C      4.671670   -1.471670   -2.155760
  C      3.632900   -2.443560   -2.306940
  N      2.796380   -3.238890   -2.443220
  C      5.574080   -1.388540   -3.261580
  N      6.302590   -1.320720   -4.164480
  C      3.876880   -0.608090    0.105630
  C      3.014650   -1.608110    0.510990
  C      2.118030   -1.603870    1.614020
  Se     2.066070   -3.264840    2.602870
  C      1.055070   -2.352530    3.881220
  C      0.786090   -1.036850    3.450620
  C      1.317960   -0.617360    2.208580
  C      0.910250    0.705990    1.608620
  C      0.539550    0.659270    0.122280
  S     -0.105650   -0.083060    4.638100
  C     -0.083690   -1.445740    5.712830
  C      0.553590   -2.576300    5.184900
  N      0.512600   -3.615240    6.111300
  C      0.505080   -4.989300    5.597210
  C     -0.882310   -5.438520    5.148280
  C     -0.147580   -3.128110    7.256720
  C     -0.531940   -1.773850    7.007960
  C     -1.256230   -0.995700    7.965530
  N     -1.632600    0.271990    7.853030
  S     -2.456110    0.648660    9.239260
  N     -2.344950   -0.813340   10.010290
  C     -1.667340   -1.620170    9.203490
  C     -1.264200   -2.967860    9.462570
  C     -0.449560   -3.706110    8.542220
  N     -0.081930   -4.902640    9.164000
  C      0.925760   -5.881760    8.772720
  C      0.333640   -7.200760    8.277080
  C     -0.678880   -4.942690   10.414530
  C     -1.426100   -3.770830   10.607450
  S     -2.216190   -3.694380   12.150310
  C     -1.511920   -5.260410   12.575850
  C     -0.709910   -5.794220   11.541900
  Se     0.008430   -7.443380   12.041310
  C     -0.878150   -7.199820   13.733130
  C     -1.649910   -6.027830   13.759410
  C     -2.704190   -5.736640   14.798950
  C     -2.714390   -4.318750   15.381850
  C     -0.690380   -8.252970   14.670820
  C     -0.623670   -8.212880   16.049030
  C     -0.505820   -9.369960   16.939340
  C     -0.714980  -10.700290   16.621450
  C     -0.559450  -11.754050   17.575660
  N     -0.431460  -12.620850   18.339200
  C     -1.125350  -11.156500   15.328810
  N     -1.468020  -11.571330   14.298250
  C     -0.159990   -8.861170   18.289150
  C      0.071930   -9.514800   19.507690
  C      0.361130   -8.735630   20.624320
  F      0.591310   -9.319630   21.797650
  C      0.417840   -7.331130   20.555650
  F      0.682720   -6.647800   21.664620
  C      0.199890   -6.674640   19.349950
  C     -0.088090   -7.456030   18.237320
  C     -0.372040   -6.982610   16.858410
  O     -0.331060   -5.825520   16.487480
  H      6.040660    2.685730    1.714340
  H      7.292420    0.189520   -2.465220
  H      3.110400   -2.570520   -0.000200
  H      1.719810    1.430270    1.782810
  H      0.040940    1.071240    2.179050
  H      1.405820    0.427640   -0.512670
  H      0.139840    1.632960   -0.200500
  H     -0.229460   -0.103340   -0.073800
  H      0.918260   -5.671590    6.341900
  H      1.210580   -5.014500    4.753900
  H     -1.591510   -5.423770    5.990330
  H     -0.841800   -6.463200    4.747440
  H     -1.271710   -4.776990    4.359880
  H      1.563510   -6.065410    9.652630
  H      1.579480   -5.410040    8.029170
  H     -0.210210   -7.717150    9.082480
  H      1.135070   -7.868710    7.925190
  H     -0.375080   -7.042940    7.452120
  H     -2.624310   -6.469910   15.608570
  H     -3.674260   -5.931100   14.302440
  H     -1.736760   -4.064680   15.809160
  H     -3.466780   -4.250310   16.182420
  H     -2.978840   -3.561530   14.629600
  H     -0.503850   -9.227120   14.211610
  H      0.041180  -10.595760   19.630570
  H      0.249910   -5.586290   19.283170

 Total Charge           Charge          ....    0
 Multiplicity           Mult            ....    1
 Number of Electrons    NEL             ....  562
 Basis Dimension        Dim             .... 2409

ORBITAL ENERGIES
----------------

  NO   OCC          E(Eh)            E(eV)
   0   2.0000    -453.943366    -12352.4270
   1   2.0000    -453.943050    -12352.4184
   2   2.0000     -88.948095     -2420.4007
   3   2.0000     -88.910253     -2419.3710
   4   2.0000     -88.910151     -2419.3682
   5   2.0000     -58.125696     -1581.6806
   6   2.0000     -58.125588     -1581.6777
   7   2.0000     -52.177998     -1419.8355
   8   2.0000     -52.177915     -1419.8333
   9   2.0000     -52.177347     -1419.8178
  10   2.0000     -52.177245     -1419.8150
  11   2.0000     -52.176524     -1419.7954
  12   2.0000     -52.176378     -1419.7914
  13   2.0000     -24.729595      -672.9265
  14   2.0000     -24.729364      -672.9202
  15   2.0000     -24.727444      -672.8680
  16   2.0000     -24.727097      -672.8585
  17   2.0000     -19.138043      -520.7726
  18   2.0000     -19.136641      -520.7345
  19   2.0000     -14.412177      -392.1753
  20   2.0000     -14.407903      -392.0590
  21   2.0000     -14.362799      -390.8316
  22   2.0000     -14.361979      -390.8093
  23   2.0000     -14.337262      -390.1367
  24   2.0000     -14.336595      -390.1186
  25   2.0000     -14.336226      -390.1086
  26   2.0000     -14.334992      -390.0750
  27   2.0000     -10.303720      -280.3785
  28   2.0000     -10.303331      -280.3679
  29   2.0000     -10.302801      -280.3535
  30   2.0000     -10.302509      -280.3455
  31   2.0000     -10.284929      -279.8671
  32   2.0000     -10.284394      -279.8526
  33   2.0000     -10.268806      -279.4284
  34   2.0000     -10.267145      -279.3832
  35   2.0000     -10.267132      -279.3829
  36   2.0000     -10.265914      -279.3497
  37   2.0000     -10.263740      -279.2906
  38   2.0000     -10.263285      -279.2782
  39   2.0000     -10.259824      -279.1840
  40   2.0000     -10.255452      -279.0650
  41   2.0000     -10.250133      -278.9203
  42   2.0000     -10.249252      -278.8963
  43   2.0000     -10.247967      -278.8614
  44   2.0000     -10.246501      -278.8215
  45   2.0000     -10.245931      -278.8059
  46   2.0000     -10.245525      -278.7949
  47   2.0000     -10.240839      -278.6674
  48   2.0000     -10.240675      -278.6629
  49   2.0000     -10.239102      -278.6201
  50   2.0000     -10.238484      -278.6033
  51   2.0000     -10.237463      -278.5755
  52   2.0000     -10.236980      -278.5624
  53   2.0000     -10.236763      -278.5565
  54   2.0000     -10.236535      -278.5503
  55   2.0000     -10.236526      -278.5500
  56   2.0000     -10.235896      -278.5329
  57   2.0000     -10.235889      -278.5327
  58   2.0000     -10.234912      -278.5061
  59   2.0000     -10.233129      -278.4576
  60   2.0000     -10.232902      -278.4514
  61   2.0000     -10.232297      -278.4350
  62   2.0000     -10.231501      -278.4133
  63   2.0000     -10.225039      -278.2375
  64   2.0000     -10.224628      -278.2263
  65   2.0000     -10.224584      -278.2251
  66   2.0000     -10.223939      -278.2075
  67   2.0000     -10.222977      -278.1813
  68   2.0000     -10.222284      -278.1625
  69   2.0000     -10.222203      -278.1603
  70   2.0000     -10.221144      -278.1315
  71   2.0000     -10.220616      -278.1171
  72   2.0000     -10.220590      -278.1164
  73   2.0000     -10.208116      -277.7770
  74   2.0000     -10.203224      -277.6438
  75   2.0000     -10.197526      -277.4888
  76   2.0000     -10.194070      -277.3947
  77   2.0000     -10.177635      -276.9475
  78   2.0000     -10.172320      -276.8029
  79   2.0000      -8.018497      -218.1944
  80   2.0000      -7.985408      -217.2940
  81   2.0000      -7.985265      -217.2901
  82   2.0000      -7.863704      -213.9823
  83   2.0000      -7.863499      -213.9767
  84   2.0000      -5.983211      -162.8114
  85   2.0000      -5.976159      -162.6195
  86   2.0000      -5.974959      -162.5869
  87   2.0000      -5.948358      -161.8631
  88   2.0000      -5.948210      -161.8590
  89   2.0000      -5.944660      -161.7624
  90   2.0000      -5.944510      -161.7583
  91   2.0000      -5.941221      -161.6689
  92   2.0000      -5.941045      -161.6640
  93   2.0000      -5.807674      -158.0349
  94   2.0000      -5.807507      -158.0303
  95   2.0000      -5.804336      -157.9440
  96   2.0000      -5.804175      -157.9396
  97   2.0000      -5.799941      -157.8244
  98   2.0000      -5.799653      -157.8166
  99   2.0000      -2.161165       -58.8083
 100   2.0000      -2.161005       -58.8039
 101   2.0000      -2.160800       -58.7984
 102   2.0000      -2.160687       -58.7953
 103   2.0000      -2.156472       -58.6806
 104   2.0000      -2.156171       -58.6724
 105   2.0000      -2.153744       -58.6064
 106   2.0000      -2.153500       -58.5997
 107   2.0000      -2.153222       -58.5921
 108   2.0000      -2.152967       -58.5852
 109   2.0000      -1.274818       -34.6896
 110   2.0000      -1.274622       -34.6842
 111   2.0000      -1.260673       -34.3047
 112   2.0000      -1.260304       -34.2946
 113   2.0000      -1.066505       -29.0211
 114   2.0000      -1.065430       -28.9918
 115   2.0000      -1.037398       -28.2290
 116   2.0000      -1.024789       -27.8859
 117   2.0000      -1.023184       -27.8422
 118   2.0000      -0.942177       -25.6379
 119   2.0000      -0.941248       -25.6127
 120   2.0000      -0.924443       -25.1554
 121   2.0000      -0.923790       -25.1376
 122   2.0000      -0.923152       -25.1202
 123   2.0000      -0.922459       -25.1014
 124   2.0000      -0.921337       -25.0709
 125   2.0000      -0.920476       -25.0474
 126   2.0000      -0.904317       -24.6077
 127   2.0000      -0.886545       -24.1241
 128   2.0000      -0.881001       -23.9733
 129   2.0000      -0.878973       -23.9181
 130   2.0000      -0.868468       -23.6322
 131   2.0000      -0.860531       -23.4162
 132   2.0000      -0.835755       -22.7421
 133   2.0000      -0.826844       -22.4996
 134   2.0000      -0.823951       -22.4209
 135   2.0000      -0.816597       -22.2207
 136   2.0000      -0.808567       -22.0022
 137   2.0000      -0.807770       -21.9805
 138   2.0000      -0.803186       -21.8558
 139   2.0000      -0.801219       -21.8023
 140   2.0000      -0.799278       -21.7495
 141   2.0000      -0.798693       -21.7336
 142   2.0000      -0.780553       -21.2399
 143   2.0000      -0.775205       -21.0944
 144   2.0000      -0.757100       -20.6017
 145   2.0000      -0.756330       -20.5808
 146   2.0000      -0.749356       -20.3910
 147   2.0000      -0.739150       -20.1133
 148   2.0000      -0.726163       -19.7599
 149   2.0000      -0.718406       -19.5488
 150   2.0000      -0.713491       -19.4151
 151   2.0000      -0.699814       -19.0429
 152   2.0000      -0.699021       -19.0213
 153   2.0000      -0.693889       -18.8817
 154   2.0000      -0.685395       -18.6505
 155   2.0000      -0.682811       -18.5802
 156   2.0000      -0.670526       -18.2459
 157   2.0000      -0.659385       -17.9428
 158   2.0000      -0.654690       -17.8150
 159   2.0000      -0.645386       -17.5619
 160   2.0000      -0.641090       -17.4449
 161   2.0000      -0.638393       -17.3716
 162   2.0000      -0.636675       -17.3248
 163   2.0000      -0.630479       -17.1562
 164   2.0000      -0.628172       -17.0934
 165   2.0000      -0.619107       -16.8468
 166   2.0000      -0.610543       -16.6137
 167   2.0000      -0.600525       -16.3411
 168   2.0000      -0.596222       -16.2240
 169   2.0000      -0.594594       -16.1797
 170   2.0000      -0.591787       -16.1033
 171   2.0000      -0.583843       -15.8872
 172   2.0000      -0.575752       -15.6670
 173   2.0000      -0.575369       -15.6566
 174   2.0000      -0.572214       -15.5707
 175   2.0000      -0.566439       -15.4136
 176   2.0000      -0.561202       -15.2711
 177   2.0000      -0.548639       -14.9292
 178   2.0000      -0.548064       -14.9136
 179   2.0000      -0.544203       -14.8085
 180   2.0000      -0.537474       -14.6254
 181   2.0000      -0.529304       -14.4031
 182   2.0000      -0.525792       -14.3075
 183   2.0000      -0.524135       -14.2624
 184   2.0000      -0.523895       -14.2559
 185   2.0000      -0.523584       -14.2475
 186   2.0000      -0.518236       -14.1019
 187   2.0000      -0.512846       -13.9552
 188   2.0000      -0.510717       -13.8973
 189   2.0000      -0.506104       -13.7718
 190   2.0000      -0.500308       -13.6141
 191   2.0000      -0.491142       -13.3646
 192   2.0000      -0.489497       -13.3199
 193   2.0000      -0.489180       -13.3113
 194   2.0000      -0.489073       -13.3084
 195   2.0000      -0.487062       -13.2536
 196   2.0000      -0.484177       -13.1751
 197   2.0000      -0.483728       -13.1629
 198   2.0000      -0.478042       -13.0082
 199   2.0000      -0.476670       -12.9708
 200   2.0000      -0.474736       -12.9182
 201   2.0000      -0.471629       -12.8337
 202   2.0000      -0.468054       -12.7364
 203   2.0000      -0.466675       -12.6989
 204   2.0000      -0.465433       -12.6651
 205   2.0000      -0.463608       -12.6154
 206   2.0000      -0.463239       -12.6054
 207   2.0000      -0.462327       -12.5806
 208   2.0000      -0.458133       -12.4664
 209   2.0000      -0.457160       -12.4399
 210   2.0000      -0.454868       -12.3776
 211   2.0000      -0.446765       -12.1571
 212   2.0000      -0.445791       -12.1306
 213   2.0000      -0.439565       -11.9612
 214   2.0000      -0.438693       -11.9374
 215   2.0000      -0.435461       -11.8495
 216   2.0000      -0.433287       -11.7903
 217   2.0000      -0.432818       -11.7776
 218   2.0000      -0.430521       -11.7151
 219   2.0000      -0.428458       -11.6589
 220   2.0000      -0.426979       -11.6187
 221   2.0000      -0.425138       -11.5686
 222   2.0000      -0.423053       -11.5119
 223   2.0000      -0.420074       -11.4308
 224   2.0000      -0.418507       -11.3881
 225   2.0000      -0.417586       -11.3631
 226   2.0000      -0.415819       -11.3150
 227   2.0000      -0.408314       -11.1108
 228   2.0000      -0.405674       -11.0389
 229   2.0000      -0.403221       -10.9722
 230   2.0000      -0.400057       -10.8861
 231   2.0000      -0.397445       -10.8150
 232   2.0000      -0.396075       -10.7777
 233   2.0000      -0.395036       -10.7495
 234   2.0000      -0.394414       -10.7326
 235   2.0000      -0.393345       -10.7035
 236   2.0000      -0.391582       -10.6555
 237   2.0000      -0.390933       -10.6378
 238   2.0000      -0.390741       -10.6326
 239   2.0000      -0.387979       -10.5574
 240   2.0000      -0.385636       -10.4937
 241   2.0000      -0.385179       -10.4812
 242   2.0000      -0.384161       -10.4536
 243   2.0000      -0.382404       -10.4057
 244   2.0000      -0.379639       -10.3305
 245   2.0000      -0.370480       -10.0813
 246   2.0000      -0.368002       -10.0139
 247   2.0000      -0.365627        -9.9492
 248   2.0000      -0.364542        -9.9197
 249   2.0000      -0.363670        -9.8960
 250   2.0000      -0.362900        -9.8750
 251   2.0000      -0.361252        -9.8302
 252   2.0000      -0.360332        -9.8051
 253   2.0000      -0.357569        -9.7300
 254   2.0000      -0.353600        -9.6220
 255   2.0000      -0.351432        -9.5630
 256   2.0000      -0.349950        -9.5226
 257   2.0000      -0.349242        -9.5033
 258   2.0000      -0.348642        -9.4870
 259   2.0000      -0.345609        -9.4045
 260   2.0000      -0.343475        -9.3464
 261   2.0000      -0.338852        -9.2206
 262   2.0000      -0.336430        -9.1547
 263   2.0000      -0.335887        -9.1400
 264   2.0000      -0.316287        -8.6066
 265   2.0000      -0.308637        -8.3984
 266   2.0000      -0.303136        -8.2488
 267   2.0000      -0.298994        -8.1360
 268   2.0000      -0.296295        -8.0626
 269   2.0000      -0.290349        -7.9008
 270   2.0000      -0.285199        -7.7607
 271   2.0000      -0.283248        -7.7076
 272   2.0000      -0.280763        -7.6400
 273   2.0000      -0.271801        -7.3961
 274   2.0000      -0.269016        -7.3203
 275   2.0000      -0.263331        -7.1656
 276   2.0000      -0.261449        -7.1144
 277   2.0000      -0.243795        -6.6340
 278   2.0000      -0.238712        -6.4957
 279   2.0000      -0.235856        -6.4180
 280   2.0000      -0.208734        -5.6799
 281   0.0000      -0.136827        -3.7233
 282   0.0000      -0.128580        -3.4988
 283   0.0000      -0.112916        -3.0726
 284   0.0000      -0.109897        -2.9905
 285   0.0000      -0.095789        -2.6066

MULLIKEN ATOMIC CHARGES
-----------------------
   0 C :    0.246750
   1 O :   -0.335427
   2 C :    0.074066
   3 C :   -0.296276
   4 C :    0.280446
   5 F :   -0.175269
   6 C :    0.255723
   7 F :   -0.172462
   8 C :   -0.261362
   9 C :    0.089213
  10 C :    0.060572
  11 C :    0.138715
  12 C :   -0.201250
  13 N :    0.020390
  14 C :   -0.202129
  15 N :    0.008323
  16 C :   -0.167474
  17 C :   -0.167898
  18 C :    0.061115
  19 Se:    0.163484
  20 C :   -0.279300
  21 C :    0.098901
  22 C :    0.015027
  23 C :   -0.235653
  24 C :   -0.351986
  25 S :    0.039629
  26 C :   -0.139529
  27 C :    0.252574
  28 N :   -0.105246
  29 C :   -0.120285
  30 C :   -0.349416
  31 C :   -0.008751
  32 C :    0.138443
  33 C :   -0.027099
  34 N :   -0.255325
  35 S :    0.333251
  36 N :   -0.252117
  37 C :   -0.006161
  38 C :    0.083370
  39 C :    0.040130
  40 N :   -0.025726
  41 C :   -0.239788
  42 C :   -0.338324
  43 C :    0.255677
  44 C :   -0.144765
  45 S :    0.022543
  46 C :    0.070692
  47 C :   -0.222402
  48 Se:    0.157854
  49 C :    0.049161
  50 C :    0.018426
  51 C :   -0.175343
  52 C :   -0.368726
  53 C :   -0.211579
  54 C :   -0.070284
  55 C :    0.039315
  56 C :    0.141513
  57 C :   -0.194990
  58 N :    0.006188
  59 C :   -0.213707
  60 N :    0.020774
  61 C :    0.067793
  62 C :   -0.264830
  63 C :    0.253295
  64 F :   -0.172117
  65 C :    0.282998
  66 F :   -0.175011
  67 C :   -0.301709
  68 C :    0.098680
  69 C :    0.176698
  70 O :   -0.323115
  71 H :    0.150736
  72 H :    0.167882
  73 H :    0.155233
  74 H :    0.157440
  75 H :    0.099958
  76 H :    0.127157
  77 H :    0.117946
  78 H :    0.114013
  79 H :    0.108854
  80 H :    0.116007
  81 H :    0.128124
  82 H :    0.127388
  83 H :    0.139768
  84 H :    0.139676
  85 H :    0.157277
  86 H :    0.136329
  87 H :    0.126426
  88 H :    0.133487
  89 H :    0.117064
  90 H :    0.112848
  91 H :    0.152292
  92 H :    0.110918
  93 H :    0.116716
  94 H :    0.160920
  95 H :    0.167097
  96 H :    0.149543
Sum of atomic charges:   -0.0000000

LOEWDIN ATOMIC CHARGES
----------------------
   0 C :   -0.249486
   1 O :    0.138709
   2 C :   -0.061890
   3 C :   -0.049004
   4 C :   -0.231441
   5 F :    0.224503
   6 C :   -0.231128
   7 F :    0.226780
   8 C :   -0.052420
   9 C :   -0.041429
  10 C :    0.013847
  11 C :   -0.134967
  12 C :   -0.156043
  13 N :    0.075010
  14 C :   -0.150714
  15 N :    0.074740
  16 C :   -0.086386
  17 C :   -0.071010
  18 C :   -0.251764
  19 Se:    0.667455
  20 C :   -0.308089
  21 C :   -0.312017
  22 C :   -0.118495
  23 C :   -0.234732
  24 C :   -0.291496
  25 S :    0.755638
  26 C :   -0.292398
  27 C :   -0.180231
  28 N :    0.275573
  29 C :   -0.266928
  30 C :   -0.298638
  31 C :   -0.086124
  32 C :   -0.088700
  33 C :   -0.243308
  34 N :   -0.118661
  35 S :    0.644582
  36 N :   -0.119781
  37 C :   -0.243705
  38 C :   -0.090903
  39 C :   -0.085335
  40 N :    0.288334
  41 C :   -0.269178
  42 C :   -0.304413
  43 C :   -0.178448
  44 C :   -0.293078
  45 S :    0.756526
  46 C :   -0.304405
  47 C :   -0.306356
  48 Se:    0.674742
  49 C :   -0.258452
  50 C :   -0.117708
  51 C :   -0.231233
  52 C :   -0.303413
  53 C :   -0.067172
  54 C :   -0.088881
  55 C :    0.014245
  56 C :   -0.135439
  57 C :   -0.151596
  58 N :    0.073342
  59 C :   -0.158477
  60 N :    0.073434
  61 C :   -0.040670
  62 C :   -0.052567
  63 C :   -0.230226
  64 F :    0.225901
  65 C :   -0.232480
  66 F :    0.225749
  67 C :   -0.049528
  68 C :   -0.062612
  69 C :   -0.254213
  70 O :    0.144377
  71 H :    0.166225
  72 H :    0.170161
  73 H :    0.170431
  74 H :    0.156720
  75 H :    0.141631
  76 H :    0.122468
  77 H :    0.122836
  78 H :    0.123947
  79 H :    0.134901
  80 H :    0.138841
  81 H :    0.124878
  82 H :    0.128594
  83 H :    0.129796
  84 H :    0.143060
  85 H :    0.139344
  86 H :    0.122618
  87 H :    0.129893
  88 H :    0.124951
  89 H :    0.149509
  90 H :    0.152933
  91 H :    0.128666
  92 H :    0.123029
  93 H :    0.110612
  94 H :    0.171351
  95 H :    0.170707
  96 H :    0.166177

  Mayer bond orders larger than 0.100000
B(  0-C ,  1-O ) :   2.0389 B(  0-C ,  2-C ) :   0.9825 B(  0-C , 16-C ) :   1.0014
B(  1-O ,  2-C ) :  -0.1397 B(  2-C ,  3-C ) :   1.3065 B(  2-C ,  9-C ) :   1.3239
B(  3-C ,  4-C ) :   1.3627 B(  3-C , 71-H ) :   0.9767 B(  4-C ,  5-F ) :   1.0678
B(  4-C ,  6-C ) :   1.3312 B(  6-C ,  7-F ) :   1.0811 B(  6-C ,  8-C ) :   1.4013
B(  8-C ,  9-C ) :   1.3039 B(  8-C , 72-H ) :   0.9307 B(  9-C , 10-C ) :   1.0274
B( 10-C , 11-C ) :   1.4653 B( 10-C , 16-C ) :   1.0977 B( 11-C , 12-C ) :   1.0191
B( 11-C , 14-C ) :   1.0278 B( 12-C , 13-N ) :   2.9959 B( 14-C , 15-N ) :   2.9745
B( 16-C , 17-C ) :   1.4693 B( 17-C , 18-C ) :   1.2279 B( 17-C , 73-H ) :   0.9251
B( 18-C , 19-Se) :   1.0782 B( 18-C , 22-C ) :   1.4344 B( 19-Se, 20-C ) :   1.2281
B( 19-Se, 22-C ) :   0.1072 B( 20-C , 21-C ) :   1.4004 B( 20-C , 25-S ) :   0.1205
B( 20-C , 27-C ) :   1.2119 B( 21-C , 22-C ) :   1.1884 B( 21-C , 25-S ) :   1.1865
B( 22-C , 23-C ) :   0.9285 B( 23-C , 24-C ) :   0.9642 B( 23-C , 74-H ) :   0.9530
B( 23-C , 75-H ) :   0.9649 B( 24-C , 76-H ) :   0.9743 B( 24-C , 77-H ) :   0.9746
B( 24-C , 78-H ) :   0.9703 B( 25-S , 26-C ) :   1.3581 B( 26-C , 27-C ) :   1.2724
B( 26-C , 32-C ) :   1.1503 B( 27-C , 28-N ) :   1.1258 B( 28-N , 29-C ) :   0.9097
B( 28-N , 31-C ) :   1.1788 B( 29-C , 30-C ) :   0.9626 B( 29-C , 79-H ) :   0.9581
B( 29-C , 80-H ) :   0.9596 B( 30-C , 81-H ) :   0.9672 B( 30-C , 82-H ) :   0.9681
B( 30-C , 83-H ) :   0.9667 B( 31-C , 32-C ) :   1.2805 B( 31-C , 39-C ) :   1.2975
B( 32-C , 33-C ) :   1.0764 B( 33-C , 34-N ) :   1.6118 B( 33-C , 35-S ) :   0.1120
B( 33-C , 37-C ) :   1.1758 B( 34-N , 35-S ) :   1.2594 B( 34-N , 36-N ) :   0.1113
B( 35-S , 36-N ) :   1.2565 B( 35-S , 37-C ) :   0.1159 B( 36-N , 37-C ) :   1.6076
B( 37-C , 38-C ) :   1.1018 B( 38-C , 39-C ) :   1.2139 B( 38-C , 44-C ) :   1.1613
B( 39-C , 40-N ) :   1.2320 B( 40-N , 41-C ) :   0.8686 B( 40-N , 43-C ) :   1.1148
B( 41-C , 42-C ) :   0.9304 B( 41-C , 84-H ) :   0.9582 B( 41-C , 85-H ) :   0.9740
B( 42-C , 86-H ) :   0.9618 B( 42-C , 87-H ) :   0.9687 B( 42-C , 88-H ) :   0.9755
B( 43-C , 44-C ) :   1.2591 B( 43-C , 47-C ) :   1.2093 B( 44-C , 45-S ) :   1.3876
B( 45-S , 46-C ) :   1.1526 B( 45-S , 47-C ) :   0.1023 B( 46-C , 47-C ) :   1.3728
B( 46-C , 50-C ) :   1.2130 B( 47-C , 48-Se) :   1.2515 B( 48-Se, 49-C ) :   1.1051
B( 49-C , 50-C ) :   1.3982 B( 49-C , 53-C ) :   1.2501 B( 50-C , 51-C ) :   0.9735
B( 51-C , 52-C ) :   0.9627 B( 51-C , 89-H ) :   0.9750 B( 51-C , 90-H ) :   0.9336
B( 52-C , 91-H ) :   0.9736 B( 52-C , 92-H ) :   0.9720 B( 52-C , 93-H ) :   0.9624
B( 53-C , 54-C ) :   1.4803 B( 53-C , 94-H ) :   0.9081 B( 54-C , 55-C ) :   1.1414
B( 54-C , 69-C ) :   1.0350 B( 55-C , 56-C ) :   1.4613 B( 55-C , 61-C ) :   1.0228
B( 56-C , 57-C ) :   1.0255 B( 56-C , 59-C ) :   1.0203 B( 57-C , 58-N ) :   2.9721
B( 59-C , 60-N ) :   3.0003 B( 61-C , 62-C ) :   1.3075 B( 61-C , 68-C ) :   1.3347
B( 62-C , 63-C ) :   1.4019 B( 62-C , 95-H ) :   0.9288 B( 63-C , 64-F ) :   1.0867
B( 63-C , 65-C ) :   1.3293 B( 65-C , 66-F ) :   1.0678 B( 65-C , 67-C ) :   1.3643
B( 67-C , 68-C ) :   1.3050 B( 67-C , 96-H ) :   0.9784 B( 68-C , 69-C ) :   0.9631
B( 68-C , 70-O ) :  -0.1502 B( 69-C , 70-O ) :   2.0637

-----------------------------------------------------------------------------
  SOC CORRECTED ABSORPTION SPECTRUM VIA TRANSITION ELECTRIC DIPOLE MOMENTS*
-----------------------------------------------------------------------------
State   Energy  Wavelength   fosc         T2         TX        TY        TZ
        (cm-1)    (nm)                  (au**2)     (au)      (au)      (au)
-----------------------------------------------------------------------------
   1   10440.7    957.8   0.000000002   0.00000   0.00008   0.00020   0.00012
   2   10440.7    957.8   0.000000408   0.00001   0.00089   0.00148   0.00314
   3   10440.7    957.8   0.000000070   0.00000   0.00116   0.00006   0.00092
   4   12177.0    821.2   0.000011668   0.00032   0.00454   0.00735   0.01552
   5   12177.0    821.2   0.000000030   0.00000   0.00019   0.00038   0.00079
   6   12177.0    821.2   0.000000940   0.00003   0.00254   0.00102   0.00423
   7   14531.0    688.2   2.463817475  55.81997   1.89399   3.15010   6.50459
   8   16195.6    617.5   0.000018585   0.00038   0.01237   0.01490   0.00161
   9   16195.6    617.5   0.000000763   0.00002   0.00109   0.00145   0.00349
  10   16195.6    617.5   0.000000034   0.00000   0.00019   0.00028   0.00076
  11   16442.9    608.2   0.083956434   1.68094   0.84223   0.97253   0.16050
  12   18507.4    540.3   0.332191900   5.90908   0.61561   0.97806   2.13858

FINAL SINGLE POINT ENERGY     -8981.654772703012

DIPOLE MOMENT
-------------
                                X             Y             Z
Electronic contribution:     31.33507     -19.07858       3.24502
Nuclear contribution   :    -31.82798      20.29936      -2.74321
                        -----------------------------------------
Total Dipole Moment    :     -0.49291       1.22078       0.50181
                        -----------------------------------------
Magnitude (a.u.)       :      1.40893
Magnitude (Debye)      :      3.58122

Rotational constants in cm-1:     0.001803     0.000222     0.000218
Rotational constants in MHz :    54.064800     6.643127     6.527228

                             ****ORCA TERMINATED NORMALLY****
TOTAL RUN TIME: 0 days 2 hours 16 minutes 27 seconds 236 msec
