                         Program Version 4.2.0 -  RELEASE  -
|  1> # ORCA input file
|  2> # F-2F.out
|  3> ! B3LYP def2-TZVP def2/J RIJCOSX Grid4 TightSCF
|  4>
|  5> %maxcore 2000
|  6> %tddft
|  7>   maxdim 5
|  8>   nroots 3
|  9>   dosoc true
| 10>   end
| 11>
| 12>
| 13>
| 14> * xyz 0 1
| 15>    C        3.26108        -0.86534         1.50009
| 16>    O        3.48750         0.29369         1.20413
| 17>    C        1.98805        -1.39197         2.03768
| 18>    C        0.82389        -0.70374         2.31350
| 19>    C       -0.24448        -1.42661         2.81966
| 20>    F       -1.39358        -0.80080         3.10334
| 21>    C       -0.13334        -2.79976         3.03675
| 22>    F       -1.18059        -3.47341         3.52631
| 23>    C        1.03751        -3.49026         2.75896
| 24>    C        2.11105        -2.77447         2.25328
| 25>    C        3.46128        -3.19273         1.86908
| 26>    C        3.94193        -4.47353         1.96340
| 27>    C        5.24160        -4.89800         1.61594
| 28>    N        6.27619        -5.32865         1.36171
| 29>    C        3.18809        -5.56866         2.43680
| 30>    N        2.63392        -6.50099         2.81244
| 31>    C        4.16233        -2.01457         1.40295
| 32>    C       16.07039        14.33566        -1.38539
| 33>    O       15.38483        15.12025        -0.77203
| 34>    C       17.52165        14.43174        -1.67028
| 35>    C       18.42372        15.38543        -1.24334
| 36>    C       19.74931        15.23038        -1.61776
| 37>    F       20.65926        16.12830        -1.22092
| 38>    C       20.14661        14.14573        -2.39965
| 39>    F       21.43554        14.01335        -2.73284
| 40>    C       19.23849        13.19316        -2.83874
| 41>    C       17.91261        13.34214        -2.46743
| 42>    C       16.72772        12.53849        -2.77894
| 43>    C       16.63274        11.65959        -3.82885
| 44>    C       15.41669        11.10791        -4.27804
| 45>    N       14.44924        10.64951        -4.69252
| 46>    C       17.72472        11.26000        -4.62492
| 47>    N       18.58346        10.87310        -5.28117
| 48>    C       15.64710        13.03783        -1.96647
| 49>    C        8.07253         2.38295        -0.37663
| 50>    C        9.40594         2.02160        -0.67637
| 51>    C       10.34577         2.99057        -0.93960
| 52>    C        9.94033         4.32078        -0.86915
| 53>    C        8.61240         4.68038        -0.56035
| 54>    C        7.65817         3.71237        -0.33833
| 55>    C        8.46460         6.18433        -0.53566
| 56>    C        7.40052         6.67537        -1.52951
| 57>    C        7.71608         6.27065        -2.96496
| 58>    C        8.20101         6.72008         0.89238
| 59>    C        6.91938         6.24372         1.56269
| 60>    C        9.85623         6.63384        -0.92451
| 61>    C       10.70772         5.52596        -1.08953
| 62>    C       12.05754         5.67524        -1.39754
| 63>    C       12.54863         6.95368        -1.53685
| 64>    C       11.69264         8.06341        -1.33893
| 65>    C       10.33990         7.91664        -1.04398
| 66>    C        5.46067        -1.98392         0.94762
| 67>    C       14.43207        12.52450        -1.59603
| 68>    C       12.50119         9.23452        -1.43880
| 69>    C       13.83238         8.89711        -1.67930
| 70>    C       13.97266         7.40323        -1.82472
| 71>    S       12.25454        10.91648        -1.30886
| 72>    C       13.95904        11.20428        -1.63141
| 73>    C       14.65017        10.00466        -1.80349
| 74>    C        9.57780         0.51240        -0.67597
| 75>    C        8.20893         0.07237        -0.23269
| 76>    C        7.35806         1.17653        -0.10352
| 77>    C        7.58923        -1.10401         0.11893
| 78>    C        6.25229        -0.91845         0.51311
| 79>    S        5.78654         0.77587         0.42479
| 80>    C       14.37856         7.13059        -3.29112
| 81>    C       14.91982         6.77578        -0.78493
| 82>    C       10.67487         0.05434         0.29706
| 83>    C        9.87743         0.06888        -2.12587
| 84>    C       10.46108         0.58374         1.71054
| 85>    C        9.87240        -1.43712        -2.35091
| 86>    C       14.46218         5.66392        -3.69005
| 87>    C       16.37906         7.19861        -0.89116
| 88>    H        0.74332         0.35804         2.14378
| 89>    H        1.06980        -4.55095         2.94537
| 90>    H       18.11493        16.22300        -0.63854
| 91>    H       19.59314        12.37114        -3.43902
| 92>    H       11.36650         2.73681        -1.18208
| 93>    H        6.62434         3.94814        -0.14247
| 94>    H        7.33428         7.76320        -1.46450
| 95>    H        6.43196         6.26072        -1.24856
| 96>    H        8.66517         6.69397        -3.28637
| 97>    H        6.93670         6.62786        -3.63374
| 98>    H        7.77593         5.18797        -3.05410
| 99>    H        8.18634         7.81059         0.83529
|100>    H        9.05066         6.43495         1.51882
|101>    H        6.04522         6.47537         0.96052
|102>    H        6.80982         6.74772         2.52054
|103>    H        6.94933         5.17396         1.74896
|104>    H       12.69083         4.80815        -1.49842
|105>    H        9.71547         8.78585        -0.90380
|106>    H        5.98366        -2.93238         0.92516
|107>    H       13.77422        13.24738        -1.12192
|108>    H       15.71210         9.97251        -1.96340
|109>    H        8.04630        -2.07770         0.13129
|110>    H       15.34227         7.61018        -3.46912
|111>    H       13.65051         7.63199        -3.93330
|112>    H       14.85579         5.69089        -0.87638
|113>    H       14.54416         7.04079         0.20726
|114>    H       11.64139         0.39702        -0.07759
|115>    H       10.69013        -1.03557         0.32483
|116>    H       10.85190         0.47345        -2.40710
|117>    H        9.12919         0.52603        -2.77865
|118>    H       10.45909         1.67155         1.72051
|119>    H       11.25712         0.23476         2.36384
|120>    H        9.51202         0.23580         2.11211
|121>    H       10.61903        -1.93323        -1.73712
|122>    H       10.10018        -1.64705        -3.39346
|123>    H        8.89636        -1.85868        -2.12725
|124>    H       15.16717         5.12040        -3.06631
|125>    H       14.80222         5.59457        -4.72080
|126>    H       13.48810         5.18692        -3.62513
|127>    H       16.79079         6.96343        -1.86867
|128>    H       16.96351         6.66812        -0.14249
|129>    H       16.49134         8.26355        -0.70858
|130> *
|131>
|132>                          ****END OF INPUT****

CARTESIAN COORDINATES (ANGSTROEM)
---------------------------------
  C      3.261080   -0.865340    1.500090
  O      3.487500    0.293690    1.204130
  C      1.988050   -1.391970    2.037680
  C      0.823890   -0.703740    2.313500
  C     -0.244480   -1.426610    2.819660
  F     -1.393580   -0.800800    3.103340
  C     -0.133340   -2.799760    3.036750
  F     -1.180590   -3.473410    3.526310
  C      1.037510   -3.490260    2.758960
  C      2.111050   -2.774470    2.253280
  C      3.461280   -3.192730    1.869080
  C      3.941930   -4.473530    1.963400
  C      5.241600   -4.898000    1.615940
  N      6.276190   -5.328650    1.361710
  C      3.188090   -5.568660    2.436800
  N      2.633920   -6.500990    2.812440
  C      4.162330   -2.014570    1.402950
  C     16.070390   14.335660   -1.385390
  O     15.384830   15.120250   -0.772030
  C     17.521650   14.431740   -1.670280
  C     18.423720   15.385430   -1.243340
  C     19.749310   15.230380   -1.617760
  F     20.659260   16.128300   -1.220920
  C     20.146610   14.145730   -2.399650
  F     21.435540   14.013350   -2.732840
  C     19.238490   13.193160   -2.838740
  C     17.912610   13.342140   -2.467430
  C     16.727720   12.538490   -2.778940
  C     16.632740   11.659590   -3.828850
  C     15.416690   11.107910   -4.278040
  N     14.449240   10.649510   -4.692520
  C     17.724720   11.260000   -4.624920
  N     18.583460   10.873100   -5.281170
  C     15.647100   13.037830   -1.966470
  C      8.072530    2.382950   -0.376630
  C      9.405940    2.021600   -0.676370
  C     10.345770    2.990570   -0.939600
  C      9.940330    4.320780   -0.869150
  C      8.612400    4.680380   -0.560350
  C      7.658170    3.712370   -0.338330
  C      8.464600    6.184330   -0.535660
  C      7.400520    6.675370   -1.529510
  C      7.716080    6.270650   -2.964960
  C      8.201010    6.720080    0.892380
  C      6.919380    6.243720    1.562690
  C      9.856230    6.633840   -0.924510
  C     10.707720    5.525960   -1.089530
  C     12.057540    5.675240   -1.397540
  C     12.548630    6.953680   -1.536850
  C     11.692640    8.063410   -1.338930
  C     10.339900    7.916640   -1.043980
  C      5.460670   -1.983920    0.947620
  C     14.432070   12.524500   -1.596030
  C     12.501190    9.234520   -1.438800
  C     13.832380    8.897110   -1.679300
  C     13.972660    7.403230   -1.824720
  S     12.254540   10.916480   -1.308860
  C     13.959040   11.204280   -1.631410
  C     14.650170   10.004660   -1.803490
  C      9.577800    0.512400   -0.675970
  C      8.208930    0.072370   -0.232690
  C      7.358060    1.176530   -0.103520
  C      7.589230   -1.104010    0.118930
  C      6.252290   -0.918450    0.513110
  S      5.786540    0.775870    0.424790
  C     14.378560    7.130590   -3.291120
  C     14.919820    6.775780   -0.784930
  C     10.674870    0.054340    0.297060
  C      9.877430    0.068880   -2.125870
  C     10.461080    0.583740    1.710540
  C      9.872400   -1.437120   -2.350910
  C     14.462180    5.663920   -3.690050
  C     16.379060    7.198610   -0.891160
  H      0.743320    0.358040    2.143780
  H      1.069800   -4.550950    2.945370
  H     18.114930   16.223000   -0.638540
  H     19.593140   12.371140   -3.439020
  H     11.366500    2.736810   -1.182080
  H      6.624340    3.948140   -0.142470
  H      7.334280    7.763200   -1.464500
  H      6.431960    6.260720   -1.248560
  H      8.665170    6.693970   -3.286370
  H      6.936700    6.627860   -3.633740
  H      7.775930    5.187970   -3.054100
  H      8.186340    7.810590    0.835290
  H      9.050660    6.434950    1.518820
  H      6.045220    6.475370    0.960520
  H      6.809820    6.747720    2.520540
  H      6.949330    5.173960    1.748960
  H     12.690830    4.808150   -1.498420
  H      9.715470    8.785850   -0.903800
  H      5.983660   -2.932380    0.925160
  H     13.774220   13.247380   -1.121920
  H     15.712100    9.972510   -1.963400
  H      8.046300   -2.077700    0.131290
  H     15.342270    7.610180   -3.469120
  H     13.650510    7.631990   -3.933300
  H     14.855790    5.690890   -0.876380
  H     14.544160    7.040790    0.207260
  H     11.641390    0.397020   -0.077590
  H     10.690130   -1.035570    0.324830
  H     10.851900    0.473450   -2.407100
  H      9.129190    0.526030   -2.778650
  H     10.459090    1.671550    1.720510
  H     11.257120    0.234760    2.363840
  H      9.512020    0.235800    2.112110
  H     10.619030   -1.933230   -1.737120
  H     10.100180   -1.647050   -3.393460
  H      8.896360   -1.858680   -2.127250
  H     15.167170    5.120400   -3.066310
  H     14.802220    5.594570   -4.720800
  H     13.488100    5.186920   -3.625130
  H     16.790790    6.963430   -1.868670
  H     16.963510    6.668120   -0.142490
  H     16.491340    8.263550   -0.708580

 Total Charge           Charge          ....    0
 Multiplicity           Mult            ....    1
 Number of Electrons    NEL             ....  520
 Basis Dimension        Dim             .... 2527

ORBITAL ENERGIES
----------------

  NO   OCC          E(Eh)            E(eV)
   0   2.0000     -88.913991     -2419.4727
   1   2.0000     -88.906062     -2419.2569
   2   2.0000     -24.725010      -672.8017
   3   2.0000     -24.724533      -672.7887
   4   2.0000     -24.724486      -672.7875
   5   2.0000     -24.722536      -672.7344
   6   2.0000     -19.137614      -520.7609
   7   2.0000     -19.131833      -520.6037
   8   2.0000     -14.331228      -389.9725
   9   2.0000     -14.330379      -389.9494
  10   2.0000     -14.330363      -389.9490
  11   2.0000     -14.326127      -389.8337
  12   2.0000     -10.300449      -280.2895
  13   2.0000     -10.299582      -280.2659
  14   2.0000     -10.298969      -280.2492
  15   2.0000     -10.298300      -280.2310
  16   2.0000     -10.279920      -279.7308
  17   2.0000     -10.277312      -279.6599
  18   2.0000     -10.257617      -279.1240
  19   2.0000     -10.256688      -279.0987
  20   2.0000     -10.255465      -279.0654
  21   2.0000     -10.254257      -279.0325
  22   2.0000     -10.236271      -278.5431
  23   2.0000     -10.234715      -278.5008
  24   2.0000     -10.234192      -278.4865
  25   2.0000     -10.230951      -278.3983
  26   2.0000     -10.230351      -278.3820
  27   2.0000     -10.229369      -278.3553
  28   2.0000     -10.229112      -278.3483
  29   2.0000     -10.228843      -278.3410
  30   2.0000     -10.228681      -278.3366
  31   2.0000     -10.228190      -278.3232
  32   2.0000     -10.225949      -278.2622
  33   2.0000     -10.224958      -278.2353
  34   2.0000     -10.220583      -278.1162
  35   2.0000     -10.220437      -278.1122
  36   2.0000     -10.219647      -278.0907
  37   2.0000     -10.218219      -278.0519
  38   2.0000     -10.216859      -278.0149
  39   2.0000     -10.215308      -277.9727
  40   2.0000     -10.215289      -277.9722
  41   2.0000     -10.213514      -277.9239
  42   2.0000     -10.212855      -277.9059
  43   2.0000     -10.212569      -277.8981
  44   2.0000     -10.211791      -277.8770
  45   2.0000     -10.211217      -277.8613
  46   2.0000     -10.210094      -277.8308
  47   2.0000     -10.209789      -277.8225
  48   2.0000     -10.208684      -277.7924
  49   2.0000     -10.205936      -277.7176
  50   2.0000     -10.205929      -277.7175
  51   2.0000     -10.204902      -277.6895
  52   2.0000     -10.204309      -277.6734
  53   2.0000     -10.204207      -277.6706
  54   2.0000     -10.201450      -277.5956
  55   2.0000     -10.201240      -277.5899
  56   2.0000     -10.200597      -277.5724
  57   2.0000     -10.200289      -277.5640
  58   2.0000     -10.200112      -277.5592
  59   2.0000     -10.199775      -277.5500
  60   2.0000     -10.199384      -277.5394
  61   2.0000     -10.190313      -277.2925
  62   2.0000     -10.189225      -277.2629
  63   2.0000     -10.188612      -277.2462
  64   2.0000     -10.188044      -277.2308
  65   2.0000     -10.186525      -277.1894
  66   2.0000     -10.184853      -277.1439
  67   2.0000     -10.175598      -276.8921
  68   2.0000     -10.171830      -276.7896
  69   2.0000     -10.171478      -276.7800
  70   2.0000     -10.171076      -276.7690
  71   2.0000     -10.169318      -276.7212
  72   2.0000     -10.167153      -276.6623
  73   2.0000      -7.990280      -217.4266
  74   2.0000      -7.981087      -217.1764
  75   2.0000      -5.952590      -161.9782
  76   2.0000      -5.949001      -161.8805
  77   2.0000      -5.947135      -161.8298
  78   2.0000      -5.943657      -161.7351
  79   2.0000      -5.939570      -161.6239
  80   2.0000      -5.937807      -161.5760
  81   2.0000      -1.268060       -34.5057
  82   2.0000      -1.266755       -34.4702
  83   2.0000      -1.254716       -34.1426
  84   2.0000      -1.253375       -34.1061
  85   2.0000      -1.068633       -29.0790
  86   2.0000      -1.062779       -28.9197
  87   2.0000      -0.947846       -25.7922
  88   2.0000      -0.945053       -25.7162
  89   2.0000      -0.940945       -25.6044
  90   2.0000      -0.936939       -25.4954
  91   2.0000      -0.927924       -25.2501
  92   2.0000      -0.927071       -25.2269
  93   2.0000      -0.926408       -25.2088
  94   2.0000      -0.923253       -25.1230
  95   2.0000      -0.918494       -24.9935
  96   2.0000      -0.891748       -24.2657
  97   2.0000      -0.884273       -24.0623
  98   2.0000      -0.878492       -23.9050
  99   2.0000      -0.873824       -23.7780
 100   2.0000      -0.849265       -23.1097
 101   2.0000      -0.836716       -22.7682
 102   2.0000      -0.832445       -22.6520
 103   2.0000      -0.830778       -22.6066
 104   2.0000      -0.825151       -22.4535
 105   2.0000      -0.817902       -22.2563
 106   2.0000      -0.805965       -21.9314
 107   2.0000      -0.801353       -21.8059
 108   2.0000      -0.799830       -21.7645
 109   2.0000      -0.786060       -21.3898
 110   2.0000      -0.777133       -21.1469
 111   2.0000      -0.775760       -21.1095
 112   2.0000      -0.773394       -21.0451
 113   2.0000      -0.773055       -21.0359
 114   2.0000      -0.772306       -21.0155
 115   2.0000      -0.770517       -20.9668
 116   2.0000      -0.766239       -20.8504
 117   2.0000      -0.758821       -20.6486
 118   2.0000      -0.739221       -20.1152
 119   2.0000      -0.729598       -19.8534
 120   2.0000      -0.710145       -19.3240
 121   2.0000      -0.704242       -19.1634
 122   2.0000      -0.702486       -19.1156
 123   2.0000      -0.701321       -19.0839
 124   2.0000      -0.691168       -18.8076
 125   2.0000      -0.688919       -18.7464
 126   2.0000      -0.674882       -18.3645
 127   2.0000      -0.658758       -17.9257
 128   2.0000      -0.648663       -17.6510
 129   2.0000      -0.645621       -17.5682
 130   2.0000      -0.642547       -17.4846
 131   2.0000      -0.638543       -17.3756
 132   2.0000      -0.634551       -17.2670
 133   2.0000      -0.631247       -17.1771
 134   2.0000      -0.629899       -17.1404
 135   2.0000      -0.624962       -17.0061
 136   2.0000      -0.618460       -16.8292
 137   2.0000      -0.615240       -16.7415
 138   2.0000      -0.607507       -16.5311
 139   2.0000      -0.601954       -16.3800
 140   2.0000      -0.596300       -16.2261
 141   2.0000      -0.591668       -16.1001
 142   2.0000      -0.580758       -15.8032
 143   2.0000      -0.580047       -15.7839
 144   2.0000      -0.576284       -15.6815
 145   2.0000      -0.574078       -15.6215
 146   2.0000      -0.573754       -15.6126
 147   2.0000      -0.572909       -15.5897
 148   2.0000      -0.564047       -15.3485
 149   2.0000      -0.552894       -15.0450
 150   2.0000      -0.546940       -14.8830
 151   2.0000      -0.542386       -14.7591
 152   2.0000      -0.536045       -14.5865
 153   2.0000      -0.534985       -14.5577
 154   2.0000      -0.525609       -14.3025
 155   2.0000      -0.523481       -14.2446
 156   2.0000      -0.520229       -14.1562
 157   2.0000      -0.519844       -14.1457
 158   2.0000      -0.518918       -14.1205
 159   2.0000      -0.515153       -14.0180
 160   2.0000      -0.502566       -13.6755
 161   2.0000      -0.497906       -13.5487
 162   2.0000      -0.493950       -13.4411
 163   2.0000      -0.486623       -13.2417
 164   2.0000      -0.485204       -13.2031
 165   2.0000      -0.484946       -13.1960
 166   2.0000      -0.484805       -13.1922
 167   2.0000      -0.484189       -13.1754
 168   2.0000      -0.483677       -13.1615
 169   2.0000      -0.483592       -13.1592
 170   2.0000      -0.482385       -13.1264
 171   2.0000      -0.477949       -13.0056
 172   2.0000      -0.474482       -12.9113
 173   2.0000      -0.471810       -12.8386
 174   2.0000      -0.469848       -12.7852
 175   2.0000      -0.467948       -12.7335
 176   2.0000      -0.465834       -12.6760
 177   2.0000      -0.465820       -12.6756
 178   2.0000      -0.465328       -12.6622
 179   2.0000      -0.463852       -12.6221
 180   2.0000      -0.462411       -12.5828
 181   2.0000      -0.459980       -12.5167
 182   2.0000      -0.459107       -12.4929
 183   2.0000      -0.451373       -12.2825
 184   2.0000      -0.447988       -12.1904
 185   2.0000      -0.444357       -12.0916
 186   2.0000      -0.441526       -12.0145
 187   2.0000      -0.437139       -11.8952
 188   2.0000      -0.436057       -11.8657
 189   2.0000      -0.433213       -11.7883
 190   2.0000      -0.431291       -11.7360
 191   2.0000      -0.430717       -11.7204
 192   2.0000      -0.430202       -11.7064
 193   2.0000      -0.429071       -11.6756
 194   2.0000      -0.428524       -11.6607
 195   2.0000      -0.426166       -11.5966
 196   2.0000      -0.423496       -11.5239
 197   2.0000      -0.420728       -11.4486
 198   2.0000      -0.419100       -11.4043
 199   2.0000      -0.415198       -11.2981
 200   2.0000      -0.414328       -11.2744
 201   2.0000      -0.411753       -11.2044
 202   2.0000      -0.408694       -11.1211
 203   2.0000      -0.406401       -11.0587
 204   2.0000      -0.398639       -10.8475
 205   2.0000      -0.396606       -10.7922
 206   2.0000      -0.395144       -10.7524
 207   2.0000      -0.393577       -10.7098
 208   2.0000      -0.393244       -10.7007
 209   2.0000      -0.392317       -10.6755
 210   2.0000      -0.391322       -10.6484
 211   2.0000      -0.389452       -10.5975
 212   2.0000      -0.388665       -10.5761
 213   2.0000      -0.387932       -10.5562
 214   2.0000      -0.387317       -10.5394
 215   2.0000      -0.385415       -10.4877
 216   2.0000      -0.384606       -10.4657
 217   2.0000      -0.381500       -10.3811
 218   2.0000      -0.381407       -10.3786
 219   2.0000      -0.380605       -10.3568
 220   2.0000      -0.379311       -10.3216
 221   2.0000      -0.377428       -10.2703
 222   2.0000      -0.374222       -10.1831
 223   2.0000      -0.370659       -10.0862
 224   2.0000      -0.369255       -10.0479
 225   2.0000      -0.367675       -10.0049
 226   2.0000      -0.366233        -9.9657
 227   2.0000      -0.365163        -9.9366
 228   2.0000      -0.363905        -9.9024
 229   2.0000      -0.362960        -9.8767
 230   2.0000      -0.359747        -9.7892
 231   2.0000      -0.357222        -9.7205
 232   2.0000      -0.353973        -9.6321
 233   2.0000      -0.352131        -9.5820
 234   2.0000      -0.349711        -9.5161
 235   2.0000      -0.348577        -9.4853
 236   2.0000      -0.346313        -9.4236
 237   2.0000      -0.345082        -9.3902
 238   2.0000      -0.343565        -9.3489
 239   2.0000      -0.342300        -9.3144
 240   2.0000      -0.339332        -9.2337
 241   2.0000      -0.338958        -9.2235
 242   2.0000      -0.334386        -9.0991
 243   2.0000      -0.331784        -9.0283
 244   2.0000      -0.328763        -8.9461
 245   2.0000      -0.318212        -8.6590
 246   2.0000      -0.302405        -8.2289
 247   2.0000      -0.296154        -8.0588
 248   2.0000      -0.293159        -7.9773
 249   2.0000      -0.282523        -7.6878
 250   2.0000      -0.280074        -7.6212
 251   2.0000      -0.279826        -7.6145
 252   2.0000      -0.278259        -7.5718
 253   2.0000      -0.277636        -7.5548
 254   2.0000      -0.272518        -7.4156
 255   2.0000      -0.270521        -7.3613
 256   2.0000      -0.266268        -7.2455
 257   2.0000      -0.262277        -7.1369
 258   2.0000      -0.234367        -6.3775
 259   2.0000      -0.212693        -5.7877
 260   0.0000      -0.134269        -3.6536
 261   0.0000      -0.125119        -3.4047
 262   0.0000      -0.109070        -2.9680
 263   0.0000      -0.105973        -2.8837
 264   0.0000      -0.074670        -2.0319

MULLIKEN ATOMIC CHARGES
-----------------------
   0 C :    0.204794
   1 O :   -0.340930
   2 C :    0.102689
   3 C :   -0.315303
   4 C :    0.284869
   5 F :   -0.180914
   6 C :    0.254964
   7 F :   -0.176858
   8 C :   -0.266241
   9 C :    0.076359
  10 C :    0.008211
  11 C :    0.151770
  12 C :   -0.224050
  13 N :    0.045059
  14 C :   -0.227025
  15 N :    0.045555
  16 C :    0.000582
  17 C :    0.213108
  18 O :   -0.288928
  19 C :   -0.005092
  20 C :   -0.294744
  21 C :    0.280861
  22 F :   -0.180627
  23 C :    0.256663
  24 F :   -0.177278
  25 C :   -0.258042
  26 C :    0.120462
  27 C :   -0.013449
  28 C :    0.076860
  29 C :   -0.218614
  30 N :    0.038923
  31 C :   -0.228189
  32 N :    0.042675
  33 C :    0.015128
  34 C :    0.317780
  35 C :   -0.032949
  36 C :   -0.350494
  37 C :    0.207761
  38 C :   -0.190865
  39 C :   -0.442433
  40 C :    0.470997
  41 C :   -0.214078
  42 C :   -0.359993
  43 C :   -0.149417
  44 C :   -0.376238
  45 C :   -0.145231
  46 C :    0.261922
  47 C :   -0.407965
  48 C :    0.000654
  49 C :    0.288371
  50 C :   -0.341790
  51 C :   -0.223562
  52 C :   -0.235396
  53 C :   -0.156973
  54 C :    0.123584
  55 C :    0.340736
  56 S :    0.046186
  57 C :    0.275281
  58 C :   -0.461753
  59 C :    0.429389
  60 C :   -0.145515
  61 C :   -0.075135
  62 C :   -0.313129
  63 C :    0.126999
  64 S :    0.095809
  65 C :   -0.210216
  66 C :   -0.212557
  67 C :   -0.222965
  68 C :   -0.158736
  69 C :   -0.358536
  70 C :   -0.368378
  71 C :   -0.368997
  72 C :   -0.370873
  73 H :    0.146391
  74 H :    0.164713
  75 H :    0.151099
  76 H :    0.162496
  77 H :    0.104431
  78 H :    0.143592
  79 H :    0.092072
  80 H :    0.095489
  81 H :    0.123796
  82 H :    0.113568
  83 H :    0.121018
  84 H :    0.089364
  85 H :    0.098126
  86 H :    0.110664
  87 H :    0.118207
  88 H :    0.125151
  89 H :    0.139906
  90 H :    0.109332
  91 H :    0.167540
  92 H :    0.145208
  93 H :    0.178098
  94 H :    0.155705
  95 H :    0.108880
  96 H :    0.122480
  97 H :    0.098217
  98 H :    0.104109
  99 H :    0.090224
 100 H :    0.101067
 101 H :    0.090084
 102 H :    0.101634
 103 H :    0.122036
 104 H :    0.113941
 105 H :    0.123206
 106 H :    0.112292
 107 H :    0.119115
 108 H :    0.121521
 109 H :    0.106510
 110 H :    0.125032
 111 H :    0.119227
 112 H :    0.120362
 113 H :    0.120878
 114 H :    0.108676
Sum of atomic charges:   -0.0000000

LOEWDIN ATOMIC CHARGES
----------------------
   0 C :   -0.257695
   1 O :    0.117524
   2 C :   -0.058379
   3 C :   -0.047515
   4 C :   -0.224945
   5 F :    0.212534
   6 C :   -0.223830
   7 F :    0.216062
   8 C :   -0.048376
   9 C :   -0.043498
  10 C :    0.010095
  11 C :   -0.135901
  12 C :   -0.168654
  13 N :    0.078963
  14 C :   -0.164434
  15 N :    0.082842
  16 C :   -0.092226
  17 C :   -0.256959
  18 O :    0.136450
  19 C :   -0.058349
  20 C :   -0.045186
  21 C :   -0.225219
  22 F :    0.213224
  23 C :   -0.223490
  24 F :    0.216209
  25 C :   -0.051514
  26 C :   -0.043907
  27 C :    0.002687
  28 C :   -0.147021
  29 C :   -0.159755
  30 N :    0.099307
  31 C :   -0.166470
  32 N :    0.081694
  33 C :   -0.084674
  34 C :   -0.089734
  35 C :   -0.029653
  36 C :   -0.060570
  37 C :   -0.048709
  38 C :   -0.033796
  39 C :   -0.061667
  40 C :   -0.179579
  41 C :   -0.219836
  42 C :   -0.289293
  43 C :   -0.216806
  44 C :   -0.297331
  45 C :   -0.037061
  46 C :   -0.050862
  47 C :   -0.063713
  48 C :   -0.022883
  49 C :   -0.087009
  50 C :   -0.060151
  51 C :   -0.054208
  52 C :   -0.066593
  53 C :   -0.278397
  54 C :   -0.083446
  55 C :   -0.176170
  56 S :    0.799169
  57 C :   -0.333921
  58 C :   -0.086679
  59 C :   -0.182522
  60 C :   -0.094743
  61 C :   -0.279866
  62 C :   -0.094746
  63 C :   -0.321294
  64 S :    0.825323
  65 C :   -0.215808
  66 C :   -0.220990
  67 C :   -0.219745
  68 C :   -0.217037
  69 C :   -0.289616
  70 C :   -0.294092
  71 C :   -0.295384
  72 C :   -0.293401
  73 H :    0.163394
  74 H :    0.169558
  75 H :    0.164778
  76 H :    0.168007
  77 H :    0.147782
  78 H :    0.151581
  79 H :    0.138451
  80 H :    0.137263
  81 H :    0.123132
  82 H :    0.118350
  83 H :    0.122805
  84 H :    0.139145
  85 H :    0.145111
  86 H :    0.116674
  87 H :    0.121559
  88 H :    0.120501
  89 H :    0.147717
  90 H :    0.148929
  91 H :    0.180044
  92 H :    0.169832
  93 H :    0.154786
  94 H :    0.153791
  95 H :    0.140786
  96 H :    0.151678
  97 H :    0.137447
  98 H :    0.145649
  99 H :    0.137821
 100 H :    0.139449
 101 H :    0.138134
 102 H :    0.145489
 103 H :    0.122522
 104 H :    0.118609
 105 H :    0.123127
 106 H :    0.117383
 107 H :    0.121777
 108 H :    0.121273
 109 H :    0.116080
 110 H :    0.123882
 111 H :    0.119371
 112 H :    0.119812
 113 H :    0.122107
 114 H :    0.117640

  Mayer bond orders larger than 0.100000
B(  0-C ,  1-O ) :   2.0146 B(  0-C ,  2-C ) :   1.0314 B(  0-C , 16-C ) :   1.0294
B(  1-O ,  2-C ) :  -0.1512 B(  2-C ,  3-C ) :   1.3041 B(  2-C ,  9-C ) :   1.3350
B(  3-C ,  4-C ) :   1.3569 B(  3-C , 73-H ) :   0.9871 B(  4-C ,  5-F ) :   1.0620
B(  4-C ,  6-C ) :   1.3461 B(  6-C ,  7-F ) :   1.0843 B(  6-C ,  8-C ) :   1.3866
B(  8-C ,  9-C ) :   1.3300 B(  8-C , 74-H ) :   0.9298 B(  9-C , 10-C ) :   1.0386
B( 10-C , 11-C ) :   1.4645 B( 10-C , 16-C ) :   1.1507 B( 11-C , 12-C ) :   1.0361
B( 11-C , 14-C ) :   1.0260 B( 12-C , 13-N ) :   2.9848 B( 14-C , 15-N ) :   2.9883
B( 16-C , 51-C ) :   1.3741 B( 17-C , 18-O ) :   2.1717 B( 17-C , 19-C ) :   0.9573
B( 17-C , 33-C ) :   1.0064 B( 18-O , 19-C ) :  -0.1501 B( 18-O , 33-C ) :  -0.1353
B( 18-O , 52-C ) :   0.1037 B( 19-C , 20-C ) :   1.3151 B( 19-C , 26-C ) :   1.3234
B( 20-C , 21-C ) :   1.3541 B( 20-C , 75-H ) :   0.9822 B( 21-C , 22-F ) :   1.0617
B( 21-C , 23-C ) :   1.3454 B( 23-C , 24-F ) :   1.0738 B( 23-C , 25-C ) :   1.3866
B( 25-C , 26-C ) :   1.3121 B( 25-C , 76-H ) :   0.9426 B( 26-C , 27-C ) :   1.0232
B( 27-C , 28-C ) :   1.4132 B( 27-C , 33-C ) :   1.1650 B( 28-C , 29-C ) :   1.0655
B( 28-C , 31-C ) :   1.0528 B( 29-C , 30-N ) :   2.9483 B( 31-C , 32-N ) :   2.9938
B( 33-C , 52-C ) :   1.4925 B( 34-C , 35-C ) :   1.1667 B( 34-C , 39-C ) :   1.3192
B( 34-C , 61-C ) :   1.0632 B( 35-C , 36-C ) :   1.4041 B( 35-C , 59-C ) :   1.0826
B( 36-C , 37-C ) :   1.3727 B( 36-C , 77-H ) :   0.9809 B( 37-C , 38-C ) :   1.2194
B( 37-C , 46-C ) :   1.1338 B( 38-C , 39-C ) :   1.3900 B( 38-C , 40-C ) :   1.0846
B( 38-C , 43-C ) :   0.1001 B( 39-C , 78-H ) :   0.9856 B( 40-C , 41-C ) :   0.7654
B( 40-C , 43-C ) :   0.8223 B( 40-C , 45-C ) :   1.0184 B( 41-C , 42-C ) :   0.9785
B( 41-C , 79-H ) :   0.9587 B( 41-C , 80-H ) :   0.9626 B( 42-C , 81-H ) :   0.9736
B( 42-C , 82-H ) :   0.9793 B( 42-C , 83-H ) :   0.9734 B( 43-C , 44-C ) :   0.9502
B( 43-C , 84-H ) :   0.9601 B( 43-C , 85-H ) :   0.9667 B( 44-C , 86-H ) :   0.9765
B( 44-C , 87-H ) :   0.9762 B( 44-C , 88-H ) :   0.9774 B( 45-C , 46-C ) :   1.1927
B( 45-C , 50-C ) :   1.4326 B( 46-C , 47-C ) :   1.3401 B( 47-C , 48-C ) :   1.4011
B( 47-C , 89-H ) :   0.9663 B( 48-C , 49-C ) :   1.2158 B( 48-C , 55-C ) :   1.1036
B( 48-C , 65-C ) :   0.1049 B( 49-C , 50-C ) :   1.3257 B( 49-C , 53-C ) :   1.0569
B( 50-C , 90-H ) :   0.9825 B( 51-C , 63-C ) :   1.3449 B( 51-C , 91-H ) :   0.8889
B( 52-C , 57-C ) :   1.1474 B( 52-C , 92-H ) :   0.9353 B( 53-C , 54-C ) :   1.3166
B( 53-C , 56-S ) :   1.4228 B( 54-C , 55-C ) :   1.0533 B( 54-C , 58-C ) :   1.2671
B( 54-C , 66-C ) :   0.1008 B( 55-C , 65-C ) :   0.8383 B( 55-C , 66-C ) :   0.8172
B( 56-S , 57-C ) :   1.1620 B( 56-S , 58-C ) :   0.1717 B( 57-C , 58-C ) :   1.4062
B( 58-C , 93-H ) :   0.9346 B( 59-C , 60-C ) :   1.0705 B( 59-C , 67-C ) :   0.7707
B( 59-C , 68-C ) :   0.8132 B( 60-C , 61-C ) :   1.2342 B( 60-C , 62-C ) :   1.3759
B( 61-C , 64-S ) :   1.5320 B( 62-C , 63-C ) :   1.2865 B( 62-C , 64-S ) :   0.1033
B( 62-C , 94-H ) :   0.9558 B( 63-C , 64-S ) :   1.2181 B( 65-C , 71-C ) :   0.9435
B( 65-C , 95-H ) :   0.9698 B( 65-C , 96-H ) :   0.9619 B( 66-C , 72-C ) :   0.9533
B( 66-C , 97-H ) :   0.9675 B( 66-C , 98-H ) :   0.9704 B( 67-C , 69-C ) :   0.9756
B( 67-C , 99-H ) :   0.9598 B( 67-C ,100-H ) :   0.9659 B( 68-C , 70-C ) :   0.9516
B( 68-C ,101-H ) :   0.9613 B( 68-C ,102-H ) :   0.9678 B( 69-C ,103-H ) :   0.9742
B( 69-C ,104-H ) :   0.9788 B( 69-C ,105-H ) :   0.9734 B( 70-C ,106-H ) :   0.9754
B( 70-C ,107-H ) :   0.9778 B( 70-C ,108-H ) :   0.9762 B( 71-C ,109-H ) :   0.9746
B( 71-C ,110-H ) :   0.9785 B( 71-C ,111-H ) :   0.9784 B( 72-C ,112-H ) :   0.9749
B( 72-C ,113-H ) :   0.9796 B( 72-C ,114-H ) :   0.9756

-----------------------------------------------------------------------------
  SOC CORRECTED ABSORPTION SPECTRUM VIA TRANSITION ELECTRIC DIPOLE MOMENTS*
-----------------------------------------------------------------------------
State   Energy  Wavelength   fosc         T2         TX        TY        TZ
        (cm-1)    (nm)                  (au**2)     (au)      (au)      (au)
-----------------------------------------------------------------------------
   1   11209.6    892.1   0.000000000   0.00000   0.00002   0.00010   0.00003
   2   11209.6    892.1   0.000000000   0.00000   0.00000   0.00002   0.00000
   3   11209.6    892.1   0.000000001   0.00000   0.00011   0.00013   0.00003
   4   12730.5    785.5   0.000000000   0.00000   0.00006   0.00001   0.00005
   5   12730.5    785.5   0.000000000   0.00000   0.00003   0.00004   0.00001
   6   12730.5    785.5   0.000000000   0.00000   0.00006   0.00007   0.00002
   7   15799.7    632.9   2.601365413  54.20363   4.70421   5.40537   1.68997
   8   17171.0    582.4   0.000000061   0.00000   0.00076   0.00071   0.00031
   9   17171.0    582.4   0.000000015   0.00000   0.00034   0.00039   0.00012
  10   17171.0    582.4   0.000000020   0.00000   0.00040   0.00045   0.00016
  11   17833.8    560.7   0.198429234   3.66301   1.07819   1.52943   0.40171
  12   20197.6    495.1   0.258542244   4.21412   1.10207   1.72522   0.15220

FINAL SINGLE POINT ENERGY     -3914.119900156294

DIPOLE MOMENT
-------------
                                X             Y             Z
Electronic contribution:    -23.88943      26.64892      18.73047
Nuclear contribution   :     24.34987     -25.29828     -18.17806
                        -----------------------------------------
Total Dipole Moment    :      0.46044       1.35064       0.55241
                        -----------------------------------------
Magnitude (a.u.)       :      1.53016
Magnitude (Debye)      :      3.88936

Rotational constants in cm-1:     0.002910     0.000224     0.000214
Rotational constants in MHz :    87.232436     6.707366     6.413898

                             ****ORCA TERMINATED NORMALLY****
TOTAL RUN TIME: 0 days 22 hours 30 minutes 43 seconds 980 msec
