                         Program Version 4.2.0 -  RELEASE  -
|  1> # ORCA input file
|  2> # F-H.out: Geometry 28
|  3> ! B3LYP def2-TZVP def2/J RIJCOSX Grid4 TightSCF
|  4>
|  5> %maxcore 6000
|  6> %tddft
|  7>   maxdim 5
|  8>   nroots 3
|  9>   dosoc true
| 10>   end
| 11> %pal
| 12>   nprocs 6
| 13>   end
| 14>
| 15>
| 16> * xyz 0 1
| 17>    C       -6.01883         0.63269        -1.11843
| 18>    O       -7.14191         0.32733        -1.46460
| 19>    C       -5.39558         1.98002        -1.16321
| 20>    C       -5.94160         3.16119        -1.64970
| 21>    C       -5.15686         4.31778        -1.60775
| 22>    C       -3.85716         4.26701        -1.08488
| 23>    C       -3.31161         3.07770        -0.58478
| 24>    C       -4.09261         1.91618        -0.62285
| 25>    C       -3.85349         0.53463        -0.12481
| 26>    C       -2.91508         0.18336         0.83101
| 27>    C       -3.00403        -1.03216         1.57672
| 28>    N       -3.09128        -1.99107         2.22756
| 29>    C       -1.88313         1.07571         1.25798
| 30>    N       -1.03228         1.79119         1.59744
| 31>    C       -4.94945        -0.29174        -0.60809
| 32>    C        5.49378       -17.25425        -0.55250
| 33>    O        4.27937       -17.13884        -0.51639
| 34>    C        6.20514       -18.55258        -0.49745
| 35>    C        5.63969       -19.81780        -0.39811
| 36>    C        6.49770       -20.92036        -0.37134
| 37>    C        7.88504       -20.73066        -0.43870
| 38>    C        8.44919       -19.45285        -0.53909
| 39>    C        7.59407       -18.34289        -0.57388
| 40>    C        7.84648       -16.88389        -0.69916
| 41>    C        9.10376       -16.32535        -0.86245
| 42>    C        9.34762       -14.92772        -1.04154
| 43>    N        9.57963       -13.79860        -1.19351
| 44>    C       10.30367       -17.10392        -0.89573
| 45>    N       11.29593       -17.70849        -0.92728
| 46>    C        6.54516       -16.20029        -0.65451
| 47>    C       -1.63313        -5.63818        -0.92806
| 48>    C       -2.36643        -6.86491        -0.89705
| 49>    C       -1.67634        -8.06982        -0.88295
| 50>    C       -0.27387        -8.03941        -0.85283
| 51>    C        0.45031        -6.82282        -0.84087
| 52>    C       -0.22863        -5.61034        -0.91089
| 53>    C        1.94987        -7.09788        -0.71295
| 54>    C        2.79400        -6.42664        -1.81646
| 55>    C        2.42864        -6.82585        -3.24506
| 56>    C        2.46536        -6.69730         0.70612
| 57>    C        2.41081        -5.21797         1.07682
| 58>    C        1.98434        -8.62517        -0.78856
| 59>    C        0.67068        -9.14898        -0.82324
| 60>    C        0.42688       -10.53006        -0.81497
| 61>    C        1.51560       -11.39040        -0.79767
| 62>    C        2.84095       -10.86157        -0.76361
| 63>    C        3.08209        -9.47705        -0.75673
| 64>    C       -5.16238        -1.63640        -0.78497
| 65>    C        6.35996       -14.82755        -0.67808
| 66>    C        3.73704       -11.99634        -0.70872
| 67>    C        3.01302       -13.19404        -0.68447
| 68>    C        1.52047       -12.92247        -0.75496
| 69>    S        5.43308       -12.25457        -0.69498
| 70>    C        5.19244       -14.02242        -0.66789
| 71>    C        3.82031       -14.33081        -0.66939
| 72>    C       -3.88054        -6.60868        -0.86738
| 73>    C       -3.90150        -5.08947        -0.90103
| 74>    C       -2.60863        -4.56941        -0.93099
| 75>    C       -4.88555        -4.10031        -0.85602
| 76>    C       -4.35198        -2.80110        -0.80900
| 77>    S       -2.58467        -2.84921        -0.89216
| 78>    C        0.97429       -13.56385        -2.06272
| 79>    C        0.77462       -13.40313         0.51988
| 80>    C       -4.54206        -7.04500         0.47776
| 81>    C       -4.61538        -7.12424        -2.13925
| 82>    C       -4.30401        -8.46362         0.99740
| 83>    C       -4.83013        -8.62611        -2.31272
| 84>    C       -0.51456       -13.39058        -2.34906
| 85>    C        0.69954       -14.91384         0.71976
| 86>    H       -6.95630         3.16382        -2.05211
| 87>    H       -5.55435         5.26138        -1.98826
| 88>    H       -3.25175         5.17597        -1.06132
| 89>    H       -2.30081         3.07565        -0.18273
| 90>    H        4.55368       -19.92248        -0.34498
| 91>    H        6.08899       -21.93070        -0.29506
| 92>    H        8.54715       -21.59880        -0.41364
| 93>    H        9.53030       -19.34926        -0.59057
| 94>    H       -2.19920        -9.02551        -0.88138
| 95>    H        0.30144        -4.65717        -0.94224
| 96>    H        3.85519        -6.66333        -1.62204
| 97>    H        2.70723        -5.33274        -1.70836
| 98>    H        2.57469        -7.90432        -3.41243
| 99>    H        3.05608        -6.28675        -3.96994
|100>    H        1.37756        -6.58644        -3.47076
|101>    H        3.50697        -7.05351         0.78231
|102>    H        1.89115        -7.27835         1.44526
|103>    H        2.94566        -4.58420         0.35357
|104>    H        2.88752        -5.06143         2.05677
|105>    H        1.37730        -4.84980         1.15447
|106>    H       -0.59581       -10.90891        -0.80952
|107>    H        4.10391        -9.09261        -0.71425
|108>    H       -6.20666        -1.84234        -1.05781
|109>    H        7.27507       -14.23624        -0.71803
|110>    H        3.49115       -15.36616        -0.66707
|111>    H       -5.96248        -4.27547        -0.83196
|112>    H        1.21513       -14.63849        -2.02529
|113>    H        1.56131       -13.15726        -2.90235
|114>    H       -0.24504       -12.98516         0.49850
|115>    H        1.26916       -12.93741         1.38779
|116>    H       -5.62643        -6.86435         0.37243
|117>    H       -4.19805        -6.33869         1.25022
|118>    H       -4.06413        -6.73211        -3.00994
|119>    H       -5.59999        -6.62758        -2.16138
|120>    H       -4.60019        -9.24042         0.28054
|121>    H       -4.89562        -8.62163         1.91235
|122>    H       -3.24865        -8.62622         1.26141
|123>    H       -3.88821        -9.19100        -2.27877
|124>    H       -5.29375        -8.82124        -3.29275
|125>    H       -5.50516        -9.03972        -1.55094
|126>    H       -1.14280       -13.74329        -1.51674
|127>    H       -0.79794       -13.97569        -3.23729
|128>    H       -0.77737       -12.34201        -2.55245
|129>    H        0.16412       -15.14498         1.65379
|130>    H        1.69621       -15.37283         0.78909
|131>    H        0.15731       -15.41379        -0.09663
|132> *
|133>
|134>                          ****END OF INPUT****

CARTESIAN COORDINATES (ANGSTROEM)
---------------------------------
  C     -6.018830    0.632690   -1.118430
  O     -7.141910    0.327330   -1.464600
  C     -5.395580    1.980020   -1.163210
  C     -5.941600    3.161190   -1.649700
  C     -5.156860    4.317780   -1.607750
  C     -3.857160    4.267010   -1.084880
  C     -3.311610    3.077700   -0.584780
  C     -4.092610    1.916180   -0.622850
  C     -3.853490    0.534630   -0.124810
  C     -2.915080    0.183360    0.831010
  C     -3.004030   -1.032160    1.576720
  N     -3.091280   -1.991070    2.227560
  C     -1.883130    1.075710    1.257980
  N     -1.032280    1.791190    1.597440
  C     -4.949450   -0.291740   -0.608090
  C      5.493780  -17.254250   -0.552500
  O      4.279370  -17.138840   -0.516390
  C      6.205140  -18.552580   -0.497450
  C      5.639690  -19.817800   -0.398110
  C      6.497700  -20.920360   -0.371340
  C      7.885040  -20.730660   -0.438700
  C      8.449190  -19.452850   -0.539090
  C      7.594070  -18.342890   -0.573880
  C      7.846480  -16.883890   -0.699160
  C      9.103760  -16.325350   -0.862450
  C      9.347620  -14.927720   -1.041540
  N      9.579630  -13.798600   -1.193510
  C     10.303670  -17.103920   -0.895730
  N     11.295930  -17.708490   -0.927280
  C      6.545160  -16.200290   -0.654510
  C     -1.633130   -5.638180   -0.928060
  C     -2.366430   -6.864910   -0.897050
  C     -1.676340   -8.069820   -0.882950
  C     -0.273870   -8.039410   -0.852830
  C      0.450310   -6.822820   -0.840870
  C     -0.228630   -5.610340   -0.910890
  C      1.949870   -7.097880   -0.712950
  C      2.794000   -6.426640   -1.816460
  C      2.428640   -6.825850   -3.245060
  C      2.465360   -6.697300    0.706120
  C      2.410810   -5.217970    1.076820
  C      1.984340   -8.625170   -0.788560
  C      0.670680   -9.148980   -0.823240
  C      0.426880  -10.530060   -0.814970
  C      1.515600  -11.390400   -0.797670
  C      2.840950  -10.861570   -0.763610
  C      3.082090   -9.477050   -0.756730
  C     -5.162380   -1.636400   -0.784970
  C      6.359960  -14.827550   -0.678080
  C      3.737040  -11.996340   -0.708720
  C      3.013020  -13.194040   -0.684470
  C      1.520470  -12.922470   -0.754960
  S      5.433080  -12.254570   -0.694980
  C      5.192440  -14.022420   -0.667890
  C      3.820310  -14.330810   -0.669390
  C     -3.880540   -6.608680   -0.867380
  C     -3.901500   -5.089470   -0.901030
  C     -2.608630   -4.569410   -0.930990
  C     -4.885550   -4.100310   -0.856020
  C     -4.351980   -2.801100   -0.809000
  S     -2.584670   -2.849210   -0.892160
  C      0.974290  -13.563850   -2.062720
  C      0.774620  -13.403130    0.519880
  C     -4.542060   -7.045000    0.477760
  C     -4.615380   -7.124240   -2.139250
  C     -4.304010   -8.463620    0.997400
  C     -4.830130   -8.626110   -2.312720
  C     -0.514560  -13.390580   -2.349060
  C      0.699540  -14.913840    0.719760
  H     -6.956300    3.163820   -2.052110
  H     -5.554350    5.261380   -1.988260
  H     -3.251750    5.175970   -1.061320
  H     -2.300810    3.075650   -0.182730
  H      4.553680  -19.922480   -0.344980
  H      6.088990  -21.930700   -0.295060
  H      8.547150  -21.598800   -0.413640
  H      9.530300  -19.349260   -0.590570
  H     -2.199200   -9.025510   -0.881380
  H      0.301440   -4.657170   -0.942240
  H      3.855190   -6.663330   -1.622040
  H      2.707230   -5.332740   -1.708360
  H      2.574690   -7.904320   -3.412430
  H      3.056080   -6.286750   -3.969940
  H      1.377560   -6.586440   -3.470760
  H      3.506970   -7.053510    0.782310
  H      1.891150   -7.278350    1.445260
  H      2.945660   -4.584200    0.353570
  H      2.887520   -5.061430    2.056770
  H      1.377300   -4.849800    1.154470
  H     -0.595810  -10.908910   -0.809520
  H      4.103910   -9.092610   -0.714250
  H     -6.206660   -1.842340   -1.057810
  H      7.275070  -14.236240   -0.718030
  H      3.491150  -15.366160   -0.667070
  H     -5.962480   -4.275470   -0.831960
  H      1.215130  -14.638490   -2.025290
  H      1.561310  -13.157260   -2.902350
  H     -0.245040  -12.985160    0.498500
  H      1.269160  -12.937410    1.387790
  H     -5.626430   -6.864350    0.372430
  H     -4.198050   -6.338690    1.250220
  H     -4.064130   -6.732110   -3.009940
  H     -5.599990   -6.627580   -2.161380
  H     -4.600190   -9.240420    0.280540
  H     -4.895620   -8.621630    1.912350
  H     -3.248650   -8.626220    1.261410
  H     -3.888210   -9.191000   -2.278770
  H     -5.293750   -8.821240   -3.292750
  H     -5.505160   -9.039720   -1.550940
  H     -1.142800  -13.743290   -1.516740
  H     -0.797940  -13.975690   -3.237290
  H     -0.777370  -12.342010   -2.552450
  H      0.164120  -15.144980    1.653790
  H      1.696210  -15.372830    0.789090
  H      0.157310  -15.413790   -0.096630

 Total Charge           Charge          ....    0
 Multiplicity           Mult            ....    1
 Number of Electrons    NEL             ....  488
 Basis Dimension        Dim             .... 2427

ORBITAL ENERGIES
----------------

  NO   OCC          E(Eh)            E(eV)
   0   2.0000     -88.908782     -2419.3309
   1   2.0000     -88.907331     -2419.2915
   2   2.0000     -19.127805      -520.4940
   3   2.0000     -19.125563      -520.4330
   4   2.0000     -14.328428      -389.8964
   5   2.0000     -14.327478      -389.8705
   6   2.0000     -14.326169      -389.8349
   7   2.0000     -14.324808      -389.7978
   8   2.0000     -10.274084      -279.5720
   9   2.0000     -10.271014      -279.4885
  10   2.0000     -10.256850      -279.1031
  11   2.0000     -10.254998      -279.0527
  12   2.0000     -10.253889      -279.0225
  13   2.0000     -10.252968      -278.9974
  14   2.0000     -10.235822      -278.5309
  15   2.0000     -10.233796      -278.4757
  16   2.0000     -10.233275      -278.4616
  17   2.0000     -10.232374      -278.4371
  18   2.0000     -10.228680      -278.3365
  19   2.0000     -10.228229      -278.3243
  20   2.0000     -10.227319      -278.2995
  21   2.0000     -10.227277      -278.2983
  22   2.0000     -10.225430      -278.2481
  23   2.0000     -10.225216      -278.2423
  24   2.0000     -10.221260      -278.1346
  25   2.0000     -10.218821      -278.0682
  26   2.0000     -10.218191      -278.0511
  27   2.0000     -10.214875      -277.9609
  28   2.0000     -10.213890      -277.9341
  29   2.0000     -10.213578      -277.9256
  30   2.0000     -10.213118      -277.9131
  31   2.0000     -10.211525      -277.8697
  32   2.0000     -10.210925      -277.8534
  33   2.0000     -10.209382      -277.8114
  34   2.0000     -10.207056      -277.7481
  35   2.0000     -10.206359      -277.7292
  36   2.0000     -10.205802      -277.7140
  37   2.0000     -10.205580      -277.7080
  38   2.0000     -10.205375      -277.7024
  39   2.0000     -10.205153      -277.6963
  40   2.0000     -10.205116      -277.6953
  41   2.0000     -10.204505      -277.6787
  42   2.0000     -10.204278      -277.6725
  43   2.0000     -10.204078      -277.6671
  44   2.0000     -10.203635      -277.6550
  45   2.0000     -10.203553      -277.6528
  46   2.0000     -10.203379      -277.6481
  47   2.0000     -10.202175      -277.6153
  48   2.0000     -10.201706      -277.6025
  49   2.0000     -10.201498      -277.5969
  50   2.0000     -10.201103      -277.5861
  51   2.0000     -10.200898      -277.5806
  52   2.0000     -10.200312      -277.5646
  53   2.0000     -10.199671      -277.5472
  54   2.0000     -10.199095      -277.5315
  55   2.0000     -10.198963      -277.5279
  56   2.0000     -10.198675      -277.5201
  57   2.0000     -10.192430      -277.3501
  58   2.0000     -10.190529      -277.2984
  59   2.0000     -10.188321      -277.2383
  60   2.0000     -10.187801      -277.2242
  61   2.0000     -10.186985      -277.2020
  62   2.0000     -10.186351      -277.1847
  63   2.0000     -10.178721      -276.9771
  64   2.0000     -10.176223      -276.9091
  65   2.0000     -10.174379      -276.8589
  66   2.0000     -10.171224      -276.7731
  67   2.0000     -10.170674      -276.7581
  68   2.0000     -10.169579      -276.7283
  69   2.0000      -7.984608      -217.2722
  70   2.0000      -7.983001      -217.2285
  71   2.0000      -5.947043      -161.8273
  72   2.0000      -5.945339      -161.7809
  73   2.0000      -5.943354      -161.7269
  74   2.0000      -5.941785      -161.6842
  75   2.0000      -5.941346      -161.6723
  76   2.0000      -5.939837      -161.6312
  77   2.0000      -1.055319       -28.7167
  78   2.0000      -1.052867       -28.6500
  79   2.0000      -0.931896       -25.3582
  80   2.0000      -0.931215       -25.3397
  81   2.0000      -0.928881       -25.2761
  82   2.0000      -0.926077       -25.1998
  83   2.0000      -0.914048       -24.8725
  84   2.0000      -0.913399       -24.8548
  85   2.0000      -0.908338       -24.7171
  86   2.0000      -0.907080       -24.6829
  87   2.0000      -0.905784       -24.6476
  88   2.0000      -0.879145       -23.9228
  89   2.0000      -0.868829       -23.6420
  90   2.0000      -0.859482       -23.3877
  91   2.0000      -0.857355       -23.3298
  92   2.0000      -0.839015       -22.8308
  93   2.0000      -0.826920       -22.5016
  94   2.0000      -0.820539       -22.3280
  95   2.0000      -0.817814       -22.2539
  96   2.0000      -0.811786       -22.0898
  97   2.0000      -0.804319       -21.8866
  98   2.0000      -0.793501       -21.5923
  99   2.0000      -0.776958       -21.1421
 100   2.0000      -0.776167       -21.1206
 101   2.0000      -0.774609       -21.0782
 102   2.0000      -0.768351       -20.9079
 103   2.0000      -0.767697       -20.8901
 104   2.0000      -0.765443       -20.8288
 105   2.0000      -0.763982       -20.7890
 106   2.0000      -0.763901       -20.7868
 107   2.0000      -0.762862       -20.7585
 108   2.0000      -0.759153       -20.6576
 109   2.0000      -0.748276       -20.3616
 110   2.0000      -0.725483       -19.7414
 111   2.0000      -0.716841       -19.5062
 112   2.0000      -0.700651       -19.0657
 113   2.0000      -0.698978       -19.0202
 114   2.0000      -0.685903       -18.6644
 115   2.0000      -0.684402       -18.6235
 116   2.0000      -0.682363       -18.5680
 117   2.0000      -0.674303       -18.3487
 118   2.0000      -0.656248       -17.8574
 119   2.0000      -0.639200       -17.3935
 120   2.0000      -0.635762       -17.3000
 121   2.0000      -0.634472       -17.2649
 122   2.0000      -0.633167       -17.2294
 123   2.0000      -0.626094       -17.0369
 124   2.0000      -0.623083       -16.9550
 125   2.0000      -0.617671       -16.8077
 126   2.0000      -0.612170       -16.6580
 127   2.0000      -0.608738       -16.5646
 128   2.0000      -0.602935       -16.4067
 129   2.0000      -0.600741       -16.3470
 130   2.0000      -0.595698       -16.2098
 131   2.0000      -0.586400       -15.9567
 132   2.0000      -0.576539       -15.6884
 133   2.0000      -0.572269       -15.5722
 134   2.0000      -0.567868       -15.4525
 135   2.0000      -0.566702       -15.4207
 136   2.0000      -0.554939       -15.1007
 137   2.0000      -0.546755       -14.8780
 138   2.0000      -0.543432       -14.7875
 139   2.0000      -0.535134       -14.5617
 140   2.0000      -0.533492       -14.5171
 141   2.0000      -0.531278       -14.4568
 142   2.0000      -0.519741       -14.1429
 143   2.0000      -0.515214       -14.0197
 144   2.0000      -0.505996       -13.7689
 145   2.0000      -0.500791       -13.6272
 146   2.0000      -0.497715       -13.5435
 147   2.0000      -0.493813       -13.4373
 148   2.0000      -0.490582       -13.3494
 149   2.0000      -0.485586       -13.2135
 150   2.0000      -0.478601       -13.0234
 151   2.0000      -0.476194       -12.9579
 152   2.0000      -0.472924       -12.8689
 153   2.0000      -0.472301       -12.8520
 154   2.0000      -0.470639       -12.8067
 155   2.0000      -0.467688       -12.7264
 156   2.0000      -0.466616       -12.6973
 157   2.0000      -0.463968       -12.6252
 158   2.0000      -0.460270       -12.5246
 159   2.0000      -0.458317       -12.4714
 160   2.0000      -0.457442       -12.4476
 161   2.0000      -0.455748       -12.4015
 162   2.0000      -0.453522       -12.3410
 163   2.0000      -0.452452       -12.3119
 164   2.0000      -0.452353       -12.3092
 165   2.0000      -0.450245       -12.2518
 166   2.0000      -0.447966       -12.1898
 167   2.0000      -0.445093       -12.1116
 168   2.0000      -0.438882       -11.9426
 169   2.0000      -0.438230       -11.9249
 170   2.0000      -0.432755       -11.7759
 171   2.0000      -0.431686       -11.7468
 172   2.0000      -0.429592       -11.6898
 173   2.0000      -0.428761       -11.6672
 174   2.0000      -0.424180       -11.5425
 175   2.0000      -0.421173       -11.4607
 176   2.0000      -0.420741       -11.4490
 177   2.0000      -0.419575       -11.4172
 178   2.0000      -0.418444       -11.3864
 179   2.0000      -0.416307       -11.3283
 180   2.0000      -0.415560       -11.3080
 181   2.0000      -0.411129       -11.1874
 182   2.0000      -0.405979       -11.0473
 183   2.0000      -0.405481       -11.0337
 184   2.0000      -0.401700       -10.9308
 185   2.0000      -0.400773       -10.9056
 186   2.0000      -0.396557       -10.7909
 187   2.0000      -0.394472       -10.7341
 188   2.0000      -0.390547       -10.6273
 189   2.0000      -0.388584       -10.5739
 190   2.0000      -0.388232       -10.5643
 191   2.0000      -0.386904       -10.5282
 192   2.0000      -0.386203       -10.5091
 193   2.0000      -0.385750       -10.4968
 194   2.0000      -0.384596       -10.4654
 195   2.0000      -0.382715       -10.4142
 196   2.0000      -0.382702       -10.4138
 197   2.0000      -0.381781       -10.3888
 198   2.0000      -0.380397       -10.3511
 199   2.0000      -0.378758       -10.3065
 200   2.0000      -0.377349       -10.2682
 201   2.0000      -0.377042       -10.2598
 202   2.0000      -0.376482       -10.2446
 203   2.0000      -0.374481       -10.1901
 204   2.0000      -0.374037       -10.1781
 205   2.0000      -0.369710       -10.0603
 206   2.0000      -0.368888       -10.0380
 207   2.0000      -0.366076        -9.9614
 208   2.0000      -0.365239        -9.9387
 209   2.0000      -0.360987        -9.8230
 210   2.0000      -0.357107        -9.7174
 211   2.0000      -0.355586        -9.6760
 212   2.0000      -0.354841        -9.6557
 213   2.0000      -0.351908        -9.5759
 214   2.0000      -0.350313        -9.5325
 215   2.0000      -0.347871        -9.4661
 216   2.0000      -0.346243        -9.4217
 217   2.0000      -0.345118        -9.3911
 218   2.0000      -0.342970        -9.3327
 219   2.0000      -0.340784        -9.2732
 220   2.0000      -0.339415        -9.2359
 221   2.0000      -0.338574        -9.2131
 222   2.0000      -0.337904        -9.1948
 223   2.0000      -0.337221        -9.1762
 224   2.0000      -0.333868        -9.0850
 225   2.0000      -0.332083        -9.0364
 226   2.0000      -0.328053        -8.9268
 227   2.0000      -0.326236        -8.8773
 228   2.0000      -0.323810        -8.8113
 229   2.0000      -0.313863        -8.5406
 230   2.0000      -0.294696        -8.0191
 231   2.0000      -0.283290        -7.7087
 232   2.0000      -0.282394        -7.6843
 233   2.0000      -0.275732        -7.5031
 234   2.0000      -0.275157        -7.4874
 235   2.0000      -0.273685        -7.4473
 236   2.0000      -0.272319        -7.4102
 237   2.0000      -0.270590        -7.3631
 238   2.0000      -0.267503        -7.2791
 239   2.0000      -0.267405        -7.2765
 240   2.0000      -0.260598        -7.0912
 241   2.0000      -0.255499        -6.9525
 242   2.0000      -0.230039        -6.2597
 243   2.0000      -0.208920        -5.6850
 244   0.0000      -0.128402        -3.4940
 245   0.0000      -0.119893        -3.2624
 246   0.0000      -0.102286        -2.7833
 247   0.0000      -0.098959        -2.6928
 248   0.0000      -0.068629        -1.8675

MULLIKEN ATOMIC CHARGES
-----------------------
   0 C :    0.242872
   1 O :   -0.301342
   2 C :   -0.019083
   3 C :   -0.204942
   4 C :   -0.073464
   5 C :   -0.100692
   6 C :   -0.175760
   7 C :    0.118331
   8 C :    0.019909
   9 C :    0.114925
  10 C :   -0.214577
  11 N :    0.012352
  12 C :   -0.219021
  13 N :    0.003577
  14 C :   -0.043622
  15 C :    0.228610
  16 O :   -0.367843
  17 C :    0.096582
  18 C :   -0.219472
  19 C :   -0.066304
  20 C :   -0.109070
  21 C :   -0.178596
  22 C :    0.072771
  23 C :    0.022105
  24 C :    0.153682
  25 C :   -0.194727
  26 N :    0.011801
  27 C :   -0.212081
  28 N :    0.005105
  29 C :   -0.071919
  30 C :    0.320147
  31 C :   -0.008190
  32 C :   -0.449762
  33 C :    0.239316
  34 C :   -0.123258
  35 C :   -0.420250
  36 C :    0.366930
  37 C :   -0.232483
  38 C :   -0.360349
  39 C :   -0.161345
  40 C :   -0.378568
  41 C :   -0.038023
  42 C :    0.188883
  43 C :   -0.384465
  44 C :    0.014731
  45 C :    0.268733
  46 C :   -0.353615
  47 C :   -0.230454
  48 C :   -0.194624
  49 C :   -0.123438
  50 C :    0.036558
  51 C :    0.341956
  52 S :    0.038047
  53 C :    0.123946
  54 C :   -0.369205
  55 C :    0.329695
  56 C :    0.016558
  57 C :   -0.093370
  58 C :   -0.251102
  59 C :    0.215802
  60 S :    0.035032
  61 C :   -0.231382
  62 C :   -0.217660
  63 C :   -0.210101
  64 C :   -0.200665
  65 C :   -0.366794
  66 C :   -0.379675
  67 C :   -0.378796
  68 C :   -0.379464
  69 H :    0.135318
  70 H :    0.124580
  71 H :    0.126523
  72 H :    0.158108
  73 H :    0.131027
  74 H :    0.122869
  75 H :    0.126615
  76 H :    0.164458
  77 H :    0.141442
  78 H :    0.132369
  79 H :    0.096179
  80 H :    0.096574
  81 H :    0.120893
  82 H :    0.115263
  83 H :    0.118593
  84 H :    0.093471
  85 H :    0.103952
  86 H :    0.110792
  87 H :    0.120881
  88 H :    0.129728
  89 H :    0.141780
  90 H :    0.114931
  91 H :    0.143875
  92 H :    0.173696
  93 H :    0.231482
  94 H :    0.129419
  95 H :    0.119794
  96 H :    0.106558
  97 H :    0.099242
  98 H :    0.107393
  99 H :    0.092982
 100 H :    0.122457
 101 H :    0.107684
 102 H :    0.095171
 103 H :    0.107557
 104 H :    0.119668
 105 H :    0.125982
 106 H :    0.112316
 107 H :    0.119942
 108 H :    0.115979
 109 H :    0.112746
 110 H :    0.121231
 111 H :    0.117433
 112 H :    0.116528
 113 H :    0.132162
 114 H :    0.112952
Sum of atomic charges:   -0.0000000

LOEWDIN ATOMIC CHARGES
----------------------
   0 C :   -0.247914
   1 O :    0.125599
   2 C :   -0.061994
   3 C :   -0.072338
   4 C :   -0.114124
   5 C :   -0.110410
   6 C :   -0.078323
   7 C :   -0.036576
   8 C :    0.009970
   9 C :   -0.145597
  10 C :   -0.171254
  11 N :    0.074482
  12 C :   -0.151909
  13 N :    0.068434
  14 C :   -0.089076
  15 C :   -0.241857
  16 O :    0.112332
  17 C :   -0.064156
  18 C :   -0.073653
  19 C :   -0.114112
  20 C :   -0.111448
  21 C :   -0.075907
  22 C :   -0.040106
  23 C :    0.019253
  24 C :   -0.137415
  25 C :   -0.159594
  26 N :    0.068227
  27 C :   -0.152961
  28 N :    0.067441
  29 C :   -0.079692
  30 C :   -0.080916
  31 C :   -0.021064
  32 C :   -0.070750
  33 C :   -0.051403
  34 C :   -0.029770
  35 C :   -0.068243
  36 C :   -0.170110
  37 C :   -0.227828
  38 C :   -0.298093
  39 C :   -0.219531
  40 C :   -0.303492
  41 C :   -0.033817
  42 C :   -0.050875
  43 C :   -0.067841
  44 C :   -0.023122
  45 C :   -0.083243
  46 C :   -0.064321
  47 C :   -0.061842
  48 C :   -0.067638
  49 C :   -0.278610
  50 C :   -0.091140
  51 C :   -0.169931
  52 S :    0.774430
  53 C :   -0.314187
  54 C :   -0.088238
  55 C :   -0.165675
  56 C :   -0.098273
  57 C :   -0.274055
  58 C :   -0.091387
  59 C :   -0.325376
  60 S :    0.806764
  61 C :   -0.222355
  62 C :   -0.224478
  63 C :   -0.218297
  64 C :   -0.223135
  65 C :   -0.305410
  66 C :   -0.304482
  67 C :   -0.304346
  68 C :   -0.299385
  69 H :    0.157010
  70 H :    0.148238
  71 H :    0.150244
  72 H :    0.159745
  73 H :    0.155710
  74 H :    0.147800
  75 H :    0.150100
  76 H :    0.161278
  77 H :    0.146898
  78 H :    0.151363
  79 H :    0.140756
  80 H :    0.138508
  81 H :    0.122765
  82 H :    0.120579
  83 H :    0.122806
  84 H :    0.140571
  85 H :    0.146238
  86 H :    0.117807
  87 H :    0.124602
  88 H :    0.122835
  89 H :    0.147945
  90 H :    0.150644
  91 H :    0.180715
  92 H :    0.173112
  93 H :    0.158446
  94 H :    0.152792
  95 H :    0.144350
  96 H :    0.146326
  97 H :    0.137748
  98 H :    0.146133
  99 H :    0.141949
 100 H :    0.151989
 101 H :    0.147079
 102 H :    0.142044
 103 H :    0.114243
 104 H :    0.123919
 105 H :    0.122687
 106 H :    0.116566
 107 H :    0.123762
 108 H :    0.117914
 109 H :    0.119196
 110 H :    0.123940
 111 H :    0.118735
 112 H :    0.122911
 113 H :    0.125340
 114 H :    0.119804

  Mayer bond orders larger than 0.100000
B(  0-C ,  1-O ) :   2.1359 B(  0-C ,  2-C ) :   0.9722 B(  0-C , 14-C ) :   1.0004
B(  1-O ,  2-C ) :  -0.1382 B(  1-O , 14-C ) :  -0.1102 B(  2-C ,  3-C ) :   1.3850
B(  2-C ,  7-C ) :   1.3166 B(  3-C ,  4-C ) :   1.3809 B(  3-C , 69-H ) :   0.9758
B(  4-C ,  5-C ) :   1.3821 B(  4-C , 70-H ) :   0.9705 B(  5-C ,  6-C ) :   1.4182
B(  5-C , 71-H ) :   0.9655 B(  6-C ,  7-C ) :   1.3811 B(  6-C , 72-H ) :   0.9372
B(  7-C ,  8-C ) :   1.0383 B(  8-C ,  9-C ) :   1.4392 B(  8-C , 14-C ) :   1.1581
B(  9-C , 10-C ) :   1.0318 B(  9-C , 12-C ) :   1.0422 B( 10-C , 11-N ) :   2.9960
B( 12-C , 13-N ) :   2.9936 B( 14-C , 47-C ) :   1.4937 B( 15-C , 16-O ) :   1.9908
B( 15-C , 17-C ) :   1.0418 B( 15-C , 29-C ) :   1.0139 B( 16-O , 17-C ) :  -0.1513
B( 17-C , 18-C ) :   1.3790 B( 17-C , 22-C ) :   1.3480 B( 18-C , 19-C ) :   1.3831
B( 18-C , 73-H ) :   0.9754 B( 19-C , 20-C ) :   1.3809 B( 19-C , 74-H ) :   0.9700
B( 20-C , 21-C ) :   1.4304 B( 20-C , 75-H ) :   0.9641 B( 21-C , 22-C ) :   1.3889
B( 21-C , 76-H ) :   0.9215 B( 22-C , 23-C ) :   1.0388 B( 23-C , 24-C ) :   1.4646
B( 23-C , 29-C ) :   1.1479 B( 24-C , 25-C ) :   1.0274 B( 24-C , 27-C ) :   1.0146
B( 25-C , 26-N ) :   2.9784 B( 27-C , 28-N ) :   2.9882 B( 29-C , 48-C ) :   1.4180
B( 30-C , 31-C ) :   1.2185 B( 30-C , 35-C ) :   1.2892 B( 30-C , 57-C ) :   1.0273
B( 31-C , 32-C ) :   1.3739 B( 31-C , 55-C ) :   1.1626 B( 31-C , 64-C ) :   0.1043
B( 32-C , 33-C ) :   1.3290 B( 32-C , 77-H ) :   0.9651 B( 33-C , 34-C ) :   1.2259
B( 33-C , 42-C ) :   1.1359 B( 34-C , 35-C ) :   1.3722 B( 34-C , 36-C ) :   1.1142
B( 35-C , 78-H ) :   0.9975 B( 36-C , 37-C ) :   0.7722 B( 36-C , 39-C ) :   0.8558
B( 36-C , 41-C ) :   1.0546 B( 37-C , 38-C ) :   0.9810 B( 37-C , 79-H ) :   0.9611
B( 37-C , 80-H ) :   0.9648 B( 38-C , 81-H ) :   0.9731 B( 38-C , 82-H ) :   0.9780
B( 38-C , 83-H ) :   0.9729 B( 39-C , 40-C ) :   0.9530 B( 39-C , 84-H ) :   0.9583
B( 39-C , 85-H ) :   0.9634 B( 40-C , 86-H ) :   0.9750 B( 40-C , 87-H ) :   0.9736
B( 40-C , 88-H ) :   0.9739 B( 41-C , 42-C ) :   1.2196 B( 41-C , 46-C ) :   1.4071
B( 42-C , 43-C ) :   1.3539 B( 43-C , 44-C ) :   1.4083 B( 43-C , 89-H ) :   0.9474
B( 44-C , 45-C ) :   1.2097 B( 44-C , 51-C ) :   1.1360 B( 45-C , 46-C ) :   1.3301
B( 45-C , 49-C ) :   1.0434 B( 46-C , 90-H ) :   0.9819 B( 47-C , 59-C ) :   1.1120
B( 47-C , 91-H ) :   0.9448 B( 48-C , 53-C ) :   1.3251 B( 48-C , 92-H ) :   0.8755
B( 49-C , 50-C ) :   1.3041 B( 49-C , 52-S ) :   1.4284 B( 50-C , 51-C ) :   1.0794
B( 50-C , 54-C ) :   1.2824 B( 50-C , 62-C ) :   0.1074 B( 51-C , 61-C ) :   0.8105
B( 51-C , 62-C ) :   0.8126 B( 52-S , 53-C ) :   1.1744 B( 52-S , 54-C ) :   0.1634
B( 53-C , 54-C ) :   1.4942 B( 54-C , 93-H ) :   0.8763 B( 55-C , 56-C ) :   1.0051
B( 55-C , 63-C ) :   0.8446 B( 55-C , 64-C ) :   0.8065 B( 56-C , 57-C ) :   1.3245
B( 56-C , 58-C ) :   1.3360 B( 57-C , 60-S ) :   1.3885 B( 58-C , 59-C ) :   1.3875
B( 58-C , 60-S ) :   0.1304 B( 58-C , 94-H ) :   0.9576 B( 59-C , 60-S ) :   1.1579
B( 61-C , 67-C ) :   0.9512 B( 61-C , 95-H ) :   0.9723 B( 61-C , 96-H ) :   0.9646
B( 62-C , 68-C ) :   0.9581 B( 62-C , 97-H ) :   0.9651 B( 62-C , 98-H ) :   0.9674
B( 63-C , 65-C ) :   0.9644 B( 63-C , 99-H ) :   0.9608 B( 63-C ,100-H ) :   0.9631
B( 64-C , 66-C ) :   0.9520 B( 64-C ,101-H ) :   0.9705 B( 64-C ,102-H ) :   0.9572
B( 65-C ,103-H ) :   0.9751 B( 65-C ,104-H ) :   0.9746 B( 65-C ,105-H ) :   0.9732
B( 66-C ,106-H ) :   0.9782 B( 66-C ,107-H ) :   0.9747 B( 66-C ,108-H ) :   0.9753
B( 67-C ,109-H ) :   0.9730 B( 67-C ,110-H ) :   0.9767 B( 67-C ,111-H ) :   0.9772
B( 68-C ,112-H ) :   0.9768 B( 68-C ,113-H ) :   0.9750 B( 68-C ,114-H ) :   0.9714

-----------------------------------------------------------------------------
  SOC CORRECTED ABSORPTION SPECTRUM VIA TRANSITION ELECTRIC DIPOLE MOMENTS*
-----------------------------------------------------------------------------
State   Energy  Wavelength   fosc         T2         TX        TY        TZ
        (cm-1)    (nm)                  (au**2)     (au)      (au)      (au)
-----------------------------------------------------------------------------
   1   11577.1    863.8   0.000000000   0.00000   0.00002   0.00005   0.00000
   2   11577.1    863.8   0.000000001   0.00000   0.00009   0.00013   0.00001
   3   11577.1    863.8   0.000000001   0.00000   0.00009   0.00014   0.00000
   4   12918.4    774.1   0.000000002   0.00000   0.00010   0.00019   0.00001
   5   12918.4    774.1   0.000000000   0.00000   0.00003   0.00004   0.00000
   6   12918.4    774.1   0.000000002   0.00000   0.00013   0.00020   0.00001
   7   16153.8    619.0   2.564603054  52.26620   3.87951   6.09223   0.31673
   8   17583.5    568.7   0.000000023   0.00000   0.00048   0.00045   0.00002
   9   17583.5    568.7   0.000000026   0.00000   0.00044   0.00055   0.00001
  10   17583.5    568.7   0.000000006   0.00000   0.00019   0.00027   0.00001
  11   18176.2    550.2   0.110367118   1.99900   1.21927   0.69657   0.16479
  12   20840.0    479.8   0.080154630   1.26621   0.24923   1.08258   0.17920

FINAL SINGLE POINT ENERGY     -3517.131116032523

DIPOLE MOMENT
-------------
                                X             Y             Z
Electronic contribution:     38.09861      24.41440       5.82401
Nuclear contribution   :    -41.24551     -25.29492      -7.04156
                        -----------------------------------------
Total Dipole Moment    :     -3.14690      -0.88052      -1.21755
                        -----------------------------------------
Magnitude (a.u.)       :      3.48722
Magnitude (Debye)      :      8.86381

Rotational constants in cm-1:     0.003061     0.000274     0.000258
Rotational constants in MHz :    91.754265     8.212074     7.732195

                             ****ORCA TERMINATED NORMALLY****
TOTAL RUN TIME: 0 days 5 hours 18 minutes 12 seconds 204 msec
