                         Program Version 4.2.0 -  RELEASE  -
|  1> # ORCA input file
|  2> # FDICTF.out: Geometry 32
|  3> ! B3LYP def2-TZVP def2/J RIJCOSX Grid4 TightSCF
|  4>
|  5> %maxcore 6000
|  6> %tddft
|  7>   maxdim 5
|  8>   nroots 3
|  9>   dosoc true
| 10>   end
| 11> %pal
| 12>   nprocs 6
| 13>   end
| 14>
| 15>
| 16> * xyz 0 1
| 17>    C        0.11292        -1.35880         0.97510
| 18>    O        0.66676        -1.74807         1.98245
| 19>    C        0.09486         0.02634         0.43875
| 20>    C        0.67159         1.16585         0.98525
| 21>    C        0.46650         2.38536         0.33084
| 22>    C       -0.30174         2.43556        -0.84065
| 23>    C       -0.86213         1.28146        -1.40256
| 24>    C       -0.65740         0.05803        -0.75454
| 25>    C       -1.06983        -1.32988        -1.09519
| 26>    C       -1.46891        -1.74451        -2.35758
| 27>    C       -1.53834        -3.11750        -2.73930
| 28>    N       -1.60343        -4.22873        -3.07537
| 29>    C       -1.76301        -0.82447        -3.41254
| 30>    N       -2.03664        -0.08402        -4.26595
| 31>    C       -0.76482        -2.16248         0.05678
| 32>    C       -1.20959        -3.37790         0.52969
| 33>    C       -2.32565        -4.17594         0.18121
| 34>    C       -3.42699        -3.89711        -0.64411
| 35>    C       -4.37907        -4.91588        -0.63337
| 36>    C       -4.04182        -5.97780         0.20535
| 37>    S       -2.52778        -5.74654         0.98241
| 38>    C       -5.08405        -6.97750         0.19572
| 39>    C       -6.09838        -6.51584        -0.70018
| 40>    C       -5.70111        -5.17322        -1.33861
| 41>    C       -6.64851        -3.98855        -0.99422
| 42>    C       -8.09644        -4.01248        -1.48048
| 43>    C       -5.37651        -5.31830        -2.85794
| 44>    C       -6.44452        -5.88856        -3.78948
| 45>    C       -7.23010        -7.29839        -0.90674
| 46>    C       -7.34561        -8.51328        -0.20939
| 47>    C       -6.34900        -8.94743         0.70120
| 48>    C       -5.20037        -8.18900         0.89477
| 49>    C       -6.73039       -10.29129         1.31775
| 50>    C       -5.65655       -11.37507         1.05370
| 51>    C       -5.36555       -11.64065        -0.42203
| 52>    C       -7.05234       -10.17427         2.83597
| 53>    C       -5.88962        -9.85476         3.76962
| 54>    C       -8.03436       -10.59525         0.58886
| 55>    C       -8.38457        -9.53887        -0.28543
| 56>    C       -9.54638        -9.59699        -1.07418
| 57>    C      -10.34546       -10.73139        -0.98751
| 58>    C      -10.00611       -11.77066        -0.07148
| 59>    C       -8.84797       -11.71291         0.71744
| 60>    C      -11.04641       -12.76670        -0.16731
| 61>    C      -12.00555       -12.39887        -1.11453
| 62>    C      -11.63545       -11.06707        -1.75216
| 63>    C      -11.35582       -11.31474        -3.26291
| 64>    C      -10.92192       -10.10450        -4.08487
| 65>    C      -12.69508        -9.96412        -1.49772
| 66>    C      -14.08423       -10.22356        -2.07702
| 67>    C      -13.00733       -13.36492        -1.25805
| 68>    C      -12.82229       -14.48027        -0.41799
| 69>    S      -11.36798       -14.28337         0.56717
| 70>    C      -13.77208       -15.52588        -0.28958
| 71>    C      -13.84466       -16.69625         0.42938
| 72>    C      -12.89737       -17.52414         1.16066
| 73>    C      -11.55816       -17.70788         0.86074
| 74>    C      -10.70305       -18.54625         1.64122
| 75>    N       -9.99779       -19.20981         2.28394
| 76>    C      -10.96493       -17.19164        -0.33110
| 77>    N      -10.47521       -16.81778        -1.31648
| 78>    C      -13.67907       -18.35236         2.11699
| 79>    C      -13.29053       -19.22058         3.14497
| 80>    C      -14.28534       -19.91886         3.84157
| 81>    C      -15.64348       -19.77486         3.52369
| 82>    C      -16.03779       -18.91174         2.49555
| 83>    C      -15.05077       -18.21214         1.81364
| 84>    C      -15.21949       -17.23692         0.70564
| 85>    O      -16.25758       -16.90713         0.16959
| 86>    H        1.25587         1.09028         1.90428
| 87>    H        0.90126         3.30180         0.73596
| 88>    H       -0.47081         3.39497        -1.33497
| 89>    H       -1.44366         1.35562        -2.31848
| 90>    H       -0.64176        -3.70717         1.41023
| 91>    H       -3.53108        -2.96100        -1.18689
| 92>    H       -6.15875        -3.07731        -1.37982
| 93>    H       -6.64613        -3.88920         0.10380
| 94>    H       -8.17879        -3.92478        -2.57268
| 95>    H       -8.64592        -3.16448        -1.04351
| 96>    H       -8.62080        -4.92707        -1.16835
| 97>    H       -4.47624        -5.94792        -2.93722
| 98>    H       -5.06378        -4.32306        -3.21615
| 99>    H       -6.71843        -6.91848        -3.51687
|100>    H       -6.04520        -5.91991        -4.81560
|101>    H       -7.36476        -5.29154        -3.81366
|102>    H       -8.00999        -6.99197        -1.60291
|103>    H       -4.39958        -8.51866         1.55871
|104>    H       -5.98416       -12.30593         1.54899
|105>    H       -4.72668       -11.07265         1.56168
|106>    H       -6.26182       -11.99683        -0.95212
|107>    H       -4.58370       -12.40670        -0.53918
|108>    H       -5.01591       -10.72837        -0.92978
|109>    H       -7.50965       -11.12927         3.14606
|110>    H       -7.83870        -9.41077         2.95508
|111>    H       -5.08062       -10.59692         3.69799
|112>    H       -6.24411        -9.85221         4.81263
|113>    H       -5.45767        -8.86271         3.56816
|114>    H       -9.80545        -8.77001        -1.73678
|115>    H       -8.59814       -12.52730         1.40145
|116>    H      -12.26546       -11.75134        -3.70627
|117>    H      -10.58713       -12.10165        -3.33328
|118>    H      -11.65742        -9.28608        -4.04736
|119>    H      -10.80063       -10.39464        -5.14017
|120>    H       -9.95513        -9.70450        -3.74594
|121>    H      -12.29932        -9.01572        -1.89499
|122>    H      -12.77473        -9.82257        -0.40765
|123>    H      -14.74886        -9.36940        -1.87305
|124>    H      -14.55115       -11.10935        -1.62152
|125>    H      -14.06272       -10.37303        -3.16824
|126>    H      -13.85969       -13.30254        -1.93525
|127>    H      -14.72318       -15.29824        -0.78962
|128>    H      -12.24651       -19.35914         3.42001
|129>    H      -13.99025       -20.58921         4.65233
|130>    H      -16.39218       -20.33822         4.08436
|131>    H      -17.08474       -18.77550         2.21518
|132> *
|133>
|134>                          ****END OF INPUT****

CARTESIAN COORDINATES (ANGSTROEM)
---------------------------------
  C      0.112920   -1.358800    0.975100
  O      0.666760   -1.748070    1.982450
  C      0.094860    0.026340    0.438750
  C      0.671590    1.165850    0.985250
  C      0.466500    2.385360    0.330840
  C     -0.301740    2.435560   -0.840650
  C     -0.862130    1.281460   -1.402560
  C     -0.657400    0.058030   -0.754540
  C     -1.069830   -1.329880   -1.095190
  C     -1.468910   -1.744510   -2.357580
  C     -1.538340   -3.117500   -2.739300
  N     -1.603430   -4.228730   -3.075370
  C     -1.763010   -0.824470   -3.412540
  N     -2.036640   -0.084020   -4.265950
  C     -0.764820   -2.162480    0.056780
  C     -1.209590   -3.377900    0.529690
  C     -2.325650   -4.175940    0.181210
  C     -3.426990   -3.897110   -0.644110
  C     -4.379070   -4.915880   -0.633370
  C     -4.041820   -5.977800    0.205350
  S     -2.527780   -5.746540    0.982410
  C     -5.084050   -6.977500    0.195720
  C     -6.098380   -6.515840   -0.700180
  C     -5.701110   -5.173220   -1.338610
  C     -6.648510   -3.988550   -0.994220
  C     -8.096440   -4.012480   -1.480480
  C     -5.376510   -5.318300   -2.857940
  C     -6.444520   -5.888560   -3.789480
  C     -7.230100   -7.298390   -0.906740
  C     -7.345610   -8.513280   -0.209390
  C     -6.349000   -8.947430    0.701200
  C     -5.200370   -8.189000    0.894770
  C     -6.730390  -10.291290    1.317750
  C     -5.656550  -11.375070    1.053700
  C     -5.365550  -11.640650   -0.422030
  C     -7.052340  -10.174270    2.835970
  C     -5.889620   -9.854760    3.769620
  C     -8.034360  -10.595250    0.588860
  C     -8.384570   -9.538870   -0.285430
  C     -9.546380   -9.596990   -1.074180
  C    -10.345460  -10.731390   -0.987510
  C    -10.006110  -11.770660   -0.071480
  C     -8.847970  -11.712910    0.717440
  C    -11.046410  -12.766700   -0.167310
  C    -12.005550  -12.398870   -1.114530
  C    -11.635450  -11.067070   -1.752160
  C    -11.355820  -11.314740   -3.262910
  C    -10.921920  -10.104500   -4.084870
  C    -12.695080   -9.964120   -1.497720
  C    -14.084230  -10.223560   -2.077020
  C    -13.007330  -13.364920   -1.258050
  C    -12.822290  -14.480270   -0.417990
  S    -11.367980  -14.283370    0.567170
  C    -13.772080  -15.525880   -0.289580
  C    -13.844660  -16.696250    0.429380
  C    -12.897370  -17.524140    1.160660
  C    -11.558160  -17.707880    0.860740
  C    -10.703050  -18.546250    1.641220
  N     -9.997790  -19.209810    2.283940
  C    -10.964930  -17.191640   -0.331100
  N    -10.475210  -16.817780   -1.316480
  C    -13.679070  -18.352360    2.116990
  C    -13.290530  -19.220580    3.144970
  C    -14.285340  -19.918860    3.841570
  C    -15.643480  -19.774860    3.523690
  C    -16.037790  -18.911740    2.495550
  C    -15.050770  -18.212140    1.813640
  C    -15.219490  -17.236920    0.705640
  O    -16.257580  -16.907130    0.169590
  H      1.255870    1.090280    1.904280
  H      0.901260    3.301800    0.735960
  H     -0.470810    3.394970   -1.334970
  H     -1.443660    1.355620   -2.318480
  H     -0.641760   -3.707170    1.410230
  H     -3.531080   -2.961000   -1.186890
  H     -6.158750   -3.077310   -1.379820
  H     -6.646130   -3.889200    0.103800
  H     -8.178790   -3.924780   -2.572680
  H     -8.645920   -3.164480   -1.043510
  H     -8.620800   -4.927070   -1.168350
  H     -4.476240   -5.947920   -2.937220
  H     -5.063780   -4.323060   -3.216150
  H     -6.718430   -6.918480   -3.516870
  H     -6.045200   -5.919910   -4.815600
  H     -7.364760   -5.291540   -3.813660
  H     -8.009990   -6.991970   -1.602910
  H     -4.399580   -8.518660    1.558710
  H     -5.984160  -12.305930    1.548990
  H     -4.726680  -11.072650    1.561680
  H     -6.261820  -11.996830   -0.952120
  H     -4.583700  -12.406700   -0.539180
  H     -5.015910  -10.728370   -0.929780
  H     -7.509650  -11.129270    3.146060
  H     -7.838700   -9.410770    2.955080
  H     -5.080620  -10.596920    3.697990
  H     -6.244110   -9.852210    4.812630
  H     -5.457670   -8.862710    3.568160
  H     -9.805450   -8.770010   -1.736780
  H     -8.598140  -12.527300    1.401450
  H    -12.265460  -11.751340   -3.706270
  H    -10.587130  -12.101650   -3.333280
  H    -11.657420   -9.286080   -4.047360
  H    -10.800630  -10.394640   -5.140170
  H     -9.955130   -9.704500   -3.745940
  H    -12.299320   -9.015720   -1.894990
  H    -12.774730   -9.822570   -0.407650
  H    -14.748860   -9.369400   -1.873050
  H    -14.551150  -11.109350   -1.621520
  H    -14.062720  -10.373030   -3.168240
  H    -13.859690  -13.302540   -1.935250
  H    -14.723180  -15.298240   -0.789620
  H    -12.246510  -19.359140    3.420010
  H    -13.990250  -20.589210    4.652330
  H    -16.392180  -20.338220    4.084360
  H    -17.084740  -18.775500    2.215180

 Total Charge           Charge          ....    0
 Multiplicity           Mult            ....    1
 Number of Electrons    NEL             ....  488
 Basis Dimension        Dim             .... 2427

ORBITAL ENERGIES
----------------

  NO   OCC          E(Eh)            E(eV)
   0   2.0000     -88.909367     -2419.3469
   1   2.0000     -88.908221     -2419.3157
   2   2.0000     -19.125305      -520.4260
   3   2.0000     -19.124536      -520.4051
   4   2.0000     -14.329367      -389.9219
   5   2.0000     -14.328669      -389.9029
   6   2.0000     -14.326744      -389.8505
   7   2.0000     -14.325083      -389.8053
   8   2.0000     -10.270861      -279.4843
   9   2.0000     -10.270286      -279.4687
  10   2.0000     -10.257262      -279.1143
  11   2.0000     -10.255703      -279.0719
  12   2.0000     -10.254432      -279.0373
  13   2.0000     -10.252620      -278.9880
  14   2.0000     -10.235422      -278.5200
  15   2.0000     -10.235180      -278.5134
  16   2.0000     -10.232321      -278.4356
  17   2.0000     -10.231971      -278.4261
  18   2.0000     -10.228974      -278.3445
  19   2.0000     -10.227882      -278.3148
  20   2.0000     -10.227485      -278.3040
  21   2.0000     -10.227178      -278.2957
  22   2.0000     -10.226623      -278.2806
  23   2.0000     -10.223834      -278.2047
  24   2.0000     -10.220718      -278.1199
  25   2.0000     -10.220190      -278.1055
  26   2.0000     -10.217927      -278.0439
  27   2.0000     -10.216971      -278.0179
  28   2.0000     -10.213118      -277.9131
  29   2.0000     -10.212517      -277.8967
  30   2.0000     -10.212466      -277.8953
  31   2.0000     -10.210749      -277.8486
  32   2.0000     -10.209720      -277.8206
  33   2.0000     -10.209551      -277.8160
  34   2.0000     -10.208679      -277.7923
  35   2.0000     -10.207302      -277.7548
  36   2.0000     -10.206284      -277.7271
  37   2.0000     -10.206224      -277.7255
  38   2.0000     -10.205804      -277.7141
  39   2.0000     -10.205542      -277.7069
  40   2.0000     -10.205185      -277.6972
  41   2.0000     -10.205107      -277.6951
  42   2.0000     -10.205059      -277.6938
  43   2.0000     -10.205035      -277.6931
  44   2.0000     -10.204660      -277.6829
  45   2.0000     -10.204569      -277.6804
  46   2.0000     -10.204391      -277.6756
  47   2.0000     -10.204222      -277.6710
  48   2.0000     -10.203507      -277.6515
  49   2.0000     -10.202474      -277.6234
  50   2.0000     -10.201266      -277.5906
  51   2.0000     -10.201178      -277.5882
  52   2.0000     -10.200871      -277.5798
  53   2.0000     -10.200675      -277.5745
  54   2.0000     -10.200114      -277.5592
  55   2.0000     -10.199500      -277.5425
  56   2.0000     -10.199269      -277.5362
  57   2.0000     -10.190773      -277.3050
  58   2.0000     -10.190649      -277.3017
  59   2.0000     -10.189162      -277.2612
  60   2.0000     -10.187895      -277.2267
  61   2.0000     -10.185613      -277.1646
  62   2.0000     -10.184638      -277.1381
  63   2.0000     -10.177584      -276.9461
  64   2.0000     -10.175999      -276.9030
  65   2.0000     -10.175818      -276.8981
  66   2.0000     -10.173757      -276.8420
  67   2.0000     -10.170182      -276.7447
  68   2.0000     -10.166911      -276.6557
  69   2.0000      -7.985062      -217.2846
  70   2.0000      -7.984236      -217.2621
  71   2.0000      -5.947422      -161.8376
  72   2.0000      -5.946626      -161.8159
  73   2.0000      -5.943884      -161.7413
  74   2.0000      -5.942941      -161.7156
  75   2.0000      -5.941850      -161.6860
  76   2.0000      -5.941023      -161.6635
  77   2.0000      -1.052898       -28.6508
  78   2.0000      -1.052037       -28.6274
  79   2.0000      -0.933284       -25.3959
  80   2.0000      -0.931340       -25.3431
  81   2.0000      -0.928967       -25.2785
  82   2.0000      -0.926799       -25.2195
  83   2.0000      -0.915508       -24.9122
  84   2.0000      -0.912582       -24.8326
  85   2.0000      -0.908819       -24.7302
  86   2.0000      -0.907426       -24.6923
  87   2.0000      -0.906134       -24.6572
  88   2.0000      -0.879789       -23.9403
  89   2.0000      -0.869450       -23.6589
  90   2.0000      -0.859564       -23.3899
  91   2.0000      -0.857566       -23.3355
  92   2.0000      -0.839045       -22.8316
  93   2.0000      -0.826959       -22.5027
  94   2.0000      -0.820755       -22.3339
  95   2.0000      -0.818832       -22.2815
  96   2.0000      -0.812200       -22.1011
  97   2.0000      -0.804281       -21.8856
  98   2.0000      -0.793313       -21.5871
  99   2.0000      -0.776985       -21.1428
 100   2.0000      -0.776183       -21.1210
 101   2.0000      -0.775443       -21.1009
 102   2.0000      -0.768888       -20.9225
 103   2.0000      -0.767034       -20.8721
 104   2.0000      -0.766156       -20.8482
 105   2.0000      -0.764691       -20.8083
 106   2.0000      -0.762691       -20.7539
 107   2.0000      -0.762493       -20.7485
 108   2.0000      -0.761425       -20.7194
 109   2.0000      -0.748948       -20.3799
 110   2.0000      -0.725401       -19.7392
 111   2.0000      -0.716961       -19.5095
 112   2.0000      -0.701662       -19.0932
 113   2.0000      -0.698276       -19.0011
 114   2.0000      -0.687459       -18.7067
 115   2.0000      -0.684808       -18.6346
 116   2.0000      -0.681973       -18.5574
 117   2.0000      -0.673088       -18.3157
 118   2.0000      -0.655875       -17.8473
 119   2.0000      -0.640758       -17.4359
 120   2.0000      -0.636156       -17.3107
 121   2.0000      -0.633229       -17.2310
 122   2.0000      -0.629547       -17.1309
 123   2.0000      -0.626829       -17.0569
 124   2.0000      -0.624476       -16.9929
 125   2.0000      -0.622383       -16.9359
 126   2.0000      -0.612368       -16.6634
 127   2.0000      -0.608033       -16.5454
 128   2.0000      -0.601987       -16.3809
 129   2.0000      -0.600258       -16.3338
 130   2.0000      -0.594557       -16.1787
 131   2.0000      -0.586391       -15.9565
 132   2.0000      -0.575894       -15.6709
 133   2.0000      -0.572169       -15.5695
 134   2.0000      -0.569198       -15.4887
 135   2.0000      -0.564459       -15.3597
 136   2.0000      -0.556499       -15.1431
 137   2.0000      -0.550084       -14.9685
 138   2.0000      -0.543964       -14.8020
 139   2.0000      -0.537669       -14.6307
 140   2.0000      -0.531797       -14.4709
 141   2.0000      -0.528652       -14.3854
 142   2.0000      -0.519785       -14.1441
 143   2.0000      -0.516013       -14.0414
 144   2.0000      -0.504428       -13.7262
 145   2.0000      -0.502013       -13.6605
 146   2.0000      -0.500931       -13.6310
 147   2.0000      -0.495284       -13.4774
 148   2.0000      -0.490530       -13.3480
 149   2.0000      -0.484840       -13.1932
 150   2.0000      -0.478757       -13.0276
 151   2.0000      -0.475389       -12.9360
 152   2.0000      -0.473213       -12.8768
 153   2.0000      -0.472131       -12.8474
 154   2.0000      -0.470745       -12.8096
 155   2.0000      -0.469012       -12.7625
 156   2.0000      -0.467036       -12.7087
 157   2.0000      -0.464029       -12.6269
 158   2.0000      -0.459408       -12.5011
 159   2.0000      -0.458388       -12.4734
 160   2.0000      -0.457382       -12.4460
 161   2.0000      -0.455278       -12.3887
 162   2.0000      -0.454726       -12.3737
 163   2.0000      -0.451956       -12.2983
 164   2.0000      -0.450833       -12.2678
 165   2.0000      -0.448509       -12.2046
 166   2.0000      -0.447421       -12.1749
 167   2.0000      -0.439952       -11.9717
 168   2.0000      -0.439440       -11.9578
 169   2.0000      -0.436771       -11.8851
 170   2.0000      -0.435050       -11.8383
 171   2.0000      -0.432229       -11.7616
 172   2.0000      -0.429386       -11.6842
 173   2.0000      -0.428678       -11.6649
 174   2.0000      -0.426558       -11.6072
 175   2.0000      -0.424788       -11.5591
 176   2.0000      -0.420558       -11.4440
 177   2.0000      -0.419505       -11.4153
 178   2.0000      -0.417723       -11.3668
 179   2.0000      -0.414378       -11.2758
 180   2.0000      -0.413357       -11.2480
 181   2.0000      -0.409680       -11.1480
 182   2.0000      -0.408679       -11.1207
 183   2.0000      -0.404680       -11.0119
 184   2.0000      -0.401035       -10.9127
 185   2.0000      -0.399091       -10.8598
 186   2.0000      -0.394757       -10.7419
 187   2.0000      -0.392903       -10.6914
 188   2.0000      -0.390766       -10.6333
 189   2.0000      -0.390300       -10.6206
 190   2.0000      -0.388424       -10.5695
 191   2.0000      -0.387337       -10.5400
 192   2.0000      -0.387061       -10.5325
 193   2.0000      -0.386036       -10.5046
 194   2.0000      -0.384560       -10.4644
 195   2.0000      -0.383966       -10.4482
 196   2.0000      -0.383788       -10.4434
 197   2.0000      -0.381983       -10.3943
 198   2.0000      -0.380444       -10.3524
 199   2.0000      -0.379765       -10.3339
 200   2.0000      -0.377467       -10.2714
 201   2.0000      -0.376963       -10.2577
 202   2.0000      -0.376166       -10.2360
 203   2.0000      -0.375345       -10.2137
 204   2.0000      -0.373262       -10.1570
 205   2.0000      -0.371669       -10.1136
 206   2.0000      -0.370708       -10.0875
 207   2.0000      -0.365940        -9.9577
 208   2.0000      -0.363948        -9.9035
 209   2.0000      -0.362097        -9.8532
 210   2.0000      -0.357291        -9.7224
 211   2.0000      -0.356103        -9.6901
 212   2.0000      -0.354216        -9.6387
 213   2.0000      -0.353581        -9.6214
 214   2.0000      -0.351533        -9.5657
 215   2.0000      -0.349080        -9.4989
 216   2.0000      -0.346422        -9.4266
 217   2.0000      -0.344659        -9.3786
 218   2.0000      -0.343474        -9.3464
 219   2.0000      -0.341531        -9.2935
 220   2.0000      -0.340738        -9.2720
 221   2.0000      -0.339485        -9.2379
 222   2.0000      -0.338423        -9.2089
 223   2.0000      -0.335997        -9.1429
 224   2.0000      -0.335053        -9.1172
 225   2.0000      -0.329111        -8.9556
 226   2.0000      -0.326746        -8.8912
 227   2.0000      -0.325930        -8.8690
 228   2.0000      -0.322558        -8.7772
 229   2.0000      -0.312882        -8.5140
 230   2.0000      -0.294231        -8.0064
 231   2.0000      -0.283251        -7.7077
 232   2.0000      -0.282470        -7.6864
 233   2.0000      -0.276270        -7.5177
 234   2.0000      -0.275631        -7.5003
 235   2.0000      -0.273581        -7.4445
 236   2.0000      -0.271927        -7.3995
 237   2.0000      -0.271351        -7.3838
 238   2.0000      -0.267874        -7.2892
 239   2.0000      -0.265878        -7.2349
 240   2.0000      -0.259875        -7.0716
 241   2.0000      -0.255488        -6.9522
 242   2.0000      -0.229748        -6.2518
 243   2.0000      -0.208417        -5.6713
 244   0.0000      -0.128513        -3.4970
 245   0.0000      -0.120347        -3.2748
 246   0.0000      -0.101505        -2.7621
 247   0.0000      -0.098064        -2.6685
 248   0.0000      -0.068543        -1.8652

MULLIKEN ATOMIC CHARGES
-----------------------
   0 C :    0.228091
   1 O :   -0.297850
   2 C :   -0.015082
   3 C :   -0.202627
   4 C :   -0.070186
   5 C :   -0.106674
   6 C :   -0.173838
   7 C :    0.109059
   8 C :    0.034633
   9 C :    0.052709
  10 C :   -0.193631
  11 N :    0.008688
  12 C :   -0.204504
  13 N :    0.003207
  14 C :   -0.021753
  15 C :   -0.235791
  16 C :    0.273501
  17 C :   -0.432204
  18 C :    0.157700
  19 C :   -0.162103
  20 S :    0.046759
  21 C :    0.299893
  22 C :   -0.038113
  23 C :    0.309506
  24 C :   -0.198057
  25 C :   -0.371460
  26 C :   -0.185331
  27 C :   -0.365400
  28 C :   -0.449441
  29 C :    0.262899
  30 C :   -0.201627
  31 C :   -0.378816
  32 C :    0.460849
  33 C :   -0.232450
  34 C :   -0.362692
  35 C :   -0.164376
  36 C :   -0.379819
  37 C :   -0.089024
  38 C :    0.189319
  39 C :   -0.376082
  40 C :    0.008294
  41 C :    0.273562
  42 C :   -0.334801
  43 C :   -0.121069
  44 C :    0.010904
  45 C :    0.323272
  46 C :   -0.213327
  47 C :   -0.381244
  48 C :   -0.213519
  49 C :   -0.373509
  50 C :   -0.283091
  51 C :    0.232774
  52 S :    0.033645
  53 C :   -0.231665
  54 C :   -0.037193
  55 C :    0.019403
  56 C :    0.110227
  57 C :   -0.220450
  58 N :    0.002662
  59 C :   -0.215840
  60 N :    0.020315
  61 C :    0.118261
  62 C :   -0.174713
  63 C :   -0.102749
  64 C :   -0.073150
  65 C :   -0.205313
  66 C :   -0.020478
  67 C :    0.236381
  68 O :   -0.300730
  69 H :    0.136229
  70 H :    0.124479
  71 H :    0.126039
  72 H :    0.156806
  73 H :    0.147679
  74 H :    0.165503
  75 H :    0.094728
  76 H :    0.104695
  77 H :    0.111394
  78 H :    0.118934
  79 H :    0.112136
  80 H :    0.122045
  81 H :    0.096994
  82 H :    0.122158
  83 H :    0.124744
  84 H :    0.099931
  85 H :    0.157150
  86 H :    0.133661
  87 H :    0.098542
  88 H :    0.098456
  89 H :    0.124976
  90 H :    0.116839
  91 H :    0.121898
  92 H :    0.092849
  93 H :    0.102437
  94 H :    0.116061
  95 H :    0.119302
  96 H :    0.117077
  97 H :    0.140262
  98 H :    0.114948
  99 H :    0.105289
 100 H :    0.117643
 101 H :    0.111366
 102 H :    0.122840
 103 H :    0.120610
 104 H :    0.101271
 105 H :    0.105532
 106 H :    0.119956
 107 H :    0.116265
 108 H :    0.114670
 109 H :    0.143051
 110 H :    0.141940
 111 H :    0.158940
 112 H :    0.126126
 113 H :    0.124175
 114 H :    0.136628
Sum of atomic charges:   -0.0000000

LOEWDIN ATOMIC CHARGES
----------------------
   0 C :   -0.248686
   1 O :    0.127821
   2 C :   -0.062264
   3 C :   -0.071996
   4 C :   -0.114058
   5 C :   -0.111131
   6 C :   -0.079448
   7 C :   -0.038071
   8 C :    0.010580
   9 C :   -0.149174
  10 C :   -0.155898
  11 N :    0.084153
  12 C :   -0.154957
  13 N :    0.066239
  14 C :   -0.082759
  15 C :   -0.069940
  16 C :   -0.324068
  17 C :   -0.081718
  18 C :   -0.092780
  19 C :   -0.278387
  20 S :    0.776341
  21 C :   -0.083881
  22 C :   -0.017571
  23 C :   -0.165075
  24 C :   -0.222985
  25 C :   -0.303873
  26 C :   -0.216196
  27 C :   -0.303373
  28 C :   -0.073174
  29 C :   -0.049050
  30 C :   -0.031575
  31 C :   -0.069463
  32 C :   -0.172088
  33 C :   -0.225133
  34 C :   -0.296251
  35 C :   -0.221602
  36 C :   -0.304776
  37 C :   -0.036185
  38 C :   -0.049471
  39 C :   -0.068902
  40 C :   -0.021899
  41 C :   -0.084353
  42 C :   -0.063672
  43 C :   -0.276728
  44 C :   -0.088289
  45 C :   -0.170207
  46 C :   -0.221897
  47 C :   -0.303291
  48 C :   -0.225228
  49 C :   -0.300367
  50 C :   -0.096299
  51 C :   -0.325097
  52 S :    0.815840
  53 C :   -0.061583
  54 C :   -0.088561
  55 C :    0.008073
  56 C :   -0.147759
  57 C :   -0.151940
  58 N :    0.067875
  59 C :   -0.174197
  60 N :    0.076122
  61 C :   -0.036940
  62 C :   -0.078725
  63 C :   -0.111107
  64 C :   -0.114210
  65 C :   -0.072698
  66 C :   -0.062384
  67 C :   -0.248392
  68 O :    0.125540
  69 H :    0.157048
  70 H :    0.148129
  71 H :    0.150110
  72 H :    0.159803
  73 H :    0.172735
  74 H :    0.158280
  75 H :    0.142490
  76 H :    0.146979
  77 H :    0.116109
  78 H :    0.123340
  79 H :    0.118731
  80 H :    0.153218
  81 H :    0.143951
  82 H :    0.121117
  83 H :    0.125766
  84 H :    0.112877
  85 H :    0.147317
  86 H :    0.150321
  87 H :    0.140644
  88 H :    0.138332
  89 H :    0.124275
  90 H :    0.121301
  91 H :    0.123948
  92 H :    0.141048
  93 H :    0.145531
  94 H :    0.119059
  95 H :    0.123779
  96 H :    0.119805
  97 H :    0.147609
  98 H :    0.150793
  99 H :    0.140232
 100 H :    0.149558
 101 H :    0.118338
 102 H :    0.124791
 103 H :    0.120440
 104 H :    0.138084
 105 H :    0.146136
 106 H :    0.123552
 107 H :    0.121093
 108 H :    0.119855
 109 H :    0.151928
 110 H :    0.179696
 111 H :    0.159965
 112 H :    0.150035
 113 H :    0.147886
 114 H :    0.157165

  Mayer bond orders larger than 0.100000
B(  0-C ,  1-O ) :   2.1444 B(  0-C ,  2-C ) :   0.9684 B(  0-C , 14-C ) :   1.0036
B(  1-O ,  2-C ) :  -0.1403 B(  1-O , 14-C ) :  -0.1149 B(  2-C ,  3-C ) :   1.3912
B(  2-C ,  7-C ) :   1.3203 B(  3-C ,  4-C ) :   1.3767 B(  3-C , 69-H ) :   0.9749
B(  4-C ,  5-C ) :   1.3826 B(  4-C , 70-H ) :   0.9707 B(  5-C ,  6-C ) :   1.4201
B(  5-C , 71-H ) :   0.9658 B(  6-C ,  7-C ) :   1.3764 B(  6-C , 72-H ) :   0.9366
B(  7-C ,  8-C ) :   1.0269 B(  8-C ,  9-C ) :   1.4007 B(  8-C , 14-C ) :   1.1584
B(  9-C , 10-C ) :   1.0679 B(  9-C , 12-C ) :   1.0471 B( 10-C , 11-N ) :   2.9547
B( 12-C , 13-N ) :   2.9925 B( 14-C , 15-C ) :   1.5107 B( 15-C , 16-C ) :   1.1409
B( 15-C , 73-H ) :   0.9344 B( 16-C , 17-C ) :   1.4311 B( 16-C , 20-S ) :   1.1584
B( 17-C , 18-C ) :   1.2682 B( 17-C , 20-S ) :   0.1752 B( 17-C , 74-H ) :   0.9368
B( 18-C , 19-C ) :   1.3098 B( 18-C , 23-C ) :   0.9839 B( 19-C , 20-S ) :   1.4289
B( 19-C , 21-C ) :   1.0197 B( 21-C , 22-C ) :   1.2189 B( 21-C , 31-C ) :   1.3182
B( 22-C , 23-C ) :   1.1382 B( 22-C , 28-C ) :   1.3923 B( 23-C , 24-C ) :   0.8105
B( 23-C , 26-C ) :   0.8797 B( 24-C , 25-C ) :   0.9541 B( 24-C , 75-H ) :   0.9583
B( 24-C , 76-H ) :   0.9706 B( 25-C , 77-H ) :   0.9733 B( 25-C , 78-H ) :   0.9752
B( 25-C , 79-H ) :   0.9792 B( 26-C , 27-C ) :   0.9551 B( 26-C , 80-H ) :   0.9632
B( 26-C , 81-H ) :   0.9548 B( 27-C , 82-H ) :   0.9766 B( 27-C , 83-H ) :   0.9760
B( 27-C , 84-H ) :   0.9724 B( 28-C , 29-C ) :   1.2891 B( 28-C , 85-H ) :   0.9783
B( 29-C , 30-C ) :   1.2288 B( 29-C , 38-C ) :   1.1215 B( 30-C , 31-C ) :   1.3993
B( 30-C , 32-C ) :   1.0844 B( 30-C , 35-C ) :   0.1059 B( 31-C , 86-H ) :   0.9746
B( 32-C , 33-C ) :   0.7631 B( 32-C , 35-C ) :   0.8169 B( 32-C , 37-C ) :   1.0091
B( 33-C , 34-C ) :   0.9823 B( 33-C , 87-H ) :   0.9588 B( 33-C , 88-H ) :   0.9665
B( 34-C , 89-H ) :   0.9725 B( 34-C , 90-H ) :   0.9776 B( 34-C , 91-H ) :   0.9716
B( 35-C , 36-C ) :   0.9542 B( 35-C , 92-H ) :   0.9588 B( 35-C , 93-H ) :   0.9666
B( 36-C , 94-H ) :   0.9745 B( 36-C , 95-H ) :   0.9752 B( 36-C , 96-H ) :   0.9754
B( 37-C , 38-C ) :   1.2172 B( 37-C , 42-C ) :   1.4108 B( 38-C , 39-C ) :   1.3673
B( 39-C , 40-C ) :   1.3967 B( 39-C , 97-H ) :   0.9514 B( 40-C , 41-C ) :   1.2109
B( 40-C , 45-C ) :   1.1073 B( 40-C , 46-C ) :   0.1001 B( 41-C , 42-C ) :   1.3437
B( 41-C , 43-C ) :   1.0280 B( 42-C , 98-H ) :   0.9720 B( 43-C , 44-C ) :   1.3154
B( 43-C , 52-S ) :   1.4187 B( 44-C , 45-C ) :   1.0659 B( 44-C , 50-C ) :   1.3218
B( 45-C , 46-C ) :   0.8308 B( 45-C , 48-C ) :   0.8150 B( 46-C , 47-C ) :   0.9499
B( 46-C , 99-H ) :   0.9664 B( 46-C ,100-H ) :   0.9648 B( 47-C ,101-H ) :   0.9731
B( 47-C ,102-H ) :   0.9760 B( 47-C ,103-H ) :   0.9772 B( 48-C , 49-C ) :   0.9540
B( 48-C ,104-H ) :   0.9681 B( 48-C ,105-H ) :   0.9673 B( 49-C ,106-H ) :   0.9776
B( 49-C ,107-H ) :   0.9753 B( 49-C ,108-H ) :   0.9732 B( 50-C , 51-C ) :   1.3840
B( 50-C , 52-S ) :   0.1288 B( 50-C ,109-H ) :   0.9501 B( 51-C , 52-S ) :   1.1474
B( 51-C , 53-C ) :   1.1366 B( 53-C , 54-C ) :   1.4878 B( 53-C ,110-H ) :   0.9435
B( 54-C , 55-C ) :   1.1589 B( 54-C , 67-C ) :   1.0020 B( 54-C , 68-O ) :  -0.1106
B( 55-C , 56-C ) :   1.4283 B( 55-C , 61-C ) :   1.0443 B( 56-C , 57-C ) :   1.0450
B( 56-C , 59-C ) :   1.0349 B( 57-C , 58-N ) :   2.9927 B( 59-C , 60-N ) :   3.0054
B( 61-C , 62-C ) :   1.3808 B( 61-C , 66-C ) :   1.3198 B( 62-C , 63-C ) :   1.4185
B( 62-C ,111-H ) :   0.9353 B( 63-C , 64-C ) :   1.3838 B( 63-C ,112-H ) :   0.9652
B( 64-C , 65-C ) :   1.3808 B( 64-C ,113-H ) :   0.9696 B( 65-C , 66-C ) :   1.3910
B( 65-C ,114-H ) :   0.9731 B( 66-C , 67-C ) :   0.9698 B( 66-C , 68-O ) :  -0.1375
B( 67-C , 68-O ) :   2.1375

-----------------------------------------------------------------------------
  SOC CORRECTED ABSORPTION SPECTRUM VIA TRANSITION ELECTRIC DIPOLE MOMENTS*
-----------------------------------------------------------------------------
State   Energy  Wavelength   fosc         T2         TX        TY        TZ
        (cm-1)    (nm)                  (au**2)     (au)      (au)      (au)
-----------------------------------------------------------------------------
   1   11412.2    876.3   0.000000000   0.00000   0.00010   0.00004   0.00005
   2   11412.2    876.3   0.000000000   0.00000   0.00001   0.00001   0.00000
   3   11412.2    876.3   0.000000005   0.00000   0.00023   0.00027   0.00004
   4   12672.4    789.1   0.000000007   0.00000   0.00025   0.00033   0.00009
   5   12672.4    789.1   0.000000000   0.00000   0.00005   0.00005   0.00001
   6   12672.4    789.1   0.000000002   0.00000   0.00018   0.00016   0.00001
   7   15949.2    627.0   2.358715248  48.68690   4.02222   5.63901   0.84275
   8   17537.1    570.2   0.000000051   0.00000   0.00072   0.00062   0.00024
   9   17537.1    570.2   0.000000032   0.00000   0.00023   0.00073   0.00009
  10   17537.1    570.2   0.000000047   0.00000   0.00055   0.00076   0.00013
  11   17837.9    560.6   0.010963974   0.20235   0.11712   0.43425   0.00759
  12   20592.0    485.6   0.058376718   0.93329   0.33601   0.87963   0.21595

FINAL SINGLE POINT ENERGY     -3517.123696365893

DIPOLE MOMENT
-------------
                                X             Y             Z
Electronic contribution:     24.44045     -19.24617      18.50618
Nuclear contribution   :    -26.46711      21.08640     -16.85337
                        -----------------------------------------
Total Dipole Moment    :     -2.02666       1.84022       1.65281
                        -----------------------------------------
Magnitude (a.u.)       :      3.19774
Magnitude (Debye)      :      8.12801

Rotational constants in cm-1:     0.003091     0.000286     0.000272
Rotational constants in MHz :    92.668831     8.577575     8.161675

                             ****ORCA TERMINATED NORMALLY****
TOTAL RUN TIME: 0 days 4 hours 13 minutes 52 seconds 422 msec
