                         Program Version 4.2.0 -  RELEASE  -
|  1> # ORCA input file
|  2> # H2.out
|  3> ! B3LYP def2-TZVP def2/J RIJCOSX Grid4 TightSCF
|  4>
|  5> %maxcore 2000
|  6> %tddft
|  7>   maxdim 5
|  8>   nroots 3
|  9>   dosoc true
| 10>   end
| 11>
| 12>
| 13>
| 14> * xyz 0 1
| 15>    C        1.75640        -1.75825        -1.75321
| 16>    O        2.27973        -1.32069        -2.75288
| 17>    C        2.38931        -2.06271        -0.45189
| 18>    C        3.71959        -1.98277        -0.08604
| 19>    C        4.07804        -2.35402         1.20040
| 20>    C        3.10716        -2.79808         2.09140
| 21>   Cl        3.57918        -3.27108         3.67900
| 22>    C        1.76213        -2.87260         1.74206
| 23>    C        1.40829        -2.49761         0.45868
| 24>    C        0.10028        -2.41408        -0.19024
| 25>    C       -1.10195        -2.29907         0.45867
| 26>    C       -2.27948        -1.87127        -0.18990
| 27>    N       -3.23661        -1.46832        -0.67944
| 28>    C       -1.28077        -2.50724         1.83971
| 29>    N       -1.49237        -2.70020         2.95154
| 30>    C        0.33599        -2.16105        -1.59249
| 31>    C       -0.46150        -2.31340        -2.68873
| 32>    C       -1.65158        -3.05611        -2.81961
| 33>    S       -2.02732        -4.39309        -1.73011
| 34>    C       -3.50031        -4.69919        -2.57272
| 35>    C       -3.66072        -3.81789        -3.65081
| 36>    C       -2.61516        -2.90522        -3.81098
| 37>    C       -2.60929        -1.82432        -4.83732
| 38>    C       -3.10663        -0.51143        -4.22694
| 39>    S       -5.14755        -4.07116        -4.53579
| 40>    C       -5.54631        -5.34904        -3.44398
| 41>    C       -4.58273        -5.57308        -2.45292
| 42>    N       -4.98471        -6.58627        -1.62714
| 43>    C       -4.02602        -7.18107        -0.72814
| 44>    C       -6.21935        -7.03254        -2.06799
| 45>    C       -6.57168        -6.27820        -3.22861
| 46>    C       -7.72743        -6.55448        -3.99103
| 47>    N       -8.15052        -5.96219        -5.09673
| 48>    S       -9.49780        -6.70971        -5.59386
| 49>    N       -9.59226        -7.81674        -4.41640
| 50>    C       -8.57176        -7.63879        -3.59217
| 51>    C       -8.27148        -8.32820        -2.39723
| 52>    C       -7.13573        -8.01034        -1.59171
| 53>    N       -7.20055        -8.77778        -0.44125
| 54>    C       -6.50077        -8.66452         0.81519
| 55>    C       -6.74062        -7.32395         1.53167
| 56>    C       -8.32228        -9.55667        -0.51481
| 57>    C       -8.99533        -9.31573        -1.71788
| 58>    S      -10.44926       -10.23017        -1.90272
| 59>    C      -10.16440       -10.95628        -0.33591
| 60>    C       -8.99648       -10.48722         0.28177
| 61>    S       -8.81177       -11.16875         1.85216
| 62>    C      -10.27746       -12.13011         1.63954
| 63>    C      -10.89608       -11.88294         0.41885
| 64>    C      -12.25083       -12.35682         0.00255
| 65>    C      -12.21484       -13.13914        -1.31027
| 66>    C      -10.69301       -12.88508         2.75843
| 67>    C      -11.34526       -14.08737         2.74110
| 68>    C      -11.98010       -14.73701         3.86570
| 69>    C      -12.27732       -14.16366         5.07483
| 70>    C      -12.00673       -12.82099         5.41278
| 71>    N      -11.83786       -11.73548         5.74708
| 72>    C      -12.91546       -14.83699         6.13705
| 73>    N      -13.42348       -15.33000         7.04063
| 74>    C      -12.33681       -16.09259         3.44854
| 75>    C      -12.96121       -17.12145         4.13262
| 76>    C      -13.18221       -18.31540         3.45251
| 77>   Cl      -13.96122       -19.60871         4.28239
| 78>    C      -12.79359       -18.49643         2.12984
| 79>    C      -12.16029       -17.46799         1.45044
| 80>    C      -11.94235       -16.27414         2.11135
| 81>    C      -11.28818       -15.04782         1.61346
| 82>    O      -10.71212       -14.91188         0.55543
| 83>    C       -3.54087        -8.56611        -1.19009
| 84>    C       -2.82537        -8.48528        -2.54992
| 85>    C       -2.61706        -9.15027        -0.11089
| 86>    C       -2.46007       -10.66156        -0.23061
| 87>    C       -3.73135        -8.78649        -3.73936
| 88>    C       -8.22130        -7.14138         1.90507
| 89>    C       -9.03510        -6.39432         0.85343
| 90>    C       -5.84768        -7.26555         2.78086
| 91>    C       -5.62945        -5.84146         3.27828
| 92>    H        4.45678        -1.63628        -0.79347
| 93>    H        5.10725        -2.30353         1.51874
| 94>    H        1.03498        -3.22228         2.45692
| 95>    H       -0.08221        -1.86056        -3.60012
| 96>    H       -3.26809        -2.11765        -5.65690
| 97>    H       -1.60099        -1.68393        -5.23213
| 98>    H       -4.11183        -0.63651        -3.83310
| 99>    H       -3.12071         0.26937        -4.98249
|100>    H       -2.45829        -0.20149        -3.41088
|101>    H       -4.43126        -7.22354         0.28163
|102>    H       -3.16789        -6.50406        -0.69510
|103>    H       -5.43663        -8.84621         0.66631
|104>    H       -6.87320        -9.47074         1.45310
|105>    H       -6.45554        -6.50763         0.85890
|106>    H      -12.88189       -11.47191        -0.13133
|107>    H      -12.68906       -12.97049         0.79005
|108>    H      -11.84697       -12.51338        -2.11893
|109>    H      -13.21621       -13.47933        -1.56134
|110>    H      -11.56374       -14.00260        -1.21071
|111>    H      -10.42223       -12.46304         3.71984
|112>    H      -13.27143       -17.02375         5.15984
|113>    H      -12.98758       -19.43894         1.64285
|114>    H      -11.84537       -17.58532         0.42516
|115>    H       -4.41024        -9.22398        -1.29910
|116>    H       -2.00629        -9.20559        -2.56137
|117>    H       -2.37997        -7.49532        -2.67056
|118>    H       -3.01868        -8.92315         0.88025
|119>    H       -1.63992        -8.66856        -0.18096
|120>    H       -3.42236       -11.15581        -0.11344
|121>    H       -1.78994       -11.03143         0.54122
|122>    H       -2.05002       -10.94051        -1.19765
|123>    H       -4.17293        -9.77604        -3.63973
|124>    H       -3.15410        -8.76425        -4.66076
|125>    H       -4.53615        -8.06273        -3.83187
|126>    H       -8.28004        -6.57575         2.83568
|127>    H       -8.67323        -8.11700         2.09593
|128>    H       -8.60059        -5.41526         0.66167
|129>    H      -10.05298        -6.24959         1.20783
|130>    H       -9.08346        -6.93495        -0.08749
|131>    H       -4.87151        -7.70586         2.55931
|132>    H       -6.30144        -7.86897         3.56918
|133>    H       -5.13866        -5.23925         2.51631
|134>    H       -5.00045        -5.84532         4.16456
|135>    H       -6.57165        -5.36437         3.53377
|136> *
|137>
|138>                          ****END OF INPUT****

CARTESIAN COORDINATES (ANGSTROEM)
---------------------------------
  C      1.756400   -1.758250   -1.753210
  O      2.279730   -1.320690   -2.752880
  C      2.389310   -2.062710   -0.451890
  C      3.719590   -1.982770   -0.086040
  C      4.078040   -2.354020    1.200400
  C      3.107160   -2.798080    2.091400
  Cl     3.579180   -3.271080    3.679000
  C      1.762130   -2.872600    1.742060
  C      1.408290   -2.497610    0.458680
  C      0.100280   -2.414080   -0.190240
  C     -1.101950   -2.299070    0.458670
  C     -2.279480   -1.871270   -0.189900
  N     -3.236610   -1.468320   -0.679440
  C     -1.280770   -2.507240    1.839710
  N     -1.492370   -2.700200    2.951540
  C      0.335990   -2.161050   -1.592490
  C     -0.461500   -2.313400   -2.688730
  C     -1.651580   -3.056110   -2.819610
  S     -2.027320   -4.393090   -1.730110
  C     -3.500310   -4.699190   -2.572720
  C     -3.660720   -3.817890   -3.650810
  C     -2.615160   -2.905220   -3.810980
  C     -2.609290   -1.824320   -4.837320
  C     -3.106630   -0.511430   -4.226940
  S     -5.147550   -4.071160   -4.535790
  C     -5.546310   -5.349040   -3.443980
  C     -4.582730   -5.573080   -2.452920
  N     -4.984710   -6.586270   -1.627140
  C     -4.026020   -7.181070   -0.728140
  C     -6.219350   -7.032540   -2.067990
  C     -6.571680   -6.278200   -3.228610
  C     -7.727430   -6.554480   -3.991030
  N     -8.150520   -5.962190   -5.096730
  S     -9.497800   -6.709710   -5.593860
  N     -9.592260   -7.816740   -4.416400
  C     -8.571760   -7.638790   -3.592170
  C     -8.271480   -8.328200   -2.397230
  C     -7.135730   -8.010340   -1.591710
  N     -7.200550   -8.777780   -0.441250
  C     -6.500770   -8.664520    0.815190
  C     -6.740620   -7.323950    1.531670
  C     -8.322280   -9.556670   -0.514810
  C     -8.995330   -9.315730   -1.717880
  S    -10.449260  -10.230170   -1.902720
  C    -10.164400  -10.956280   -0.335910
  C     -8.996480  -10.487220    0.281770
  S     -8.811770  -11.168750    1.852160
  C    -10.277460  -12.130110    1.639540
  C    -10.896080  -11.882940    0.418850
  C    -12.250830  -12.356820    0.002550
  C    -12.214840  -13.139140   -1.310270
  C    -10.693010  -12.885080    2.758430
  C    -11.345260  -14.087370    2.741100
  C    -11.980100  -14.737010    3.865700
  C    -12.277320  -14.163660    5.074830
  C    -12.006730  -12.820990    5.412780
  N    -11.837860  -11.735480    5.747080
  C    -12.915460  -14.836990    6.137050
  N    -13.423480  -15.330000    7.040630
  C    -12.336810  -16.092590    3.448540
  C    -12.961210  -17.121450    4.132620
  C    -13.182210  -18.315400    3.452510
  Cl   -13.961220  -19.608710    4.282390
  C    -12.793590  -18.496430    2.129840
  C    -12.160290  -17.467990    1.450440
  C    -11.942350  -16.274140    2.111350
  C    -11.288180  -15.047820    1.613460
  O    -10.712120  -14.911880    0.555430
  C     -3.540870   -8.566110   -1.190090
  C     -2.825370   -8.485280   -2.549920
  C     -2.617060   -9.150270   -0.110890
  C     -2.460070  -10.661560   -0.230610
  C     -3.731350   -8.786490   -3.739360
  C     -8.221300   -7.141380    1.905070
  C     -9.035100   -6.394320    0.853430
  C     -5.847680   -7.265550    2.780860
  C     -5.629450   -5.841460    3.278280
  H      4.456780   -1.636280   -0.793470
  H      5.107250   -2.303530    1.518740
  H      1.034980   -3.222280    2.456920
  H     -0.082210   -1.860560   -3.600120
  H     -3.268090   -2.117650   -5.656900
  H     -1.600990   -1.683930   -5.232130
  H     -4.111830   -0.636510   -3.833100
  H     -3.120710    0.269370   -4.982490
  H     -2.458290   -0.201490   -3.410880
  H     -4.431260   -7.223540    0.281630
  H     -3.167890   -6.504060   -0.695100
  H     -5.436630   -8.846210    0.666310
  H     -6.873200   -9.470740    1.453100
  H     -6.455540   -6.507630    0.858900
  H    -12.881890  -11.471910   -0.131330
  H    -12.689060  -12.970490    0.790050
  H    -11.846970  -12.513380   -2.118930
  H    -13.216210  -13.479330   -1.561340
  H    -11.563740  -14.002600   -1.210710
  H    -10.422230  -12.463040    3.719840
  H    -13.271430  -17.023750    5.159840
  H    -12.987580  -19.438940    1.642850
  H    -11.845370  -17.585320    0.425160
  H     -4.410240   -9.223980   -1.299100
  H     -2.006290   -9.205590   -2.561370
  H     -2.379970   -7.495320   -2.670560
  H     -3.018680   -8.923150    0.880250
  H     -1.639920   -8.668560   -0.180960
  H     -3.422360  -11.155810   -0.113440
  H     -1.789940  -11.031430    0.541220
  H     -2.050020  -10.940510   -1.197650
  H     -4.172930   -9.776040   -3.639730
  H     -3.154100   -8.764250   -4.660760
  H     -4.536150   -8.062730   -3.831870
  H     -8.280040   -6.575750    2.835680
  H     -8.673230   -8.117000    2.095930
  H     -8.600590   -5.415260    0.661670
  H    -10.052980   -6.249590    1.207830
  H     -9.083460   -6.934950   -0.087490
  H     -4.871510   -7.705860    2.559310
  H     -6.301440   -7.868970    3.569180
  H     -5.138660   -5.239250    2.516310
  H     -5.000450   -5.845320    4.164560
  H     -6.571650   -5.364370    3.533770

 Total Charge           Charge          ....    0
 Multiplicity           Mult            ....    1
 Number of Electrons    NEL             ....  590
 Basis Dimension        Dim             .... 2693

ORBITAL ENERGIES
----------------

  NO   OCC          E(Eh)            E(eV)
   0   2.0000    -101.544345     -2763.1621
   1   2.0000    -101.543349     -2763.1350
   2   2.0000     -88.945234     -2420.3229
   3   2.0000     -88.909336     -2419.3460
   4   2.0000     -88.908579     -2419.3254
   5   2.0000     -88.907426     -2419.2941
   6   2.0000     -88.906051     -2419.2567
   7   2.0000     -19.130731      -520.5737
   8   2.0000     -19.128195      -520.5046
   9   2.0000     -14.405721      -391.9996
  10   2.0000     -14.405452      -391.9923
  11   2.0000     -14.352091      -390.5402
  12   2.0000     -14.352047      -390.5391
  13   2.0000     -14.328444      -389.8968
  14   2.0000     -14.327349      -389.8670
  15   2.0000     -14.325717      -389.8226
  16   2.0000     -14.325711      -389.8224
  17   2.0000     -10.276669      -279.6424
  18   2.0000     -10.273564      -279.5579
  19   2.0000     -10.264732      -279.3176
  20   2.0000     -10.264306      -279.3060
  21   2.0000     -10.260315      -279.1974
  22   2.0000     -10.259541      -279.1763
  23   2.0000     -10.255164      -279.0572
  24   2.0000     -10.254958      -279.0516
  25   2.0000     -10.252292      -278.9790
  26   2.0000     -10.251629      -278.9610
  27   2.0000     -10.243099      -278.7289
  28   2.0000     -10.243068      -278.7280
  29   2.0000     -10.242232      -278.7053
  30   2.0000     -10.242129      -278.7025
  31   2.0000     -10.241016      -278.6722
  32   2.0000     -10.240860      -278.6680
  33   2.0000     -10.236536      -278.5503
  34   2.0000     -10.236108      -278.5387
  35   2.0000     -10.233757      -278.4747
  36   2.0000     -10.232260      -278.4339
  37   2.0000     -10.229431      -278.3570
  38   2.0000     -10.228634      -278.3353
  39   2.0000     -10.228432      -278.3298
  40   2.0000     -10.227199      -278.2962
  41   2.0000     -10.226920      -278.2886
  42   2.0000     -10.226625      -278.2806
  43   2.0000     -10.226613      -278.2803
  44   2.0000     -10.226172      -278.2683
  45   2.0000     -10.225879      -278.2603
  46   2.0000     -10.225339      -278.2456
  47   2.0000     -10.224385      -278.2197
  48   2.0000     -10.224013      -278.2095
  49   2.0000     -10.224005      -278.2093
  50   2.0000     -10.222763      -278.1755
  51   2.0000     -10.213734      -277.9298
  52   2.0000     -10.213604      -277.9263
  53   2.0000     -10.213588      -277.9259
  54   2.0000     -10.213261      -277.9170
  55   2.0000     -10.213167      -277.9144
  56   2.0000     -10.213014      -277.9102
  57   2.0000     -10.212802      -277.9045
  58   2.0000     -10.212473      -277.8955
  59   2.0000     -10.211528      -277.8698
  60   2.0000     -10.209189      -277.8062
  61   2.0000     -10.209078      -277.8031
  62   2.0000     -10.208521      -277.7880
  63   2.0000     -10.202202      -277.6160
  64   2.0000     -10.198401      -277.5126
  65   2.0000     -10.198091      -277.5042
  66   2.0000     -10.191403      -277.3222
  67   2.0000     -10.190287      -277.2918
  68   2.0000     -10.185236      -277.1544
  69   2.0000     -10.184272      -277.1281
  70   2.0000     -10.179367      -276.9947
  71   2.0000     -10.176714      -276.9225
  72   2.0000     -10.170904      -276.7644
  73   2.0000     -10.169588      -276.7286
  74   2.0000     -10.168450      -276.6976
  75   2.0000     -10.165219      -276.6097
  76   2.0000     -10.163347      -276.5587
  77   2.0000      -9.477055      -257.8838
  78   2.0000      -9.476041      -257.8562
  79   2.0000      -8.016310      -218.1349
  80   2.0000      -7.985777      -217.3041
  81   2.0000      -7.985346      -217.2923
  82   2.0000      -7.982950      -217.2271
  83   2.0000      -7.981646      -217.1916
  84   2.0000      -7.238554      -196.9711
  85   2.0000      -7.237525      -196.9431
  86   2.0000      -7.230317      -196.7469
  87   2.0000      -7.229735      -196.7311
  88   2.0000      -7.229307      -196.7195
  89   2.0000      -7.228715      -196.7033
  90   2.0000      -5.981041      -162.7524
  91   2.0000      -5.973661      -162.5516
  92   2.0000      -5.973042      -162.5347
  93   2.0000      -5.948521      -161.8675
  94   2.0000      -5.948030      -161.8541
  95   2.0000      -5.945909      -161.7964
  96   2.0000      -5.944725      -161.7642
  97   2.0000      -5.944607      -161.7610
  98   2.0000      -5.944322      -161.7532
  99   2.0000      -5.942126      -161.6935
 100   2.0000      -5.941884      -161.6869
 101   2.0000      -5.941402      -161.6738
 102   2.0000      -5.940802      -161.6575
 103   2.0000      -5.938765      -161.6020
 104   2.0000      -5.937443      -161.5660
 105   2.0000      -1.062565       -28.9139
 106   2.0000      -1.058361       -28.7995
 107   2.0000      -1.044644       -28.4262
 108   2.0000      -1.032458       -28.0946
 109   2.0000      -1.031415       -28.0662
 110   2.0000      -0.945341       -25.7240
 111   2.0000      -0.943564       -25.6757
 112   2.0000      -0.935577       -25.4584
 113   2.0000      -0.934259       -25.4225
 114   2.0000      -0.929006       -25.2795
 115   2.0000      -0.928884       -25.2762
 116   2.0000      -0.922942       -25.1145
 117   2.0000      -0.922098       -25.0916
 118   2.0000      -0.903556       -24.5870
 119   2.0000      -0.902854       -24.5679
 120   2.0000      -0.901612       -24.5341
 121   2.0000      -0.893092       -24.3023
 122   2.0000      -0.880448       -23.9582
 123   2.0000      -0.871491       -23.7145
 124   2.0000      -0.857715       -23.3396
 125   2.0000      -0.855493       -23.2791
 126   2.0000      -0.849229       -23.1087
 127   2.0000      -0.845051       -22.9950
 128   2.0000      -0.828153       -22.5352
 129   2.0000      -0.824154       -22.4264
 130   2.0000      -0.822235       -22.3741
 131   2.0000      -0.819401       -22.2970
 132   2.0000      -0.813240       -22.1294
 133   2.0000      -0.802830       -21.8461
 134   2.0000      -0.797186       -21.6925
 135   2.0000      -0.791563       -21.5395
 136   2.0000      -0.786425       -21.3997
 137   2.0000      -0.783284       -21.3142
 138   2.0000      -0.781040       -21.2532
 139   2.0000      -0.773869       -21.0580
 140   2.0000      -0.768466       -20.9110
 141   2.0000      -0.764266       -20.7967
 142   2.0000      -0.747636       -20.3442
 143   2.0000      -0.746488       -20.3130
 144   2.0000      -0.740722       -20.1561
 145   2.0000      -0.732032       -19.9196
 146   2.0000      -0.723392       -19.6845
 147   2.0000      -0.721652       -19.6371
 148   2.0000      -0.714342       -19.4382
 149   2.0000      -0.697984       -18.9931
 150   2.0000      -0.689393       -18.7593
 151   2.0000      -0.686051       -18.6684
 152   2.0000      -0.680883       -18.5278
 153   2.0000      -0.680631       -18.5209
 154   2.0000      -0.660127       -17.9630
 155   2.0000      -0.654141       -17.8001
 156   2.0000      -0.649459       -17.6727
 157   2.0000      -0.645700       -17.5704
 158   2.0000      -0.639007       -17.3883
 159   2.0000      -0.635654       -17.2970
 160   2.0000      -0.631843       -17.1933
 161   2.0000      -0.628589       -17.1048
 162   2.0000      -0.625672       -17.0254
 163   2.0000      -0.618851       -16.8398
 164   2.0000      -0.616335       -16.7713
 165   2.0000      -0.610606       -16.6154
 166   2.0000      -0.600747       -16.3472
 167   2.0000      -0.598725       -16.2921
 168   2.0000      -0.596951       -16.2439
 169   2.0000      -0.592295       -16.1172
 170   2.0000      -0.590706       -16.0739
 171   2.0000      -0.578017       -15.7286
 172   2.0000      -0.574941       -15.6450
 173   2.0000      -0.572683       -15.5835
 174   2.0000      -0.561204       -15.2711
 175   2.0000      -0.555951       -15.1282
 176   2.0000      -0.548553       -14.9269
 177   2.0000      -0.545300       -14.8384
 178   2.0000      -0.541780       -14.7426
 179   2.0000      -0.536603       -14.6017
 180   2.0000      -0.530063       -14.4238
 181   2.0000      -0.529239       -14.4013
 182   2.0000      -0.522094       -14.2069
 183   2.0000      -0.518468       -14.1082
 184   2.0000      -0.516225       -14.0472
 185   2.0000      -0.510814       -13.9000
 186   2.0000      -0.504742       -13.7347
 187   2.0000      -0.502479       -13.6731
 188   2.0000      -0.500462       -13.6183
 189   2.0000      -0.491761       -13.3815
 190   2.0000      -0.489678       -13.3248
 191   2.0000      -0.487188       -13.2571
 192   2.0000      -0.482349       -13.1254
 193   2.0000      -0.479936       -13.0597
 194   2.0000      -0.478242       -13.0136
 195   2.0000      -0.475551       -12.9404
 196   2.0000      -0.473863       -12.8945
 197   2.0000      -0.472135       -12.8475
 198   2.0000      -0.471151       -12.8207
 199   2.0000      -0.466483       -12.6936
 200   2.0000      -0.464928       -12.6513
 201   2.0000      -0.462880       -12.5956
 202   2.0000      -0.462001       -12.5717
 203   2.0000      -0.461194       -12.5497
 204   2.0000      -0.456507       -12.4222
 205   2.0000      -0.454891       -12.3782
 206   2.0000      -0.452941       -12.3251
 207   2.0000      -0.452107       -12.3025
 208   2.0000      -0.450829       -12.2677
 209   2.0000      -0.446397       -12.1471
 210   2.0000      -0.445183       -12.1140
 211   2.0000      -0.443655       -12.0725
 212   2.0000      -0.441572       -12.0158
 213   2.0000      -0.440092       -11.9755
 214   2.0000      -0.436940       -11.8898
 215   2.0000      -0.436532       -11.8786
 216   2.0000      -0.435462       -11.8495
 217   2.0000      -0.433575       -11.7982
 218   2.0000      -0.431385       -11.7386
 219   2.0000      -0.428937       -11.6720
 220   2.0000      -0.425291       -11.5728
 221   2.0000      -0.424344       -11.5470
 222   2.0000      -0.420532       -11.4433
 223   2.0000      -0.418630       -11.3915
 224   2.0000      -0.416308       -11.3283
 225   2.0000      -0.415732       -11.3126
 226   2.0000      -0.414493       -11.2789
 227   2.0000      -0.412610       -11.2277
 228   2.0000      -0.408740       -11.1224
 229   2.0000      -0.406559       -11.0630
 230   2.0000      -0.403308       -10.9746
 231   2.0000      -0.401766       -10.9326
 232   2.0000      -0.399458       -10.8698
 233   2.0000      -0.396301       -10.7839
 234   2.0000      -0.394425       -10.7328
 235   2.0000      -0.394041       -10.7224
 236   2.0000      -0.393759       -10.7147
 237   2.0000      -0.393153       -10.6982
 238   2.0000      -0.390953       -10.6384
 239   2.0000      -0.388023       -10.5586
 240   2.0000      -0.386513       -10.5176
 241   2.0000      -0.384728       -10.4690
 242   2.0000      -0.382488       -10.4080
 243   2.0000      -0.379627       -10.3302
 244   2.0000      -0.378212       -10.2917
 245   2.0000      -0.377434       -10.2705
 246   2.0000      -0.373858       -10.1732
 247   2.0000      -0.372832       -10.1453
 248   2.0000      -0.371280       -10.1030
 249   2.0000      -0.369922       -10.0661
 250   2.0000      -0.366927        -9.9846
 251   2.0000      -0.365872        -9.9559
 252   2.0000      -0.365769        -9.9531
 253   2.0000      -0.364519        -9.9191
 254   2.0000      -0.363619        -9.8946
 255   2.0000      -0.362360        -9.8603
 256   2.0000      -0.361805        -9.8452
 257   2.0000      -0.360763        -9.8169
 258   2.0000      -0.360265        -9.8033
 259   2.0000      -0.359518        -9.7830
 260   2.0000      -0.356626        -9.7043
 261   2.0000      -0.356080        -9.6894
 262   2.0000      -0.354134        -9.6365
 263   2.0000      -0.352685        -9.5971
 264   2.0000      -0.351237        -9.5576
 265   2.0000      -0.349386        -9.5073
 266   2.0000      -0.348176        -9.4743
 267   2.0000      -0.345782        -9.4092
 268   2.0000      -0.343822        -9.3559
 269   2.0000      -0.340930        -9.2772
 270   2.0000      -0.339036        -9.2256
 271   2.0000      -0.335681        -9.1343
 272   2.0000      -0.335438        -9.1277
 273   2.0000      -0.333653        -9.0792
 274   2.0000      -0.333421        -9.0728
 275   2.0000      -0.332826        -9.0566
 276   2.0000      -0.332118        -9.0374
 277   2.0000      -0.329789        -8.9740
 278   2.0000      -0.310222        -8.4416
 279   2.0000      -0.307014        -8.3543
 280   2.0000      -0.306219        -8.3327
 281   2.0000      -0.295548        -8.0423
 282   2.0000      -0.286410        -7.7936
 283   2.0000      -0.283177        -7.7056
 284   2.0000      -0.281663        -7.6644
 285   2.0000      -0.278192        -7.5700
 286   2.0000      -0.274254        -7.4628
 287   2.0000      -0.269477        -7.3328
 288   2.0000      -0.266938        -7.2637
 289   2.0000      -0.263524        -7.1709
 290   2.0000      -0.257057        -6.9949
 291   2.0000      -0.242211        -6.5909
 292   2.0000      -0.234480        -6.3805
 293   2.0000      -0.230554        -6.2737
 294   2.0000      -0.204203        -5.5566
 295   0.0000      -0.133190        -3.6243
 296   0.0000      -0.124595        -3.3904
 297   0.0000      -0.108426        -2.9504
 298   0.0000      -0.103987        -2.8296
 299   0.0000      -0.087990        -2.3943

MULLIKEN ATOMIC CHARGES
-----------------------
   0 C :    0.206210
   1 O :   -0.290285
   2 C :   -0.016884
   3 C :   -0.196898
   4 C :   -0.143946
   5 C :    0.204502
   6 Cl:   -0.077270
   7 C :   -0.270083
   8 C :    0.140220
   9 C :   -0.012182
  10 C :    0.122642
  11 C :   -0.209857
  12 N :    0.029080
  13 C :   -0.237879
  14 N :    0.033904
  15 C :   -0.000414
  16 C :   -0.323072
  17 C :    0.223287
  18 S :   -0.056099
  19 C :   -0.217403
  20 C :    0.021069
  21 C :    0.070740
  22 C :   -0.232821
  23 C :   -0.312935
  24 S :    0.031679
  25 C :   -0.157607
  26 C :    0.407333
  27 N :    0.038331
  28 C :   -0.320274
  29 C :   -0.072506
  30 C :    0.112464
  31 C :    0.009750
  32 N :   -0.252679
  33 S :    0.348404
  34 N :   -0.250849
  35 C :    0.005850
  36 C :    0.118368
  37 C :   -0.088218
  38 N :    0.033855
  39 C :   -0.333431
  40 C :    0.069930
  41 C :    0.402045
  42 C :   -0.169418
  43 S :    0.021519
  44 C :    0.030392
  45 C :   -0.244205
  46 S :   -0.037007
  47 C :    0.141845
  48 C :    0.043238
  49 C :   -0.163395
  50 C :   -0.370769
  51 C :   -0.272856
  52 C :   -0.020593
  53 C :    0.010475
  54 C :    0.142757
  55 C :   -0.234676
  56 N :    0.051848
  57 C :   -0.229983
  58 N :    0.043767
  59 C :    0.088826
  60 C :   -0.271033
  61 C :    0.195685
  62 Cl:   -0.073278
  63 C :   -0.138913
  64 C :   -0.205304
  65 C :    0.103129
  66 C :    0.159339
  67 O :   -0.324963
  68 C :    0.063567
  69 C :   -0.166630
  70 C :   -0.183460
  71 C :   -0.338286
  72 C :   -0.365574
  73 C :   -0.175827
  74 C :   -0.362326
  75 C :   -0.181812
  76 C :   -0.336985
  77 H :    0.137370
  78 H :    0.129928
  79 H :    0.152861
  80 H :    0.140829
  81 H :    0.103972
  82 H :    0.110843
  83 H :    0.122108
  84 H :    0.113416
  85 H :    0.127986
  86 H :    0.137679
  87 H :    0.137486
  88 H :    0.139851
  89 H :    0.143498
  90 H :    0.078211
  91 H :    0.109879
  92 H :    0.112325
  93 H :    0.112123
  94 H :    0.106112
  95 H :    0.159393
  96 H :    0.163666
  97 H :    0.161451
  98 H :    0.130053
  99 H :    0.134157
 100 H :    0.075909
 101 H :    0.094729
 102 H :    0.100530
 103 H :    0.091717
 104 H :    0.103839
 105 H :    0.107219
 106 H :    0.119323
 107 H :    0.108716
 108 H :    0.106733
 109 H :    0.113024
 110 H :    0.137828
 111 H :    0.098815
 112 H :    0.101174
 113 H :    0.108323
 114 H :    0.115959
 115 H :    0.131630
 116 H :    0.086187
 117 H :    0.105089
 118 H :    0.113366
 119 H :    0.121933
 120 H :    0.107595
Sum of atomic charges:   -0.0000000

LOEWDIN ATOMIC CHARGES
----------------------
   0 C :   -0.257090
   1 O :    0.132296
   2 C :   -0.058198
   3 C :   -0.065068
   4 C :   -0.119322
   5 C :   -0.414428
   6 Cl:    0.432670
   7 C :   -0.082974
   8 C :   -0.040118
   9 C :   -0.003870
  10 C :   -0.153686
  11 C :   -0.178811
  12 N :    0.087255
  13 C :   -0.165288
  14 N :    0.080393
  15 C :   -0.091833
  16 C :   -0.058614
  17 C :   -0.307005
  18 S :    0.786713
  19 C :   -0.335882
  20 C :   -0.321409
  21 C :   -0.130524
  22 C :   -0.227599
  23 C :   -0.278967
  24 S :    0.763163
  25 C :   -0.291302
  26 C :   -0.189454
  27 N :    0.307761
  28 C :   -0.219089
  29 C :   -0.097260
  30 C :   -0.096532
  31 C :   -0.246047
  32 N :   -0.126051
  33 S :    0.658409
  34 N :   -0.125946
  35 C :   -0.245764
  36 C :   -0.096015
  37 C :   -0.097775
  38 N :    0.307445
  39 C :   -0.219766
  40 C :   -0.254176
  41 C :   -0.192130
  42 C :   -0.295017
  43 S :    0.764766
  44 C :   -0.314777
  45 C :   -0.343051
  46 S :    0.748386
  47 C :   -0.299668
  48 C :   -0.123141
  49 C :   -0.226245
  50 C :   -0.294416
  51 C :   -0.062194
  52 C :   -0.091562
  53 C :    0.007637
  54 C :   -0.133607
  55 C :   -0.166095
  56 N :    0.084070
  57 C :   -0.162947
  58 N :    0.084974
  59 C :   -0.040082
  60 C :   -0.079175
  61 C :   -0.413483
  62 Cl:    0.434379
  63 C :   -0.118140
  64 C :   -0.066437
  65 C :   -0.059508
  66 C :   -0.260333
  67 O :    0.144287
  68 C :   -0.253338
  69 C :   -0.254463
  70 C :   -0.263700
  71 C :   -0.299043
  72 C :   -0.298252
  73 C :   -0.254668
  74 C :   -0.297706
  75 C :   -0.264379
  76 C :   -0.296307
  77 H :    0.157735
  78 H :    0.150668
  79 H :    0.161120
  80 H :    0.172149
  81 H :    0.142487
  82 H :    0.144540
  83 H :    0.125554
  84 H :    0.118828
  85 H :    0.123760
  86 H :    0.139956
  87 H :    0.145790
  88 H :    0.138895
  89 H :    0.145478
  90 H :    0.154270
  91 H :    0.148762
  92 H :    0.147886
  93 H :    0.111007
  94 H :    0.118642
  95 H :    0.128204
  96 H :    0.169328
  97 H :    0.163103
  98 H :    0.150707
  99 H :    0.156861
 100 H :    0.153946
 101 H :    0.137468
 102 H :    0.137403
 103 H :    0.131083
 104 H :    0.138489
 105 H :    0.117299
 106 H :    0.120207
 107 H :    0.116993
 108 H :    0.118461
 109 H :    0.119772
 110 H :    0.124516
 111 H :    0.139232
 112 H :    0.135613
 113 H :    0.119246
 114 H :    0.120479
 115 H :    0.123368
 116 H :    0.129313
 117 H :    0.138831
 118 H :    0.118707
 119 H :    0.121776
 120 H :    0.117196

  Mayer bond orders larger than 0.100000
B(  0-C ,  1-O ) :   2.1897 B(  0-C ,  2-C ) :   0.9682 B(  0-C , 15-C ) :   0.9955
B(  1-O ,  2-C ) :  -0.1533 B(  1-O , 15-C ) :  -0.1426 B(  1-O , 16-C ) :   0.1046
B(  2-C ,  3-C ) :   1.3689 B(  2-C ,  8-C ) :   1.3177 B(  3-C ,  4-C ) :   1.3625
B(  3-C , 77-H ) :   0.9816 B(  4-C ,  5-C ) :   1.3425 B(  4-C , 78-H ) :   0.9755
B(  5-C ,  6-Cl) :   0.9788 B(  5-C ,  7-C ) :   1.3746 B(  7-C ,  8-C ) :   1.3748
B(  7-C , 79-H ) :   0.9482 B(  8-C ,  9-C ) :   1.0440 B(  9-C , 10-C ) :   1.4117
B(  9-C , 15-C ) :   1.1513 B( 10-C , 11-C ) :   1.0395 B( 10-C , 13-C ) :   1.0588
B( 11-C , 12-N ) :   2.9634 B( 13-C , 14-N ) :   2.9846 B( 15-C , 16-C ) :   1.5066
B( 16-C , 17-C ) :   1.0452 B( 16-C , 80-H ) :   0.9653 B( 17-C , 18-S ) :   1.1559
B( 17-C , 21-C ) :   1.4061 B( 18-S , 19-C ) :   1.3014 B( 18-S , 26-C ) :  -0.1369
B( 19-C , 20-C ) :   1.3979 B( 19-C , 24-S ) :   0.1331 B( 19-C , 26-C ) :   1.0102
B( 20-C , 21-C ) :   1.3062 B( 20-C , 24-S ) :   1.1661 B( 20-C , 26-C ) :  -0.1214
B( 21-C , 22-C ) :   0.9287 B( 22-C , 23-C ) :   0.9730 B( 22-C , 81-H ) :   0.9762
B( 22-C , 82-H ) :   0.9724 B( 23-C , 83-H ) :   0.9682 B( 23-C , 84-H ) :   0.9701
B( 23-C , 85-H ) :   0.9711 B( 24-S , 25-C ) :   1.3705 B( 25-C , 26-C ) :   1.2608
B( 25-C , 30-C ) :   1.1778 B( 26-C , 27-N ) :   1.1051 B( 27-N , 28-C ) :   0.8612
B( 27-N , 29-C ) :   1.1903 B( 28-C , 68-C ) :   0.9193 B( 28-C , 86-H ) :   0.9925
B( 28-C , 87-H ) :   0.9735 B( 29-C , 30-C ) :   1.2089 B( 29-C , 37-C ) :   1.4463
B( 30-C , 31-C ) :   1.0842 B( 31-C , 32-N ) :   1.5908 B( 31-C , 33-S ) :   0.1195
B( 31-C , 35-C ) :   1.1993 B( 32-N , 33-S ) :   1.2855 B( 32-N , 34-N ) :   0.1017
B( 33-S , 34-N ) :   1.2848 B( 33-S , 35-C ) :   0.1213 B( 34-N , 35-C ) :   1.5897
B( 35-C , 36-C ) :   1.0959 B( 36-C , 37-C ) :   1.2020 B( 36-C , 42-C ) :   1.1814
B( 37-C , 38-N ) :   1.2011 B( 38-N , 39-C ) :   0.8578 B( 38-N , 41-C ) :   1.1136
B( 39-C , 40-C ) :   0.9087 B( 39-C , 88-H ) :   0.9932 B( 39-C , 89-H ) :   0.9721
B( 40-C , 73-C ) :   0.9101 B( 40-C , 75-C ) :   0.9118 B( 40-C , 90-H ) :   0.9727
B( 41-C , 42-C ) :   1.2587 B( 41-C , 44-C ) :  -0.1043 B( 41-C , 45-C ) :   1.0017
B( 41-C , 46-S ) :  -0.1770 B( 42-C , 43-S ) :   1.3622 B( 43-S , 44-C ) :   1.1652
B( 43-S , 45-C ) :   0.1287 B( 44-C , 45-C ) :   1.3814 B( 44-C , 48-C ) :   1.2408
B( 45-C , 46-S ) :   1.3509 B( 46-S , 47-C ) :   1.1892 B( 47-C , 48-C ) :   1.4126
B( 47-C , 51-C ) :   1.1711 B( 48-C , 49-C ) :   0.9624 B( 49-C , 50-C ) :   0.9523
B( 49-C , 91-H ) :   0.9448 B( 49-C , 92-H ) :   0.9747 B( 50-C , 93-H ) :   0.9670
B( 50-C , 94-H ) :   0.9717 B( 50-C , 95-H ) :   0.9692 B( 51-C , 52-C ) :   1.4706
B( 51-C , 96-H ) :   0.9204 B( 52-C , 53-C ) :   1.1439 B( 52-C , 66-C ) :   1.0222
B( 53-C , 54-C ) :   1.4627 B( 53-C , 59-C ) :   1.0285 B( 54-C , 55-C ) :   1.0319
B( 54-C , 57-C ) :   1.0361 B( 55-C , 56-N ) :   3.0035 B( 57-C , 58-N ) :   2.9845
B( 59-C , 60-C ) :   1.3966 B( 59-C , 65-C ) :   1.3227 B( 60-C , 61-C ) :   1.3724
B( 60-C , 97-H ) :   0.9305 B( 61-C , 62-Cl) :   0.9961 B( 61-C , 63-C ) :   1.3403
B( 63-C , 64-C ) :   1.3653 B( 63-C , 98-H ) :   0.9744 B( 64-C , 65-C ) :   1.3682
B( 64-C , 99-H ) :   0.9827 B( 65-C , 66-C ) :   0.9640 B( 65-C , 67-O ) :  -0.1494
B( 66-C , 67-O ) :   2.0782 B( 68-C , 69-C ) :   0.9133 B( 68-C , 70-C ) :   0.9139
B( 68-C ,100-H ) :   0.9699 B( 69-C , 72-C ) :   0.9646 B( 69-C ,101-H ) :   0.9726
B( 69-C ,102-H ) :   0.9576 B( 70-C , 71-C ) :   0.9691 B( 70-C ,103-H ) :   0.9707
B( 70-C ,104-H ) :   0.9646 B( 71-C ,105-H ) :   0.9762 B( 71-C ,106-H ) :   0.9803
B( 71-C ,107-H ) :   0.9736 B( 72-C ,108-H ) :   0.9752 B( 72-C ,109-H ) :   0.9766
B( 72-C ,110-H ) :   0.9743 B( 73-C , 74-C ) :   0.9661 B( 73-C ,111-H ) :   0.9724
B( 73-C ,112-H ) :   0.9586 B( 74-C ,113-H ) :   0.9748 B( 74-C ,114-H ) :   0.9770
B( 74-C ,115-H ) :   0.9738 B( 75-C , 76-C ) :   0.9723 B( 75-C ,116-H ) :   0.9692
B( 75-C ,117-H ) :   0.9626 B( 76-C ,118-H ) :   0.9769 B( 76-C ,119-H ) :   0.9796
B( 76-C ,120-H ) :   0.9727

-----------------------------------------------------------------------------
  SOC CORRECTED ABSORPTION SPECTRUM VIA TRANSITION ELECTRIC DIPOLE MOMENTS*
-----------------------------------------------------------------------------
State   Energy  Wavelength   fosc         T2         TX        TY        TZ
        (cm-1)    (nm)                  (au**2)     (au)      (au)      (au)
-----------------------------------------------------------------------------
   1   10155.2    984.7   0.000000014   0.00000   0.00036   0.00039   0.00042
   2   10155.2    984.7   0.000000018   0.00000   0.00046   0.00053   0.00030
   3   10155.2    984.7   0.000000000   0.00000   0.00004   0.00001   0.00001
   4   11849.9    843.9   0.000000035   0.00000   0.00070   0.00066   0.00023
   5   11849.9    843.9   0.000000019   0.00000   0.00048   0.00054   0.00002
   6   11849.9    843.9   0.000000002   0.00000   0.00005   0.00010   0.00022
   7   14246.3    701.9   1.807485947  41.76838   4.47537   4.51637   1.15840
   8   16115.5    620.5   0.000007001   0.00014   0.00225   0.00568   0.01028
   9   16115.5    620.5   0.000000014   0.00000   0.00032   0.00041   0.00005
  10   16115.5    620.5   0.000000684   0.00001   0.00263   0.00266   0.00011
  11   16245.7    615.5   0.198520259   4.02292   0.27246   0.91332   1.76481
  12   18455.4    541.8   0.198649596   3.54356   1.00607   1.50729   0.50937

FINAL SINGLE POINT ENERGY     -5811.594738855697

DIPOLE MOMENT
-------------
                                X             Y             Z
Electronic contribution:    -20.02337     -17.34814      14.41331
Nuclear contribution   :     21.96467      16.27616     -17.06025
                        -----------------------------------------
Total Dipole Moment    :      1.94130      -1.07198      -2.64693
                        -----------------------------------------
Magnitude (a.u.)       :      3.45312
Magnitude (Debye)      :      8.77714

Rotational constants in cm-1:     0.001363     0.000282     0.000251
Rotational constants in MHz :    40.865089     8.452460     7.521912

                             ****ORCA TERMINATED NORMALLY****
TOTAL RUN TIME: 1 days 9 hours 12 minutes 13 seconds 741 msec
