                         Program Version 4.2.0 -  RELEASE  -
|  1> # ORCA input file
|  2> # IDF-4F.out: Geometry 146
|  3> ! B3LYP def2-TZVP def2/J RIJCOSX Grid4 TightSCF
|  4>
|  5> %maxcore 6000
|  6> %tddft
|  7>   maxdim 5
|  8>   nroots 3
|  9>   dosoc true
| 10>   end
| 11> %pal
| 12>   nprocs 6
| 13>   end
| 14>
| 15>
| 16> * xyz 0 1
| 17>    C        0.16738        -2.76988        -2.20975
| 18>    C       -0.93897        -3.22446        -1.51506
| 19>    C       -2.10905        -3.89971        -2.08981
| 20>    C       -2.96583        -4.34760        -0.96043
| 21>    C       -2.38807        -3.90122         0.24107
| 22>    C       -1.12139        -3.18516        -0.03820
| 23>    C       -4.16313        -5.07683        -0.91175
| 24>    C       -4.72696        -5.32627         0.33827
| 25>    C       -4.14015        -4.85436         1.52682
| 26>    C       -2.95303        -4.13451         1.48868
| 27>    F       -4.74144        -5.11578         2.68356
| 28>    F       -5.85623        -6.02457         0.43423
| 29>    O       -0.40099        -2.69676         0.81536
| 30>    C       -2.42623        -4.06811        -3.42618
| 31>    C       -3.61199        -4.73700        -3.86625
| 32>    C       -1.63881        -3.56121        -4.50740
| 33>    N       -4.56620        -5.27079        -4.26086
| 34>    N       -1.03699        -3.16106        -5.41801
| 35>    C        1.32305        -2.09065        -1.77057
| 36>    O        2.27349        -1.86822        -2.78198
| 37>    C        3.27092        -1.19432        -2.21366
| 38>    C        3.03143        -0.94163        -0.87248
| 39>    C        1.79544        -1.52082        -0.57178
| 40>    C       11.09509         3.12701        -3.40628
| 41>    C       11.27545         3.96313        -2.32875
| 42>    C       10.41104         4.38336        -1.23248
| 43>    C       11.29502         4.90107        -0.15803
| 44>    C       12.60474         5.01758        -0.67037
| 45>    C       12.64927         4.49550        -2.06144
| 46>    C       11.02843         5.31460         1.15341
| 47>    C       12.08691         5.82237         1.90416
| 48>    C       13.38338         5.94737         1.37141
| 49>    C       13.65576         5.54418         0.07054
| 50>    F       14.34140         6.45705         2.13827
| 51>    F       11.89092         6.20979         3.16112
| 52>    O       13.61314         4.46099        -2.79813
| 53>    C        9.03155         4.50497        -1.26393
| 54>    C        8.24816         4.87742        -0.12833
| 55>    C        8.28527         4.36458        -2.47637
| 56>    N        7.56986         5.14337         0.77805
| 57>    N        7.67652         4.30309        -3.46370
| 58>    C        4.54567        -0.68468        -2.64813
| 59>    C        5.12914        -0.09355        -1.48468
| 60>    C        4.18774        -0.17740        -0.25762
| 61>    C        5.20447        -0.69112        -3.88910
| 62>    C        6.47025        -0.12908        -3.94517
| 63>    C        7.03986         0.47699        -2.78537
| 64>    C        6.37448         0.50731        -1.55160
| 65>    C        7.40259        -0.00223        -5.17686
| 66>    C        8.52737         0.82873        -4.56953
| 67>    C        8.27962         1.04490        -3.22723
| 68>    C        3.81277         1.26029         0.13416
| 69>    C        4.76347        -1.00336         0.89984
| 70>    C        7.96297        -1.35898        -5.62939
| 71>    C        6.65573         0.77533        -6.27237
| 72>    C        5.75701        -1.96728         0.68964
| 73>    C        6.20183        -2.78215         1.73264
| 74>    C        5.66521        -2.66940         3.02332
| 75>    C        4.65949        -1.71019         3.22301
| 76>    C        4.21306        -0.89289         2.18392
| 77>    C        2.67741         1.88244        -0.39596
| 78>    C        2.38654         3.21424        -0.09560
| 79>    C        3.21436         3.97294         0.74157
| 80>    C        4.36661         3.35137         1.25213
| 81>    C        4.65952         2.02077         0.95513
| 82>    C        6.16369         0.15933        -7.42682
| 83>    C        5.41816         0.89245        -8.35790
| 84>    C        5.13912         2.24913        -8.15770
| 85>    C        5.62650         2.85434        -6.98761
| 86>    C        6.37590         2.13608        -6.06158
| 87>    C        8.98285        -1.39155        -6.59569
| 88>    C        9.58124        -2.59179        -6.97297
| 89>    C        9.18305        -3.81424        -6.40285
| 90>    C        8.14881        -3.77948        -5.46306
| 91>    C        7.55300        -2.57522        -5.07539
| 92>    C        6.15781        -3.52506         4.17324
| 93>    C        6.45437        -4.98542         3.81801
| 94>    C        2.84280         5.39278         1.10993
| 95>    C        3.95655         6.42957         0.94685
| 96>    C        9.86461        -5.11413        -6.76771
| 97>    C        9.75076        -5.49732        -8.24661
| 98>    C        4.38694         3.06701        -9.17966
| 99>    C        5.32343         3.86501       -10.09875
|100>    C        9.69422         1.55523        -4.86490
|101>    C       10.07012         2.19699        -3.67384
|102>    O        9.19257         1.83854        -2.66316
|103>    H        0.19658        -2.95375        -3.28520
|104>    H       -4.67366        -5.46342        -1.79116
|105>    H       -2.48299        -3.76447         2.40092
|106>    H        1.25752        -1.56977         0.36794
|107>    H       11.91316         3.14879        -4.13630
|108>    H       10.04416         5.25220         1.61603
|109>    H       14.65783         5.64474        -0.34934
|110>    H        4.73280        -1.12086        -4.77400
|111>    H        6.82030         0.99412        -0.68400
|112>    H        6.19315        -2.09189        -0.30273
|113>    H        6.98461        -3.51502         1.52695
|114>    H        4.21150        -1.59949         4.21441
|115>    H        3.42695        -0.15939         2.37537
|116>    H        2.00691         1.32505        -1.05142
|117>    H        1.49045         3.67305        -0.52130
|118>    H        5.05461         3.91421         1.88605
|119>    H        5.55315         1.56315         1.38428
|120>    H        6.36258        -0.89817        -7.60752
|121>    H        5.03940         0.39327        -9.25441
|122>    H        5.40581         3.90790        -6.79397
|123>    H        6.73816         2.64681        -5.16659
|124>    H        9.31913        -0.45975        -7.05583
|125>    H       10.38664        -2.57768        -7.71286
|126>    H        7.80787        -4.71045        -5.00201
|127>    H        6.77200        -2.59881        -4.31675
|128>    H        5.41185        -3.48332         4.98388
|129>    H        7.07026        -3.06259         4.59339
|130>    H        5.57266        -5.47416         3.37285
|131>    H        6.74694        -5.55433         4.71419
|132>    H        7.28140        -5.07697         3.09692
|133>    H        2.49594         5.39902         2.15997
|134>    H        1.96958         5.69357         0.50889
|135>    H        4.84780         6.17898         1.54062
|136>    H        3.60337         7.42133         1.27178
|137>    H        4.28095         6.50743        -0.10260
|138>    H        9.44725        -5.92040        -6.14384
|139>    H       10.93251        -5.04292        -6.49272
|140>    H        8.69917        -5.63647        -8.54251
|141>    H       10.29155        -6.43457        -8.45092
|142>    H       10.17947        -4.72089        -8.89916
|143>    H        3.71101         3.76387        -8.65548
|144>    H        3.74807         2.40601        -9.78864
|145>    H        5.97234         4.53575        -9.51286
|146>    H        4.75184         4.48071       -10.81189
|147>    H        5.97943         3.19300       -10.67574
|148>    H       10.20890         1.67708        -5.81527
|149> *
|150>
|151>                          ****END OF INPUT****

CARTESIAN COORDINATES (ANGSTROEM)
---------------------------------
  C      0.167380   -2.769880   -2.209750
  C     -0.938970   -3.224460   -1.515060
  C     -2.109050   -3.899710   -2.089810
  C     -2.965830   -4.347600   -0.960430
  C     -2.388070   -3.901220    0.241070
  C     -1.121390   -3.185160   -0.038200
  C     -4.163130   -5.076830   -0.911750
  C     -4.726960   -5.326270    0.338270
  C     -4.140150   -4.854360    1.526820
  C     -2.953030   -4.134510    1.488680
  F     -4.741440   -5.115780    2.683560
  F     -5.856230   -6.024570    0.434230
  O     -0.400990   -2.696760    0.815360
  C     -2.426230   -4.068110   -3.426180
  C     -3.611990   -4.737000   -3.866250
  C     -1.638810   -3.561210   -4.507400
  N     -4.566200   -5.270790   -4.260860
  N     -1.036990   -3.161060   -5.418010
  C      1.323050   -2.090650   -1.770570
  O      2.273490   -1.868220   -2.781980
  C      3.270920   -1.194320   -2.213660
  C      3.031430   -0.941630   -0.872480
  C      1.795440   -1.520820   -0.571780
  C     11.095090    3.127010   -3.406280
  C     11.275450    3.963130   -2.328750
  C     10.411040    4.383360   -1.232480
  C     11.295020    4.901070   -0.158030
  C     12.604740    5.017580   -0.670370
  C     12.649270    4.495500   -2.061440
  C     11.028430    5.314600    1.153410
  C     12.086910    5.822370    1.904160
  C     13.383380    5.947370    1.371410
  C     13.655760    5.544180    0.070540
  F     14.341400    6.457050    2.138270
  F     11.890920    6.209790    3.161120
  O     13.613140    4.460990   -2.798130
  C      9.031550    4.504970   -1.263930
  C      8.248160    4.877420   -0.128330
  C      8.285270    4.364580   -2.476370
  N      7.569860    5.143370    0.778050
  N      7.676520    4.303090   -3.463700
  C      4.545670   -0.684680   -2.648130
  C      5.129140   -0.093550   -1.484680
  C      4.187740   -0.177400   -0.257620
  C      5.204470   -0.691120   -3.889100
  C      6.470250   -0.129080   -3.945170
  C      7.039860    0.476990   -2.785370
  C      6.374480    0.507310   -1.551600
  C      7.402590   -0.002230   -5.176860
  C      8.527370    0.828730   -4.569530
  C      8.279620    1.044900   -3.227230
  C      3.812770    1.260290    0.134160
  C      4.763470   -1.003360    0.899840
  C      7.962970   -1.358980   -5.629390
  C      6.655730    0.775330   -6.272370
  C      5.757010   -1.967280    0.689640
  C      6.201830   -2.782150    1.732640
  C      5.665210   -2.669400    3.023320
  C      4.659490   -1.710190    3.223010
  C      4.213060   -0.892890    2.183920
  C      2.677410    1.882440   -0.395960
  C      2.386540    3.214240   -0.095600
  C      3.214360    3.972940    0.741570
  C      4.366610    3.351370    1.252130
  C      4.659520    2.020770    0.955130
  C      6.163690    0.159330   -7.426820
  C      5.418160    0.892450   -8.357900
  C      5.139120    2.249130   -8.157700
  C      5.626500    2.854340   -6.987610
  C      6.375900    2.136080   -6.061580
  C      8.982850   -1.391550   -6.595690
  C      9.581240   -2.591790   -6.972970
  C      9.183050   -3.814240   -6.402850
  C      8.148810   -3.779480   -5.463060
  C      7.553000   -2.575220   -5.075390
  C      6.157810   -3.525060    4.173240
  C      6.454370   -4.985420    3.818010
  C      2.842800    5.392780    1.109930
  C      3.956550    6.429570    0.946850
  C      9.864610   -5.114130   -6.767710
  C      9.750760   -5.497320   -8.246610
  C      4.386940    3.067010   -9.179660
  C      5.323430    3.865010  -10.098750
  C      9.694220    1.555230   -4.864900
  C     10.070120    2.196990   -3.673840
  O      9.192570    1.838540   -2.663160
  H      0.196580   -2.953750   -3.285200
  H     -4.673660   -5.463420   -1.791160
  H     -2.482990   -3.764470    2.400920
  H      1.257520   -1.569770    0.367940
  H     11.913160    3.148790   -4.136300
  H     10.044160    5.252200    1.616030
  H     14.657830    5.644740   -0.349340
  H      4.732800   -1.120860   -4.774000
  H      6.820300    0.994120   -0.684000
  H      6.193150   -2.091890   -0.302730
  H      6.984610   -3.515020    1.526950
  H      4.211500   -1.599490    4.214410
  H      3.426950   -0.159390    2.375370
  H      2.006910    1.325050   -1.051420
  H      1.490450    3.673050   -0.521300
  H      5.054610    3.914210    1.886050
  H      5.553150    1.563150    1.384280
  H      6.362580   -0.898170   -7.607520
  H      5.039400    0.393270   -9.254410
  H      5.405810    3.907900   -6.793970
  H      6.738160    2.646810   -5.166590
  H      9.319130   -0.459750   -7.055830
  H     10.386640   -2.577680   -7.712860
  H      7.807870   -4.710450   -5.002010
  H      6.772000   -2.598810   -4.316750
  H      5.411850   -3.483320    4.983880
  H      7.070260   -3.062590    4.593390
  H      5.572660   -5.474160    3.372850
  H      6.746940   -5.554330    4.714190
  H      7.281400   -5.076970    3.096920
  H      2.495940    5.399020    2.159970
  H      1.969580    5.693570    0.508890
  H      4.847800    6.178980    1.540620
  H      3.603370    7.421330    1.271780
  H      4.280950    6.507430   -0.102600
  H      9.447250   -5.920400   -6.143840
  H     10.932510   -5.042920   -6.492720
  H      8.699170   -5.636470   -8.542510
  H     10.291550   -6.434570   -8.450920
  H     10.179470   -4.720890   -8.899160
  H      3.711010    3.763870   -8.655480
  H      3.748070    2.406010   -9.788640
  H      5.972340    4.535750   -9.512860
  H      4.751840    4.480710  -10.811890
  H      5.979430    3.193000  -10.675740
  H     10.208900    1.677080   -5.815270

 Total Charge           Charge          ....    0
 Multiplicity           Mult            ....    1
 Number of Electrons    NEL             ....  586
 Basis Dimension        Dim             .... 2942

ORBITAL ENERGIES
----------------

  NO   OCC          E(Eh)            E(eV)
   0   2.0000     -24.729146      -672.9143
   1   2.0000     -24.728635      -672.9004
   2   2.0000     -24.725309      -672.8099
   3   2.0000     -24.723215      -672.7529
   4   2.0000     -19.230823      -523.2973
   5   2.0000     -19.227163      -523.1977
   6   2.0000     -19.134758      -520.6832
   7   2.0000     -19.133370      -520.6455
   8   2.0000     -14.337998      -390.1568
   9   2.0000     -14.334109      -390.0509
  10   2.0000     -14.332519      -390.0077
  11   2.0000     -14.330785      -389.9605
  12   2.0000     -10.303887      -280.3830
  13   2.0000     -10.302643      -280.3492
  14   2.0000     -10.298843      -280.2458
  15   2.0000     -10.298340      -280.2321
  16   2.0000     -10.281557      -279.7754
  17   2.0000     -10.280295      -279.7411
  18   2.0000     -10.271087      -279.4905
  19   2.0000     -10.267854      -279.4025
  20   2.0000     -10.266988      -279.3789
  21   2.0000     -10.266949      -279.3779
  22   2.0000     -10.265147      -279.3288
  23   2.0000     -10.263785      -279.2918
  24   2.0000     -10.261591      -279.2321
  25   2.0000     -10.260166      -279.1933
  26   2.0000     -10.238197      -278.5955
  27   2.0000     -10.237905      -278.5876
  28   2.0000     -10.237049      -278.5643
  29   2.0000     -10.235953      -278.5344
  30   2.0000     -10.235396      -278.5193
  31   2.0000     -10.233228      -278.4603
  32   2.0000     -10.232364      -278.4368
  33   2.0000     -10.232249      -278.4336
  34   2.0000     -10.232083      -278.4291
  35   2.0000     -10.230788      -278.3939
  36   2.0000     -10.226434      -278.2754
  37   2.0000     -10.225964      -278.2626
  38   2.0000     -10.225390      -278.2470
  39   2.0000     -10.224584      -278.2251
  40   2.0000     -10.224360      -278.2190
  41   2.0000     -10.221183      -278.1325
  42   2.0000     -10.220495      -278.1138
  43   2.0000     -10.220373      -278.1105
  44   2.0000     -10.220180      -278.1052
  45   2.0000     -10.219966      -278.0994
  46   2.0000     -10.219903      -278.0977
  47   2.0000     -10.219666      -278.0913
  48   2.0000     -10.214901      -277.9616
  49   2.0000     -10.211428      -277.8671
  50   2.0000     -10.210790      -277.8497
  51   2.0000     -10.210775      -277.8493
  52   2.0000     -10.210005      -277.8284
  53   2.0000     -10.204849      -277.6881
  54   2.0000     -10.203139      -277.6415
  55   2.0000     -10.198244      -277.5083
  56   2.0000     -10.194806      -277.4148
  57   2.0000     -10.194558      -277.4080
  58   2.0000     -10.194022      -277.3934
  59   2.0000     -10.190923      -277.3091
  60   2.0000     -10.190087      -277.2864
  61   2.0000     -10.187513      -277.2163
  62   2.0000     -10.187408      -277.2135
  63   2.0000     -10.185350      -277.1575
  64   2.0000     -10.184965      -277.1470
  65   2.0000     -10.184948      -277.1465
  66   2.0000     -10.184311      -277.1292
  67   2.0000     -10.183910      -277.1183
  68   2.0000     -10.183369      -277.1036
  69   2.0000     -10.183070      -277.0954
  70   2.0000     -10.182049      -277.0676
  71   2.0000     -10.181827      -277.0616
  72   2.0000     -10.180454      -277.0242
  73   2.0000     -10.179751      -277.0051
  74   2.0000     -10.179452      -276.9970
  75   2.0000     -10.177633      -276.9475
  76   2.0000     -10.176536      -276.9176
  77   2.0000     -10.176157      -276.9073
  78   2.0000     -10.175880      -276.8998
  79   2.0000     -10.175112      -276.8789
  80   2.0000     -10.175081      -276.8780
  81   2.0000     -10.173345      -276.8308
  82   2.0000     -10.172713      -276.8136
  83   2.0000     -10.171158      -276.7713
  84   2.0000     -10.165912      -276.6285
  85   2.0000     -10.157143      -276.3899
  86   2.0000      -1.275620       -34.7114
  87   2.0000      -1.270616       -34.5752
  88   2.0000      -1.261250       -34.3204
  89   2.0000      -1.256163       -34.1819
  90   2.0000      -1.155149       -31.4332
  91   2.0000      -1.146403       -31.1952
  92   2.0000      -1.062290       -28.9064
  93   2.0000      -1.061196       -28.8766
  94   2.0000      -0.941261       -25.6130
  95   2.0000      -0.936829       -25.4924
  96   2.0000      -0.929352       -25.2889
  97   2.0000      -0.923520       -25.1303
  98   2.0000      -0.923067       -25.1179
  99   2.0000      -0.919450       -25.0195
 100   2.0000      -0.917412       -24.9641
 101   2.0000      -0.908992       -24.7349
 102   2.0000      -0.879098       -23.9215
 103   2.0000      -0.875259       -23.8170
 104   2.0000      -0.874129       -23.7863
 105   2.0000      -0.867616       -23.6090
 106   2.0000      -0.862929       -23.4815
 107   2.0000      -0.860917       -23.4268
 108   2.0000      -0.850175       -23.1344
 109   2.0000      -0.841926       -22.9100
 110   2.0000      -0.833302       -22.6753
 111   2.0000      -0.822408       -22.3789
 112   2.0000      -0.817955       -22.2577
 113   2.0000      -0.817292       -22.2397
 114   2.0000      -0.811067       -22.0703
 115   2.0000      -0.801102       -21.7991
 116   2.0000      -0.799477       -21.7549
 117   2.0000      -0.794645       -21.6234
 118   2.0000      -0.793965       -21.6049
 119   2.0000      -0.790867       -21.5206
 120   2.0000      -0.785343       -21.3703
 121   2.0000      -0.774946       -21.0874
 122   2.0000      -0.762580       -20.7509
 123   2.0000      -0.758395       -20.6370
 124   2.0000      -0.753776       -20.5113
 125   2.0000      -0.750160       -20.4129
 126   2.0000      -0.748144       -20.3580
 127   2.0000      -0.747707       -20.3461
 128   2.0000      -0.746942       -20.3253
 129   2.0000      -0.729395       -19.8478
 130   2.0000      -0.727691       -19.8015
 131   2.0000      -0.725767       -19.7491
 132   2.0000      -0.705519       -19.1982
 133   2.0000      -0.702766       -19.1232
 134   2.0000      -0.696522       -18.9533
 135   2.0000      -0.694128       -18.8882
 136   2.0000      -0.690033       -18.7768
 137   2.0000      -0.677833       -18.4448
 138   2.0000      -0.656988       -17.8776
 139   2.0000      -0.651315       -17.7232
 140   2.0000      -0.644535       -17.5387
 141   2.0000      -0.642679       -17.4882
 142   2.0000      -0.639626       -17.4051
 143   2.0000      -0.637717       -17.3532
 144   2.0000      -0.632135       -17.2013
 145   2.0000      -0.628640       -17.1062
 146   2.0000      -0.624773       -17.0009
 147   2.0000      -0.617323       -16.7982
 148   2.0000      -0.616879       -16.7861
 149   2.0000      -0.615671       -16.7533
 150   2.0000      -0.612470       -16.6661
 151   2.0000      -0.611717       -16.6457
 152   2.0000      -0.609489       -16.5850
 153   2.0000      -0.607943       -16.5430
 154   2.0000      -0.602414       -16.3925
 155   2.0000      -0.594670       -16.1818
 156   2.0000      -0.588197       -16.0056
 157   2.0000      -0.585205       -15.9242
 158   2.0000      -0.581565       -15.8252
 159   2.0000      -0.580003       -15.7827
 160   2.0000      -0.578258       -15.7352
 161   2.0000      -0.575124       -15.6499
 162   2.0000      -0.573880       -15.6161
 163   2.0000      -0.571690       -15.5565
 164   2.0000      -0.568099       -15.4587
 165   2.0000      -0.557485       -15.1699
 166   2.0000      -0.547353       -14.8942
 167   2.0000      -0.543903       -14.8003
 168   2.0000      -0.538881       -14.6637
 169   2.0000      -0.535988       -14.5850
 170   2.0000      -0.530591       -14.4381
 171   2.0000      -0.524919       -14.2838
 172   2.0000      -0.524652       -14.2765
 173   2.0000      -0.524130       -14.2623
 174   2.0000      -0.522214       -14.2102
 175   2.0000      -0.520139       -14.1537
 176   2.0000      -0.519857       -14.1460
 177   2.0000      -0.512990       -13.9592
 178   2.0000      -0.502317       -13.6687
 179   2.0000      -0.496707       -13.5161
 180   2.0000      -0.494236       -13.4489
 181   2.0000      -0.491594       -13.3770
 182   2.0000      -0.489945       -13.3321
 183   2.0000      -0.488436       -13.2910
 184   2.0000      -0.485124       -13.2009
 185   2.0000      -0.484867       -13.1939
 186   2.0000      -0.483840       -13.1660
 187   2.0000      -0.479649       -13.0519
 188   2.0000      -0.479564       -13.0496
 189   2.0000      -0.478004       -13.0072
 190   2.0000      -0.476642       -12.9701
 191   2.0000      -0.472703       -12.8629
 192   2.0000      -0.470010       -12.7896
 193   2.0000      -0.466761       -12.7012
 194   2.0000      -0.464477       -12.6391
 195   2.0000      -0.463694       -12.6178
 196   2.0000      -0.463003       -12.5990
 197   2.0000      -0.460215       -12.5231
 198   2.0000      -0.458654       -12.4806
 199   2.0000      -0.458001       -12.4628
 200   2.0000      -0.457128       -12.4391
 201   2.0000      -0.454146       -12.3579
 202   2.0000      -0.451280       -12.2800
 203   2.0000      -0.448871       -12.2144
 204   2.0000      -0.447629       -12.1806
 205   2.0000      -0.444913       -12.1067
 206   2.0000      -0.442366       -12.0374
 207   2.0000      -0.441971       -12.0266
 208   2.0000      -0.440102       -11.9758
 209   2.0000      -0.439127       -11.9493
 210   2.0000      -0.435308       -11.8453
 211   2.0000      -0.434180       -11.8146
 212   2.0000      -0.431775       -11.7492
 213   2.0000      -0.430940       -11.7265
 214   2.0000      -0.429626       -11.6907
 215   2.0000      -0.429056       -11.6752
 216   2.0000      -0.427951       -11.6451
 217   2.0000      -0.426687       -11.6107
 218   2.0000      -0.425111       -11.5678
 219   2.0000      -0.424494       -11.5511
 220   2.0000      -0.422278       -11.4908
 221   2.0000      -0.420860       -11.4522
 222   2.0000      -0.420276       -11.4363
 223   2.0000      -0.417485       -11.3604
 224   2.0000      -0.416239       -11.3264
 225   2.0000      -0.412509       -11.2249
 226   2.0000      -0.410273       -11.1641
 227   2.0000      -0.408317       -11.1109
 228   2.0000      -0.405805       -11.0425
 229   2.0000      -0.401118       -10.9150
 230   2.0000      -0.397539       -10.8176
 231   2.0000      -0.396556       -10.7908
 232   2.0000      -0.394249       -10.7281
 233   2.0000      -0.393312       -10.7026
 234   2.0000      -0.391926       -10.6648
 235   2.0000      -0.389919       -10.6102
 236   2.0000      -0.388739       -10.5781
 237   2.0000      -0.387948       -10.5566
 238   2.0000      -0.386500       -10.5172
 239   2.0000      -0.385320       -10.4851
 240   2.0000      -0.385037       -10.4774
 241   2.0000      -0.383451       -10.4342
 242   2.0000      -0.381107       -10.3704
 243   2.0000      -0.379956       -10.3391
 244   2.0000      -0.378951       -10.3118
 245   2.0000      -0.374996       -10.2042
 246   2.0000      -0.372252       -10.1295
 247   2.0000      -0.367500       -10.0002
 248   2.0000      -0.365282        -9.9398
 249   2.0000      -0.364153        -9.9091
 250   2.0000      -0.363689        -9.8965
 251   2.0000      -0.361342        -9.8326
 252   2.0000      -0.360099        -9.7988
 253   2.0000      -0.359610        -9.7855
 254   2.0000      -0.357790        -9.7360
 255   2.0000      -0.357197        -9.7198
 256   2.0000      -0.354204        -9.6384
 257   2.0000      -0.353654        -9.6234
 258   2.0000      -0.352188        -9.5835
 259   2.0000      -0.350259        -9.5310
 260   2.0000      -0.348897        -9.4940
 261   2.0000      -0.347754        -9.4629
 262   2.0000      -0.346739        -9.4352
 263   2.0000      -0.344548        -9.3756
 264   2.0000      -0.343180        -9.3384
 265   2.0000      -0.341948        -9.3049
 266   2.0000      -0.340573        -9.2675
 267   2.0000      -0.338670        -9.2157
 268   2.0000      -0.335278        -9.1234
 269   2.0000      -0.334706        -9.1078
 270   2.0000      -0.331907        -9.0316
 271   2.0000      -0.330185        -8.9848
 272   2.0000      -0.323289        -8.7971
 273   2.0000      -0.317997        -8.6532
 274   2.0000      -0.307247        -8.3606
 275   2.0000      -0.297476        -8.0947
 276   2.0000      -0.293795        -7.9946
 277   2.0000      -0.287614        -7.8264
 278   2.0000      -0.286250        -7.7893
 279   2.0000      -0.280703        -7.6383
 280   2.0000      -0.278247        -7.5715
 281   2.0000      -0.269579        -7.3356
 282   2.0000      -0.267484        -7.2786
 283   2.0000      -0.265636        -7.2283
 284   2.0000      -0.264320        -7.1925
 285   2.0000      -0.259010        -7.0480
 286   2.0000      -0.258543        -7.0353
 287   2.0000      -0.255700        -6.9579
 288   2.0000      -0.251982        -6.8568
 289   2.0000      -0.245879        -6.6907
 290   2.0000      -0.241819        -6.5802
 291   2.0000      -0.240991        -6.5577
 292   2.0000      -0.215083        -5.8527
 293   0.0000      -0.139536        -3.7970
 294   0.0000      -0.123587        -3.3630
 295   0.0000      -0.109448        -2.9782
 296   0.0000      -0.104554        -2.8451
 297   0.0000      -0.070063        -1.9065

MULLIKEN ATOMIC CHARGES
-----------------------
   0 C :   -0.228319
   1 C :   -0.004056
   2 C :    0.021321
   3 C :    0.080471
   4 C :    0.088383
   5 C :    0.222391
   6 C :   -0.262628
   7 C :    0.251844
   8 C :    0.286308
   9 C :   -0.311940
  10 F :   -0.176206
  11 F :   -0.173561
  12 O :   -0.357218
  13 C :    0.158680
  14 C :   -0.205912
  15 C :   -0.201922
  16 N :    0.008769
  17 N :    0.021162
  18 C :    0.298611
  19 O :   -0.248832
  20 C :    0.187385
  21 C :   -0.208092
  22 C :   -0.269496
  23 C :   -0.303545
  24 C :   -0.047699
  25 C :    0.046227
  26 C :    0.109666
  27 C :   -0.003668
  28 C :    0.231022
  29 C :   -0.262352
  30 C :    0.259582
  31 C :    0.284236
  32 C :   -0.300943
  33 F :   -0.175016
  34 F :   -0.173134
  35 O :   -0.293585
  36 C :    0.144304
  37 C :   -0.147536
  38 C :   -0.188394
  39 N :   -0.057035
  40 N :   -0.032242
  41 C :    0.306890
  42 C :   -0.178761
  43 C :    0.828697
  44 C :   -0.451373
  45 C :   -0.146612
  46 C :    0.264242
  47 C :   -0.337264
  48 C :    0.787068
  49 C :   -0.132477
  50 C :    0.156102
  51 C :   -0.056884
  52 C :   -0.045861
  53 C :   -0.130152
  54 C :   -0.102786
  55 C :   -0.159422
  56 C :   -0.190474
  57 C :    0.162208
  58 C :   -0.170578
  59 C :   -0.205230
  60 C :   -0.152779
  61 C :   -0.197982
  62 C :    0.172955
  63 C :   -0.153843
  64 C :   -0.251061
  65 C :   -0.141553
  66 C :   -0.203778
  67 C :    0.219715
  68 C :   -0.250631
  69 C :   -0.191151
  70 C :   -0.200113
  71 C :   -0.164374
  72 C :    0.183454
  73 C :   -0.212388
  74 C :   -0.126160
  75 C :   -0.179288
  76 C :   -0.334311
  77 C :   -0.185099
  78 C :   -0.334704
  79 C :   -0.194035
  80 C :   -0.330424
  81 C :   -0.196479
  82 C :   -0.337136
  83 C :   -0.224271
  84 C :    0.405724
  85 O :   -0.277944
  86 H :    0.159348
  87 H :    0.168748
  88 H :    0.149489
  89 H :    0.174263
  90 H :    0.153020
  91 H :    0.165323
  92 H :    0.153049
  93 H :    0.139295
  94 H :    0.115214
  95 H :    0.129814
  96 H :    0.099419
  97 H :    0.100960
  98 H :    0.131081
  99 H :    0.129057
 100 H :    0.097090
 101 H :    0.122645
 102 H :    0.131731
 103 H :    0.133856
 104 H :    0.102341
 105 H :    0.108959
 106 H :    0.218945
 107 H :    0.112208
 108 H :    0.107315
 109 H :    0.100357
 110 H :    0.152712
 111 H :    0.100315
 112 H :    0.098612
 113 H :    0.113351
 114 H :    0.113602
 115 H :    0.102871
 116 H :    0.094415
 117 H :    0.094656
 118 H :    0.127502
 119 H :    0.105735
 120 H :    0.105708
 121 H :    0.097340
 122 H :    0.099432
 123 H :    0.110747
 124 H :    0.110767
 125 H :    0.104590
 126 H :    0.098007
 127 H :    0.096802
 128 H :    0.111333
 129 H :    0.107801
 130 H :    0.106928
 131 H :    0.136537
Sum of atomic charges:   -0.0000000

LOEWDIN ATOMIC CHARGES
----------------------
   0 C :   -0.034502
   1 C :   -0.077438
   2 C :    0.016683
   3 C :   -0.039878
   4 C :   -0.064092
   5 C :   -0.244929
   6 C :   -0.053396
   7 C :   -0.229873
   8 C :   -0.233431
   9 C :   -0.049249
  10 F :    0.224382
  11 F :    0.224308
  12 O :    0.121641
  13 C :   -0.135514
  14 C :   -0.152065
  15 C :   -0.157071
  16 N :    0.072570
  17 N :    0.075268
  18 C :   -0.178150
  19 O :    0.384012
  20 C :   -0.146109
  21 C :   -0.055547
  22 C :   -0.045602
  23 C :   -0.036398
  24 C :   -0.079473
  25 C :    0.015384
  26 C :   -0.038448
  27 C :   -0.060797
  28 C :   -0.250906
  29 C :   -0.056089
  30 C :   -0.230576
  31 C :   -0.234168
  32 C :   -0.048030
  33 F :    0.226336
  34 F :    0.226222
  35 O :    0.130394
  36 C :   -0.136284
  37 C :   -0.148997
  38 C :   -0.143533
  39 N :    0.067319
  40 N :    0.074333
  41 C :   -0.055112
  42 C :   -0.003071
  43 C :   -0.080779
  44 C :   -0.052744
  45 C :   -0.002244
  46 C :   -0.055013
  47 C :   -0.044338
  48 C :   -0.077734
  49 C :   -0.045403
  50 C :   -0.146865
  51 C :   -0.087073
  52 C :   -0.086083
  53 C :   -0.083878
  54 C :   -0.089248
  55 C :   -0.103893
  56 C :   -0.109187
  57 C :   -0.136415
  58 C :   -0.108925
  59 C :   -0.096147
  60 C :   -0.103035
  61 C :   -0.109849
  62 C :   -0.133947
  63 C :   -0.098969
  64 C :   -0.105594
  65 C :   -0.107777
  66 C :   -0.111066
  67 C :   -0.138020
  68 C :   -0.103118
  69 C :   -0.092321
  70 C :   -0.097507
  71 C :   -0.105971
  72 C :   -0.136930
  73 C :   -0.110846
  74 C :   -0.105298
  75 C :   -0.240281
  76 C :   -0.302767
  77 C :   -0.241424
  78 C :   -0.301216
  79 C :   -0.241067
  80 C :   -0.300170
  81 C :   -0.242197
  82 C :   -0.299650
  83 C :   -0.048456
  84 C :   -0.204535
  85 O :    0.405765
  86 H :    0.181619
  87 H :    0.169954
  88 H :    0.166022
  89 H :    0.160934
  90 H :    0.179280
  91 H :    0.168510
  92 H :    0.167330
  93 H :    0.162411
  94 H :    0.159190
  95 H :    0.152668
  96 H :    0.145774
  97 H :    0.146412
  98 H :    0.156469
  99 H :    0.153802
 100 H :    0.145724
 101 H :    0.150399
 102 H :    0.151977
 103 H :    0.154393
 104 H :    0.146266
 105 H :    0.150140
 106 H :    0.158899
 107 H :    0.150442
 108 H :    0.147189
 109 H :    0.146293
 110 H :    0.154209
 111 H :    0.141041
 112 H :    0.143996
 113 H :    0.121843
 114 H :    0.119714
 115 H :    0.115560
 116 H :    0.143604
 117 H :    0.139020
 118 H :    0.120684
 119 H :    0.118014
 120 H :    0.121081
 121 H :    0.139816
 122 H :    0.143565
 123 H :    0.120802
 124 H :    0.119332
 125 H :    0.117402
 126 H :    0.141669
 127 H :    0.139309
 128 H :    0.119838
 129 H :    0.117677
 130 H :    0.119057
 131 H :    0.152755

  Mayer bond orders larger than 0.100000
B(  0-C ,  1-C ) :   1.4062 B(  0-C , 18-C ) :   1.3634 B(  0-C , 86-H ) :   0.8977
B(  1-C ,  2-C ) :   1.1488 B(  1-C ,  5-C ) :   1.0212 B(  2-C ,  3-C ) :   1.0233
B(  2-C , 13-C ) :   1.4639 B(  3-C ,  4-C ) :   1.3423 B(  3-C ,  6-C ) :   1.3094
B(  4-C ,  5-C ) :   1.0258 B(  4-C ,  9-C ) :   1.2987 B(  4-C , 12-O ) :  -0.1538
B(  5-C , 12-O ) :   1.9980 B(  6-C ,  7-C ) :   1.3991 B(  6-C , 87-H ) :   0.9275
B(  7-C ,  8-C ) :   1.3293 B(  7-C , 11-F ) :   1.0829 B(  8-C ,  9-C ) :   1.3650
B(  8-C , 10-F ) :   1.0672 B(  9-C , 88-H ) :   0.9787 B( 13-C , 14-C ) :   1.0175
B( 13-C , 15-C ) :   1.0250 B( 14-C , 16-N ) :   2.9812 B( 15-C , 17-N ) :   2.9881
B( 18-C , 19-O ) :   0.9541 B( 18-C , 22-C ) :   1.4134 B( 19-O , 20-C ) :   1.2681
B( 20-C , 21-C ) :   1.2684 B( 20-C , 41-C ) :   1.1704 B( 21-C , 22-C ) :   1.2643
B( 21-C , 43-C ) :   1.0057 B( 21-C , 52-C ) :   0.1273 B( 22-C , 89-H ) :   0.9692
B( 23-C , 24-C ) :   1.5190 B( 23-C , 35-O ) :   0.1022 B( 23-C , 84-C ) :   1.1510
B( 23-C , 90-H ) :   0.9492 B( 24-C , 25-C ) :   1.1727 B( 24-C , 28-C ) :   1.0006
B( 24-C , 35-O ) :  -0.1286 B( 25-C , 26-C ) :   1.0161 B( 25-C , 36-C ) :   1.4301
B( 26-C , 27-C ) :   1.3250 B( 26-C , 29-C ) :   1.3061 B( 27-C , 28-C ) :   0.9512
B( 27-C , 32-C ) :   1.3040 B( 27-C , 35-O ) :  -0.1464 B( 28-C , 35-O ) :   2.1581
B( 29-C , 30-C ) :   1.3974 B( 29-C , 91-H ) :   0.9380 B( 30-C , 31-C ) :   1.3279
B( 30-C , 34-F ) :   1.0774 B( 31-C , 32-C ) :   1.3649 B( 31-C , 33-F ) :   1.0664
B( 32-C , 92-H ) :   0.9790 B( 36-C , 37-C ) :   1.0550 B( 36-C , 38-C ) :   1.0356
B( 37-C , 39-N ) :   2.8696 B( 38-C , 40-N ) :   2.9109 B( 41-C , 42-C ) :   1.2139
B( 41-C , 44-C ) :   1.1356 B( 42-C , 43-C ) :   0.9364 B( 42-C , 47-C ) :   1.4364
B( 42-C , 51-C ) :   0.1509 B( 42-C , 52-C ) :   0.1022 B( 43-C , 51-C ) :   0.6852
B( 43-C , 52-C ) :   0.6947 B( 44-C , 45-C ) :   1.3793 B( 44-C , 93-H ) :   1.0584
B( 45-C , 46-C ) :   1.2407 B( 45-C , 48-C ) :   0.8921 B( 45-C , 54-C ) :   0.1334
B( 46-C , 47-C ) :   1.2408 B( 46-C , 50-C ) :   1.1541 B( 47-C , 94-H ) :   1.0070
B( 48-C , 49-C ) :   0.9997 B( 48-C , 53-C ) :   0.7145 B( 48-C , 54-C ) :   0.7550
B( 49-C , 50-C ) :   1.3305 B( 49-C , 83-C ) :   1.3085 B( 50-C , 85-O ) :   1.1700
B( 51-C , 60-C ) :   1.3694 B( 51-C , 64-C ) :   1.3604 B( 52-C , 55-C ) :   1.3473
B( 52-C , 59-C ) :   1.3825 B( 53-C , 70-C ) :   1.3830 B( 53-C , 74-C ) :   1.3402
B( 54-C , 65-C ) :   1.3692 B( 54-C , 69-C ) :   1.3494 B( 55-C , 56-C ) :   1.4542
B( 55-C , 95-H ) :   0.9586 B( 56-C , 57-C ) :   1.3300 B( 56-C , 96-H ) :   0.9698
B( 57-C , 58-C ) :   1.3448 B( 57-C , 75-C ) :   0.9400 B( 58-C , 59-C ) :   1.4342
B( 58-C , 97-H ) :   0.9747 B( 59-C , 98-H ) :   0.9708 B( 60-C , 61-C ) :   1.4368
B( 60-C , 99-H ) :   0.9614 B( 61-C , 62-C ) :   1.3563 B( 61-C ,100-H ) :   0.9743
B( 62-C , 63-C ) :   1.3125 B( 62-C , 77-C ) :   0.9353 B( 63-C , 64-C ) :   1.4651
B( 63-C ,101-H ) :   0.9625 B( 64-C ,102-H ) :   0.9674 B( 65-C , 66-C ) :   1.3996
B( 65-C ,103-H ) :   0.9664 B( 66-C , 67-C ) :   1.3665 B( 66-C ,104-H ) :   0.9773
B( 67-C , 68-C ) :   1.3078 B( 67-C , 81-C ) :   0.9049 B( 68-C , 69-C ) :   1.4782
B( 68-C ,105-H ) :   0.9928 B( 69-C ,106-H ) :   0.9205 B( 70-C , 71-C ) :   1.4536
B( 70-C ,107-H ) :   0.9662 B( 71-C , 72-C ) :   1.3110 B( 71-C ,108-H ) :   0.9748
B( 72-C , 73-C ) :   1.3794 B( 72-C , 79-C ) :   0.9212 B( 73-C , 74-C ) :   1.4363
B( 73-C ,109-H ) :   0.9681 B( 74-C ,110-H ) :   0.9445 B( 75-C , 76-C ) :   0.9822
B( 75-C ,111-H ) :   0.9778 B( 75-C ,112-H ) :   0.9466 B( 76-C ,113-H ) :   0.9740
B( 76-C ,114-H ) :   0.9729 B( 76-C ,115-H ) :   0.9717 B( 77-C , 78-C ) :   0.9784
B( 77-C ,116-H ) :   0.9475 B( 77-C ,117-H ) :   0.9807 B( 78-C ,118-H ) :   0.9714
B( 78-C ,119-H ) :   0.9713 B( 78-C ,120-H ) :   0.9734 B( 79-C , 80-C ) :   0.9697
B( 79-C ,121-H ) :   0.9810 B( 79-C ,122-H ) :   0.9577 B( 80-C ,123-H ) :   0.9730
B( 80-C ,124-H ) :   0.9712 B( 80-C ,125-H ) :   0.9756 B( 81-C , 82-C ) :   0.9559
B( 81-C ,126-H ) :   0.9742 B( 81-C ,127-H ) :   0.9803 B( 82-C ,128-H ) :   0.9760
B( 82-C ,129-H ) :   0.9702 B( 82-C ,130-H ) :   0.9745 B( 83-C , 84-C ) :   1.3950
B( 83-C ,131-H ) :   0.9644 B( 84-C , 85-O ) :   0.9759

-----------------------------------------------------------------------------
  SOC CORRECTED ABSORPTION SPECTRUM VIA TRANSITION ELECTRIC DIPOLE MOMENTS*
-----------------------------------------------------------------------------
State   Energy  Wavelength   fosc         T2         TX        TY        TZ
        (cm-1)    (nm)                  (au**2)     (au)      (au)      (au)
-----------------------------------------------------------------------------
   1   10142.2    986.0   0.000000000   0.00000   0.00008   0.00003   0.00001
   2   10142.2    986.0   0.000000001   0.00000   0.00012   0.00008   0.00001
   3   10142.2    986.0   0.000000002   0.00000   0.00022   0.00014   0.00001
   4   13088.6    764.0   0.000000000   0.00000   0.00001   0.00000   0.00002
   5   13088.6    764.0   0.000000000   0.00000   0.00005   0.00002   0.00001
   6   13088.6    764.0   0.000000000   0.00000   0.00002   0.00003   0.00001
   7   15247.3    655.9   1.401577116  30.26209   4.42991   3.23373   0.42542
   8   17255.2    579.5   0.000000023   0.00000   0.00057   0.00034   0.00002
   9   17255.2    579.5   0.000000016   0.00000   0.00047   0.00029   0.00002
  10   17255.2    579.5   0.000000073   0.00000   0.00094   0.00071   0.00013
  11   18086.3    552.9   0.307424280   5.59583   2.13497   1.01758   0.04757
  12   19009.7    526.0   0.058271839   1.00916   0.85739   0.51895   0.06873

FINAL SINGLE POINT ENERGY     -3765.879436449159

DIPOLE MOMENT
-------------
                                X             Y             Z
Electronic contribution:    -31.98544       6.24624      47.56395
Nuclear contribution   :     34.74692      -6.58742     -46.92958
                        -----------------------------------------
Total Dipole Moment    :      2.76148      -0.34118       0.63438
                        -----------------------------------------
Magnitude (a.u.)       :      2.85388
Magnitude (Debye)      :      7.25397

Rotational constants in cm-1:     0.000873     0.000373     0.000319
Rotational constants in MHz :    26.171551    11.169247     9.564367

                             ****ORCA TERMINATED NORMALLY****
TOTAL RUN TIME: 0 days 4 hours 47 minutes 16 seconds 391 msec
