                         Program Version 4.2.0 -  RELEASE  -
|  1> # ORCA input file
|  2> # IDF-IC.out: Geometry 39
|  3> ! B3LYP def2-TZVP def2/J RIJCOSX Grid4 TightSCF
|  4>
|  5> %maxcore 6000
|  6> %tddft
|  7>   maxdim 5
|  8>   nroots 3
|  9>   dosoc true
| 10>   end
| 11> %pal
| 12>   nprocs 6
| 13>   end
| 14>
| 15>
| 16> * xyz 0 1
| 17>    C        2.96319        -4.17653         0.64055
| 18>    C        2.07617        -4.66026        -0.29009
| 19>    C        2.06991        -4.74457        -1.74321
| 20>    C        0.64852        -4.85013        -2.16471
| 21>    C       -0.15575        -5.02493        -1.01687
| 22>    C        0.69927        -5.00362         0.19885
| 23>    C        0.04494        -4.83601        -3.42777
| 24>    C       -1.34632        -4.97312        -3.50470
| 25>    C       -2.13393        -5.13246        -2.35623
| 26>    C       -1.53607        -5.16673        -1.09261
| 27>    H       -3.21706        -5.23647        -2.45502
| 28>    H       -1.82776        -4.95180        -4.48513
| 29>    O        0.35280        -5.16224         1.35191
| 30>    C        3.16558        -4.89990        -2.57251
| 31>    C        3.05330        -4.94776        -3.99667
| 32>    C        4.48518        -5.14405        -2.07882
| 33>    N        2.98300        -4.96281        -5.15702
| 34>    N        5.55972        -5.39605        -1.71631
| 35>    C        4.10168        -3.35396         0.53088
| 36>    O        4.47944        -2.82091        -0.69044
| 37>    C        5.51741        -2.01867        -0.44356
| 38>    C        5.83493        -1.97314         0.90187
| 39>    C        4.92951        -2.83593         1.54052
| 40>    C       11.05881         4.23361        -3.84934
| 41>    C       11.55752         5.03640        -4.85237
| 42>    C       11.61842         4.94749        -6.30068
| 43>    C       11.81929         6.32685        -6.81745
| 44>    C       12.07094         7.18971        -5.72902
| 45>    C       12.00328         6.41563        -4.45951
| 46>    C       11.82671         6.84258        -8.11848
| 47>    C       12.06884         8.21025        -8.29372
| 48>    C       12.31114         9.05777        -7.20493
| 49>    C       12.32006         8.54554        -5.90259
| 50>    H       12.50193        10.11896        -7.38033
| 51>    H       12.06628         8.62355        -9.30518
| 52>    O       12.20843         6.81924        -3.33323
| 53>    C       11.68435         3.79435        -7.06905
| 54>    C       11.72857         3.82026        -8.49757
| 55>    C       11.82011         2.49594        -6.49531
| 56>    N       11.74114         3.82712        -9.66003
| 57>    N       11.94049         1.43379        -6.03819
| 58>    C        6.37205        -1.19215        -1.24791
| 59>    C        7.29874        -0.60625        -0.33214
| 60>    C        7.02208        -1.05040         1.12909
| 61>    C        6.38041        -0.88777        -2.61910
| 62>    C        7.32401         0.02197        -3.06514
| 63>    C        8.22132         0.64710        -2.14213
| 64>    C        8.22038         0.33057        -0.77341
| 65>    C        7.52682         0.53943        -4.50988
| 66>    C        8.56185         1.61805        -4.24885
| 67>    C        8.95701         1.60673        -2.92197
| 68>    C        6.65600         0.21921         1.91491
| 69>    C        8.13894        -1.87309         1.77910
| 70>    C        8.19246        -0.49410        -5.43638
| 71>    C        6.20257         1.07838        -5.06463
| 72>    C        8.00415        -2.22899         3.13190
| 73>    C        8.92401        -3.07340         3.74518
| 74>    C       10.01650        -3.59926         3.03360
| 75>    C       10.14907        -3.23555         1.68869
| 76>    C        9.22729        -2.38415         1.06764
| 77>    C        7.60270         0.89741         2.69273
| 78>    C        7.28462         2.11330         3.30184
| 79>    C        6.01848         2.69541         3.14934
| 80>    C        5.07820         2.01328         2.36353
| 81>    C        5.38906         0.79672         1.75878
| 82>    C        5.38949         0.29880        -5.89626
| 83>    C        4.16861         0.79279        -6.36451
| 84>    C        3.71578         2.07083        -6.01095
| 85>    C        4.52626         2.83785        -5.15916
| 86>    C        5.74570         2.35054        -4.69192
| 87>    C        8.59913        -1.76057        -5.00792
| 88>    C        9.30348        -2.61064        -5.86718
| 89>    C        9.62938        -2.22151        -7.17058
| 90>    C        9.21884        -0.94751        -7.59520
| 91>    C        8.50946        -0.10319        -6.74757
| 92>    C       10.98758        -4.55008         3.69636
| 93>    C       10.37552        -5.92530         4.00315
| 94>    C        5.66286         3.97964         3.85939
| 95>    C        5.21334         3.74067         5.30941
| 96>    C       10.35218        -3.15408        -8.11195
| 97>    C        9.39016        -3.97608        -8.98190
| 98>    C        2.43870         2.63981        -6.58465
| 99>    C        2.69372         3.48487        -7.84112
|100>    C        9.33674         2.59616        -4.87938
|101>    C       10.16826         3.14452        -3.88893
|102>    O        9.90611         2.51336        -2.67149
|103>    H        2.64903        -4.36189         1.67481
|104>    H        0.62571        -4.71005        -4.33904
|105>    H       -2.11782        -5.30030        -0.17834
|106>    H        4.84294        -3.08666         2.59551
|107>    H       11.30883         4.58691        -2.84136
|108>    H       11.63987         6.21429        -8.98637
|109>    H       12.51700         9.17679        -5.03390
|110>    H        5.65913        -1.33854        -3.30227
|111>    H        8.89823         0.82963        -0.07950
|112>    H        7.16753        -1.83127         3.71092
|113>    H        8.78941        -3.33365         4.79878
|114>    H       10.98776        -3.62780         1.10728
|115>    H        9.36014        -2.13028         0.01499
|116>    H        8.59782         0.47217         2.82984
|117>    H        8.04161         2.62038         3.90720
|118>    H        4.08473         2.44522         2.21520
|119>    H        4.63952         0.29740         1.14166
|120>    H        5.72058        -0.69569        -6.19817
|121>    H        3.55655         0.16877        -7.02229
|122>    H        4.19496         3.83473        -4.85570
|123>    H        6.35558         2.97010        -4.03061
|124>    H        8.37950        -2.09581        -3.99416
|125>    H        9.62156        -3.59209        -5.50483
|126>    H        9.48085        -0.60602        -8.60054
|127>    H        8.20366         0.88195        -7.10568
|128>    H       11.35723        -4.09839         4.63343
|129>    H       11.86939        -4.67574         3.04806
|130>    H        9.51674        -5.83793         4.68736
|131>    H       11.11546        -6.59097         4.47536
|132>    H       10.01261        -6.41023         3.08302
|133>    H        4.86143         4.49463         3.30522
|134>    H        6.53452         4.65577         3.84871
|135>    H        4.33896         3.07170         5.34522
|136>    H        4.93989         4.68486         5.80680
|137>    H        6.01510         3.26400         5.89563
|138>    H       10.99514        -3.83578        -7.53073
|139>    H       11.02233        -2.56711        -8.76247
|140>    H        8.72454        -4.59514        -8.35875
|141>    H        9.94314        -4.64473        -9.66141
|142>    H        8.75137        -3.31936        -9.59490
|143>    H        1.93484         3.25836        -5.82242
|144>    H        1.74683         1.81736        -6.82843
|145>    H        3.35589         4.33498        -7.61384
|146>    H        1.75496         3.88642        -8.25534
|147>    H        3.18527         2.88586        -8.62367
|148>    H        9.29682         2.92547        -5.91239
|149> *
|150>
|151>                          ****END OF INPUT****

CARTESIAN COORDINATES (ANGSTROEM)
---------------------------------
  C      2.963190   -4.176530    0.640550
  C      2.076170   -4.660260   -0.290090
  C      2.069910   -4.744570   -1.743210
  C      0.648520   -4.850130   -2.164710
  C     -0.155750   -5.024930   -1.016870
  C      0.699270   -5.003620    0.198850
  C      0.044940   -4.836010   -3.427770
  C     -1.346320   -4.973120   -3.504700
  C     -2.133930   -5.132460   -2.356230
  C     -1.536070   -5.166730   -1.092610
  H     -3.217060   -5.236470   -2.455020
  H     -1.827760   -4.951800   -4.485130
  O      0.352800   -5.162240    1.351910
  C      3.165580   -4.899900   -2.572510
  C      3.053300   -4.947760   -3.996670
  C      4.485180   -5.144050   -2.078820
  N      2.983000   -4.962810   -5.157020
  N      5.559720   -5.396050   -1.716310
  C      4.101680   -3.353960    0.530880
  O      4.479440   -2.820910   -0.690440
  C      5.517410   -2.018670   -0.443560
  C      5.834930   -1.973140    0.901870
  C      4.929510   -2.835930    1.540520
  C     11.058810    4.233610   -3.849340
  C     11.557520    5.036400   -4.852370
  C     11.618420    4.947490   -6.300680
  C     11.819290    6.326850   -6.817450
  C     12.070940    7.189710   -5.729020
  C     12.003280    6.415630   -4.459510
  C     11.826710    6.842580   -8.118480
  C     12.068840    8.210250   -8.293720
  C     12.311140    9.057770   -7.204930
  C     12.320060    8.545540   -5.902590
  H     12.501930   10.118960   -7.380330
  H     12.066280    8.623550   -9.305180
  O     12.208430    6.819240   -3.333230
  C     11.684350    3.794350   -7.069050
  C     11.728570    3.820260   -8.497570
  C     11.820110    2.495940   -6.495310
  N     11.741140    3.827120   -9.660030
  N     11.940490    1.433790   -6.038190
  C      6.372050   -1.192150   -1.247910
  C      7.298740   -0.606250   -0.332140
  C      7.022080   -1.050400    1.129090
  C      6.380410   -0.887770   -2.619100
  C      7.324010    0.021970   -3.065140
  C      8.221320    0.647100   -2.142130
  C      8.220380    0.330570   -0.773410
  C      7.526820    0.539430   -4.509880
  C      8.561850    1.618050   -4.248850
  C      8.957010    1.606730   -2.921970
  C      6.656000    0.219210    1.914910
  C      8.138940   -1.873090    1.779100
  C      8.192460   -0.494100   -5.436380
  C      6.202570    1.078380   -5.064630
  C      8.004150   -2.228990    3.131900
  C      8.924010   -3.073400    3.745180
  C     10.016500   -3.599260    3.033600
  C     10.149070   -3.235550    1.688690
  C      9.227290   -2.384150    1.067640
  C      7.602700    0.897410    2.692730
  C      7.284620    2.113300    3.301840
  C      6.018480    2.695410    3.149340
  C      5.078200    2.013280    2.363530
  C      5.389060    0.796720    1.758780
  C      5.389490    0.298800   -5.896260
  C      4.168610    0.792790   -6.364510
  C      3.715780    2.070830   -6.010950
  C      4.526260    2.837850   -5.159160
  C      5.745700    2.350540   -4.691920
  C      8.599130   -1.760570   -5.007920
  C      9.303480   -2.610640   -5.867180
  C      9.629380   -2.221510   -7.170580
  C      9.218840   -0.947510   -7.595200
  C      8.509460   -0.103190   -6.747570
  C     10.987580   -4.550080    3.696360
  C     10.375520   -5.925300    4.003150
  C      5.662860    3.979640    3.859390
  C      5.213340    3.740670    5.309410
  C     10.352180   -3.154080   -8.111950
  C      9.390160   -3.976080   -8.981900
  C      2.438700    2.639810   -6.584650
  C      2.693720    3.484870   -7.841120
  C      9.336740    2.596160   -4.879380
  C     10.168260    3.144520   -3.888930
  O      9.906110    2.513360   -2.671490
  H      2.649030   -4.361890    1.674810
  H      0.625710   -4.710050   -4.339040
  H     -2.117820   -5.300300   -0.178340
  H      4.842940   -3.086660    2.595510
  H     11.308830    4.586910   -2.841360
  H     11.639870    6.214290   -8.986370
  H     12.517000    9.176790   -5.033900
  H      5.659130   -1.338540   -3.302270
  H      8.898230    0.829630   -0.079500
  H      7.167530   -1.831270    3.710920
  H      8.789410   -3.333650    4.798780
  H     10.987760   -3.627800    1.107280
  H      9.360140   -2.130280    0.014990
  H      8.597820    0.472170    2.829840
  H      8.041610    2.620380    3.907200
  H      4.084730    2.445220    2.215200
  H      4.639520    0.297400    1.141660
  H      5.720580   -0.695690   -6.198170
  H      3.556550    0.168770   -7.022290
  H      4.194960    3.834730   -4.855700
  H      6.355580    2.970100   -4.030610
  H      8.379500   -2.095810   -3.994160
  H      9.621560   -3.592090   -5.504830
  H      9.480850   -0.606020   -8.600540
  H      8.203660    0.881950   -7.105680
  H     11.357230   -4.098390    4.633430
  H     11.869390   -4.675740    3.048060
  H      9.516740   -5.837930    4.687360
  H     11.115460   -6.590970    4.475360
  H     10.012610   -6.410230    3.083020
  H      4.861430    4.494630    3.305220
  H      6.534520    4.655770    3.848710
  H      4.338960    3.071700    5.345220
  H      4.939890    4.684860    5.806800
  H      6.015100    3.264000    5.895630
  H     10.995140   -3.835780   -7.530730
  H     11.022330   -2.567110   -8.762470
  H      8.724540   -4.595140   -8.358750
  H      9.943140   -4.644730   -9.661410
  H      8.751370   -3.319360   -9.594900
  H      1.934840    3.258360   -5.822420
  H      1.746830    1.817360   -6.828430
  H      3.355890    4.334980   -7.613840
  H      1.754960    3.886420   -8.255340
  H      3.185270    2.885860   -8.623670
  H      9.296820    2.925470   -5.912390

 Total Charge           Charge          ....    0
 Multiplicity           Mult            ....    1
 Number of Electrons    NEL             ....  554
 Basis Dimension        Dim             .... 2842

ORBITAL ENERGIES
----------------

  NO   OCC          E(Eh)            E(eV)
   0   2.0000     -19.225270      -523.1462
   1   2.0000     -19.224449      -523.1238
   2   2.0000     -19.124910      -520.4153
   3   2.0000     -19.124851      -520.4137
   4   2.0000     -14.327303      -389.8657
   5   2.0000     -14.326590      -389.8463
   6   2.0000     -14.326413      -389.8415
   7   2.0000     -14.322045      -389.7227
   8   2.0000     -10.270851      -279.4841
   9   2.0000     -10.270812      -279.4830
  10   2.0000     -10.265030      -279.3257
  11   2.0000     -10.262848      -279.2663
  12   2.0000     -10.262770      -279.2642
  13   2.0000     -10.261741      -279.2362
  14   2.0000     -10.255667      -279.0709
  15   2.0000     -10.254662      -279.0435
  16   2.0000     -10.252332      -278.9801
  17   2.0000     -10.250925      -278.9418
  18   2.0000     -10.234720      -278.5009
  19   2.0000     -10.230084      -278.3747
  20   2.0000     -10.227579      -278.3066
  21   2.0000     -10.226685      -278.2822
  22   2.0000     -10.226576      -278.2793
  23   2.0000     -10.225738      -278.2565
  24   2.0000     -10.223734      -278.2020
  25   2.0000     -10.222436      -278.1666
  26   2.0000     -10.222114      -278.1579
  27   2.0000     -10.221640      -278.1450
  28   2.0000     -10.220006      -278.1005
  29   2.0000     -10.219721      -278.0927
  30   2.0000     -10.217544      -278.0335
  31   2.0000     -10.217335      -278.0278
  32   2.0000     -10.215834      -277.9870
  33   2.0000     -10.214099      -277.9398
  34   2.0000     -10.210462      -277.8408
  35   2.0000     -10.210391      -277.8389
  36   2.0000     -10.207741      -277.7668
  37   2.0000     -10.206622      -277.7363
  38   2.0000     -10.205587      -277.7081
  39   2.0000     -10.205436      -277.7040
  40   2.0000     -10.205298      -277.7003
  41   2.0000     -10.205131      -277.6957
  42   2.0000     -10.204927      -277.6902
  43   2.0000     -10.204652      -277.6827
  44   2.0000     -10.204566      -277.6804
  45   2.0000     -10.204211      -277.6707
  46   2.0000     -10.203983      -277.6645
  47   2.0000     -10.203969      -277.6641
  48   2.0000     -10.203885      -277.6618
  49   2.0000     -10.202829      -277.6331
  50   2.0000     -10.199490      -277.5422
  51   2.0000     -10.197967      -277.5008
  52   2.0000     -10.194896      -277.4172
  53   2.0000     -10.190767      -277.3049
  54   2.0000     -10.190638      -277.3013
  55   2.0000     -10.188697      -277.2485
  56   2.0000     -10.187342      -277.2117
  57   2.0000     -10.185415      -277.1592
  58   2.0000     -10.184947      -277.1465
  59   2.0000     -10.184167      -277.1253
  60   2.0000     -10.183592      -277.1096
  61   2.0000     -10.183565      -277.1089
  62   2.0000     -10.183312      -277.1020
  63   2.0000     -10.182597      -277.0825
  64   2.0000     -10.182516      -277.0803
  65   2.0000     -10.182076      -277.0684
  66   2.0000     -10.180600      -277.0282
  67   2.0000     -10.180343      -277.0212
  68   2.0000     -10.180306      -277.0202
  69   2.0000     -10.179775      -277.0058
  70   2.0000     -10.179755      -277.0052
  71   2.0000     -10.179151      -276.9888
  72   2.0000     -10.178495      -276.9709
  73   2.0000     -10.175322      -276.8846
  74   2.0000     -10.174870      -276.8723
  75   2.0000     -10.171809      -276.7890
  76   2.0000     -10.171193      -276.7722
  77   2.0000     -10.171180      -276.7719
  78   2.0000     -10.169734      -276.7325
  79   2.0000     -10.168079      -276.6875
  80   2.0000     -10.167460      -276.6707
  81   2.0000     -10.159085      -276.4428
  82   2.0000      -1.148718       -31.2582
  83   2.0000      -1.143467       -31.1153
  84   2.0000      -1.052158       -28.6307
  85   2.0000      -1.052118       -28.6296
  86   2.0000      -0.930662       -25.3246
  87   2.0000      -0.928989       -25.2791
  88   2.0000      -0.925185       -25.1756
  89   2.0000      -0.913290       -24.8519
  90   2.0000      -0.911043       -24.7907
  91   2.0000      -0.907030       -24.6816
  92   2.0000      -0.906528       -24.6679
  93   2.0000      -0.905605       -24.6428
  94   2.0000      -0.873198       -23.7609
  95   2.0000      -0.865947       -23.5636
  96   2.0000      -0.864208       -23.5163
  97   2.0000      -0.862083       -23.4585
  98   2.0000      -0.861572       -23.4446
  99   2.0000      -0.857728       -23.3400
 100   2.0000      -0.845926       -23.0188
 101   2.0000      -0.836595       -22.7649
 102   2.0000      -0.827096       -22.5064
 103   2.0000      -0.815308       -22.1857
 104   2.0000      -0.812513       -22.1096
 105   2.0000      -0.810002       -22.0413
 106   2.0000      -0.806466       -21.9451
 107   2.0000      -0.793733       -21.5986
 108   2.0000      -0.792296       -21.5595
 109   2.0000      -0.788171       -21.4472
 110   2.0000      -0.783380       -21.3169
 111   2.0000      -0.775824       -21.1113
 112   2.0000      -0.775737       -21.1089
 113   2.0000      -0.768553       -20.9134
 114   2.0000      -0.759800       -20.6752
 115   2.0000      -0.755439       -20.5565
 116   2.0000      -0.752883       -20.4870
 117   2.0000      -0.750841       -20.4314
 118   2.0000      -0.747161       -20.3313
 119   2.0000      -0.742652       -20.2086
 120   2.0000      -0.738574       -20.0976
 121   2.0000      -0.728986       -19.8367
 122   2.0000      -0.722853       -19.6698
 123   2.0000      -0.716821       -19.5057
 124   2.0000      -0.701630       -19.0923
 125   2.0000      -0.691972       -18.8295
 126   2.0000      -0.687209       -18.6999
 127   2.0000      -0.683031       -18.5862
 128   2.0000      -0.675756       -18.3882
 129   2.0000      -0.661905       -18.0114
 130   2.0000      -0.645005       -17.5515
 131   2.0000      -0.639897       -17.4125
 132   2.0000      -0.639293       -17.3961
 133   2.0000      -0.633306       -17.2331
 134   2.0000      -0.628170       -17.0934
 135   2.0000      -0.623999       -16.9799
 136   2.0000      -0.619105       -16.8467
 137   2.0000      -0.618509       -16.8305
 138   2.0000      -0.615873       -16.7588
 139   2.0000      -0.613279       -16.6882
 140   2.0000      -0.612156       -16.6576
 141   2.0000      -0.610986       -16.6258
 142   2.0000      -0.606812       -16.5122
 143   2.0000      -0.603428       -16.4201
 144   2.0000      -0.598906       -16.2971
 145   2.0000      -0.597655       -16.2630
 146   2.0000      -0.592340       -16.1184
 147   2.0000      -0.584501       -15.9051
 148   2.0000      -0.579892       -15.7797
 149   2.0000      -0.577788       -15.7224
 150   2.0000      -0.575064       -15.6483
 151   2.0000      -0.572623       -15.5819
 152   2.0000      -0.566719       -15.4212
 153   2.0000      -0.557003       -15.1568
 154   2.0000      -0.549669       -14.9572
 155   2.0000      -0.540102       -14.6969
 156   2.0000      -0.534461       -14.5434
 157   2.0000      -0.533317       -14.5123
 158   2.0000      -0.527502       -14.3541
 159   2.0000      -0.523056       -14.2331
 160   2.0000      -0.518561       -14.1108
 161   2.0000      -0.513653       -13.9772
 162   2.0000      -0.508216       -13.8293
 163   2.0000      -0.501299       -13.6410
 164   2.0000      -0.498468       -13.5640
 165   2.0000      -0.497493       -13.5375
 166   2.0000      -0.494177       -13.4472
 167   2.0000      -0.489497       -13.3199
 168   2.0000      -0.487281       -13.2596
 169   2.0000      -0.481150       -13.0928
 170   2.0000      -0.479793       -13.0558
 171   2.0000      -0.477915       -13.0047
 172   2.0000      -0.476590       -12.9687
 173   2.0000      -0.473478       -12.8840
 174   2.0000      -0.471568       -12.8320
 175   2.0000      -0.471329       -12.8255
 176   2.0000      -0.465470       -12.6661
 177   2.0000      -0.462838       -12.5945
 178   2.0000      -0.461376       -12.5547
 179   2.0000      -0.456961       -12.4346
 180   2.0000      -0.455830       -12.4038
 181   2.0000      -0.454287       -12.3618
 182   2.0000      -0.452930       -12.3249
 183   2.0000      -0.451376       -12.2826
 184   2.0000      -0.450090       -12.2476
 185   2.0000      -0.447615       -12.1802
 186   2.0000      -0.445302       -12.1173
 187   2.0000      -0.444236       -12.0883
 188   2.0000      -0.442462       -12.0400
 189   2.0000      -0.441375       -12.0104
 190   2.0000      -0.438585       -11.9345
 191   2.0000      -0.437653       -11.9091
 192   2.0000      -0.436118       -11.8674
 193   2.0000      -0.434305       -11.8180
 194   2.0000      -0.433084       -11.7848
 195   2.0000      -0.432647       -11.7729
 196   2.0000      -0.429319       -11.6824
 197   2.0000      -0.428830       -11.6691
 198   2.0000      -0.426322       -11.6008
 199   2.0000      -0.425815       -11.5870
 200   2.0000      -0.422619       -11.5000
 201   2.0000      -0.421552       -11.4710
 202   2.0000      -0.419658       -11.4195
 203   2.0000      -0.419601       -11.4179
 204   2.0000      -0.417505       -11.3609
 205   2.0000      -0.412825       -11.2335
 206   2.0000      -0.412073       -11.2131
 207   2.0000      -0.410775       -11.1778
 208   2.0000      -0.408626       -11.1193
 209   2.0000      -0.406728       -11.0676
 210   2.0000      -0.404720       -11.0130
 211   2.0000      -0.402619       -10.9558
 212   2.0000      -0.397900       -10.8274
 213   2.0000      -0.393015       -10.6945
 214   2.0000      -0.390227       -10.6186
 215   2.0000      -0.387731       -10.5507
 216   2.0000      -0.387491       -10.5442
 217   2.0000      -0.386802       -10.5254
 218   2.0000      -0.384597       -10.4654
 219   2.0000      -0.383578       -10.4377
 220   2.0000      -0.383122       -10.4253
 221   2.0000      -0.382445       -10.4068
 222   2.0000      -0.381342       -10.3768
 223   2.0000      -0.379267       -10.3204
 224   2.0000      -0.378874       -10.3097
 225   2.0000      -0.377798       -10.2804
 226   2.0000      -0.375314       -10.2128
 227   2.0000      -0.374008       -10.1773
 228   2.0000      -0.373356       -10.1595
 229   2.0000      -0.372228       -10.1288
 230   2.0000      -0.366829        -9.9819
 231   2.0000      -0.365322        -9.9409
 232   2.0000      -0.360954        -9.8221
 233   2.0000      -0.359840        -9.7918
 234   2.0000      -0.358708        -9.7609
 235   2.0000      -0.355578        -9.6758
 236   2.0000      -0.354221        -9.6388
 237   2.0000      -0.354075        -9.6349
 238   2.0000      -0.353540        -9.6203
 239   2.0000      -0.352499        -9.5920
 240   2.0000      -0.349272        -9.5042
 241   2.0000      -0.348431        -9.4813
 242   2.0000      -0.348009        -9.4698
 243   2.0000      -0.346213        -9.4209
 244   2.0000      -0.344991        -9.3877
 245   2.0000      -0.344503        -9.3744
 246   2.0000      -0.341451        -9.2913
 247   2.0000      -0.340528        -9.2662
 248   2.0000      -0.339722        -9.2443
 249   2.0000      -0.339394        -9.2354
 250   2.0000      -0.338822        -9.2198
 251   2.0000      -0.337716        -9.1897
 252   2.0000      -0.336740        -9.1632
 253   2.0000      -0.333732        -9.0813
 254   2.0000      -0.330110        -8.9827
 255   2.0000      -0.327282        -8.9058
 256   2.0000      -0.318959        -8.6793
 257   2.0000      -0.310566        -8.4509
 258   2.0000      -0.302455        -8.2302
 259   2.0000      -0.287360        -7.8195
 260   2.0000      -0.283782        -7.7221
 261   2.0000      -0.282678        -7.6921
 262   2.0000      -0.282410        -7.6848
 263   2.0000      -0.271838        -7.3971
 264   2.0000      -0.271669        -7.3925
 265   2.0000      -0.268034        -7.2936
 266   2.0000      -0.262992        -7.1564
 267   2.0000      -0.262119        -7.1326
 268   2.0000      -0.261696        -7.1211
 269   2.0000      -0.259245        -7.0544
 270   2.0000      -0.253901        -6.9090
 271   2.0000      -0.252344        -6.8666
 272   2.0000      -0.248866        -6.7720
 273   2.0000      -0.245621        -6.6837
 274   2.0000      -0.238805        -6.4982
 275   2.0000      -0.235954        -6.4206
 276   2.0000      -0.209095        -5.6898
 277   0.0000      -0.131437        -3.5766
 278   0.0000      -0.116187        -3.1616
 279   0.0000      -0.100847        -2.7442
 280   0.0000      -0.095923        -2.6102
 281   0.0000      -0.063351        -1.7239

MULLIKEN ATOMIC CHARGES
-----------------------
   0 C :   -0.321178
   1 C :   -0.026739
   2 C :    0.015452
   3 C :    0.116623
   4 C :   -0.012604
   5 C :    0.223712
   6 C :   -0.180058
   7 C :   -0.103510
   8 C :   -0.071587
   9 C :   -0.202930
  10 H :    0.123422
  11 H :    0.126060
  12 O :   -0.299088
  13 C :    0.147526
  14 C :   -0.206514
  15 C :   -0.223110
  16 N :   -0.002161
  17 N :    0.005324
  18 C :    0.470305
  19 O :   -0.280723
  20 C :    0.183467
  21 C :   -0.163678
  22 C :   -0.273148
  23 C :   -0.283079
  24 C :    0.010802
  25 C :    0.031117
  26 C :    0.115282
  27 C :   -0.017152
  28 C :    0.225830
  29 C :   -0.173777
  30 C :   -0.108090
  31 C :   -0.070306
  32 C :   -0.203403
  33 H :    0.123827
  34 H :    0.126327
  35 O :   -0.295401
  36 C :    0.067256
  37 C :   -0.207298
  38 C :   -0.204356
  39 N :    0.001867
  40 N :    0.012281
  41 C :    0.309040
  42 C :   -0.231769
  43 C :    0.837566
  44 C :   -0.336884
  45 C :   -0.235635
  46 C :    0.289685
  47 C :   -0.352442
  48 C :    0.884346
  49 C :   -0.050293
  50 C :    0.115718
  51 C :   -0.065062
  52 C :   -0.078621
  53 C :   -0.100097
  54 C :   -0.108481
  55 C :   -0.234085
  56 C :   -0.173086
  57 C :    0.187911
  58 C :   -0.194327
  59 C :   -0.136919
  60 C :   -0.179783
  61 C :   -0.194955
  62 C :    0.209802
  63 C :   -0.210348
  64 C :   -0.164294
  65 C :   -0.197247
  66 C :   -0.195816
  67 C :    0.208137
  68 C :   -0.197963
  69 C :   -0.147861
  70 C :   -0.124902
  71 C :   -0.214433
  72 C :    0.219236
  73 C :   -0.165481
  74 C :   -0.214934
  75 C :   -0.200723
  76 C :   -0.332207
  77 C :   -0.196859
  78 C :   -0.336160
  79 C :   -0.208256
  80 C :   -0.336888
  81 C :   -0.198229
  82 C :   -0.335336
  83 C :   -0.422405
  84 C :    0.440561
  85 O :   -0.253487
  86 H :    0.148250
  87 H :    0.159351
  88 H :    0.136602
  89 H :    0.129712
  90 H :    0.153241
  91 H :    0.159590
  92 H :    0.136020
  93 H :    0.142333
  94 H :    0.122627
  95 H :    0.124107
  96 H :    0.106428
  97 H :    0.103581
  98 H :    0.137953
  99 H :    0.139927
 100 H :    0.105477
 101 H :    0.101542
 102 H :    0.125682
 103 H :    0.148378
 104 H :    0.108455
 105 H :    0.101543
 106 H :    0.123207
 107 H :    0.143712
 108 H :    0.101268
 109 H :    0.108990
 110 H :    0.115996
 111 H :    0.097000
 112 H :    0.098981
 113 H :    0.104355
 114 H :    0.108627
 115 H :    0.115792
 116 H :    0.096222
 117 H :    0.098958
 118 H :    0.109762
 119 H :    0.109264
 120 H :    0.108768
 121 H :    0.095959
 122 H :    0.101506
 123 H :    0.112964
 124 H :    0.106054
 125 H :    0.107976
 126 H :    0.095444
 127 H :    0.097505
 128 H :    0.107531
 129 H :    0.107815
 130 H :    0.112191
 131 H :    0.151035
Sum of atomic charges:    0.0000000

LOEWDIN ATOMIC CHARGES
----------------------
   0 C :   -0.040327
   1 C :   -0.078739
   2 C :    0.012696
   3 C :   -0.036764
   4 C :   -0.061502
   5 C :   -0.248026
   6 C :   -0.078673
   7 C :   -0.111513
   8 C :   -0.114844
   9 C :   -0.073036
  10 H :    0.147988
  11 H :    0.149936
  12 O :    0.125062
  13 C :   -0.136615
  14 C :   -0.151693
  15 C :   -0.153888
  16 N :    0.065589
  17 N :    0.073394
  18 C :   -0.200133
  19 O :    0.408043
  20 C :   -0.144721
  21 C :   -0.050275
  22 C :   -0.052171
  23 C :   -0.036606
  24 C :   -0.078996
  25 C :    0.009380
  26 C :   -0.038429
  27 C :   -0.061481
  28 C :   -0.247514
  29 C :   -0.078952
  30 C :   -0.111694
  31 C :   -0.114637
  32 C :   -0.072913
  33 H :    0.148016
  34 H :    0.150187
  35 O :    0.127970
  36 C :   -0.146490
  37 C :   -0.154683
  38 C :   -0.155920
  39 N :    0.066094
  40 N :    0.092478
  41 C :   -0.055263
  42 C :   -0.004703
  43 C :   -0.079683
  44 C :   -0.048152
  45 C :   -0.004620
  46 C :   -0.053772
  47 C :   -0.049976
  48 C :   -0.079725
  49 C :   -0.052104
  50 C :   -0.142031
  51 C :   -0.085884
  52 C :   -0.087382
  53 C :   -0.084785
  54 C :   -0.086636
  55 C :   -0.102174
  56 C :   -0.108015
  57 C :   -0.136636
  58 C :   -0.105755
  59 C :   -0.099585
  60 C :   -0.104957
  61 C :   -0.108016
  62 C :   -0.138229
  63 C :   -0.108907
  64 C :   -0.098669
  65 C :   -0.099946
  66 C :   -0.107469
  67 C :   -0.138352
  68 C :   -0.109942
  69 C :   -0.101518
  70 C :   -0.103813
  71 C :   -0.103735
  72 C :   -0.133262
  73 C :   -0.101466
  74 C :   -0.096072
  75 C :   -0.241312
  76 C :   -0.298988
  77 C :   -0.242107
  78 C :   -0.298775
  79 C :   -0.241262
  80 C :   -0.299671
  81 C :   -0.242867
  82 C :   -0.299101
  83 C :   -0.047680
  84 C :   -0.190092
  85 O :    0.387317
  86 H :    0.181203
  87 H :    0.160167
  88 H :    0.156896
  89 H :    0.152960
  90 H :    0.179604
  91 H :    0.160385
  92 H :    0.156731
  93 H :    0.161773
  94 H :    0.159900
  95 H :    0.152855
  96 H :    0.147151
  97 H :    0.147287
  98 H :    0.153496
  99 H :    0.155880
 100 H :    0.147564
 101 H :    0.146791
 102 H :    0.154460
 103 H :    0.158060
 104 H :    0.148265
 105 H :    0.146441
 106 H :    0.152783
 107 H :    0.153401
 108 H :    0.147631
 109 H :    0.148813
 110 H :    0.150848
 111 H :    0.141312
 112 H :    0.139625
 113 H :    0.117632
 114 H :    0.118255
 115 H :    0.122075
 116 H :    0.139545
 117 H :    0.140965
 118 H :    0.119877
 119 H :    0.117895
 120 H :    0.119345
 121 H :    0.140085
 122 H :    0.141885
 123 H :    0.120522
 124 H :    0.117342
 125 H :    0.119144
 126 H :    0.139735
 127 H :    0.139725
 128 H :    0.119047
 129 H :    0.117466
 130 H :    0.120629
 131 H :    0.156724

  Mayer bond orders larger than 0.100000
B(  0-C ,  1-C ) :   1.5247 B(  0-C , 18-C ) :   1.1519 B(  0-C , 86-H ) :   0.9509
B(  1-C ,  2-C ) :   1.1640 B(  1-C ,  5-C ) :   0.9940 B(  1-C , 12-O ) :  -0.1252
B(  2-C ,  3-C ) :   1.0163 B(  2-C , 13-C ) :   1.4455 B(  3-C ,  4-C ) :   1.3217
B(  3-C ,  6-C ) :   1.3846 B(  4-C ,  5-C ) :   0.9660 B(  4-C ,  9-C ) :   1.3875
B(  4-C , 12-O ) :  -0.1404 B(  5-C , 12-O ) :   2.1539 B(  6-C ,  7-C ) :   1.4233
B(  6-C , 87-H ) :   0.9318 B(  7-C ,  8-C ) :   1.3826 B(  7-C , 11-H ) :   0.9652
B(  8-C ,  9-C ) :   1.3806 B(  8-C , 10-H ) :   0.9702 B(  9-C , 88-H ) :   0.9737
B( 13-C , 14-C ) :   1.0318 B( 13-C , 15-C ) :   1.0289 B( 14-C , 16-N ) :   2.9849
B( 15-C , 17-N ) :   3.0035 B( 18-C , 19-O ) :   0.9619 B( 18-C , 22-C ) :   1.3781
B( 19-O , 20-C ) :   1.1859 B( 20-C , 21-C ) :   1.3081 B( 20-C , 41-C ) :   1.1364
B( 21-C , 22-C ) :   1.2923 B( 21-C , 43-C ) :   1.0009 B( 22-C , 89-H ) :   0.9877
B( 23-C , 24-C ) :   1.4728 B( 23-C , 35-O ) :   0.1031 B( 23-C , 84-C ) :   1.1909
B( 23-C , 90-H ) :   0.9537 B( 24-C , 25-C ) :   1.1789 B( 24-C , 28-C ) :   0.9979
B( 24-C , 35-O ) :  -0.1272 B( 25-C , 26-C ) :   1.0227 B( 25-C , 36-C ) :   1.4045
B( 26-C , 27-C ) :   1.3278 B( 26-C , 29-C ) :   1.3815 B( 27-C , 28-C ) :   0.9647
B( 27-C , 32-C ) :   1.3911 B( 27-C , 35-O ) :  -0.1397 B( 28-C , 35-O ) :   2.1587
B( 29-C , 30-C ) :   1.4198 B( 29-C , 91-H ) :   0.9332 B( 30-C , 31-C ) :   1.3852
B( 30-C , 34-H ) :   0.9656 B( 31-C , 32-C ) :   1.3770 B( 31-C , 33-H ) :   0.9703
B( 32-C , 92-H ) :   0.9747 B( 36-C , 37-C ) :   1.0473 B( 36-C , 38-C ) :   1.0602
B( 37-C , 39-N ) :   2.9889 B( 38-C , 40-N ) :   2.9470 B( 41-C , 42-C ) :   1.2407
B( 41-C , 44-C ) :   1.1702 B( 42-C , 43-C ) :   0.8767 B( 42-C , 47-C ) :   1.4357
B( 42-C , 51-C ) :   0.1211 B( 42-C , 52-C ) :   0.1009 B( 43-C , 51-C ) :   0.7344
B( 43-C , 52-C ) :   0.7057 B( 44-C , 45-C ) :   1.4634 B( 44-C , 93-H ) :   1.0081
B( 45-C , 46-C ) :   1.2471 B( 45-C , 48-C ) :   0.9371 B( 45-C , 54-C ) :   0.1564
B( 46-C , 47-C ) :   1.1793 B( 46-C , 50-C ) :   1.1664 B( 47-C , 94-H ) :   1.0224
B( 48-C , 49-C ) :   0.9261 B( 48-C , 53-C ) :   0.7194 B( 48-C , 54-C ) :   0.6511
B( 49-C , 50-C ) :   1.2816 B( 49-C , 54-C ) :   0.1419 B( 49-C , 83-C ) :   1.2210
B( 50-C , 85-O ) :   1.2630 B( 51-C , 60-C ) :   1.3653 B( 51-C , 64-C ) :   1.3863
B( 52-C , 55-C ) :   1.3653 B( 52-C , 59-C ) :   1.3708 B( 53-C , 70-C ) :   1.3447
B( 53-C , 74-C ) :   1.3866 B( 54-C , 65-C ) :   1.3721 B( 54-C , 69-C ) :   1.3611
B( 55-C , 56-C ) :   1.4520 B( 55-C , 95-H ) :   0.9710 B( 56-C , 57-C ) :   1.3097
B( 56-C , 96-H ) :   0.9797 B( 57-C , 58-C ) :   1.3831 B( 57-C , 75-C ) :   0.9114
B( 58-C , 59-C ) :   1.4246 B( 58-C , 97-H ) :   0.9694 B( 59-C , 98-H ) :   0.9502
B( 60-C , 61-C ) :   1.4245 B( 60-C , 99-H ) :   0.9609 B( 61-C , 62-C ) :   1.3482
B( 61-C ,100-H ) :   0.9802 B( 62-C , 63-C ) :   1.3481 B( 62-C , 77-C ) :   0.9007
B( 63-C , 64-C ) :   1.4291 B( 63-C ,101-H ) :   0.9801 B( 64-C ,102-H ) :   0.9639
B( 65-C , 66-C ) :   1.4276 B( 65-C ,103-H ) :   0.9611 B( 66-C , 67-C ) :   1.3591
B( 66-C ,104-H ) :   0.9770 B( 67-C , 68-C ) :   1.3349 B( 67-C , 81-C ) :   0.9029
B( 68-C , 69-C ) :   1.4319 B( 68-C ,105-H ) :   0.9842 B( 69-C ,106-H ) :   0.9676
B( 70-C , 71-C ) :   1.4290 B( 70-C ,107-H ) :   0.9464 B( 71-C , 72-C ) :   1.3748
B( 71-C ,108-H ) :   0.9794 B( 72-C , 73-C ) :   1.3301 B( 72-C , 79-C ) :   0.8958
B( 73-C , 74-C ) :   1.4541 B( 73-C ,109-H ) :   0.9717 B( 74-C ,110-H ) :   0.9664
B( 75-C , 76-C ) :   0.9627 B( 75-C ,111-H ) :   0.9667 B( 75-C ,112-H ) :   0.9827
B( 76-C ,113-H ) :   0.9752 B( 76-C ,114-H ) :   0.9703 B( 76-C ,115-H ) :   0.9738
B( 77-C , 78-C ) :   0.9580 B( 77-C ,116-H ) :   0.9795 B( 77-C ,117-H ) :   0.9756
B( 78-C ,118-H ) :   0.9750 B( 78-C ,119-H ) :   0.9700 B( 78-C ,120-H ) :   0.9753
B( 79-C , 80-C ) :   0.9556 B( 79-C ,121-H ) :   0.9787 B( 79-C ,122-H ) :   0.9784
B( 80-C ,123-H ) :   0.9745 B( 80-C ,124-H ) :   0.9703 B( 80-C ,125-H ) :   0.9751
B( 81-C , 82-C ) :   0.9564 B( 81-C ,126-H ) :   0.9767 B( 81-C ,127-H ) :   0.9802
B( 82-C ,128-H ) :   0.9751 B( 82-C ,129-H ) :   0.9699 B( 82-C ,130-H ) :   0.9751
B( 83-C , 84-C ) :   1.3929 B( 83-C ,131-H ) :   0.9845 B( 84-C , 85-O ) :   0.9351

-----------------------------------------------------------------------------
  SOC CORRECTED ABSORPTION SPECTRUM VIA TRANSITION ELECTRIC DIPOLE MOMENTS*
-----------------------------------------------------------------------------
State   Energy  Wavelength   fosc         T2         TX        TY        TZ
        (cm-1)    (nm)                  (au**2)     (au)      (au)      (au)
-----------------------------------------------------------------------------
   1   10419.6    959.7   0.000000000   0.00000   0.00004   0.00004   0.00008
   2   10419.6    959.7   0.000000000   0.00000   0.00000   0.00000   0.00001
   3   10419.6    959.7   0.000000002   0.00000   0.00018   0.00018   0.00008
   4   13172.4    759.2   0.000000001   0.00000   0.00010   0.00010   0.00006
   5   13172.4    759.2   0.000000000   0.00000   0.00004   0.00003   0.00003
   6   13172.4    759.2   0.000000012   0.00000   0.00034   0.00036   0.00019
   7   15963.0    626.4   1.708537509  35.23592   3.95906   4.01143   1.86284
   8   17588.7    568.5   0.000000163   0.00000   0.00119   0.00116   0.00054
   9   17588.7    568.5   0.000000010   0.00000   0.00023   0.00025   0.00026
  10   17588.7    568.5   0.000000083   0.00000   0.00082   0.00083   0.00044
  11   18238.0    548.3   0.044611238   0.80527   0.08228   0.07619   0.89034
  12   19920.1    502.0   0.006378603   0.10542   0.18108   0.16840   0.21040

FINAL SINGLE POINT ENERGY     -3368.885976940031

DIPOLE MOMENT
-------------
                                X             Y             Z
Electronic contribution:      4.70498       0.49040     -15.02847
Nuclear contribution   :     -6.43047       1.44881      16.51860
                        -----------------------------------------
Total Dipole Moment    :     -1.72548       1.93922       1.49013
                        -----------------------------------------
Magnitude (a.u.)       :      2.99305
Magnitude (Debye)      :      7.60773

Rotational constants in cm-1:     0.000938     0.000469     0.000405
Rotational constants in MHz :    28.113977    14.059308    12.140024

                             ****ORCA TERMINATED NORMALLY****
TOTAL RUN TIME: 0 days 4 hours 43 minutes 50 seconds 83 msec
