                         Program Version 4.2.0 -  RELEASE  -
|  1> # ORCA input file
|  2> # IDF-4F.out
|  3> ! B3LYP def2-TZVP def2/J RIJCOSX Grid4 TightSCF
|  4>
|  5> %maxcore 2000
|  6> %tddft
|  7>   maxdim 5
|  8>   nroots 3
|  9>   dosoc true
| 10>   end
| 11>
| 12>
| 13>
| 14> * xyz 0 1
| 15>    C        0.27522        -2.56479        -2.16661
| 16>    C       -0.90535        -2.79370        -1.50781
| 17>    C       -2.08193        -3.37517        -2.13136
| 18>    C       -3.17141        -3.32825        -1.15540
| 19>    C       -2.67841        -2.79032         0.04317
| 20>    C       -1.24480        -2.45509        -0.11019
| 21>    C       -4.50299        -3.70526        -1.24370
| 22>    C       -5.30463        -3.53335        -0.12512
| 23>    C       -4.80313        -3.00095         1.06310
| 24>    C       -3.47444        -2.62168         1.15882
| 25>    F       -5.61385        -2.85396         2.11796
| 26>    F       -6.59288        -3.88771        -0.19218
| 27>    O       -0.53596        -1.99921         0.76147
| 28>    C       -2.18858        -3.90526        -3.39048
| 29>    C       -3.37783        -4.45338        -3.91887
| 30>    C       -1.15657        -4.01307        -4.34787
| 31>    N       -4.30648        -4.91115        -4.41399
| 32>    N       -0.38815        -4.15611        -5.18955
| 33>    C        1.48142        -1.98833        -1.73816
| 34>    O        2.43429        -1.84365        -2.72525
| 35>    C        3.47496        -1.25768        -2.15219
| 36>    C        3.24508        -1.01063        -0.79739
| 37>    C        1.97341        -1.48752        -0.52301
| 38>    C       10.85829         3.63262        -3.56402
| 39>    C       10.89425         4.55336        -2.55621
| 40>    C        9.87709         4.96095        -1.61142
| 41>    C       10.55896         5.63739        -0.50919
| 42>    C       11.90214         5.84650        -0.87068
| 43>    C       12.15853         5.24183        -2.20108
| 44>    C       10.08466         6.09668         0.70866
| 45>    C       10.97277         6.75888         1.54277
| 46>    C       12.30179         6.97211         1.17437
| 47>    C       12.78216         6.51557        -0.04303
| 48>    F       13.12152         7.62350         2.00772
| 49>    F       10.54100         7.20037         2.72946
| 50>    O       13.18589         5.26364        -2.83704
| 51>    C        8.52390         4.97035        -1.82590
| 52>    C        7.57516         5.41284        -0.88328
| 53>    C        7.93185         4.62758        -3.05963
| 54>    N        6.75891         5.73053        -0.14156
| 55>    N        7.42033         4.42902        -4.06784
| 56>    C        4.74322        -0.74910        -2.56051
| 57>    C        5.31361        -0.15098        -1.40465
| 58>    C        4.46516        -0.40213        -0.16632
| 59>    C        5.38614        -0.73252        -3.79739
| 60>    C        6.57980        -0.05403        -3.87604
| 61>    C        7.08234         0.64965        -2.74976
| 62>    C        6.47222         0.58245        -1.49827
| 63>    C        7.47227         0.12825        -5.09756
| 64>    C        8.46132         1.12605        -4.56480
| 65>    C        8.21408         1.37572        -3.21799
| 66>    C        4.24124         0.87593         0.61324
| 67>    C        5.04947        -1.49202         0.72651
| 68>    C        8.24604        -1.12658        -5.47067
| 69>    C        6.63704         0.63484        -6.25903
| 70>    C        6.18210        -2.21535         0.38689
| 71>    C        6.63776        -3.22728         1.21443
| 72>    C        5.97482        -3.54345         2.39150
| 73>    C        4.83703        -2.81709         2.72316
| 74>    C        4.37783        -1.80648         1.90259
| 75>    C        3.16663         1.70695         0.33487
| 76>    C        2.98031         2.87434         1.05388
| 77>    C        3.85837         3.24060         2.06436
| 78>    C        4.94608         2.41459         2.32214
| 79>    C        5.13988         1.25060         1.60511
| 80>    C        6.03409        -0.26814        -7.12548
| 81>    C        5.24301         0.18205        -8.16523
| 82>    C        5.02868         1.54028        -8.36121
| 83>    C        5.62294         2.43581        -7.48210
| 84>    C        6.41327         1.99299        -6.43703
| 85>    C        9.01843        -1.10981        -6.62641
| 86>    C        9.76856        -2.21200        -6.98517
| 87>    C        9.77584        -3.35635        -6.19652
| 88>    C        9.00895        -3.36395        -5.04011
| 89>    C        8.25543        -2.26192        -4.67509
| 90>    C        6.44001        -4.67884         3.25643
| 91>    C        5.76378        -5.98354         2.82958
| 92>    C        3.66242         4.50386         2.85107
| 93>    C        4.67267         5.57365         2.43463
| 94>    C       10.55349        -4.57107        -6.61238
| 95>    C        9.69018        -5.48236        -7.48745
| 96>    C        4.21483         2.02662        -9.52525
| 97>    C        5.10695         2.22418       -10.75265
| 98>    C        9.56043         1.90537        -4.90632
| 99>    C        9.88270         2.63256        -3.75579
|100>    O        9.05340         2.28120        -2.72245
|101>    H        0.31465        -2.83969        -3.21385
|102>    H       -4.94244        -4.11986        -2.13568
|103>    H       -3.08002        -2.20796         2.07320
|104>    H        1.43412        -1.47921         0.40080
|105>    H       11.69559         3.62923        -4.25092
|106>    H        9.06654         5.95373         1.03275
|107>    H       13.80866         6.68205        -0.32823
|108>    H        4.95155        -1.22229        -4.65450
|109>    H        6.88964         1.09643        -0.64645
|110>    H        6.71841        -1.99233        -0.52391
|111>    H        7.52487        -3.77904         0.93720
|112>    H        4.30411        -3.04749         3.63425
|113>    H        3.49382        -1.24936         2.17476
|114>    H        2.46512         1.43766        -0.44166
|115>    H        2.13239         3.50530         0.82938
|116>    H        5.64436         2.68128         3.10244
|117>    H        5.98487         0.61523         1.83055
|118>    H        6.19260        -1.32900        -6.99354
|119>    H        4.78343        -0.53303        -8.83257
|120>    H        5.46314         3.49645        -7.61070
|121>    H        6.85184         2.71065        -5.76022
|122>    H        9.01963        -0.22853        -7.25099
|123>    H       10.36046        -2.18379        -7.88871
|124>    H        9.00161        -4.24293        -4.41139
|125>    H        7.67102        -2.29358        -3.76728
|126>    H        6.19670        -4.47301         4.30055
|127>    H        7.52283        -4.79060         3.17251
|128>    H        4.68319        -5.89548         2.91681
|129>    H        6.09726        -6.80763         3.45573
|130>    H        6.00496        -6.21370         1.79412
|131>    H        3.78465         4.29069         3.91633
|132>    H        2.64993         4.88096         2.69514
|133>    H        5.68826         5.23298         2.61933
|134>    H        4.50717         6.48910         2.99762
|135>    H        4.58124         5.79315         1.37456
|136>    H       10.87874        -5.12364        -5.72868
|137>    H       11.44035        -4.26911        -7.17289
|138>    H        8.80660        -5.80503        -6.94137
|139>    H       10.25229        -6.36247        -7.79029
|140>    H        9.36576        -4.95275        -8.38036
|141>    H        3.73559         2.97431        -9.27249
|142>    H        3.43468         1.30013        -9.76129
|143>    H        5.88336         2.95616       -10.54151
|144>    H        4.51948         2.57454       -11.59800
|145>    H        5.58592         1.28679       -11.02706
|146>    H       10.05281         1.99594        -5.85277
|147> *
|148>
|149>                          ****END OF INPUT****

CARTESIAN COORDINATES (ANGSTROEM)
---------------------------------
  C      0.275220   -2.564790   -2.166610
  C     -0.905350   -2.793700   -1.507810
  C     -2.081930   -3.375170   -2.131360
  C     -3.171410   -3.328250   -1.155400
  C     -2.678410   -2.790320    0.043170
  C     -1.244800   -2.455090   -0.110190
  C     -4.502990   -3.705260   -1.243700
  C     -5.304630   -3.533350   -0.125120
  C     -4.803130   -3.000950    1.063100
  C     -3.474440   -2.621680    1.158820
  F     -5.613850   -2.853960    2.117960
  F     -6.592880   -3.887710   -0.192180
  O     -0.535960   -1.999210    0.761470
  C     -2.188580   -3.905260   -3.390480
  C     -3.377830   -4.453380   -3.918870
  C     -1.156570   -4.013070   -4.347870
  N     -4.306480   -4.911150   -4.413990
  N     -0.388150   -4.156110   -5.189550
  C      1.481420   -1.988330   -1.738160
  O      2.434290   -1.843650   -2.725250
  C      3.474960   -1.257680   -2.152190
  C      3.245080   -1.010630   -0.797390
  C      1.973410   -1.487520   -0.523010
  C     10.858290    3.632620   -3.564020
  C     10.894250    4.553360   -2.556210
  C      9.877090    4.960950   -1.611420
  C     10.558960    5.637390   -0.509190
  C     11.902140    5.846500   -0.870680
  C     12.158530    5.241830   -2.201080
  C     10.084660    6.096680    0.708660
  C     10.972770    6.758880    1.542770
  C     12.301790    6.972110    1.174370
  C     12.782160    6.515570   -0.043030
  F     13.121520    7.623500    2.007720
  F     10.541000    7.200370    2.729460
  O     13.185890    5.263640   -2.837040
  C      8.523900    4.970350   -1.825900
  C      7.575160    5.412840   -0.883280
  C      7.931850    4.627580   -3.059630
  N      6.758910    5.730530   -0.141560
  N      7.420330    4.429020   -4.067840
  C      4.743220   -0.749100   -2.560510
  C      5.313610   -0.150980   -1.404650
  C      4.465160   -0.402130   -0.166320
  C      5.386140   -0.732520   -3.797390
  C      6.579800   -0.054030   -3.876040
  C      7.082340    0.649650   -2.749760
  C      6.472220    0.582450   -1.498270
  C      7.472270    0.128250   -5.097560
  C      8.461320    1.126050   -4.564800
  C      8.214080    1.375720   -3.217990
  C      4.241240    0.875930    0.613240
  C      5.049470   -1.492020    0.726510
  C      8.246040   -1.126580   -5.470670
  C      6.637040    0.634840   -6.259030
  C      6.182100   -2.215350    0.386890
  C      6.637760   -3.227280    1.214430
  C      5.974820   -3.543450    2.391500
  C      4.837030   -2.817090    2.723160
  C      4.377830   -1.806480    1.902590
  C      3.166630    1.706950    0.334870
  C      2.980310    2.874340    1.053880
  C      3.858370    3.240600    2.064360
  C      4.946080    2.414590    2.322140
  C      5.139880    1.250600    1.605110
  C      6.034090   -0.268140   -7.125480
  C      5.243010    0.182050   -8.165230
  C      5.028680    1.540280   -8.361210
  C      5.622940    2.435810   -7.482100
  C      6.413270    1.992990   -6.437030
  C      9.018430   -1.109810   -6.626410
  C      9.768560   -2.212000   -6.985170
  C      9.775840   -3.356350   -6.196520
  C      9.008950   -3.363950   -5.040110
  C      8.255430   -2.261920   -4.675090
  C      6.440010   -4.678840    3.256430
  C      5.763780   -5.983540    2.829580
  C      3.662420    4.503860    2.851070
  C      4.672670    5.573650    2.434630
  C     10.553490   -4.571070   -6.612380
  C      9.690180   -5.482360   -7.487450
  C      4.214830    2.026620   -9.525250
  C      5.106950    2.224180  -10.752650
  C      9.560430    1.905370   -4.906320
  C      9.882700    2.632560   -3.755790
  O      9.053400    2.281200   -2.722450
  H      0.314650   -2.839690   -3.213850
  H     -4.942440   -4.119860   -2.135680
  H     -3.080020   -2.207960    2.073200
  H      1.434120   -1.479210    0.400800
  H     11.695590    3.629230   -4.250920
  H      9.066540    5.953730    1.032750
  H     13.808660    6.682050   -0.328230
  H      4.951550   -1.222290   -4.654500
  H      6.889640    1.096430   -0.646450
  H      6.718410   -1.992330   -0.523910
  H      7.524870   -3.779040    0.937200
  H      4.304110   -3.047490    3.634250
  H      3.493820   -1.249360    2.174760
  H      2.465120    1.437660   -0.441660
  H      2.132390    3.505300    0.829380
  H      5.644360    2.681280    3.102440
  H      5.984870    0.615230    1.830550
  H      6.192600   -1.329000   -6.993540
  H      4.783430   -0.533030   -8.832570
  H      5.463140    3.496450   -7.610700
  H      6.851840    2.710650   -5.760220
  H      9.019630   -0.228530   -7.250990
  H     10.360460   -2.183790   -7.888710
  H      9.001610   -4.242930   -4.411390
  H      7.671020   -2.293580   -3.767280
  H      6.196700   -4.473010    4.300550
  H      7.522830   -4.790600    3.172510
  H      4.683190   -5.895480    2.916810
  H      6.097260   -6.807630    3.455730
  H      6.004960   -6.213700    1.794120
  H      3.784650    4.290690    3.916330
  H      2.649930    4.880960    2.695140
  H      5.688260    5.232980    2.619330
  H      4.507170    6.489100    2.997620
  H      4.581240    5.793150    1.374560
  H     10.878740   -5.123640   -5.728680
  H     11.440350   -4.269110   -7.172890
  H      8.806600   -5.805030   -6.941370
  H     10.252290   -6.362470   -7.790290
  H      9.365760   -4.952750   -8.380360
  H      3.735590    2.974310   -9.272490
  H      3.434680    1.300130   -9.761290
  H      5.883360    2.956160  -10.541510
  H      4.519480    2.574540  -11.598000
  H      5.585920    1.286790  -11.027060
  H     10.052810    1.995940   -5.852770

 Total Charge           Charge          ....    0
 Multiplicity           Mult            ....    1
 Number of Electrons    NEL             ....  586
 Basis Dimension        Dim             .... 2942

ORBITAL ENERGIES
----------------

  NO   OCC          E(Eh)            E(eV)
   0   2.0000     -24.726871      -672.8524
   1   2.0000     -24.726858      -672.8520
   2   2.0000     -24.722986      -672.7466
   3   2.0000     -24.721110      -672.6956
   4   2.0000     -19.234688      -523.4025
   5   2.0000     -19.230982      -523.3016
   6   2.0000     -19.133790      -520.6569
   7   2.0000     -19.133009      -520.6356
   8   2.0000     -14.331226      -389.9725
   9   2.0000     -14.330740      -389.9593
  10   2.0000     -14.327349      -389.8670
  11   2.0000     -14.324589      -389.7919
  12   2.0000     -10.302643      -280.3492
  13   2.0000     -10.301687      -280.3232
  14   2.0000     -10.297397      -280.2064
  15   2.0000     -10.296748      -280.1888
  16   2.0000     -10.279828      -279.7283
  17   2.0000     -10.278873      -279.7023
  18   2.0000     -10.268999      -279.4337
  19   2.0000     -10.266922      -279.3771
  20   2.0000     -10.265907      -279.3495
  21   2.0000     -10.264530      -279.3121
  22   2.0000     -10.258191      -279.1396
  23   2.0000     -10.256982      -279.1067
  24   2.0000     -10.254138      -279.0293
  25   2.0000     -10.252840      -278.9939
  26   2.0000     -10.232855      -278.4501
  27   2.0000     -10.232568      -278.4423
  28   2.0000     -10.230524      -278.3867
  29   2.0000     -10.230207      -278.3781
  30   2.0000     -10.227877      -278.3147
  31   2.0000     -10.227490      -278.3042
  32   2.0000     -10.227028      -278.2916
  33   2.0000     -10.226793      -278.2852
  34   2.0000     -10.225953      -278.2623
  35   2.0000     -10.223481      -278.1951
  36   2.0000     -10.223476      -278.1949
  37   2.0000     -10.222831      -278.1774
  38   2.0000     -10.222352      -278.1643
  39   2.0000     -10.222292      -278.1627
  40   2.0000     -10.219183      -278.0781
  41   2.0000     -10.218417      -278.0573
  42   2.0000     -10.217428      -278.0303
  43   2.0000     -10.216484      -278.0047
  44   2.0000     -10.216439      -278.0034
  45   2.0000     -10.216188      -277.9966
  46   2.0000     -10.215302      -277.9725
  47   2.0000     -10.214562      -277.9524
  48   2.0000     -10.213060      -277.9115
  49   2.0000     -10.207412      -277.7578
  50   2.0000     -10.207304      -277.7549
  51   2.0000     -10.207162      -277.7510
  52   2.0000     -10.205747      -277.7125
  53   2.0000     -10.203836      -277.6605
  54   2.0000     -10.196946      -277.4730
  55   2.0000     -10.195617      -277.4368
  56   2.0000     -10.189339      -277.2660
  57   2.0000     -10.188903      -277.2541
  58   2.0000     -10.187774      -277.2234
  59   2.0000     -10.186008      -277.1754
  60   2.0000     -10.183441      -277.1055
  61   2.0000     -10.183189      -277.0987
  62   2.0000     -10.181967      -277.0654
  63   2.0000     -10.181332      -277.0481
  64   2.0000     -10.180725      -277.0316
  65   2.0000     -10.180595      -277.0281
  66   2.0000     -10.180065      -277.0137
  67   2.0000     -10.179570      -277.0002
  68   2.0000     -10.179520      -276.9988
  69   2.0000     -10.179189      -276.9898
  70   2.0000     -10.179032      -276.9855
  71   2.0000     -10.178343      -276.9668
  72   2.0000     -10.176649      -276.9207
  73   2.0000     -10.176537      -276.9177
  74   2.0000     -10.176132      -276.9066
  75   2.0000     -10.173341      -276.8307
  76   2.0000     -10.173236      -276.8278
  77   2.0000     -10.172658      -276.8121
  78   2.0000     -10.172565      -276.8096
  79   2.0000     -10.171507      -276.7808
  80   2.0000     -10.170882      -276.7638
  81   2.0000     -10.167359      -276.6679
  82   2.0000     -10.166689      -276.6497
  83   2.0000     -10.165709      -276.6230
  84   2.0000     -10.161311      -276.5033
  85   2.0000     -10.147920      -276.1390
  86   2.0000      -1.270222       -34.5645
  87   2.0000      -1.265383       -34.4328
  88   2.0000      -1.256868       -34.2011
  89   2.0000      -1.252000       -34.0687
  90   2.0000      -1.163859       -31.6702
  91   2.0000      -1.157953       -31.5095
  92   2.0000      -1.064724       -28.9726
  93   2.0000      -1.064670       -28.9711
  94   2.0000      -0.948107       -25.7993
  95   2.0000      -0.942991       -25.6601
  96   2.0000      -0.936796       -25.4915
  97   2.0000      -0.929431       -25.2911
  98   2.0000      -0.927877       -25.2488
  99   2.0000      -0.924644       -25.1608
 100   2.0000      -0.921322       -25.0705
 101   2.0000      -0.916980       -24.9523
 102   2.0000      -0.884860       -24.0783
 103   2.0000      -0.882839       -24.0233
 104   2.0000      -0.879411       -23.9300
 105   2.0000      -0.874437       -23.7946
 106   2.0000      -0.870566       -23.6893
 107   2.0000      -0.868943       -23.6451
 108   2.0000      -0.854924       -23.2637
 109   2.0000      -0.846013       -23.0212
 110   2.0000      -0.837303       -22.7842
 111   2.0000      -0.827495       -22.5173
 112   2.0000      -0.823618       -22.4118
 113   2.0000      -0.822297       -22.3758
 114   2.0000      -0.817381       -22.2421
 115   2.0000      -0.805108       -21.9081
 116   2.0000      -0.802808       -21.8455
 117   2.0000      -0.798765       -21.7355
 118   2.0000      -0.797898       -21.7119
 119   2.0000      -0.796422       -21.6717
 120   2.0000      -0.790365       -21.5069
 121   2.0000      -0.778418       -21.1818
 122   2.0000      -0.767228       -20.8773
 123   2.0000      -0.762682       -20.7536
 124   2.0000      -0.760838       -20.7034
 125   2.0000      -0.754925       -20.5426
 126   2.0000      -0.753680       -20.5087
 127   2.0000      -0.752508       -20.4768
 128   2.0000      -0.750411       -20.4197
 129   2.0000      -0.731213       -19.8973
 130   2.0000      -0.730918       -19.8893
 131   2.0000      -0.728179       -19.8148
 132   2.0000      -0.709454       -19.3052
 133   2.0000      -0.706276       -19.2188
 134   2.0000      -0.700857       -19.0713
 135   2.0000      -0.698217       -18.9995
 136   2.0000      -0.692699       -18.8493
 137   2.0000      -0.680375       -18.5139
 138   2.0000      -0.659099       -17.9350
 139   2.0000      -0.653059       -17.7706
 140   2.0000      -0.647159       -17.6101
 141   2.0000      -0.643200       -17.5024
 142   2.0000      -0.640860       -17.4387
 143   2.0000      -0.638311       -17.3693
 144   2.0000      -0.635135       -17.2829
 145   2.0000      -0.631546       -17.1852
 146   2.0000      -0.627615       -17.0783
 147   2.0000      -0.624570       -16.9954
 148   2.0000      -0.620133       -16.8747
 149   2.0000      -0.619202       -16.8494
 150   2.0000      -0.618437       -16.8285
 151   2.0000      -0.615829       -16.7576
 152   2.0000      -0.611020       -16.6267
 153   2.0000      -0.609870       -16.5954
 154   2.0000      -0.605256       -16.4698
 155   2.0000      -0.596122       -16.2213
 156   2.0000      -0.588904       -16.0249
 157   2.0000      -0.587127       -15.9766
 158   2.0000      -0.585491       -15.9320
 159   2.0000      -0.584277       -15.8990
 160   2.0000      -0.581847       -15.8329
 161   2.0000      -0.578136       -15.7319
 162   2.0000      -0.575884       -15.6706
 163   2.0000      -0.572787       -15.5863
 164   2.0000      -0.570284       -15.5182
 165   2.0000      -0.562048       -15.2941
 166   2.0000      -0.548598       -14.9281
 167   2.0000      -0.545630       -14.8474
 168   2.0000      -0.542520       -14.7627
 169   2.0000      -0.538538       -14.6544
 170   2.0000      -0.532842       -14.4994
 171   2.0000      -0.529143       -14.3987
 172   2.0000      -0.527643       -14.3579
 173   2.0000      -0.525588       -14.3020
 174   2.0000      -0.522365       -14.2143
 175   2.0000      -0.522033       -14.2053
 176   2.0000      -0.517956       -14.0943
 177   2.0000      -0.517446       -14.0804
 178   2.0000      -0.509112       -13.8536
 179   2.0000      -0.501221       -13.6389
 180   2.0000      -0.499828       -13.6010
 181   2.0000      -0.494816       -13.4646
 182   2.0000      -0.491289       -13.3686
 183   2.0000      -0.490137       -13.3373
 184   2.0000      -0.487092       -13.2544
 185   2.0000      -0.486884       -13.2488
 186   2.0000      -0.485806       -13.2195
 187   2.0000      -0.483680       -13.1616
 188   2.0000      -0.482328       -13.1248
 189   2.0000      -0.482277       -13.1234
 190   2.0000      -0.481950       -13.1145
 191   2.0000      -0.479559       -13.0495
 192   2.0000      -0.472727       -12.8636
 193   2.0000      -0.469779       -12.7833
 194   2.0000      -0.467423       -12.7192
 195   2.0000      -0.465644       -12.6708
 196   2.0000      -0.465460       -12.6658
 197   2.0000      -0.464422       -12.6376
 198   2.0000      -0.462094       -12.5742
 199   2.0000      -0.461817       -12.5667
 200   2.0000      -0.459967       -12.5163
 201   2.0000      -0.456183       -12.4134
 202   2.0000      -0.454292       -12.3619
 203   2.0000      -0.448794       -12.2123
 204   2.0000      -0.447525       -12.1778
 205   2.0000      -0.446506       -12.1501
 206   2.0000      -0.444926       -12.1070
 207   2.0000      -0.441668       -12.0184
 208   2.0000      -0.440996       -12.0001
 209   2.0000      -0.439635       -11.9631
 210   2.0000      -0.437934       -11.9168
 211   2.0000      -0.435684       -11.8556
 212   2.0000      -0.434298       -11.8178
 213   2.0000      -0.432875       -11.7791
 214   2.0000      -0.431564       -11.7434
 215   2.0000      -0.431378       -11.7384
 216   2.0000      -0.430405       -11.7119
 217   2.0000      -0.429476       -11.6866
 218   2.0000      -0.427710       -11.6386
 219   2.0000      -0.426836       -11.6148
 220   2.0000      -0.425652       -11.5826
 221   2.0000      -0.425015       -11.5653
 222   2.0000      -0.423714       -11.5298
 223   2.0000      -0.420373       -11.4389
 224   2.0000      -0.418544       -11.3892
 225   2.0000      -0.416129       -11.3234
 226   2.0000      -0.415713       -11.3121
 227   2.0000      -0.413382       -11.2487
 228   2.0000      -0.408588       -11.1182
 229   2.0000      -0.403901       -10.9907
 230   2.0000      -0.402580       -10.9548
 231   2.0000      -0.398968       -10.8565
 232   2.0000      -0.396867       -10.7993
 233   2.0000      -0.395325       -10.7573
 234   2.0000      -0.394238       -10.7278
 235   2.0000      -0.390994       -10.6395
 236   2.0000      -0.390363       -10.6223
 237   2.0000      -0.389475       -10.5981
 238   2.0000      -0.388767       -10.5789
 239   2.0000      -0.387781       -10.5521
 240   2.0000      -0.385518       -10.4905
 241   2.0000      -0.383857       -10.4453
 242   2.0000      -0.380798       -10.3620
 243   2.0000      -0.378401       -10.2968
 244   2.0000      -0.377213       -10.2645
 245   2.0000      -0.375781       -10.2255
 246   2.0000      -0.372778       -10.1438
 247   2.0000      -0.370529       -10.0826
 248   2.0000      -0.368448       -10.0260
 249   2.0000      -0.364438        -9.9169
 250   2.0000      -0.364137        -9.9087
 251   2.0000      -0.361909        -9.8480
 252   2.0000      -0.361090        -9.8258
 253   2.0000      -0.360062        -9.7978
 254   2.0000      -0.359717        -9.7884
 255   2.0000      -0.358613        -9.7584
 256   2.0000      -0.356901        -9.7118
 257   2.0000      -0.356426        -9.6989
 258   2.0000      -0.354427        -9.6444
 259   2.0000      -0.353297        -9.6137
 260   2.0000      -0.350152        -9.5281
 261   2.0000      -0.349682        -9.5153
 262   2.0000      -0.347206        -9.4479
 263   2.0000      -0.345652        -9.4057
 264   2.0000      -0.344588        -9.3767
 265   2.0000      -0.343770        -9.3544
 266   2.0000      -0.342963        -9.3325
 267   2.0000      -0.340668        -9.2700
 268   2.0000      -0.336794        -9.1646
 269   2.0000      -0.335258        -9.1228
 270   2.0000      -0.334073        -9.0906
 271   2.0000      -0.331299        -9.0151
 272   2.0000      -0.323421        -8.8007
 273   2.0000      -0.319942        -8.7061
 274   2.0000      -0.308751        -8.4015
 275   2.0000      -0.299079        -8.1384
 276   2.0000      -0.295451        -8.0396
 277   2.0000      -0.288882        -7.8609
 278   2.0000      -0.286740        -7.8026
 279   2.0000      -0.280330        -7.6282
 280   2.0000      -0.278276        -7.5723
 281   2.0000      -0.272116        -7.4047
 282   2.0000      -0.270557        -7.3622
 283   2.0000      -0.268243        -7.2993
 284   2.0000      -0.264574        -7.1994
 285   2.0000      -0.262681        -7.1479
 286   2.0000      -0.261903        -7.1267
 287   2.0000      -0.256488        -6.9794
 288   2.0000      -0.253935        -6.9099
 289   2.0000      -0.244249        -6.6464
 290   2.0000      -0.241942        -6.5836
 291   2.0000      -0.241165        -6.5624
 292   2.0000      -0.213088        -5.7984
 293   0.0000      -0.138714        -3.7746
 294   0.0000      -0.121903        -3.3171
 295   0.0000      -0.108551        -2.9538
 296   0.0000      -0.103714        -2.8222
 297   0.0000      -0.069956        -1.9036

MULLIKEN ATOMIC CHARGES
-----------------------
   0 C :   -0.215484
   1 C :    0.011887
   2 C :    0.005247
   3 C :    0.082708
   4 C :    0.094978
   5 C :    0.206284
   6 C :   -0.271166
   7 C :    0.253447
   8 C :    0.286225
   9 C :   -0.316702
  10 F :   -0.180530
  11 F :   -0.176785
  12 O :   -0.348993
  13 C :    0.167487
  14 C :   -0.232452
  15 C :   -0.233407
  16 N :    0.045747
  17 N :    0.057623
  18 C :    0.280937
  19 O :   -0.244968
  20 C :    0.219893
  21 C :   -0.132877
  22 C :   -0.346148
  23 C :   -0.324143
  24 C :   -0.023461
  25 C :    0.047141
  26 C :    0.112861
  27 C :    0.003149
  28 C :    0.199467
  29 C :   -0.268918
  30 C :    0.257434
  31 C :    0.280101
  32 C :   -0.295808
  33 F :   -0.179311
  34 F :   -0.176895
  35 O :   -0.283222
  36 C :    0.143582
  37 C :   -0.192570
  38 C :   -0.218674
  39 N :    0.008245
  40 N :    0.003174
  41 C :    0.170887
  42 C :   -0.165142
  43 C :    0.904225
  44 C :   -0.324771
  45 C :   -0.213390
  46 C :    0.268844
  47 C :   -0.333674
  48 C :    0.900468
  49 C :   -0.142460
  50 C :    0.170224
  51 C :   -0.141936
  52 C :   -0.191203
  53 C :   -0.159037
  54 C :   -0.130206
  55 C :   -0.087581
  56 C :   -0.228535
  57 C :    0.217051
  58 C :   -0.181715
  59 C :   -0.192697
  60 C :   -0.115275
  61 C :   -0.198424
  62 C :    0.218534
  63 C :   -0.194430
  64 C :   -0.214133
  65 C :   -0.206821
  66 C :   -0.196501
  67 C :    0.227885
  68 C :   -0.246599
  69 C :   -0.171581
  70 C :   -0.203439
  71 C :   -0.189595
  72 C :    0.224483
  73 C :   -0.230144
  74 C :   -0.093344
  75 C :   -0.194277
  76 C :   -0.330766
  77 C :   -0.189912
  78 C :   -0.314221
  79 C :   -0.191933
  80 C :   -0.331430
  81 C :   -0.192290
  82 C :   -0.332655
  83 C :   -0.248336
  84 C :    0.419585
  85 O :   -0.273020
  86 H :    0.153638
  87 H :    0.168543
  88 H :    0.147131
  89 H :    0.176732
  90 H :    0.152299
  91 H :    0.168974
  92 H :    0.152474
  93 H :    0.125837
  94 H :    0.126254
  95 H :    0.142690
  96 H :    0.095517
  97 H :    0.104730
  98 H :    0.131915
  99 H :    0.122100
 100 H :    0.099005
 101 H :    0.103063
 102 H :    0.137583
 103 H :    0.135802
 104 H :    0.103941
 105 H :    0.102996
 106 H :    0.236492
 107 H :    0.125341
 108 H :    0.101512
 109 H :    0.097362
 110 H :    0.144485
 111 H :    0.095386
 112 H :    0.093418
 113 H :    0.110536
 114 H :    0.106536
 115 H :    0.107681
 116 H :    0.089354
 117 H :    0.089914
 118 H :    0.093297
 119 H :    0.099590
 120 H :    0.125786
 121 H :    0.094892
 122 H :    0.094779
 123 H :    0.109519
 124 H :    0.107453
 125 H :    0.108870
 126 H :    0.096348
 127 H :    0.096614
 128 H :    0.108419
 129 H :    0.106251
 130 H :    0.106819
 131 H :    0.126305
Sum of atomic charges:   -0.0000000

LOEWDIN ATOMIC CHARGES
----------------------
   0 C :   -0.031762
   1 C :   -0.079160
   2 C :    0.009785
   3 C :   -0.044659
   4 C :   -0.059309
   5 C :   -0.251167
   6 C :   -0.048759
   7 C :   -0.223884
   8 C :   -0.225067
   9 C :   -0.046920
  10 F :    0.213033
  11 F :    0.216224
  12 O :    0.128603
  13 C :   -0.134462
  14 C :   -0.163742
  15 C :   -0.170994
  16 N :    0.083033
  17 N :    0.085720
  18 C :   -0.195792
  19 O :    0.407469
  20 C :   -0.137748
  21 C :   -0.049199
  22 C :   -0.045865
  23 C :   -0.031140
  24 C :   -0.079752
  25 C :    0.010462
  26 C :   -0.042999
  27 C :   -0.056941
  28 C :   -0.256795
  29 C :   -0.051218
  30 C :   -0.223316
  31 C :   -0.224877
  32 C :   -0.045001
  33 F :    0.214152
  34 F :    0.216313
  35 O :    0.138230
  36 C :   -0.135654
  37 C :   -0.158127
  38 C :   -0.151360
  39 N :    0.089056
  40 N :    0.087473
  41 C :   -0.058728
  42 C :   -0.008321
  43 C :   -0.093171
  44 C :   -0.041879
  45 C :   -0.006364
  46 C :   -0.058288
  47 C :   -0.045115
  48 C :   -0.092186
  49 C :   -0.044667
  50 C :   -0.139235
  51 C :   -0.091926
  52 C :   -0.085208
  53 C :   -0.086501
  54 C :   -0.092086
  55 C :   -0.105608
  56 C :   -0.108728
  57 C :   -0.141908
  58 C :   -0.104555
  59 C :   -0.088022
  60 C :   -0.097161
  61 C :   -0.103938
  62 C :   -0.136238
  63 C :   -0.104380
  64 C :   -0.103799
  65 C :   -0.104199
  66 C :   -0.109078
  67 C :   -0.141368
  68 C :   -0.102528
  69 C :   -0.093372
  70 C :   -0.093559
  71 C :   -0.106508
  72 C :   -0.141545
  73 C :   -0.106874
  74 C :   -0.103054
  75 C :   -0.238318
  76 C :   -0.291762
  77 C :   -0.238532
  78 C :   -0.294775
  79 C :   -0.238100
  80 C :   -0.291666
  81 C :   -0.237769
  82 C :   -0.292819
  83 C :   -0.044752
  84 C :   -0.214060
  85 O :    0.420686
  86 H :    0.182326
  87 H :    0.169636
  88 H :    0.163714
  89 H :    0.155966
  90 H :    0.174081
  91 H :    0.167746
  92 H :    0.165025
  93 H :    0.160385
  94 H :    0.159048
  95 H :    0.152282
  96 H :    0.145420
  97 H :    0.147142
  98 H :    0.155474
  99 H :    0.151632
 100 H :    0.145988
 101 H :    0.146422
 102 H :    0.154481
 103 H :    0.154467
 104 H :    0.146459
 105 H :    0.148086
 106 H :    0.156756
 107 H :    0.153423
 108 H :    0.146554
 109 H :    0.146008
 110 H :    0.152330
 111 H :    0.138931
 112 H :    0.138400
 113 H :    0.118929
 114 H :    0.115545
 115 H :    0.118177
 116 H :    0.138962
 117 H :    0.137168
 118 H :    0.115115
 119 H :    0.113601
 120 H :    0.121799
 121 H :    0.138853
 122 H :    0.138832
 123 H :    0.118627
 124 H :    0.115869
 125 H :    0.118509
 126 H :    0.139172
 127 H :    0.139195
 128 H :    0.118112
 129 H :    0.115393
 130 H :    0.117629
 131 H :    0.150407

  Mayer bond orders larger than 0.100000
B(  0-C ,  1-C ) :   1.4071 B(  0-C , 18-C ) :   1.3949 B(  0-C , 86-H ) :   0.8836
B(  1-C ,  2-C ) :   1.1556 B(  1-C ,  5-C ) :   1.0186 B(  2-C ,  3-C ) :   1.0338
B(  2-C , 13-C ) :   1.4680 B(  3-C ,  4-C ) :   1.3354 B(  3-C ,  6-C ) :   1.3169
B(  4-C ,  5-C ) :   1.0262 B(  4-C ,  9-C ) :   1.3016 B(  4-C , 12-O ) :  -0.1594
B(  5-C , 12-O ) :   2.0285 B(  6-C ,  7-C ) :   1.3914 B(  6-C , 87-H ) :   0.9287
B(  7-C ,  8-C ) :   1.3444 B(  7-C , 11-F ) :   1.0837 B(  8-C ,  9-C ) :   1.3570
B(  8-C , 10-F ) :   1.0624 B(  9-C , 88-H ) :   0.9859 B( 13-C , 14-C ) :   1.0230
B( 13-C , 15-C ) :   1.0307 B( 14-C , 16-N ) :   2.9911 B( 15-C , 17-N ) :   2.9946
B( 18-C , 19-O ) :   0.9967 B( 18-C , 22-C ) :   1.4259 B( 19-O , 20-C ) :   1.2547
B( 20-C , 21-C ) :   1.2471 B( 20-C , 41-C ) :   1.2116 B( 21-C , 22-C ) :   1.2648
B( 21-C , 43-C ) :   0.9767 B( 21-C , 51-C ) :   0.1625 B( 21-C , 52-C ) :   0.1195
B( 22-C , 89-H ) :   0.9754 B( 23-C , 24-C ) :   1.5180 B( 23-C , 35-O ) :   0.1111
B( 23-C , 84-C ) :   1.1383 B( 23-C , 90-H ) :   0.9606 B( 24-C , 25-C ) :   1.1769
B( 24-C , 28-C ) :   0.9959 B( 24-C , 35-O ) :  -0.1497 B( 25-C , 26-C ) :   1.0192
B( 25-C , 36-C ) :   1.4357 B( 26-C , 27-C ) :   1.3187 B( 26-C , 29-C ) :   1.3115
B( 27-C , 28-C ) :   0.9509 B( 27-C , 32-C ) :   1.3105 B( 27-C , 35-O ) :  -0.1542
B( 28-C , 35-O ) :   2.2005 B( 29-C , 30-C ) :   1.3947 B( 29-C , 91-H ) :   0.9365
B( 30-C , 31-C ) :   1.3425 B( 30-C , 34-F ) :   1.0738 B( 31-C , 32-C ) :   1.3619
B( 31-C , 33-F ) :   1.0620 B( 32-C , 92-H ) :   0.9820 B( 36-C , 37-C ) :   1.0676
B( 36-C , 38-C ) :   1.0326 B( 37-C , 39-N ) :   2.8778 B( 38-C , 40-N ) :   2.9133
B( 41-C , 42-C ) :   1.2493 B( 41-C , 44-C ) :   1.1907 B( 42-C , 43-C ) :   0.9547
B( 42-C , 47-C ) :   1.4545 B( 42-C , 51-C ) :   0.1567 B( 43-C , 51-C ) :   0.5967
B( 43-C , 52-C ) :   0.6841 B( 44-C , 45-C ) :   1.4356 B( 44-C , 93-H ) :   1.0205
B( 45-C , 46-C ) :   1.2428 B( 45-C , 48-C ) :   0.9239 B( 45-C , 54-C ) :   0.1725
B( 46-C , 47-C ) :   1.1803 B( 46-C , 50-C ) :   1.1939 B( 47-C , 94-H ) :   1.0237
B( 48-C , 49-C ) :   0.9445 B( 48-C , 53-C ) :   0.6937 B( 48-C , 54-C ) :   0.6445
B( 49-C , 50-C ) :   1.2719 B( 49-C , 53-C ) :   0.1187 B( 49-C , 54-C ) :   0.1220
B( 49-C , 83-C ) :   1.3267 B( 50-C , 85-O ) :   1.1790 B( 51-C , 60-C ) :   1.3708
B( 51-C , 64-C ) :   1.3468 B( 52-C , 55-C ) :   1.3427 B( 52-C , 59-C ) :   1.3985
B( 53-C , 70-C ) :   1.3850 B( 53-C , 74-C ) :   1.3462 B( 54-C , 65-C ) :   1.3439
B( 54-C , 69-C ) :   1.3793 B( 55-C , 56-C ) :   1.4291 B( 55-C , 95-H ) :   0.9419
B( 56-C , 57-C ) :   1.3644 B( 56-C , 96-H ) :   0.9881 B( 57-C , 58-C ) :   1.3309
B( 57-C , 75-C ) :   0.9017 B( 58-C , 59-C ) :   1.4386 B( 58-C , 97-H ) :   0.9835
B( 59-C , 98-H ) :   0.9658 B( 60-C , 61-C ) :   1.4240 B( 60-C , 99-H ) :   0.9686
B( 61-C , 62-C ) :   1.3691 B( 61-C ,100-H ) :   0.9758 B( 62-C , 63-C ) :   1.3245
B( 62-C , 77-C ) :   0.9107 B( 63-C , 64-C ) :   1.4439 B( 63-C ,101-H ) :   0.9832
B( 64-C ,102-H ) :   0.9711 B( 65-C , 66-C ) :   1.4258 B( 65-C ,103-H ) :   0.9743
B( 66-C , 67-C ) :   1.3435 B( 66-C ,104-H ) :   0.9815 B( 67-C , 68-C ) :   1.3427
B( 67-C , 81-C ) :   0.9027 B( 68-C , 69-C ) :   1.4612 B( 68-C ,105-H ) :   0.9955
B( 69-C ,106-H ) :   0.9030 B( 70-C , 71-C ) :   1.4418 B( 70-C ,107-H ) :   0.9663
B( 71-C , 72-C ) :   1.3322 B( 71-C ,108-H ) :   0.9855 B( 72-C , 73-C ) :   1.3610
B( 72-C , 79-C ) :   0.9020 B( 73-C , 74-C ) :   1.4320 B( 73-C ,109-H ) :   0.9871
B( 74-C ,110-H ) :   0.9440 B( 75-C , 76-C ) :   0.9541 B( 75-C ,111-H ) :   0.9788
B( 75-C ,112-H ) :   0.9789 B( 76-C ,113-H ) :   0.9766 B( 76-C ,114-H ) :   0.9720
B( 76-C ,115-H ) :   0.9766 B( 77-C , 78-C ) :   0.9645 B( 77-C ,116-H ) :   0.9685
B( 77-C ,117-H ) :   0.9812 B( 78-C ,118-H ) :   0.9779 B( 78-C ,119-H ) :   0.9720
B( 78-C ,120-H ) :   0.9729 B( 79-C , 80-C ) :   0.9543 B( 79-C ,121-H ) :   0.9788
B( 79-C ,122-H ) :   0.9784 B( 80-C ,123-H ) :   0.9764 B( 80-C ,124-H ) :   0.9720
B( 80-C ,125-H ) :   0.9764 B( 81-C , 82-C ) :   0.9520 B( 81-C ,126-H ) :   0.9788
B( 81-C ,127-H ) :   0.9785 B( 82-C ,128-H ) :   0.9767 B( 82-C ,129-H ) :   0.9720
B( 82-C ,130-H ) :   0.9771 B( 83-C , 84-C ) :   1.3854 B( 83-C ,131-H ) :   0.9858
B( 84-C , 85-O ) :   0.9851

-----------------------------------------------------------------------------
  SOC CORRECTED ABSORPTION SPECTRUM VIA TRANSITION ELECTRIC DIPOLE MOMENTS*
-----------------------------------------------------------------------------
State   Energy  Wavelength   fosc         T2         TX        TY        TZ
        (cm-1)    (nm)                  (au**2)     (au)      (au)      (au)
-----------------------------------------------------------------------------
   1    9851.3   1015.1   0.000000001   0.00000   0.00012   0.00010   0.00001
   2    9851.3   1015.1   0.000000001   0.00000   0.00011   0.00010   0.00001
   3    9851.3   1015.1   0.000000002   0.00000   0.00022   0.00014   0.00001
   4   13067.9    765.2   0.000000001   0.00000   0.00010   0.00005   0.00001
   5   13067.9    765.2   0.000000000   0.00000   0.00001   0.00006   0.00003
   6   13067.9    765.2   0.000000003   0.00000   0.00021   0.00018   0.00006
   7   15146.2    660.2   1.385781578  30.12075   4.29209   3.41244   0.23223
   8   17186.1    581.9   0.000000028   0.00000   0.00059   0.00043   0.00001
   9   17186.1    581.9   0.000000041   0.00000   0.00069   0.00055   0.00007
  10   17186.1    581.9   0.000000012   0.00000   0.00041   0.00025   0.00008
  11   18038.2    554.4   0.409376421   7.47145   2.48415   1.14010   0.02470
  12   19209.0    520.6   0.017727432   0.30382   0.44024   0.27998   0.17781

FINAL SINGLE POINT ENERGY     -3765.873054040904

DIPOLE MOMENT
-------------
                                X             Y             Z
Electronic contribution:    -43.43300      34.97695      40.03815
Nuclear contribution   :     46.33120     -35.26433     -39.26421
                        -----------------------------------------
Total Dipole Moment    :      2.89821      -0.28738       0.77394
                        -----------------------------------------
Magnitude (a.u.)       :      3.01350
Magnitude (Debye)      :      7.65970

Rotational constants in cm-1:     0.000850     0.000392     0.000330
Rotational constants in MHz :    25.479997    11.747965     9.891771

                             ****ORCA TERMINATED NORMALLY****
TOTAL RUN TIME: 1 days 22 hours 17 minutes 54 seconds 944 msec
