                         Program Version 4.2.0 -  RELEASE  -
|  1> # ORCA input file
|  2> # IDIC.out
|  3> ! B3LYP def2-TZVP def2/J RIJCOSX Grid4 TightSCF
|  4>
|  5> %maxcore 2000
|  6> %tddft
|  7>   maxdim 5
|  8>   nroots 3
|  9>   dosoc true
| 10>   end
| 11>
| 12>
| 13>
| 14> * xyz 0 1
| 15>    C        2.88652         1.02659        -0.08700
| 16>    C        2.83118        -0.38114        -0.23083
| 17>    C        1.61277        -1.02068        -0.21882
| 18>    C        0.46945        -0.22943        -0.12969
| 19>    C        0.52501         1.18369        -0.03973
| 20>    C        1.74388         1.81817         0.01433
| 21>    C       -0.90866        -0.59764        -0.07326
| 22>    C       -1.71299         0.53344         0.04841
| 23>    C       -0.86804         1.78008         0.02930
| 24>    C        4.26573         1.38863        -0.05776
| 25>    C        5.07584         0.26095        -0.18322
| 26>    C        4.22668        -0.97767        -0.32318
| 27>    S       -1.81135        -2.04477        -0.10141
| 28>    C       -3.31494        -1.12372         0.04327
| 29>    C       -3.06386         0.24412         0.11096
| 30>    S        5.15732         2.83704         0.06519
| 31>    C        6.66755         1.92889        -0.06935
| 32>    C        6.42600         0.56437        -0.20584
| 33>    C       -1.07359         2.63495         1.28901
| 34>    C       -1.23448         2.55801        -1.25702
| 35>    C       -0.38346         3.78448        -1.55617
| 36>    C       -0.85488         1.84330         2.57332
| 37>    C        4.51144        -1.58692        -1.71319
| 38>    C        4.43366        -1.96230         0.84451
| 39>    C        3.70239        -2.82597        -2.07238
| 40>    C        5.80714        -2.61813         0.89981
| 41>    C        7.84450         2.69675        -0.04753
| 42>    C       -4.49522        -1.88667         0.06658
| 43>    C       -5.81797        -1.53133         0.12786
| 44>    C        9.16969         2.34844        -0.09703
| 45>    C        9.77421         0.99716        -0.09216
| 46>    C       11.23315         1.21074        -0.04539
| 47>    C       11.51369         2.58655        -0.04546
| 48>    C       10.25128         3.32172        -0.10333
| 49>    C       -6.41477        -0.17656         0.15125
| 50>    C       -7.87553        -0.38114         0.13369
| 51>    C       -8.16442        -1.75501         0.12284
| 52>    C       -6.90542        -2.49851         0.13882
| 53>    C       12.23602         0.26187        -0.00458
| 54>    C       13.55147         0.70058         0.03816
| 55>    C       13.83844         2.05806         0.04168
| 56>    C       12.83195         3.01402         0.00018
| 57>    C       -8.87259         0.57466         0.12623
| 58>    C      -10.19148         0.14498         0.10614
| 59>    C      -10.48713        -1.21065         0.09319
| 60>    C       -9.48631        -2.17340         0.10152
| 61>    O        9.22436        -0.08656        -0.11004
| 62>    O       -5.85965         0.90410         0.17539
| 63>    C       -6.81175        -3.86555         0.17815
| 64>    C       10.14898         4.68602        -0.18855
| 65>    C        8.96121         5.44015        -0.30184
| 66>    C       11.25408         5.56468        -0.19620
| 67>    C       -5.62882        -4.63393         0.22841
| 68>    C       -7.92326        -4.73621         0.18701
| 69>    N        8.05874         6.14357        -0.40815
| 70>    N       12.09718         6.34392        -0.20563
| 71>    N       -8.77025        -5.51116         0.19419
| 72>    N       -4.73134        -5.34981         0.27798
| 73>    H        1.51920        -2.09430        -0.26153
| 74>    H        1.83750         2.88468         0.14608
| 75>    H       -3.85495         0.96452         0.20418
| 76>    H        7.22959        -0.13852        -0.32027
| 77>    H       -2.09011         3.03236         1.27554
| 78>    H       -0.37878         3.47488         1.26659
| 79>    H       -2.28042         2.85886        -1.16749
| 80>    H       -1.16075         1.86619        -2.10041
| 81>    H       -0.41704         4.50100        -0.74021
| 82>    H       -0.76600         4.27462        -2.44868
| 83>    H        0.65020         3.50661        -1.74275
| 84>    H       -1.56771         1.02546         2.65019
| 85>    H       -0.98463         2.49102         3.43687
| 86>    H        0.15022         1.42736         2.60328
| 87>    H        5.57537        -1.82366        -1.75892
| 88>    H        4.31806        -0.81123        -2.45937
| 89>    H        3.66633        -2.73539         0.78279
| 90>    H        4.26415        -1.41059         1.77335
| 91>    H        3.83323        -3.61422        -1.33632
| 92>    H        4.03817        -3.20541        -3.03508
| 93>    H        2.64481        -2.59221        -2.15603
| 94>    H        5.85552        -3.27662         1.76444
| 95>    H        6.59380        -1.87597         0.99731
| 96>    H        5.99790        -3.21458         0.01217
| 97>    H        7.64416         3.75932         0.02440
| 98>    H       -4.30031        -2.95133         0.01483
| 99>    H       11.98680        -0.78820        -0.00659
|100>    H       14.35774        -0.01668         0.06972
|101>    H       14.86728         2.38362         0.07722
|102>    H       13.08856         4.06028         0.00623
|103>    H       -8.61608         1.62287         0.13628
|104>    H      -10.99353         0.86762         0.10027
|105>    H      -11.51859        -1.52928         0.07606
|106>    H       -9.75026        -3.21772         0.08928
|107> *
|108>
|109>                          ****END OF INPUT****

CARTESIAN COORDINATES (ANGSTROEM)
---------------------------------
  C      2.886520    1.026590   -0.087000
  C      2.831180   -0.381140   -0.230830
  C      1.612770   -1.020680   -0.218820
  C      0.469450   -0.229430   -0.129690
  C      0.525010    1.183690   -0.039730
  C      1.743880    1.818170    0.014330
  C     -0.908660   -0.597640   -0.073260
  C     -1.712990    0.533440    0.048410
  C     -0.868040    1.780080    0.029300
  C      4.265730    1.388630   -0.057760
  C      5.075840    0.260950   -0.183220
  C      4.226680   -0.977670   -0.323180
  S     -1.811350   -2.044770   -0.101410
  C     -3.314940   -1.123720    0.043270
  C     -3.063860    0.244120    0.110960
  S      5.157320    2.837040    0.065190
  C      6.667550    1.928890   -0.069350
  C      6.426000    0.564370   -0.205840
  C     -1.073590    2.634950    1.289010
  C     -1.234480    2.558010   -1.257020
  C     -0.383460    3.784480   -1.556170
  C     -0.854880    1.843300    2.573320
  C      4.511440   -1.586920   -1.713190
  C      4.433660   -1.962300    0.844510
  C      3.702390   -2.825970   -2.072380
  C      5.807140   -2.618130    0.899810
  C      7.844500    2.696750   -0.047530
  C     -4.495220   -1.886670    0.066580
  C     -5.817970   -1.531330    0.127860
  C      9.169690    2.348440   -0.097030
  C      9.774210    0.997160   -0.092160
  C     11.233150    1.210740   -0.045390
  C     11.513690    2.586550   -0.045460
  C     10.251280    3.321720   -0.103330
  C     -6.414770   -0.176560    0.151250
  C     -7.875530   -0.381140    0.133690
  C     -8.164420   -1.755010    0.122840
  C     -6.905420   -2.498510    0.138820
  C     12.236020    0.261870   -0.004580
  C     13.551470    0.700580    0.038160
  C     13.838440    2.058060    0.041680
  C     12.831950    3.014020    0.000180
  C     -8.872590    0.574660    0.126230
  C    -10.191480    0.144980    0.106140
  C    -10.487130   -1.210650    0.093190
  C     -9.486310   -2.173400    0.101520
  O      9.224360   -0.086560   -0.110040
  O     -5.859650    0.904100    0.175390
  C     -6.811750   -3.865550    0.178150
  C     10.148980    4.686020   -0.188550
  C      8.961210    5.440150   -0.301840
  C     11.254080    5.564680   -0.196200
  C     -5.628820   -4.633930    0.228410
  C     -7.923260   -4.736210    0.187010
  N      8.058740    6.143570   -0.408150
  N     12.097180    6.343920   -0.205630
  N     -8.770250   -5.511160    0.194190
  N     -4.731340   -5.349810    0.277980
  H      1.519200   -2.094300   -0.261530
  H      1.837500    2.884680    0.146080
  H     -3.854950    0.964520    0.204180
  H      7.229590   -0.138520   -0.320270
  H     -2.090110    3.032360    1.275540
  H     -0.378780    3.474880    1.266590
  H     -2.280420    2.858860   -1.167490
  H     -1.160750    1.866190   -2.100410
  H     -0.417040    4.501000   -0.740210
  H     -0.766000    4.274620   -2.448680
  H      0.650200    3.506610   -1.742750
  H     -1.567710    1.025460    2.650190
  H     -0.984630    2.491020    3.436870
  H      0.150220    1.427360    2.603280
  H      5.575370   -1.823660   -1.758920
  H      4.318060   -0.811230   -2.459370
  H      3.666330   -2.735390    0.782790
  H      4.264150   -1.410590    1.773350
  H      3.833230   -3.614220   -1.336320
  H      4.038170   -3.205410   -3.035080
  H      2.644810   -2.592210   -2.156030
  H      5.855520   -3.276620    1.764440
  H      6.593800   -1.875970    0.997310
  H      5.997900   -3.214580    0.012170
  H      7.644160    3.759320    0.024400
  H     -4.300310   -2.951330    0.014830
  H     11.986800   -0.788200   -0.006590
  H     14.357740   -0.016680    0.069720
  H     14.867280    2.383620    0.077220
  H     13.088560    4.060280    0.006230
  H     -8.616080    1.622870    0.136280
  H    -10.993530    0.867620    0.100270
  H    -11.518590   -1.529280    0.076060
  H     -9.750260   -3.217720    0.089280

 Total Charge           Charge          ....    0
 Multiplicity           Mult            ....    1
 Number of Electrons    NEL             ....  410
 Basis Dimension        Dim             .... 2014

ORBITAL ENERGIES
----------------

  NO   OCC          E(Eh)            E(eV)
   0   2.0000     -88.911703     -2419.4104
   1   2.0000     -88.911665     -2419.4094
   2   2.0000     -19.130786      -520.5752
   3   2.0000     -19.130533      -520.5683
   4   2.0000     -14.327062      -389.8592
   5   2.0000     -14.326972      -389.8567
   6   2.0000     -14.322538      -389.7361
   7   2.0000     -14.322456      -389.7338
   8   2.0000     -10.275911      -279.6217
   9   2.0000     -10.275638      -279.6143
  10   2.0000     -10.252025      -278.9718
  11   2.0000     -10.252008      -278.9713
  12   2.0000     -10.249657      -278.9074
  13   2.0000     -10.249590      -278.9055
  14   2.0000     -10.235820      -278.5308
  15   2.0000     -10.235398      -278.5193
  16   2.0000     -10.233464      -278.4667
  17   2.0000     -10.232891      -278.4511
  18   2.0000     -10.228487      -278.3313
  19   2.0000     -10.228316      -278.3266
  20   2.0000     -10.226027      -278.2643
  21   2.0000     -10.225950      -278.2622
  22   2.0000     -10.221659      -278.1455
  23   2.0000     -10.221599      -278.1439
  24   2.0000     -10.216990      -278.0184
  25   2.0000     -10.216890      -278.0157
  26   2.0000     -10.216218      -277.9974
  27   2.0000     -10.216142      -277.9954
  28   2.0000     -10.215531      -277.9787
  29   2.0000     -10.214056      -277.9386
  30   2.0000     -10.212138      -277.8864
  31   2.0000     -10.212003      -277.8827
  32   2.0000     -10.209467      -277.8137
  33   2.0000     -10.209105      -277.8039
  34   2.0000     -10.204883      -277.6890
  35   2.0000     -10.204773      -277.6860
  36   2.0000     -10.204187      -277.6700
  37   2.0000     -10.204060      -277.6666
  38   2.0000     -10.203739      -277.6578
  39   2.0000     -10.203577      -277.6534
  40   2.0000     -10.203342      -277.6470
  41   2.0000     -10.203215      -277.6436
  42   2.0000     -10.203086      -277.6401
  43   2.0000     -10.202874      -277.6343
  44   2.0000     -10.202706      -277.6297
  45   2.0000     -10.202588      -277.6265
  46   2.0000     -10.202508      -277.6243
  47   2.0000     -10.201288      -277.5911
  48   2.0000     -10.200784      -277.5774
  49   2.0000     -10.200134      -277.5598
  50   2.0000     -10.188470      -277.2424
  51   2.0000     -10.188168      -277.2341
  52   2.0000     -10.187879      -277.2263
  53   2.0000     -10.187193      -277.2076
  54   2.0000     -10.172772      -276.8152
  55   2.0000     -10.171222      -276.7730
  56   2.0000     -10.169044      -276.7138
  57   2.0000     -10.167742      -276.6783
  58   2.0000      -7.987987      -217.3642
  59   2.0000      -7.987882      -217.3613
  60   2.0000      -5.950245      -161.9144
  61   2.0000      -5.950151      -161.9119
  62   2.0000      -5.946685      -161.8175
  63   2.0000      -5.946566      -161.8143
  64   2.0000      -5.944874      -161.7682
  65   2.0000      -5.944787      -161.7659
  66   2.0000      -1.061024       -28.8719
  67   2.0000      -1.060863       -28.8675
  68   2.0000      -0.943889       -25.6845
  69   2.0000      -0.940942       -25.6043
  70   2.0000      -0.940633       -25.5959
  71   2.0000      -0.933156       -25.3925
  72   2.0000      -0.920923       -25.0596
  73   2.0000      -0.920876       -25.0583
  74   2.0000      -0.916216       -24.9315
  75   2.0000      -0.915971       -24.9248
  76   2.0000      -0.895838       -24.3770
  77   2.0000      -0.877320       -23.8731
  78   2.0000      -0.868422       -23.6310
  79   2.0000      -0.865599       -23.5541
  80   2.0000      -0.842316       -22.9206
  81   2.0000      -0.829899       -22.5827
  82   2.0000      -0.825122       -22.4527
  83   2.0000      -0.819628       -22.3032
  84   2.0000      -0.810259       -22.0483
  85   2.0000      -0.795689       -21.6518
  86   2.0000      -0.783018       -21.3070
  87   2.0000      -0.782738       -21.2994
  88   2.0000      -0.778823       -21.1929
  89   2.0000      -0.773809       -21.0564
  90   2.0000      -0.771846       -21.0030
  91   2.0000      -0.769621       -20.9424
  92   2.0000      -0.767033       -20.8720
  93   2.0000      -0.762443       -20.7471
  94   2.0000      -0.735196       -20.0057
  95   2.0000      -0.723972       -19.7003
  96   2.0000      -0.703854       -19.1528
  97   2.0000      -0.696832       -18.9618
  98   2.0000      -0.693188       -18.8626
  99   2.0000      -0.692209       -18.8360
 100   2.0000      -0.680335       -18.5128
 101   2.0000      -0.657404       -17.8889
 102   2.0000      -0.646299       -17.5867
 103   2.0000      -0.637095       -17.3362
 104   2.0000      -0.634941       -17.2776
 105   2.0000      -0.631127       -17.1738
 106   2.0000      -0.621619       -16.9151
 107   2.0000      -0.620861       -16.8945
 108   2.0000      -0.616192       -16.7674
 109   2.0000      -0.609104       -16.5745
 110   2.0000      -0.604430       -16.4474
 111   2.0000      -0.594960       -16.1897
 112   2.0000      -0.583432       -15.8760
 113   2.0000      -0.578662       -15.7462
 114   2.0000      -0.576610       -15.6903
 115   2.0000      -0.566635       -15.4189
 116   2.0000      -0.557093       -15.1593
 117   2.0000      -0.544743       -14.8232
 118   2.0000      -0.541709       -14.7406
 119   2.0000      -0.541354       -14.7310
 120   2.0000      -0.539569       -14.6824
 121   2.0000      -0.530438       -14.4340
 122   2.0000      -0.510202       -13.8833
 123   2.0000      -0.507332       -13.8052
 124   2.0000      -0.506239       -13.7755
 125   2.0000      -0.497190       -13.5292
 126   2.0000      -0.493947       -13.4410
 127   2.0000      -0.486634       -13.2420
 128   2.0000      -0.484335       -13.1794
 129   2.0000      -0.482216       -13.1218
 130   2.0000      -0.478947       -13.0328
 131   2.0000      -0.473736       -12.8910
 132   2.0000      -0.472518       -12.8579
 133   2.0000      -0.469007       -12.7623
 134   2.0000      -0.465849       -12.6764
 135   2.0000      -0.464517       -12.6402
 136   2.0000      -0.462754       -12.5922
 137   2.0000      -0.461448       -12.5566
 138   2.0000      -0.461294       -12.5524
 139   2.0000      -0.458554       -12.4779
 140   2.0000      -0.457271       -12.4430
 141   2.0000      -0.451960       -12.2984
 142   2.0000      -0.450140       -12.2489
 143   2.0000      -0.447258       -12.1705
 144   2.0000      -0.438285       -11.9263
 145   2.0000      -0.434080       -11.8119
 146   2.0000      -0.431424       -11.7396
 147   2.0000      -0.430101       -11.7036
 148   2.0000      -0.427013       -11.6196
 149   2.0000      -0.425266       -11.5721
 150   2.0000      -0.423330       -11.5194
 151   2.0000      -0.423177       -11.5152
 152   2.0000      -0.420619       -11.4456
 153   2.0000      -0.415927       -11.3179
 154   2.0000      -0.410919       -11.1817
 155   2.0000      -0.404979       -11.0200
 156   2.0000      -0.402072       -10.9409
 157   2.0000      -0.399381       -10.8677
 158   2.0000      -0.393169       -10.6987
 159   2.0000      -0.392369       -10.6769
 160   2.0000      -0.391279       -10.6472
 161   2.0000      -0.390946       -10.6382
 162   2.0000      -0.390563       -10.6278
 163   2.0000      -0.387695       -10.5497
 164   2.0000      -0.386290       -10.5115
 165   2.0000      -0.384541       -10.4639
 166   2.0000      -0.383085       -10.4243
 167   2.0000      -0.382931       -10.4201
 168   2.0000      -0.382144       -10.3987
 169   2.0000      -0.381303       -10.3758
 170   2.0000      -0.380161       -10.3447
 171   2.0000      -0.377062       -10.2604
 172   2.0000      -0.375597       -10.2205
 173   2.0000      -0.374905       -10.2017
 174   2.0000      -0.374314       -10.1856
 175   2.0000      -0.367334        -9.9957
 176   2.0000      -0.364881        -9.9289
 177   2.0000      -0.360540        -9.8108
 178   2.0000      -0.359262        -9.7760
 179   2.0000      -0.358876        -9.7655
 180   2.0000      -0.355225        -9.6662
 181   2.0000      -0.355052        -9.6615
 182   2.0000      -0.353120        -9.6089
 183   2.0000      -0.352023        -9.5790
 184   2.0000      -0.347354        -9.4520
 185   2.0000      -0.344738        -9.3808
 186   2.0000      -0.341050        -9.2804
 187   2.0000      -0.339983        -9.2514
 188   2.0000      -0.339034        -9.2256
 189   2.0000      -0.337575        -9.1859
 190   2.0000      -0.334624        -9.1056
 191   2.0000      -0.331671        -9.0252
 192   2.0000      -0.315025        -8.5723
 193   2.0000      -0.292247        -7.9524
 194   2.0000      -0.287863        -7.8331
 195   2.0000      -0.287064        -7.8114
 196   2.0000      -0.283223        -7.7069
 197   2.0000      -0.280380        -7.6295
 198   2.0000      -0.276834        -7.5330
 199   2.0000      -0.274483        -7.4691
 200   2.0000      -0.274342        -7.4652
 201   2.0000      -0.268064        -7.2944
 202   2.0000      -0.262968        -7.1557
 203   2.0000      -0.243177        -6.6172
 204   2.0000      -0.215814        -5.8726
 205   0.0000      -0.134835        -3.6690
 206   0.0000      -0.118401        -3.2219
 207   0.0000      -0.105887        -2.8813
 208   0.0000      -0.101706        -2.7676
 209   0.0000      -0.065812        -1.7908

MULLIKEN ATOMIC CHARGES
-----------------------
   0 C :    0.317764
   1 C :   -0.048294
   2 C :   -0.357787
   3 C :    0.319530
   4 C :   -0.168031
   5 C :   -0.412943
   6 C :   -0.104917
   7 C :   -0.015856
   8 C :    0.471101
   9 C :   -0.116772
  10 C :    0.007962
  11 C :    0.377775
  12 S :    0.030691
  13 C :    0.153108
  14 C :   -0.367322
  15 S :    0.033242
  16 C :    0.134802
  17 C :   -0.330810
  18 C :   -0.223245
  19 C :   -0.169221
  20 C :   -0.370637
  21 C :   -0.360057
  22 C :   -0.225297
  23 C :   -0.216300
  24 C :   -0.368376
  25 C :   -0.374162
  26 C :   -0.204570
  27 C :   -0.193689
  28 C :   -0.054536
  29 C :   -0.050168
  30 C :    0.206574
  31 C :    0.105235
  32 C :    0.057765
  33 C :    0.031381
  34 C :    0.211002
  35 C :    0.103994
  36 C :    0.059343
  37 C :    0.031679
  38 C :   -0.224447
  39 C :   -0.060508
  40 C :   -0.111483
  41 C :   -0.175194
  42 C :   -0.226835
  43 C :   -0.059792
  44 C :   -0.110811
  45 C :   -0.178905
  46 O :   -0.355566
  47 O :   -0.353494
  48 C :    0.161416
  49 C :    0.155044
  50 C :   -0.240199
  51 C :   -0.232585
  52 C :   -0.239846
  53 C :   -0.236684
  54 N :    0.049234
  55 N :    0.039995
  56 N :    0.040456
  57 N :    0.049543
  58 H :    0.146889
  59 H :    0.142137
  60 H :    0.194501
  61 H :    0.222371
  62 H :    0.102671
  63 H :    0.096134
  64 H :    0.105677
  65 H :    0.100867
  66 H :    0.112738
  67 H :    0.120285
  68 H :    0.121308
  69 H :    0.125894
  70 H :    0.115242
  71 H :    0.119549
  72 H :    0.118657
  73 H :    0.103227
  74 H :    0.103816
  75 H :    0.103504
  76 H :    0.113102
  77 H :    0.120780
  78 H :    0.118849
  79 H :    0.117674
  80 H :    0.132844
  81 H :    0.111628
  82 H :    0.165965
  83 H :    0.169706
  84 H :    0.130707
  85 H :    0.122564
  86 H :    0.126523
  87 H :    0.162942
  88 H :    0.130226
  89 H :    0.122579
  90 H :    0.126405
  91 H :    0.162741
Sum of atomic charges:   -0.0000000

LOEWDIN ATOMIC CHARGES
----------------------
   0 C :   -0.084502
   1 C :   -0.022192
   2 C :   -0.063630
   3 C :   -0.084101
   4 C :   -0.026204
   5 C :   -0.064358
   6 C :   -0.285471
   7 C :   -0.092232
   8 C :   -0.180279
   9 C :   -0.284669
  10 C :   -0.085610
  11 C :   -0.176899
  12 S :    0.793784
  13 C :   -0.318509
  14 C :   -0.080735
  15 S :    0.794549
  16 C :   -0.319789
  17 C :   -0.086060
  18 C :   -0.218274
  19 C :   -0.215245
  20 C :   -0.296480
  21 C :   -0.289107
  22 C :   -0.218208
  23 C :   -0.220069
  24 C :   -0.294985
  25 C :   -0.290952
  26 C :   -0.068124
  27 C :   -0.068347
  28 C :   -0.077680
  29 C :   -0.078025
  30 C :   -0.247665
  31 C :   -0.059044
  32 C :   -0.043090
  33 C :    0.011989
  34 C :   -0.247830
  35 C :   -0.059148
  36 C :   -0.043104
  37 C :    0.012236
  38 C :   -0.070433
  39 C :   -0.111924
  40 C :   -0.108927
  41 C :   -0.072138
  42 C :   -0.070404
  43 C :   -0.111871
  44 C :   -0.108950
  45 C :   -0.072184
  46 O :    0.120778
  47 O :    0.121723
  48 C :   -0.134490
  49 C :   -0.134626
  50 C :   -0.173193
  51 C :   -0.163506
  52 C :   -0.173297
  53 C :   -0.163611
  54 N :    0.081375
  55 N :    0.080473
  56 N :    0.080546
  57 N :    0.081523
  58 H :    0.150851
  59 H :    0.151928
  60 H :    0.159285
  61 H :    0.156736
  62 H :    0.142740
  63 H :    0.137351
  64 H :    0.143587
  65 H :    0.145497
  66 H :    0.117235
  67 H :    0.122509
  68 H :    0.119760
  69 H :    0.123316
  70 H :    0.119145
  71 H :    0.122305
  72 H :    0.142958
  73 H :    0.146337
  74 H :    0.137859
  75 H :    0.145976
  76 H :    0.118269
  77 H :    0.122880
  78 H :    0.118887
  79 H :    0.121941
  80 H :    0.123950
  81 H :    0.118460
  82 H :    0.173953
  83 H :    0.174044
  84 H :    0.154142
  85 H :    0.147241
  86 H :    0.149470
  87 H :    0.160889
  88 H :    0.154116
  89 H :    0.147221
  90 H :    0.149451
  91 H :    0.160908

  Mayer bond orders larger than 0.100000
B(  0-C ,  1-C ) :   1.2157 B(  0-C ,  5-C ) :   1.2736 B(  0-C ,  9-C ) :   1.0567
B(  1-C ,  2-C ) :   1.4143 B(  1-C , 11-C ) :   1.0963 B(  1-C , 22-C ) :   0.1057
B(  2-C ,  3-C ) :   1.3265 B(  2-C , 58-H ) :   0.9624 B(  3-C ,  4-C ) :   1.1992
B(  3-C ,  6-C ) :   1.0326 B(  4-C ,  5-C ) :   1.4094 B(  4-C ,  8-C ) :   1.1026
B(  5-C , 59-H ) :   0.9860 B(  6-C ,  7-C ) :   1.3023 B(  6-C , 12-S ) :   1.4343
B(  7-C ,  8-C ) :   1.0026 B(  7-C , 14-C ) :   1.2795 B(  8-C , 18-C ) :   0.7720
B(  8-C , 19-C ) :   0.8102 B(  9-C , 10-C ) :   1.3062 B(  9-C , 15-S ) :   1.4293
B( 10-C , 11-C ) :   1.0744 B( 10-C , 17-C ) :   1.3047 B( 10-C , 23-C ) :   0.1139
B( 11-C , 22-C ) :   0.8080 B( 11-C , 23-C ) :   0.8016 B( 12-S , 13-C ) :   1.1853
B( 12-S , 14-C ) :   0.1647 B( 13-C , 14-C ) :   1.4605 B( 13-C , 27-C ) :   1.3244
B( 14-C , 60-H ) :   0.9164 B( 15-S , 16-C ) :   1.1861 B( 15-S , 17-C ) :   0.1583
B( 16-C , 17-C ) :   1.4888 B( 16-C , 26-C ) :   1.3202 B( 17-C , 61-H ) :   0.8763
B( 18-C , 21-C ) :   0.9765 B( 18-C , 62-H ) :   0.9589 B( 18-C , 63-H ) :   0.9636
B( 19-C , 20-C ) :   0.9494 B( 19-C , 64-H ) :   0.9635 B( 19-C , 65-H ) :   0.9664
B( 20-C , 66-H ) :   0.9757 B( 20-C , 67-H ) :   0.9769 B( 20-C , 68-H ) :   0.9763
B( 21-C , 69-H ) :   0.9733 B( 21-C , 70-H ) :   0.9790 B( 21-C , 71-H ) :   0.9735
B( 22-C , 24-C ) :   0.9491 B( 22-C , 72-H ) :   0.9733 B( 22-C , 73-H ) :   0.9649
B( 23-C , 25-C ) :   0.9564 B( 23-C , 74-H ) :   0.9663 B( 23-C , 75-H ) :   0.9670
B( 24-C , 76-H ) :   0.9743 B( 24-C , 77-H ) :   0.9782 B( 24-C , 78-H ) :   0.9776
B( 25-C , 79-H ) :   0.9785 B( 25-C , 80-H ) :   0.9765 B( 25-C , 81-H ) :   0.9719
B( 26-C , 29-C ) :   1.4383 B( 26-C , 82-H ) :   0.8751 B( 27-C , 28-C ) :   1.4370
B( 27-C , 83-H ) :   0.8695 B( 28-C , 34-C ) :   1.0042 B( 28-C , 37-C ) :   1.1398
B( 29-C , 30-C ) :   1.0067 B( 29-C , 33-C ) :   1.1354 B( 30-C , 31-C ) :   1.0468
B( 30-C , 46-O ) :   2.0207 B( 31-C , 32-C ) :   1.3392 B( 31-C , 38-C ) :   1.3763
B( 31-C , 46-O ) :  -0.1574 B( 32-C , 33-C ) :   1.0580 B( 32-C , 41-C ) :   1.4013
B( 33-C , 49-C ) :   1.4596 B( 34-C , 35-C ) :   1.0477 B( 34-C , 47-O ) :   2.0260
B( 35-C , 36-C ) :   1.3402 B( 35-C , 42-C ) :   1.3752 B( 35-C , 47-O ) :  -0.1569
B( 36-C , 37-C ) :   1.0568 B( 36-C , 45-C ) :   1.4005 B( 37-C , 48-C ) :   1.4626
B( 38-C , 39-C ) :   1.3815 B( 38-C , 84-H ) :   0.9803 B( 39-C , 40-C ) :   1.3861
B( 39-C , 85-H ) :   0.9719 B( 40-C , 41-C ) :   1.4238 B( 40-C , 86-H ) :   0.9667
B( 41-C , 87-H ) :   0.9200 B( 42-C , 43-C ) :   1.3805 B( 42-C , 88-H ) :   0.9821
B( 43-C , 44-C ) :   1.3858 B( 43-C , 89-H ) :   0.9717 B( 44-C , 45-C ) :   1.4241
B( 44-C , 90-H ) :   0.9667 B( 45-C , 91-H ) :   0.9212 B( 48-C , 52-C ) :   1.0374
B( 48-C , 53-C ) :   1.0192 B( 49-C , 50-C ) :   1.0381 B( 49-C , 51-C ) :   1.0237
B( 50-C , 54-N ) :   2.9896 B( 51-C , 55-N ) :   2.9941 B( 52-C , 57-N ) :   2.9864
B( 53-C , 56-N ) :   2.9953

-----------------------------------------------------------------------------
  SOC CORRECTED ABSORPTION SPECTRUM VIA TRANSITION ELECTRIC DIPOLE MOMENTS*
-----------------------------------------------------------------------------
State   Energy  Wavelength   fosc         T2         TX        TY        TZ
        (cm-1)    (nm)                  (au**2)     (au)      (au)      (au)
-----------------------------------------------------------------------------
   1   11291.0    885.7   0.000000002   0.00000   0.00022   0.00005   0.00000
   2   11291.0    885.7   0.000000000   0.00000   0.00001   0.00000   0.00000
   3   11291.0    885.7   0.000000000   0.00000   0.00001   0.00001   0.00000
   4   14218.5    703.3   0.000000006   0.00000   0.00036   0.00010   0.00001
   5   14218.5    703.3   0.000000000   0.00000   0.00006   0.00002   0.00000
   6   14218.5    703.3   0.000000000   0.00000   0.00002   0.00001   0.00000
   7   17057.0    586.3   3.228346220  62.30917   7.50726   2.43601   0.12701
   8   18066.5    553.5   0.000000000   0.00000   0.00003   0.00002   0.00000
   9   18066.5    553.5   0.000000000   0.00000   0.00003   0.00001   0.00000
  10   18066.5    553.5   0.000000054   0.00000   0.00094   0.00032   0.00002
  11   19576.8    510.8   0.000027833   0.00047   0.00485   0.01172   0.01752
  12   21450.4    466.2   0.241916600   3.71283   1.92582   0.06166   0.01560

FINAL SINGLE POINT ENERGY     -3090.861626010153

DIPOLE MOMENT
-------------
                                X             Y             Z
Electronic contribution:     -3.24714       3.00030       0.89367
Nuclear contribution   :      3.29363      -3.01574      -0.93156
                        -----------------------------------------
Total Dipole Moment    :      0.04649      -0.01544      -0.03789
                        -----------------------------------------
Magnitude (a.u.)       :      0.06193
Magnitude (Debye)      :      0.15741

Rotational constants in cm-1:     0.004325     0.000407     0.000378
Rotational constants in MHz :   129.662213    12.212809    11.329853

                             ****ORCA TERMINATED NORMALLY****
TOTAL RUN TIME: 0 days 15 hours 10 minutes 14 seconds 447 msec
