                         Program Version 4.2.0 -  RELEASE  -
|  1> # ORCA input file
|  2> # IDST-4F.out
|  3> ! B3LYP def2-TZVP def2/J RIJCOSX Grid4 TightSCF
|  4>
|  5> %maxcore 2000
|  6> %tddft
|  7>   maxdim 5
|  8>   nroots 3
|  9>   dosoc true
| 10>   end
| 11>
| 12>
| 13>
| 14> * xyz 0 1
| 15>    C       -1.53426        -1.06870         0.24803
| 16>    C       -2.17270        -0.04059        -0.43094
| 17>    C       -1.78757         1.20961         0.03395
| 18>    C       -2.13897         2.64044        -0.27657
| 19>    C       -1.22453         3.37610         0.68495
| 20>    C       -0.50983         2.46455         1.50247
| 21>    C       -0.87260         1.15236         1.07521
| 22>    S       -0.44544        -0.45764         1.48334
| 23>    C        0.37443         2.88383         2.49455
| 24>    C        0.56779         4.23767         2.64425
| 25>    C        1.44180         4.97604         3.64140
| 26>    C        1.10379         6.40704         3.31586
| 27>    C        0.21156         6.45881         2.25055
| 28>    C       -0.13571         5.14712         1.81606
| 29>    C       -1.02365         4.72831         0.82623
| 30>    S       -0.22589         8.05657         1.82904
| 31>    C        0.80539         8.68615         3.10857
| 32>    C        1.46653         7.66015         3.77801
| 33>    C       -1.85320         3.00109        -1.74203
| 34>    C       -0.42173         2.67667        -2.15385
| 35>    C       -3.63295         2.82792         0.08043
| 36>    C       -4.16566         4.25144        -0.00729
| 37>    C        1.06627         4.62824         5.09161
| 38>    C       -0.38911         4.95025         5.41343
| 39>    C        2.95251         4.78120         3.37399
| 40>    C        3.46721         3.35131         3.46601
| 41>    C        0.97279        10.06493         3.33845
| 42>    C        0.16428        11.10189         2.96802
| 43>    C       -1.21913        11.14258         2.55435
| 44>    C       -1.42853        12.42062         1.87442
| 45>    C       -0.29591        13.22881         2.07873
| 46>    C        0.72108        12.47038         2.84715
| 47>    C       -2.50800        12.90205         1.15280
| 48>    C       -2.42698        14.19156         0.64823
| 49>    C       -1.30505        14.99250         0.86388
| 50>    C       -0.22195        14.51649         1.58599
| 51>    O        1.79219        12.86431         3.24600
| 52>    C       -2.21452        10.29849         2.97481
| 53>    C       -3.56793        10.43475         2.60876
| 54>    C       -1.99762         9.25281         3.89632
| 55>    F       -3.45030        14.67421        -0.06576
| 56>    F       -1.27353        16.23404         0.36413
| 57>    N       -4.67749        10.49118         2.32068
| 58>    N       -1.86471         8.42820         4.68399
| 59>    C       -0.82129        -6.25553         0.33974
| 60>    C        0.38343        -6.69805         0.80403
| 61>    C        1.67713        -6.05997         0.89252
| 62>    C        2.46114        -6.81084         1.87240
| 63>    C        1.77615        -8.00036         2.17933
| 64>    C        0.48064        -8.02587         1.45886
| 65>    C        3.69018        -6.54362         2.45176
| 66>    C        4.20929        -7.48167         3.33189
| 67>    C        3.53080        -8.66577         3.62294
| 68>    C        2.30043        -8.93880         3.04614
| 69>    O       -0.34266        -8.91089         1.44571
| 70>    C        2.18191        -5.13298         0.01854
| 71>    C        3.48390        -4.60125         0.10081
| 72>    C        1.47655        -4.69260        -1.12137
| 73>    F        5.38785        -7.24028         3.91651
| 74>    F        4.07358        -9.54654         4.47231
| 75>    N        4.52731        -4.12483         0.14057
| 76>    N        0.95394        -4.36329        -2.08869
| 77>    C       -1.64503        -2.46448         0.05170
| 78>    S       -0.47979        -3.52626         0.77842
| 79>    C       -1.24724        -4.93439         0.09371
| 80>    C       -2.36854        -4.56687        -0.62935
| 81>    C       -2.59285        -3.19093        -0.67688
| 82>    S       -3.93277        -2.42393        -1.50507
| 83>    C       -5.04163        -3.83431        -1.86795
| 84>    C       -6.37944        -3.29461        -2.35006
| 85>    C       -7.34201        -4.43255        -2.66669
| 86>    H       -2.85351        -0.21181        -1.24243
| 87>    H        0.86805         2.15504         3.11761
| 88>    H       -1.52150         5.45690         0.20594
| 89>    H        2.14130         7.85495         4.59200
| 90>    H       -2.03189         4.06696        -1.88631
| 91>    H       -2.54878         2.45012        -2.37797
| 92>    H        0.28901         3.21308        -1.52865
| 93>    H       -0.25666         2.96651        -3.18862
| 94>    H       -0.22396         1.61125        -2.06202
| 95>    H       -3.78294         2.46018         1.09879
| 96>    H       -4.20897         2.18637        -0.59021
| 97>    H       -3.68546         4.89407         0.72518
| 98>    H       -5.23305         4.24610         0.20140
| 99>    H       -4.02019         4.67092        -0.99891
|100>    H        1.72042         5.18792         5.76316
|101>    H        1.24140         3.56450         5.25663
|102>    H       -0.59565         6.01066         5.29066
|103>    H       -0.60936         4.67765         6.44259
|104>    H       -1.05881         4.39382         4.76099
|105>    H        3.49191         5.40212         4.09272
|106>    H        3.17037         5.16755         2.37479
|107>    H        3.24088         2.90844         4.43177
|108>    H        4.54777         3.35238         3.34216
|109>    H        3.04120         2.73219         2.68191
|110>    H        1.90955        10.35376         3.80599
|111>    H       -3.39271        12.31697         0.96062
|112>    H        0.64489        15.13565         1.75320
|113>    H       -1.58135        -7.02239         0.22386
|114>    H        4.24629        -5.64117         2.25606
|115>    H        1.77689        -9.85431         3.27082
|116>    H       -2.97119        -5.29917        -1.13404
|117>    H       -5.16341        -4.40682        -0.94817
|118>    H       -4.57258        -4.44852        -2.63725
|119>    H       -6.22129        -2.68450        -3.24155
|120>    H       -6.80658        -2.65213        -1.57739
|121>    H       -6.93816        -5.06969        -3.45006
|122>    H       -8.29470        -4.03462        -3.00498
|123>    H       -7.51871        -5.04241        -1.78360
|124> *
|125>
|126>                          ****END OF INPUT****

CARTESIAN COORDINATES (ANGSTROEM)
---------------------------------
  C     -1.534260   -1.068700    0.248030
  C     -2.172700   -0.040590   -0.430940
  C     -1.787570    1.209610    0.033950
  C     -2.138970    2.640440   -0.276570
  C     -1.224530    3.376100    0.684950
  C     -0.509830    2.464550    1.502470
  C     -0.872600    1.152360    1.075210
  S     -0.445440   -0.457640    1.483340
  C      0.374430    2.883830    2.494550
  C      0.567790    4.237670    2.644250
  C      1.441800    4.976040    3.641400
  C      1.103790    6.407040    3.315860
  C      0.211560    6.458810    2.250550
  C     -0.135710    5.147120    1.816060
  C     -1.023650    4.728310    0.826230
  S     -0.225890    8.056570    1.829040
  C      0.805390    8.686150    3.108570
  C      1.466530    7.660150    3.778010
  C     -1.853200    3.001090   -1.742030
  C     -0.421730    2.676670   -2.153850
  C     -3.632950    2.827920    0.080430
  C     -4.165660    4.251440   -0.007290
  C      1.066270    4.628240    5.091610
  C     -0.389110    4.950250    5.413430
  C      2.952510    4.781200    3.373990
  C      3.467210    3.351310    3.466010
  C      0.972790   10.064930    3.338450
  C      0.164280   11.101890    2.968020
  C     -1.219130   11.142580    2.554350
  C     -1.428530   12.420620    1.874420
  C     -0.295910   13.228810    2.078730
  C      0.721080   12.470380    2.847150
  C     -2.508000   12.902050    1.152800
  C     -2.426980   14.191560    0.648230
  C     -1.305050   14.992500    0.863880
  C     -0.221950   14.516490    1.585990
  O      1.792190   12.864310    3.246000
  C     -2.214520   10.298490    2.974810
  C     -3.567930   10.434750    2.608760
  C     -1.997620    9.252810    3.896320
  F     -3.450300   14.674210   -0.065760
  F     -1.273530   16.234040    0.364130
  N     -4.677490   10.491180    2.320680
  N     -1.864710    8.428200    4.683990
  C     -0.821290   -6.255530    0.339740
  C      0.383430   -6.698050    0.804030
  C      1.677130   -6.059970    0.892520
  C      2.461140   -6.810840    1.872400
  C      1.776150   -8.000360    2.179330
  C      0.480640   -8.025870    1.458860
  C      3.690180   -6.543620    2.451760
  C      4.209290   -7.481670    3.331890
  C      3.530800   -8.665770    3.622940
  C      2.300430   -8.938800    3.046140
  O     -0.342660   -8.910890    1.445710
  C      2.181910   -5.132980    0.018540
  C      3.483900   -4.601250    0.100810
  C      1.476550   -4.692600   -1.121370
  F      5.387850   -7.240280    3.916510
  F      4.073580   -9.546540    4.472310
  N      4.527310   -4.124830    0.140570
  N      0.953940   -4.363290   -2.088690
  C     -1.645030   -2.464480    0.051700
  S     -0.479790   -3.526260    0.778420
  C     -1.247240   -4.934390    0.093710
  C     -2.368540   -4.566870   -0.629350
  C     -2.592850   -3.190930   -0.676880
  S     -3.932770   -2.423930   -1.505070
  C     -5.041630   -3.834310   -1.867950
  C     -6.379440   -3.294610   -2.350060
  C     -7.342010   -4.432550   -2.666690
  H     -2.853510   -0.211810   -1.242430
  H      0.868050    2.155040    3.117610
  H     -1.521500    5.456900    0.205940
  H      2.141300    7.854950    4.592000
  H     -2.031890    4.066960   -1.886310
  H     -2.548780    2.450120   -2.377970
  H      0.289010    3.213080   -1.528650
  H     -0.256660    2.966510   -3.188620
  H     -0.223960    1.611250   -2.062020
  H     -3.782940    2.460180    1.098790
  H     -4.208970    2.186370   -0.590210
  H     -3.685460    4.894070    0.725180
  H     -5.233050    4.246100    0.201400
  H     -4.020190    4.670920   -0.998910
  H      1.720420    5.187920    5.763160
  H      1.241400    3.564500    5.256630
  H     -0.595650    6.010660    5.290660
  H     -0.609360    4.677650    6.442590
  H     -1.058810    4.393820    4.760990
  H      3.491910    5.402120    4.092720
  H      3.170370    5.167550    2.374790
  H      3.240880    2.908440    4.431770
  H      4.547770    3.352380    3.342160
  H      3.041200    2.732190    2.681910
  H      1.909550   10.353760    3.805990
  H     -3.392710   12.316970    0.960620
  H      0.644890   15.135650    1.753200
  H     -1.581350   -7.022390    0.223860
  H      4.246290   -5.641170    2.256060
  H      1.776890   -9.854310    3.270820
  H     -2.971190   -5.299170   -1.134040
  H     -5.163410   -4.406820   -0.948170
  H     -4.572580   -4.448520   -2.637250
  H     -6.221290   -2.684500   -3.241550
  H     -6.806580   -2.652130   -1.577390
  H     -6.938160   -5.069690   -3.450060
  H     -8.294700   -4.034620   -3.004980
  H     -7.518710   -5.042410   -1.783600

 Total Charge           Charge          ....    0
 Multiplicity           Mult            ....    1
 Number of Electrons    NEL             ....  524
 Basis Dimension        Dim             .... 2453

ORBITAL ENERGIES
----------------

  NO   OCC          E(Eh)            E(eV)
   0   2.0000     -88.908951     -2419.3356
   1   2.0000     -88.908832     -2419.3323
   2   2.0000     -88.907250     -2419.2893
   3   2.0000     -88.880716     -2418.5672
   4   2.0000     -24.724637      -672.7916
   5   2.0000     -24.724467      -672.7869
   6   2.0000     -24.723213      -672.7528
   7   2.0000     -24.722911      -672.7446
   8   2.0000     -19.131917      -520.6059
   9   2.0000     -19.129427      -520.5382
  10   2.0000     -14.328869      -389.9084
  11   2.0000     -14.327366      -389.8675
  12   2.0000     -14.326042      -389.8314
  13   2.0000     -14.325724      -389.8228
  14   2.0000     -10.300386      -280.2877
  15   2.0000     -10.299319      -280.2587
  16   2.0000     -10.298710      -280.2421
  17   2.0000     -10.297770      -280.2166
  18   2.0000     -10.277816      -279.6736
  19   2.0000     -10.275419      -279.6084
  20   2.0000     -10.256641      -279.0974
  21   2.0000     -10.254766      -279.0464
  22   2.0000     -10.254499      -279.0391
  23   2.0000     -10.253382      -279.0087
  24   2.0000     -10.246450      -278.8201
  25   2.0000     -10.238415      -278.6014
  26   2.0000     -10.235825      -278.5309
  27   2.0000     -10.235807      -278.5305
  28   2.0000     -10.233218      -278.4600
  29   2.0000     -10.230730      -278.3923
  30   2.0000     -10.230239      -278.3790
  31   2.0000     -10.229763      -278.3660
  32   2.0000     -10.228905      -278.3426
  33   2.0000     -10.227509      -278.3047
  34   2.0000     -10.226731      -278.2835
  35   2.0000     -10.225575      -278.2520
  36   2.0000     -10.224585      -278.2251
  37   2.0000     -10.223662      -278.2000
  38   2.0000     -10.223623      -278.1989
  39   2.0000     -10.222840      -278.1776
  40   2.0000     -10.220273      -278.1078
  41   2.0000     -10.220017      -278.1008
  42   2.0000     -10.218599      -278.0622
  43   2.0000     -10.218538      -278.0606
  44   2.0000     -10.216982      -278.0182
  45   2.0000     -10.215152      -277.9684
  46   2.0000     -10.213765      -277.9307
  47   2.0000     -10.212355      -277.8923
  48   2.0000     -10.211903      -277.8800
  49   2.0000     -10.211396      -277.8662
  50   2.0000     -10.211362      -277.8653
  51   2.0000     -10.210316      -277.8368
  52   2.0000     -10.210127      -277.8317
  53   2.0000     -10.208746      -277.7941
  54   2.0000     -10.205106      -277.6950
  55   2.0000     -10.203608      -277.6543
  56   2.0000     -10.202704      -277.6297
  57   2.0000     -10.200460      -277.5686
  58   2.0000     -10.199225      -277.5350
  59   2.0000     -10.198798      -277.5234
  60   2.0000     -10.198274      -277.5091
  61   2.0000     -10.194671      -277.4111
  62   2.0000     -10.187158      -277.2067
  63   2.0000     -10.186390      -277.1858
  64   2.0000     -10.185684      -277.1665
  65   2.0000     -10.182575      -277.0820
  66   2.0000     -10.178578      -276.9732
  67   2.0000     -10.169649      -276.7302
  68   2.0000     -10.168586      -276.7013
  69   2.0000     -10.165253      -276.6106
  70   2.0000     -10.156281      -276.3665
  71   2.0000      -7.985573      -217.2985
  72   2.0000      -7.985399      -217.2937
  73   2.0000      -7.984475      -217.2686
  74   2.0000      -7.957803      -216.5428
  75   2.0000      -5.947951      -161.8520
  76   2.0000      -5.947899      -161.8506
  77   2.0000      -5.946976      -161.8254
  78   2.0000      -5.944280      -161.7521
  79   2.0000      -5.944158      -161.7488
  80   2.0000      -5.943217      -161.7231
  81   2.0000      -5.942250      -161.6969
  82   2.0000      -5.941983      -161.6896
  83   2.0000      -5.940844      -161.6586
  84   2.0000      -5.920822      -161.1138
  85   2.0000      -5.917393      -161.0205
  86   2.0000      -5.912688      -160.8924
  87   2.0000      -1.267875       -34.5006
  88   2.0000      -1.266339       -34.4588
  89   2.0000      -1.254501       -34.1367
  90   2.0000      -1.252977       -34.0952
  91   2.0000      -1.062642       -28.9160
  92   2.0000      -1.060239       -28.8506
  93   2.0000      -0.945784       -25.7361
  94   2.0000      -0.945028       -25.7155
  95   2.0000      -0.940833       -25.6014
  96   2.0000      -0.934214       -25.4213
  97   2.0000      -0.926521       -25.2119
  98   2.0000      -0.925039       -25.1716
  99   2.0000      -0.924841       -25.1662
 100   2.0000      -0.922745       -25.1092
 101   2.0000      -0.920616       -25.0512
 102   2.0000      -0.892639       -24.2899
 103   2.0000      -0.881803       -23.9951
 104   2.0000      -0.878710       -23.9109
 105   2.0000      -0.868465       -23.6321
 106   2.0000      -0.847052       -23.0495
 107   2.0000      -0.838948       -22.8289
 108   2.0000      -0.831708       -22.6319
 109   2.0000      -0.829365       -22.5682
 110   2.0000      -0.823117       -22.3982
 111   2.0000      -0.817765       -22.2525
 112   2.0000      -0.805136       -21.9089
 113   2.0000      -0.800893       -21.7934
 114   2.0000      -0.799326       -21.7508
 115   2.0000      -0.794434       -21.6176
 116   2.0000      -0.781429       -21.2638
 117   2.0000      -0.773399       -21.0453
 118   2.0000      -0.771349       -20.9895
 119   2.0000      -0.770358       -20.9625
 120   2.0000      -0.765180       -20.8216
 121   2.0000      -0.764444       -20.8016
 122   2.0000      -0.760536       -20.6952
 123   2.0000      -0.740997       -20.1635
 124   2.0000      -0.734910       -19.9979
 125   2.0000      -0.720360       -19.6020
 126   2.0000      -0.703039       -19.1307
 127   2.0000      -0.702064       -19.1041
 128   2.0000      -0.699137       -19.0245
 129   2.0000      -0.695333       -18.9210
 130   2.0000      -0.688640       -18.7389
 131   2.0000      -0.675231       -18.3740
 132   2.0000      -0.668760       -18.1979
 133   2.0000      -0.654213       -17.8020
 134   2.0000      -0.646669       -17.5968
 135   2.0000      -0.640274       -17.4227
 136   2.0000      -0.636346       -17.3158
 137   2.0000      -0.631408       -17.1815
 138   2.0000      -0.627566       -17.0769
 139   2.0000      -0.626457       -17.0468
 140   2.0000      -0.617501       -16.8031
 141   2.0000      -0.617257       -16.7964
 142   2.0000      -0.613226       -16.6867
 143   2.0000      -0.606697       -16.5091
 144   2.0000      -0.600821       -16.3492
 145   2.0000      -0.593850       -16.1595
 146   2.0000      -0.589244       -16.0342
 147   2.0000      -0.581229       -15.8160
 148   2.0000      -0.576228       -15.6800
 149   2.0000      -0.573470       -15.6049
 150   2.0000      -0.571807       -15.5597
 151   2.0000      -0.569858       -15.5066
 152   2.0000      -0.564848       -15.3703
 153   2.0000      -0.551682       -15.0120
 154   2.0000      -0.550271       -14.9736
 155   2.0000      -0.544755       -14.8235
 156   2.0000      -0.539764       -14.6877
 157   2.0000      -0.535615       -14.5748
 158   2.0000      -0.529674       -14.4132
 159   2.0000      -0.528310       -14.3760
 160   2.0000      -0.524308       -14.2672
 161   2.0000      -0.519812       -14.1448
 162   2.0000      -0.518349       -14.1050
 163   2.0000      -0.516190       -14.0462
 164   2.0000      -0.504223       -13.7206
 165   2.0000      -0.503162       -13.6917
 166   2.0000      -0.498223       -13.5573
 167   2.0000      -0.490153       -13.3378
 168   2.0000      -0.486087       -13.2271
 169   2.0000      -0.484728       -13.1901
 170   2.0000      -0.484581       -13.1861
 171   2.0000      -0.483244       -13.1497
 172   2.0000      -0.483096       -13.1457
 173   2.0000      -0.482978       -13.1425
 174   2.0000      -0.480800       -13.0832
 175   2.0000      -0.476155       -12.9568
 176   2.0000      -0.472299       -12.8519
 177   2.0000      -0.469946       -12.7879
 178   2.0000      -0.465650       -12.6710
 179   2.0000      -0.463613       -12.6156
 180   2.0000      -0.463041       -12.6000
 181   2.0000      -0.462845       -12.5947
 182   2.0000      -0.460079       -12.5194
 183   2.0000      -0.457938       -12.4611
 184   2.0000      -0.456841       -12.4313
 185   2.0000      -0.454326       -12.3628
 186   2.0000      -0.453179       -12.3316
 187   2.0000      -0.449616       -12.2347
 188   2.0000      -0.446673       -12.1546
 189   2.0000      -0.443487       -12.0679
 190   2.0000      -0.440362       -11.9829
 191   2.0000      -0.438317       -11.9272
 192   2.0000      -0.436939       -11.8897
 193   2.0000      -0.430888       -11.7251
 194   2.0000      -0.429870       -11.6974
 195   2.0000      -0.428846       -11.6695
 196   2.0000      -0.428672       -11.6647
 197   2.0000      -0.426280       -11.5997
 198   2.0000      -0.425649       -11.5825
 199   2.0000      -0.423473       -11.5233
 200   2.0000      -0.422347       -11.4927
 201   2.0000      -0.418056       -11.3759
 202   2.0000      -0.414699       -11.2845
 203   2.0000      -0.411382       -11.1943
 204   2.0000      -0.409272       -11.1369
 205   2.0000      -0.405987       -11.0475
 206   2.0000      -0.401007       -10.9119
 207   2.0000      -0.398994       -10.8572
 208   2.0000      -0.395787       -10.7699
 209   2.0000      -0.394371       -10.7314
 210   2.0000      -0.392498       -10.6804
 211   2.0000      -0.390733       -10.6324
 212   2.0000      -0.389002       -10.5853
 213   2.0000      -0.388390       -10.5686
 214   2.0000      -0.387995       -10.5579
 215   2.0000      -0.386856       -10.5269
 216   2.0000      -0.386106       -10.5065
 217   2.0000      -0.385270       -10.4837
 218   2.0000      -0.381989       -10.3944
 219   2.0000      -0.380369       -10.3504
 220   2.0000      -0.379043       -10.3143
 221   2.0000      -0.378230       -10.2922
 222   2.0000      -0.376661       -10.2495
 223   2.0000      -0.375200       -10.2097
 224   2.0000      -0.373797       -10.1715
 225   2.0000      -0.372609       -10.1392
 226   2.0000      -0.367066        -9.9884
 227   2.0000      -0.364620        -9.9218
 228   2.0000      -0.364134        -9.9086
 229   2.0000      -0.363308        -9.8861
 230   2.0000      -0.361498        -9.8369
 231   2.0000      -0.360488        -9.8094
 232   2.0000      -0.359318        -9.7776
 233   2.0000      -0.357106        -9.7174
 234   2.0000      -0.355656        -9.6779
 235   2.0000      -0.352258        -9.5854
 236   2.0000      -0.348538        -9.4842
 237   2.0000      -0.346110        -9.4181
 238   2.0000      -0.345406        -9.3990
 239   2.0000      -0.343962        -9.3597
 240   2.0000      -0.340712        -9.2712
 241   2.0000      -0.338650        -9.2151
 242   2.0000      -0.336234        -9.1494
 243   2.0000      -0.334015        -9.0890
 244   2.0000      -0.332299        -9.0423
 245   2.0000      -0.327331        -8.9071
 246   2.0000      -0.318782        -8.6745
 247   2.0000      -0.307518        -8.3680
 248   2.0000      -0.297771        -8.1028
 249   2.0000      -0.295142        -8.0312
 250   2.0000      -0.291797        -7.9402
 251   2.0000      -0.280485        -7.6324
 252   2.0000      -0.279508        -7.6058
 253   2.0000      -0.278434        -7.5766
 254   2.0000      -0.275776        -7.5042
 255   2.0000      -0.273360        -7.4385
 256   2.0000      -0.270476        -7.3600
 257   2.0000      -0.263898        -7.1810
 258   2.0000      -0.259359        -7.0575
 259   2.0000      -0.249403        -6.7866
 260   2.0000      -0.228785        -6.2256
 261   2.0000      -0.202761        -5.5174
 262   0.0000      -0.136356        -3.7104
 263   0.0000      -0.125876        -3.4253
 264   0.0000      -0.106671        -2.9027
 265   0.0000      -0.103270        -2.8101
 266   0.0000      -0.078316        -2.1311

MULLIKEN ATOMIC CHARGES
-----------------------
   0 C :    0.216753
   1 C :   -0.284025
   2 C :   -0.065890
   3 C :    0.454424
   4 C :   -0.173908
   5 C :    0.314604
   6 C :   -0.068372
   7 S :   -0.001347
   8 C :   -0.395899
   9 C :   -0.145611
  10 C :    0.444131
  11 C :   -0.076618
  12 C :   -0.028869
  13 C :    0.325359
  14 C :   -0.395434
  15 S :    0.023162
  16 C :    0.237955
  17 C :   -0.280116
  18 C :   -0.222467
  19 C :   -0.356770
  20 C :   -0.162342
  21 C :   -0.373169
  22 C :   -0.208941
  23 C :   -0.375368
  24 C :   -0.164457
  25 C :   -0.372686
  26 C :   -0.268314
  27 C :    0.000075
  28 C :   -0.001390
  29 C :    0.116707
  30 C :   -0.004089
  31 C :    0.206855
  32 C :   -0.262936
  33 C :    0.257610
  34 C :    0.284073
  35 C :   -0.298643
  36 O :   -0.287524
  37 C :    0.128354
  38 C :   -0.242253
  39 C :   -0.212922
  40 F :   -0.177850
  41 F :   -0.180994
  42 N :    0.041770
  43 N :    0.028442
  44 C :   -0.254654
  45 C :   -0.001189
  46 C :    0.017047
  47 C :    0.106736
  48 C :   -0.005745
  49 C :    0.199282
  50 C :   -0.258600
  51 C :    0.261433
  52 C :    0.277994
  53 C :   -0.287175
  54 O :   -0.287466
  55 C :    0.122238
  56 C :   -0.242589
  57 C :   -0.226737
  58 F :   -0.177079
  59 F :   -0.180309
  60 N :    0.042627
  61 N :    0.048306
  62 C :    0.014187
  63 S :    0.003698
  64 C :    0.170580
  65 C :   -0.170662
  66 C :   -0.015180
  67 S :   -0.059444
  68 C :   -0.227060
  69 C :   -0.153685
  70 C :   -0.323073
  71 H :    0.141071
  72 H :    0.138723
  73 H :    0.138013
  74 H :    0.126117
  75 H :    0.095681
  76 H :    0.094366
  77 H :    0.119768
  78 H :    0.113622
  79 H :    0.128550
  80 H :    0.103100
  81 H :    0.094574
  82 H :    0.128020
  83 H :    0.120107
  84 H :    0.109961
  85 H :    0.090131
  86 H :    0.091151
  87 H :    0.171341
  88 H :    0.107652
  89 H :    0.111955
  90 H :    0.092941
  91 H :    0.101857
  92 H :    0.111065
  93 H :    0.120212
  94 H :    0.124816
  95 H :    0.145424
  96 H :    0.161322
  97 H :    0.150800
  98 H :    0.142875
  99 H :    0.162707
 100 H :    0.151186
 101 H :    0.142996
 102 H :    0.124203
 103 H :    0.120136
 104 H :    0.101450
 105 H :    0.102622
 106 H :    0.107247
 107 H :    0.120989
 108 H :    0.106694
Sum of atomic charges:   -0.0000000

LOEWDIN ATOMIC CHARGES
----------------------
   0 C :   -0.345895
   1 C :   -0.117726
   2 C :   -0.095651
   3 C :   -0.180241
   4 C :   -0.028252
   5 C :   -0.082948
   6 C :   -0.291326
   7 S :    0.766268
   8 C :   -0.068240
   9 C :   -0.024259
  10 C :   -0.179648
  11 C :   -0.092076
  12 C :   -0.276708
  13 C :   -0.086938
  14 C :   -0.064935
  15 S :    0.826176
  16 C :   -0.328748
  17 C :   -0.082709
  18 C :   -0.219437
  19 C :   -0.288508
  20 C :   -0.215879
  21 C :   -0.296268
  22 C :   -0.219115
  23 C :   -0.288182
  24 C :   -0.217293
  25 C :   -0.296876
  26 C :   -0.056703
  27 C :   -0.091824
  28 C :   -0.003174
  29 C :   -0.043840
  30 C :   -0.057277
  31 C :   -0.257013
  32 C :   -0.050776
  33 C :   -0.223403
  34 C :   -0.225090
  35 C :   -0.045649
  36 O :    0.135984
  37 C :   -0.151884
  38 C :   -0.164825
  39 C :   -0.176099
  40 F :    0.215938
  41 F :    0.212812
  42 N :    0.081789
  43 N :    0.087834
  44 C :   -0.056362
  45 C :   -0.088361
  46 C :   -0.003130
  47 C :   -0.043475
  48 C :   -0.057654
  49 C :   -0.256016
  50 C :   -0.050362
  51 C :   -0.223004
  52 C :   -0.225039
  53 C :   -0.045243
  54 O :    0.136641
  55 C :   -0.150524
  56 C :   -0.162724
  57 C :   -0.180312
  58 F :    0.216834
  59 F :    0.213215
  60 N :    0.084219
  61 N :    0.091301
  62 C :   -0.346855
  63 S :    0.820016
  64 C :   -0.344589
  65 C :   -0.128644
  66 C :   -0.378413
  67 S :    0.620288
  68 C :   -0.430373
  69 C :   -0.318583
  70 C :   -0.300385
  71 H :    0.141480
  72 H :    0.150813
  73 H :    0.150925
  74 H :    0.151869
  75 H :    0.137303
  76 H :    0.140032
  77 H :    0.122726
  78 H :    0.118647
  79 H :    0.124175
  80 H :    0.146284
  81 H :    0.140562
  82 H :    0.121094
  83 H :    0.122534
  84 H :    0.116445
  85 H :    0.139008
  86 H :    0.136208
  87 H :    0.127498
  88 H :    0.118216
  89 H :    0.122125
  90 H :    0.140037
  91 H :    0.145293
  92 H :    0.116635
  93 H :    0.122209
  94 H :    0.120277
  95 H :    0.173389
  96 H :    0.167761
  97 H :    0.164709
  98 H :    0.172891
  99 H :    0.167914
 100 H :    0.164764
 101 H :    0.150784
 102 H :    0.128529
 103 H :    0.125585
 104 H :    0.134534
 105 H :    0.134616
 106 H :    0.118596
 107 H :    0.121253
 108 H :    0.118424

  Mayer bond orders larger than 0.100000
B(  0-C ,  1-C ) :   1.4690 B(  0-C ,  7-S ) :   1.2019 B(  0-C , 62-C ) :   1.0542
B(  0-C , 63-S ) :  -0.1161 B(  0-C , 66-C ) :  -0.1019 B(  1-C ,  2-C ) :   1.2931
B(  1-C ,  7-S ) :   0.1420 B(  1-C , 71-H ) :   0.9235 B(  2-C ,  3-C ) :   1.0401
B(  2-C ,  6-C ) :   1.3248 B(  3-C ,  4-C ) :   1.1275 B(  3-C , 18-C ) :   0.7667
B(  3-C , 20-C ) :   0.8110 B(  4-C ,  5-C ) :   1.2028 B(  4-C , 14-C ) :   1.4189
B(  5-C ,  6-C ) :   1.0610 B(  5-C ,  8-C ) :   1.2880 B(  6-C ,  7-S ) :   1.3761
B(  8-C ,  9-C ) :   1.3997 B(  8-C , 72-H ) :   0.9833 B(  9-C , 10-C ) :   1.1003
B(  9-C , 13-C ) :   1.2173 B( 10-C , 11-C ) :   1.0091 B( 10-C , 22-C ) :   0.7893
B( 10-C , 24-C ) :   0.8033 B( 11-C , 12-C ) :   1.3059 B( 11-C , 17-C ) :   1.3296
B( 12-C , 13-C ) :   1.0523 B( 12-C , 15-S ) :   1.3850 B( 13-C , 14-C ) :   1.2813
B( 14-C , 73-H ) :   0.9800 B( 15-S , 16-C ) :   1.1385 B( 15-S , 17-C ) :   0.1412
B( 16-C , 17-C ) :   1.4007 B( 16-C , 26-C ) :   1.1110 B( 17-C , 74-H ) :   0.9691
B( 18-C , 19-C ) :   0.9784 B( 18-C , 75-H ) :   0.9642 B( 18-C , 76-H ) :   0.9591
B( 19-C , 77-H ) :   0.9730 B( 19-C , 78-H ) :   0.9788 B( 19-C , 79-H ) :   0.9735
B( 20-C , 21-C ) :   0.9504 B( 20-C , 80-H ) :   0.9661 B( 20-C , 81-H ) :   0.9624
B( 21-C , 82-H ) :   0.9766 B( 21-C , 83-H ) :   0.9766 B( 21-C , 84-H ) :   0.9759
B( 22-C , 23-C ) :   0.9736 B( 22-C , 85-H ) :   0.9575 B( 22-C , 86-H ) :   0.9605
B( 23-C , 87-H ) :   0.9680 B( 23-C , 88-H ) :   0.9769 B( 23-C , 89-H ) :   0.9705
B( 24-C , 25-C ) :   0.9520 B( 24-C , 90-H ) :   0.9632 B( 24-C , 91-H ) :   0.9675
B( 25-C , 92-H ) :   0.9758 B( 25-C , 93-H ) :   0.9763 B( 25-C , 94-H ) :   0.9770
B( 26-C , 27-C ) :   1.4905 B( 26-C , 36-O ) :   0.1102 B( 26-C , 95-H ) :   0.9556
B( 27-C , 28-C ) :   1.1626 B( 27-C , 31-C ) :   1.0046 B( 27-C , 36-O ) :  -0.1444
B( 28-C , 29-C ) :   1.0381 B( 28-C , 37-C ) :   1.4206 B( 29-C , 30-C ) :   1.3209
B( 29-C , 32-C ) :   1.3070 B( 30-C , 31-C ) :   0.9535 B( 30-C , 35-C ) :   1.3092
B( 30-C , 36-O ) :  -0.1483 B( 31-C , 36-O ) :   2.1844 B( 32-C , 33-C ) :   1.3897
B( 32-C , 96-H ) :   0.9454 B( 33-C , 34-C ) :   1.3441 B( 33-C , 40-F ) :   1.0723
B( 34-C , 35-C ) :   1.3554 B( 34-C , 41-F ) :   1.0612 B( 35-C , 97-H ) :   0.9850
B( 37-C , 38-C ) :   1.0507 B( 37-C , 39-C ) :   1.0409 B( 38-C , 42-N ) :   2.9961
B( 39-C , 43-N ) :   2.9370 B( 44-C , 45-C ) :   1.5122 B( 44-C , 54-O ) :   0.1071
B( 44-C , 64-C ) :   1.1028 B( 44-C , 98-H ) :   0.9515 B( 45-C , 46-C ) :   1.1495
B( 45-C , 49-C ) :   1.0039 B( 45-C , 54-O ) :  -0.1402 B( 46-C , 47-C ) :   1.0397
B( 46-C , 55-C ) :   1.4224 B( 47-C , 48-C ) :   1.3205 B( 47-C , 50-C ) :   1.3116
B( 48-C , 49-C ) :   0.9533 B( 48-C , 53-C ) :   1.3110 B( 48-C , 54-O ) :  -0.1487
B( 49-C , 54-O ) :   2.1844 B( 50-C , 51-C ) :   1.3881 B( 50-C , 99-H ) :   0.9434
B( 51-C , 52-C ) :   1.3430 B( 51-C , 58-F ) :   1.0728 B( 52-C , 53-C ) :   1.3550
B( 52-C , 59-F ) :   1.0613 B( 53-C ,100-H ) :   0.9819 B( 55-C , 56-C ) :   1.0564
B( 55-C , 57-C ) :   1.0359 B( 56-C , 60-N ) :   2.9931 B( 57-C , 61-N ) :   2.9994
B( 62-C , 63-S ) :   1.2769 B( 62-C , 66-C ) :   1.3627 B( 63-S , 64-C ) :   1.1781
B( 63-S , 66-C ) :   0.1005 B( 64-C , 65-C ) :   1.3921 B( 65-C , 66-C ) :   1.2560
B( 65-C ,101-H ) :   0.9483 B( 66-C , 67-S ) :   1.2101 B( 67-S , 68-C ) :   1.0698
B( 68-C , 69-C ) :   0.9890 B( 68-C ,102-H ) :   0.9438 B( 68-C ,103-H ) :   0.9482
B( 69-C , 70-C ) :   0.9616 B( 69-C ,104-H ) :   0.9666 B( 69-C ,105-H ) :   0.9650
B( 70-C ,106-H ) :   0.9749 B( 70-C ,107-H ) :   0.9785 B( 70-C ,108-H ) :   0.9750

-----------------------------------------------------------------------------
  SOC CORRECTED ABSORPTION SPECTRUM VIA TRANSITION ELECTRIC DIPOLE MOMENTS*
-----------------------------------------------------------------------------
State   Energy  Wavelength   fosc         T2         TX        TY        TZ
        (cm-1)    (nm)                  (au**2)     (au)      (au)      (au)
-----------------------------------------------------------------------------
   1    8772.8   1139.9   0.000000017   0.00000   0.00015   0.00073   0.00026
   2    8772.8   1139.9   0.000000000   0.00000   0.00007   0.00003   0.00003
   3    8772.8   1139.9   0.000000004   0.00000   0.00034   0.00003   0.00021
   4   11044.2    905.5   0.000000037   0.00000   0.00028   0.00101   0.00005
   5   11044.2    905.5   0.000000004   0.00000   0.00004   0.00035   0.00007
   6   11044.2    905.5   0.000000037   0.00000   0.00005   0.00103   0.00015
   7   13365.8    748.2   1.769234877  43.57772   1.08657   6.47016   0.73083
   8   15404.5    649.2   0.028121252   0.60098   0.42803   0.57997   0.28532
   9   15534.1    643.7   0.000000000   0.00000   0.00003   0.00004   0.00001
  10   15534.1    643.7   0.000000143   0.00000   0.00028   0.00170   0.00024
  11   15534.1    643.7   0.000000381   0.00001   0.00212   0.00144   0.00122
  12   18068.3    553.5   0.183226632   3.33846   0.04687   1.81625   0.19365

FINAL SINGLE POINT ENERGY     -4555.628175543354

DIPOLE MOMENT
-------------
                                X             Y             Z
Electronic contribution:     40.85925      12.85091      18.61667
Nuclear contribution   :    -42.06127     -13.89680     -19.06208
                        -----------------------------------------
Total Dipole Moment    :     -1.20202      -1.04589      -0.44541
                        -----------------------------------------
Magnitude (a.u.)       :      1.65443
Magnitude (Debye)      :      4.20522

Rotational constants in cm-1:     0.001717     0.000292     0.000261
Rotational constants in MHz :    51.485562     8.759856     7.829477

                             ****ORCA TERMINATED NORMALLY****
TOTAL RUN TIME: 1 days 2 hours 1 minutes 43 seconds 17 msec
