                         Program Version 4.2.0 -  RELEASE  -
|  1> # ORCA input file
|  2> # IDST-4F.out: Geometry 76
|  3> ! B3LYP def2-TZVP def2/J RIJCOSX Grid4 TightSCF
|  4>
|  5> %maxcore 6000
|  6> %tddft
|  7>   maxdim 5
|  8>   nroots 3
|  9>   dosoc true
| 10>   end
| 11> %pal
| 12>   nprocs 6
| 13>   end
| 14>
| 15>
| 16> * xyz 0 1
| 17>    C       -1.89673        -1.18007         0.39681
| 18>    C       -2.61718        -0.16143        -0.24005
| 19>    C       -2.17535         1.12414         0.13787
| 20>    C       -2.54363         2.56986        -0.18389
| 21>    C       -1.52296         3.32933         0.68106
| 22>    C       -0.70184         2.41928         1.40881
| 23>    C       -1.14041         1.09164         1.06226
| 24>    S       -0.68122        -0.50770         1.49626
| 25>    C        0.34476         2.85179         2.23568
| 26>    C        0.58930         4.21472         2.31787
| 27>    C        1.63317         4.94456         3.16820
| 28>    C        1.28594         6.39001         2.85784
| 29>    C        0.20911         6.45728         1.97291
| 30>    C       -0.23854         5.13248         1.60673
| 31>    C       -1.28655         4.69492         0.77491
| 32>    S       -0.25171         8.07639         1.61047
| 33>    C        1.03296         8.69901         2.65543
| 34>    C        1.77921         7.65085         3.21245
| 35>    C       -2.34295         2.89696        -1.68524
| 36>    C       -0.91861         2.67908        -2.19069
| 37>    C       -4.01224         2.81349         0.26714
| 38>    C       -4.54501         4.23950         0.15417
| 39>    C        1.43385         4.62315         4.67307
| 40>    C        0.01573         4.86839         5.18700
| 41>    C        3.09190         4.67039         2.70239
| 42>    C        3.59793         3.23328         2.79706
| 43>    C        1.26870        10.08774         2.85234
| 44>    C        0.42382        11.16836         2.77211
| 45>    C       -1.02764        11.30240         2.80182
| 46>    C       -1.35130        12.66723         2.31482
| 47>    C       -0.15103        13.39881         2.19124
| 48>    C        1.00610        12.52896         2.53356
| 49>    C       -2.57451        13.30152         2.05962
| 50>    C       -2.54830        14.63860         1.67097
| 51>    C       -1.34207        15.35265         1.54557
| 52>    C       -0.12532        14.73632         1.81262
| 53>    O        2.17694        12.84872         2.56504
| 54>    C       -1.92667        10.43585         3.40134
| 55>    C       -3.34003        10.63630         3.35278
| 56>    C       -1.50983         9.33177         4.20805
| 57>    F       -3.68566        15.27765         1.41095
| 58>    F       -1.39159        16.62651         1.16705
| 59>    N       -4.49281        10.77516         3.29693
| 60>    N       -1.19744         8.46520         4.91597
| 61>    C       -0.88434        -6.35950         0.66151
| 62>    C        0.36116        -6.73639         1.09990
| 63>    C        1.65010        -6.05658         1.13376
| 64>    C        2.43959        -6.67758         2.22391
| 65>    C        1.76866        -7.84085         2.65939
| 66>    C        0.49471        -7.99880         1.90023
| 67>    C        3.65741        -6.31363         2.81252
| 68>    C        4.14105        -7.11289         3.84558
| 69>    C        3.45329        -8.25932         4.28337
| 70>    C        2.26116        -8.64631         3.68139
| 71>    O       -0.29406        -8.91716         1.96805
| 72>    C        2.13278        -5.17273         0.18637
| 73>    C        3.41728        -4.55684         0.29245
| 74>    C        1.41518        -4.89045        -1.01780
| 75>    F        5.28020        -6.80080         4.45740
| 76>    F        3.96817        -8.95550         5.29246
| 77>    N        4.45123        -4.03352         0.38155
| 78>    N        0.85652        -4.69432        -2.01748
| 79>    C       -1.97188        -2.61036         0.26058
| 80>    S       -0.66294        -3.58179         0.88888
| 81>    C       -1.41540        -5.06963         0.37410
| 82>    C       -2.64367        -4.80223        -0.23023
| 83>    C       -2.95770        -3.42749        -0.32836
| 84>    S       -4.43082        -2.77087        -1.04304
| 85>    C       -5.01095        -4.15141        -2.09669
| 86>    C       -5.99510        -3.60185        -3.12806
| 87>    C       -6.60301        -4.70433        -3.99260
| 88>    H       -3.39852        -0.36842        -0.96925
| 89>    H        0.94055         2.12964         2.79585
| 90>    H       -1.88496         5.41750         0.21708
| 91>    H        2.61878         7.83807         3.88311
| 92>    H       -2.63758         3.94423        -1.85955
| 93>    H       -3.05116         2.28250        -2.26627
| 94>    H       -0.20261         3.30389        -1.63694
| 95>    H       -0.83542         2.94416        -3.25622
| 96>    H       -0.60472         1.62990        -2.07551
| 97>    H       -4.10235         2.47395         1.31229
| 98>    H       -4.64991         2.13736        -0.32725
| 99>    H       -3.98530         4.93451         0.79527
|100>    H       -5.59532         4.27393         0.48297
|101>    H       -4.51097         4.62336        -0.87738
|102>    H        2.15708         5.22537         5.24814
|103>    H        1.71278         3.57069         4.84362
|104>    H       -0.28153         5.92443         5.09518
|105>    H       -0.06496         4.58581         6.24830
|106>    H       -0.71442         4.26256         4.63017
|107>    H        3.74916         5.32716         3.29719
|108>    H        3.18101         5.01676         1.65912
|109>    H        3.55759         2.83670         3.82342
|110>    H        4.64722         3.18421         2.46675
|111>    H        3.02541         2.55655         2.14798
|112>    H        2.31538        10.36186         3.04110
|113>    H       -3.54074        12.80842         2.15200
|114>    H        0.81307        15.28644         1.72665
|115>    H       -1.61675        -7.17718         0.64648
|116>    H        4.23098        -5.43647         2.51651
|117>    H        1.73080        -9.53946         4.01500
|118>    H       -3.28788        -5.60360        -0.58827
|119>    H       -5.48984        -4.91763        -1.46652
|120>    H       -4.13892        -4.60351        -2.59407
|121>    H       -5.46799        -2.86755        -3.75988
|122>    H       -6.79837        -3.04875        -2.61068
|123>    H       -5.82353        -5.26957        -4.52989
|124>    H       -7.28673        -4.28017        -4.74423
|125>    H       -7.17658        -5.42279        -3.38401
|126> *
|127>
|128>                          ****END OF INPUT****

CARTESIAN COORDINATES (ANGSTROEM)
---------------------------------
  C     -1.896730   -1.180070    0.396810
  C     -2.617180   -0.161430   -0.240050
  C     -2.175350    1.124140    0.137870
  C     -2.543630    2.569860   -0.183890
  C     -1.522960    3.329330    0.681060
  C     -0.701840    2.419280    1.408810
  C     -1.140410    1.091640    1.062260
  S     -0.681220   -0.507700    1.496260
  C      0.344760    2.851790    2.235680
  C      0.589300    4.214720    2.317870
  C      1.633170    4.944560    3.168200
  C      1.285940    6.390010    2.857840
  C      0.209110    6.457280    1.972910
  C     -0.238540    5.132480    1.606730
  C     -1.286550    4.694920    0.774910
  S     -0.251710    8.076390    1.610470
  C      1.032960    8.699010    2.655430
  C      1.779210    7.650850    3.212450
  C     -2.342950    2.896960   -1.685240
  C     -0.918610    2.679080   -2.190690
  C     -4.012240    2.813490    0.267140
  C     -4.545010    4.239500    0.154170
  C      1.433850    4.623150    4.673070
  C      0.015730    4.868390    5.187000
  C      3.091900    4.670390    2.702390
  C      3.597930    3.233280    2.797060
  C      1.268700   10.087740    2.852340
  C      0.423820   11.168360    2.772110
  C     -1.027640   11.302400    2.801820
  C     -1.351300   12.667230    2.314820
  C     -0.151030   13.398810    2.191240
  C      1.006100   12.528960    2.533560
  C     -2.574510   13.301520    2.059620
  C     -2.548300   14.638600    1.670970
  C     -1.342070   15.352650    1.545570
  C     -0.125320   14.736320    1.812620
  O      2.176940   12.848720    2.565040
  C     -1.926670   10.435850    3.401340
  C     -3.340030   10.636300    3.352780
  C     -1.509830    9.331770    4.208050
  F     -3.685660   15.277650    1.410950
  F     -1.391590   16.626510    1.167050
  N     -4.492810   10.775160    3.296930
  N     -1.197440    8.465200    4.915970
  C     -0.884340   -6.359500    0.661510
  C      0.361160   -6.736390    1.099900
  C      1.650100   -6.056580    1.133760
  C      2.439590   -6.677580    2.223910
  C      1.768660   -7.840850    2.659390
  C      0.494710   -7.998800    1.900230
  C      3.657410   -6.313630    2.812520
  C      4.141050   -7.112890    3.845580
  C      3.453290   -8.259320    4.283370
  C      2.261160   -8.646310    3.681390
  O     -0.294060   -8.917160    1.968050
  C      2.132780   -5.172730    0.186370
  C      3.417280   -4.556840    0.292450
  C      1.415180   -4.890450   -1.017800
  F      5.280200   -6.800800    4.457400
  F      3.968170   -8.955500    5.292460
  N      4.451230   -4.033520    0.381550
  N      0.856520   -4.694320   -2.017480
  C     -1.971880   -2.610360    0.260580
  S     -0.662940   -3.581790    0.888880
  C     -1.415400   -5.069630    0.374100
  C     -2.643670   -4.802230   -0.230230
  C     -2.957700   -3.427490   -0.328360
  S     -4.430820   -2.770870   -1.043040
  C     -5.010950   -4.151410   -2.096690
  C     -5.995100   -3.601850   -3.128060
  C     -6.603010   -4.704330   -3.992600
  H     -3.398520   -0.368420   -0.969250
  H      0.940550    2.129640    2.795850
  H     -1.884960    5.417500    0.217080
  H      2.618780    7.838070    3.883110
  H     -2.637580    3.944230   -1.859550
  H     -3.051160    2.282500   -2.266270
  H     -0.202610    3.303890   -1.636940
  H     -0.835420    2.944160   -3.256220
  H     -0.604720    1.629900   -2.075510
  H     -4.102350    2.473950    1.312290
  H     -4.649910    2.137360   -0.327250
  H     -3.985300    4.934510    0.795270
  H     -5.595320    4.273930    0.482970
  H     -4.510970    4.623360   -0.877380
  H      2.157080    5.225370    5.248140
  H      1.712780    3.570690    4.843620
  H     -0.281530    5.924430    5.095180
  H     -0.064960    4.585810    6.248300
  H     -0.714420    4.262560    4.630170
  H      3.749160    5.327160    3.297190
  H      3.181010    5.016760    1.659120
  H      3.557590    2.836700    3.823420
  H      4.647220    3.184210    2.466750
  H      3.025410    2.556550    2.147980
  H      2.315380   10.361860    3.041100
  H     -3.540740   12.808420    2.152000
  H      0.813070   15.286440    1.726650
  H     -1.616750   -7.177180    0.646480
  H      4.230980   -5.436470    2.516510
  H      1.730800   -9.539460    4.015000
  H     -3.287880   -5.603600   -0.588270
  H     -5.489840   -4.917630   -1.466520
  H     -4.138920   -4.603510   -2.594070
  H     -5.467990   -2.867550   -3.759880
  H     -6.798370   -3.048750   -2.610680
  H     -5.823530   -5.269570   -4.529890
  H     -7.286730   -4.280170   -4.744230
  H     -7.176580   -5.422790   -3.384010

 Total Charge           Charge          ....    0
 Multiplicity           Mult            ....    1
 Number of Electrons    NEL             ....  524
 Basis Dimension        Dim             .... 2453

ORBITAL ENERGIES
----------------

  NO   OCC          E(Eh)            E(eV)
   0   2.0000     -88.910865     -2419.3876
   1   2.0000     -88.908977     -2419.3363
   2   2.0000     -88.908326     -2419.3186
   3   2.0000     -88.881465     -2418.5876
   4   2.0000     -24.727426      -672.8675
   5   2.0000     -24.726615      -672.8454
   6   2.0000     -24.726248      -672.8354
   7   2.0000     -24.725169      -672.8061
   8   2.0000     -19.134236      -520.6690
   9   2.0000     -19.131878      -520.6049
  10   2.0000     -14.334554      -390.0630
  11   2.0000     -14.332814      -390.0157
  12   2.0000     -14.331030      -389.9672
  13   2.0000     -14.330998      -389.9663
  14   2.0000     -10.301923      -280.3296
  15   2.0000     -10.301138      -280.3082
  16   2.0000     -10.300505      -280.2910
  17   2.0000     -10.299841      -280.2729
  18   2.0000     -10.282077      -279.7896
  19   2.0000     -10.278947      -279.7044
  20   2.0000     -10.264050      -279.2990
  21   2.0000     -10.261892      -279.2403
  22   2.0000     -10.260940      -279.2144
  23   2.0000     -10.260458      -279.2013
  24   2.0000     -10.252034      -278.9720
  25   2.0000     -10.243421      -278.7377
  26   2.0000     -10.240212      -278.6503
  27   2.0000     -10.240098      -278.6472
  28   2.0000     -10.237798      -278.5846
  29   2.0000     -10.236302      -278.5439
  30   2.0000     -10.235091      -278.5110
  31   2.0000     -10.234603      -278.4977
  32   2.0000     -10.234243      -278.4879
  33   2.0000     -10.233889      -278.4783
  34   2.0000     -10.233479      -278.4671
  35   2.0000     -10.232523      -278.4411
  36   2.0000     -10.230799      -278.3942
  37   2.0000     -10.229842      -278.3682
  38   2.0000     -10.225434      -278.2482
  39   2.0000     -10.224423      -278.2207
  40   2.0000     -10.223822      -278.2043
  41   2.0000     -10.223761      -278.2027
  42   2.0000     -10.221755      -278.1481
  43   2.0000     -10.221651      -278.1453
  44   2.0000     -10.220951      -278.1262
  45   2.0000     -10.219192      -278.0783
  46   2.0000     -10.218280      -278.0535
  47   2.0000     -10.217992      -278.0457
  48   2.0000     -10.217657      -278.0366
  49   2.0000     -10.215810      -277.9863
  50   2.0000     -10.215530      -277.9787
  51   2.0000     -10.215250      -277.9711
  52   2.0000     -10.214693      -277.9559
  53   2.0000     -10.214448      -277.9493
  54   2.0000     -10.208339      -277.7830
  55   2.0000     -10.207327      -277.7555
  56   2.0000     -10.207065      -277.7484
  57   2.0000     -10.204607      -277.6815
  58   2.0000     -10.203217      -277.6437
  59   2.0000     -10.202543      -277.6253
  60   2.0000     -10.201352      -277.5929
  61   2.0000     -10.196948      -277.4731
  62   2.0000     -10.190423      -277.2955
  63   2.0000     -10.190020      -277.2845
  64   2.0000     -10.189142      -277.2607
  65   2.0000     -10.185328      -277.1569
  66   2.0000     -10.182306      -277.0746
  67   2.0000     -10.174440      -276.8606
  68   2.0000     -10.174223      -276.8547
  69   2.0000     -10.169912      -276.7374
  70   2.0000     -10.159552      -276.4555
  71   2.0000      -7.986830      -217.3327
  72   2.0000      -7.985687      -217.3016
  73   2.0000      -7.984437      -217.2676
  74   2.0000      -7.958181      -216.5531
  75   2.0000      -5.949319      -161.8892
  76   2.0000      -5.948215      -161.8592
  77   2.0000      -5.946960      -161.8250
  78   2.0000      -5.945599      -161.7880
  79   2.0000      -5.944456      -161.7569
  80   2.0000      -5.943496      -161.7307
  81   2.0000      -5.943231      -161.7235
  82   2.0000      -5.942098      -161.6927
  83   2.0000      -5.941021      -161.6634
  84   2.0000      -5.921283      -161.1263
  85   2.0000      -5.917883      -161.0338
  86   2.0000      -5.912957      -160.8997
  87   2.0000      -1.273688       -34.6588
  88   2.0000      -1.272081       -34.6151
  89   2.0000      -1.259056       -34.2607
  90   2.0000      -1.257839       -34.2275
  91   2.0000      -1.061944       -28.8970
  92   2.0000      -1.059086       -28.8192
  93   2.0000      -0.939360       -25.5613
  94   2.0000      -0.938266       -25.5315
  95   2.0000      -0.933457       -25.4006
  96   2.0000      -0.927415       -25.2362
  97   2.0000      -0.921392       -25.0723
  98   2.0000      -0.919447       -25.0194
  99   2.0000      -0.919248       -25.0140
 100   2.0000      -0.918494       -24.9935
 101   2.0000      -0.915630       -24.9155
 102   2.0000      -0.886250       -24.1161
 103   2.0000      -0.876764       -23.8580
 104   2.0000      -0.873494       -23.7690
 105   2.0000      -0.862095       -23.4588
 106   2.0000      -0.842780       -22.9332
 107   2.0000      -0.832282       -22.6476
 108   2.0000      -0.826993       -22.5036
 109   2.0000      -0.824362       -22.4320
 110   2.0000      -0.817656       -22.2495
 111   2.0000      -0.812854       -22.1189
 112   2.0000      -0.800751       -21.7895
 113   2.0000      -0.798022       -21.7153
 114   2.0000      -0.796181       -21.6652
 115   2.0000      -0.789765       -21.4906
 116   2.0000      -0.777620       -21.1601
 117   2.0000      -0.768622       -20.9153
 118   2.0000      -0.767015       -20.8715
 119   2.0000      -0.764975       -20.8160
 120   2.0000      -0.760472       -20.6935
 121   2.0000      -0.759488       -20.6667
 122   2.0000      -0.756882       -20.5958
 123   2.0000      -0.738063       -20.0837
 124   2.0000      -0.731631       -19.9087
 125   2.0000      -0.716712       -19.5027
 126   2.0000      -0.699618       -19.0376
 127   2.0000      -0.698554       -19.0086
 128   2.0000      -0.695338       -18.9211
 129   2.0000      -0.692463       -18.8429
 130   2.0000      -0.685782       -18.6611
 131   2.0000      -0.672315       -18.2946
 132   2.0000      -0.666828       -18.1453
 133   2.0000      -0.653039       -17.7701
 134   2.0000      -0.644326       -17.5330
 135   2.0000      -0.636417       -17.3178
 136   2.0000      -0.634153       -17.2562
 137   2.0000      -0.628685       -17.1074
 138   2.0000      -0.624461       -16.9924
 139   2.0000      -0.624190       -16.9851
 140   2.0000      -0.615400       -16.7459
 141   2.0000      -0.613980       -16.7073
 142   2.0000      -0.610743       -16.6192
 143   2.0000      -0.605138       -16.4666
 144   2.0000      -0.598554       -16.2875
 145   2.0000      -0.592499       -16.1227
 146   2.0000      -0.587365       -15.9830
 147   2.0000      -0.578974       -15.7547
 148   2.0000      -0.575554       -15.6616
 149   2.0000      -0.572933       -15.5903
 150   2.0000      -0.571555       -15.5528
 151   2.0000      -0.567173       -15.4336
 152   2.0000      -0.560070       -15.2403
 153   2.0000      -0.548281       -14.9195
 154   2.0000      -0.547082       -14.8869
 155   2.0000      -0.544208       -14.8087
 156   2.0000      -0.539038       -14.6680
 157   2.0000      -0.532277       -14.4840
 158   2.0000      -0.528492       -14.3810
 159   2.0000      -0.527329       -14.3494
 160   2.0000      -0.522802       -14.2262
 161   2.0000      -0.521280       -14.1847
 162   2.0000      -0.520945       -14.1756
 163   2.0000      -0.513255       -13.9664
 164   2.0000      -0.501736       -13.6529
 165   2.0000      -0.495878       -13.4935
 166   2.0000      -0.495352       -13.4792
 167   2.0000      -0.487878       -13.2758
 168   2.0000      -0.486678       -13.2432
 169   2.0000      -0.486098       -13.2274
 170   2.0000      -0.482684       -13.1345
 171   2.0000      -0.481519       -13.1028
 172   2.0000      -0.480580       -13.0773
 173   2.0000      -0.480358       -13.0712
 174   2.0000      -0.478449       -13.0193
 175   2.0000      -0.472913       -12.8686
 176   2.0000      -0.467062       -12.7094
 177   2.0000      -0.465481       -12.6664
 178   2.0000      -0.463416       -12.6102
 179   2.0000      -0.461846       -12.5675
 180   2.0000      -0.460123       -12.5206
 181   2.0000      -0.459353       -12.4996
 182   2.0000      -0.458392       -12.4735
 183   2.0000      -0.455157       -12.3854
 184   2.0000      -0.454467       -12.3667
 185   2.0000      -0.450664       -12.2632
 186   2.0000      -0.448702       -12.2098
 187   2.0000      -0.447768       -12.1844
 188   2.0000      -0.442037       -12.0284
 189   2.0000      -0.440331       -11.9820
 190   2.0000      -0.439401       -11.9567
 191   2.0000      -0.436517       -11.8782
 192   2.0000      -0.432572       -11.7709
 193   2.0000      -0.430803       -11.7227
 194   2.0000      -0.429075       -11.6757
 195   2.0000      -0.427027       -11.6200
 196   2.0000      -0.425538       -11.5795
 197   2.0000      -0.424859       -11.5610
 198   2.0000      -0.423318       -11.5191
 199   2.0000      -0.420771       -11.4498
 200   2.0000      -0.419707       -11.4208
 201   2.0000      -0.415631       -11.3099
 202   2.0000      -0.411801       -11.2057
 203   2.0000      -0.408950       -11.1281
 204   2.0000      -0.406815       -11.0700
 205   2.0000      -0.403988       -10.9931
 206   2.0000      -0.398278       -10.8377
 207   2.0000      -0.396509       -10.7896
 208   2.0000      -0.393934       -10.7195
 209   2.0000      -0.392762       -10.6876
 210   2.0000      -0.391151       -10.6438
 211   2.0000      -0.389871       -10.6089
 212   2.0000      -0.388858       -10.5814
 213   2.0000      -0.388101       -10.5608
 214   2.0000      -0.386666       -10.5217
 215   2.0000      -0.385591       -10.4925
 216   2.0000      -0.384942       -10.4748
 217   2.0000      -0.384424       -10.4607
 218   2.0000      -0.382350       -10.4043
 219   2.0000      -0.380516       -10.3544
 220   2.0000      -0.379429       -10.3248
 221   2.0000      -0.376783       -10.2528
 222   2.0000      -0.374889       -10.2012
 223   2.0000      -0.373793       -10.1714
 224   2.0000      -0.371173       -10.1001
 225   2.0000      -0.370151       -10.0723
 226   2.0000      -0.363771        -9.8987
 227   2.0000      -0.362061        -9.8522
 228   2.0000      -0.361409        -9.8344
 229   2.0000      -0.359928        -9.7941
 230   2.0000      -0.358361        -9.7515
 231   2.0000      -0.357811        -9.7365
 232   2.0000      -0.356805        -9.7092
 233   2.0000      -0.355457        -9.6725
 234   2.0000      -0.353560        -9.6209
 235   2.0000      -0.351081        -9.5534
 236   2.0000      -0.345735        -9.4079
 237   2.0000      -0.344331        -9.3697
 238   2.0000      -0.343937        -9.3590
 239   2.0000      -0.343067        -9.3353
 240   2.0000      -0.341724        -9.2988
 241   2.0000      -0.340701        -9.2710
 242   2.0000      -0.334784        -9.1099
 243   2.0000      -0.331860        -9.0304
 244   2.0000      -0.329233        -8.9589
 245   2.0000      -0.325011        -8.8440
 246   2.0000      -0.317539        -8.6407
 247   2.0000      -0.305052        -8.3009
 248   2.0000      -0.296669        -8.0728
 249   2.0000      -0.294115        -8.0033
 250   2.0000      -0.290427        -7.9029
 251   2.0000      -0.280141        -7.6230
 252   2.0000      -0.279215        -7.5978
 253   2.0000      -0.278041        -7.5659
 254   2.0000      -0.276298        -7.5184
 255   2.0000      -0.271834        -7.3970
 256   2.0000      -0.269773        -7.3409
 257   2.0000      -0.263611        -7.1732
 258   2.0000      -0.259019        -7.0483
 259   2.0000      -0.249721        -6.7953
 260   2.0000      -0.229805        -6.2533
 261   2.0000      -0.204132        -5.5547
 262   0.0000      -0.136473        -3.7136
 263   0.0000      -0.127702        -3.4749
 264   0.0000      -0.108030        -2.9397
 265   0.0000      -0.104887        -2.8541
 266   0.0000      -0.079781        -2.1709

MULLIKEN ATOMIC CHARGES
-----------------------
   0 C :    0.177313
   1 C :   -0.299803
   2 C :   -0.069999
   3 C :    0.456640
   4 C :   -0.180611
   5 C :    0.298962
   6 C :   -0.054756
   7 S :    0.002874
   8 C :   -0.382374
   9 C :   -0.164763
  10 C :    0.481514
  11 C :   -0.100756
  12 C :   -0.035609
  13 C :    0.306951
  14 C :   -0.363793
  15 S :    0.033817
  16 C :    0.179322
  17 C :   -0.247772
  18 C :   -0.221163
  19 C :   -0.364305
  20 C :   -0.171140
  21 C :   -0.378530
  22 C :   -0.211355
  23 C :   -0.387160
  24 C :   -0.173277
  25 C :   -0.379385
  26 C :   -0.227774
  27 C :   -0.052890
  28 C :    0.005547
  29 C :    0.121475
  30 C :   -0.010600
  31 C :    0.237331
  32 C :   -0.261152
  33 C :    0.259902
  34 C :    0.280413
  35 C :   -0.297427
  36 O :   -0.292794
  37 C :    0.139689
  38 C :   -0.210488
  39 C :   -0.180094
  40 F :   -0.173150
  41 F :   -0.175824
  42 N :    0.003238
  43 N :   -0.009713
  44 C :   -0.236343
  45 C :   -0.013887
  46 C :    0.030972
  47 C :    0.110539
  48 C :   -0.013713
  49 C :    0.209472
  50 C :   -0.258467
  51 C :    0.260314
  52 C :    0.275977
  53 C :   -0.284828
  54 O :   -0.289942
  55 C :    0.111785
  56 C :   -0.209247
  57 C :   -0.200130
  58 F :   -0.172968
  59 F :   -0.175213
  60 N :    0.006482
  61 N :    0.018573
  62 C :    0.034039
  63 S :    0.015725
  64 C :    0.176402
  65 C :   -0.181035
  66 C :   -0.041143
  67 S :   -0.046196
  68 C :   -0.216999
  69 C :   -0.160044
  70 C :   -0.331811
  71 H :    0.133330
  72 H :    0.140526
  73 H :    0.138563
  74 H :    0.129144
  75 H :    0.096167
  76 H :    0.095350
  77 H :    0.124351
  78 H :    0.114560
  79 H :    0.126315
  80 H :    0.106168
  81 H :    0.094957
  82 H :    0.123969
  83 H :    0.122457
  84 H :    0.110735
  85 H :    0.092893
  86 H :    0.092507
  87 H :    0.176777
  88 H :    0.108045
  89 H :    0.115285
  90 H :    0.093523
  91 H :    0.103998
  92 H :    0.112998
  93 H :    0.122697
  94 H :    0.123354
  95 H :    0.150946
  96 H :    0.167513
  97 H :    0.153078
  98 H :    0.146088
  99 H :    0.166576
 100 H :    0.153603
 101 H :    0.143957
 102 H :    0.113113
 103 H :    0.136284
 104 H :    0.104640
 105 H :    0.101413
 106 H :    0.110521
 107 H :    0.121172
 108 H :    0.107583
Sum of atomic charges:   -0.0000000

LOEWDIN ATOMIC CHARGES
----------------------
   0 C :   -0.335829
   1 C :   -0.119648
   2 C :   -0.090235
   3 C :   -0.169516
   4 C :   -0.025582
   5 C :   -0.083082
   6 C :   -0.295898
   7 S :    0.753300
   8 C :   -0.071890
   9 C :   -0.024923
  10 C :   -0.171747
  11 C :   -0.089803
  12 C :   -0.273288
  13 C :   -0.082532
  14 C :   -0.070523
  15 S :    0.798119
  16 C :   -0.329122
  17 C :   -0.085020
  18 C :   -0.224569
  19 C :   -0.296243
  20 C :   -0.222030
  21 C :   -0.303926
  22 C :   -0.222102
  23 C :   -0.296250
  24 C :   -0.221499
  25 C :   -0.304012
  26 C :   -0.057179
  27 C :   -0.090796
  28 C :    0.006302
  29 C :   -0.038858
  30 C :   -0.061391
  31 C :   -0.249539
  32 C :   -0.054904
  33 C :   -0.230532
  34 C :   -0.233022
  35 C :   -0.048666
  36 O :    0.129644
  37 C :   -0.145196
  38 C :   -0.153359
  39 C :   -0.159011
  40 F :    0.225800
  41 F :    0.224495
  42 N :    0.070690
  43 N :    0.077888
  44 C :   -0.057874
  45 C :   -0.087154
  46 C :    0.001510
  47 C :   -0.039406
  48 C :   -0.059383
  49 C :   -0.247841
  50 C :   -0.054448
  51 C :   -0.230395
  52 C :   -0.233393
  53 C :   -0.048848
  54 O :    0.132371
  55 C :   -0.148087
  56 C :   -0.151552
  57 C :   -0.165627
  58 F :    0.226156
  59 F :    0.224990
  60 N :    0.072951
  61 N :    0.080350
  62 C :   -0.339610
  63 S :    0.803787
  64 C :   -0.346102
  65 C :   -0.129443
  66 C :   -0.375993
  67 S :    0.611960
  68 C :   -0.434365
  69 C :   -0.322807
  70 C :   -0.307320
  71 H :    0.142919
  72 H :    0.152017
  73 H :    0.151131
  74 H :    0.153631
  75 H :    0.138212
  76 H :    0.140357
  77 H :    0.124660
  78 H :    0.120773
  79 H :    0.125061
  80 H :    0.146842
  81 H :    0.141380
  82 H :    0.121428
  83 H :    0.124616
  84 H :    0.117569
  85 H :    0.139933
  86 H :    0.137150
  87 H :    0.129436
  88 H :    0.120747
  89 H :    0.123328
  90 H :    0.141037
  91 H :    0.146041
  92 H :    0.118141
  93 H :    0.124643
  94 H :    0.121094
  95 H :    0.176411
  96 H :    0.169611
  97 H :    0.166987
  98 H :    0.175346
  99 H :    0.169199
 100 H :    0.166744
 101 H :    0.152087
 102 H :    0.124066
 103 H :    0.132971
 104 H :    0.136275
 105 H :    0.135029
 106 H :    0.120990
 107 H :    0.123337
 108 H :    0.119856

  Mayer bond orders larger than 0.100000
B(  0-C ,  1-C ) :   1.5005 B(  0-C ,  7-S ) :   1.1982 B(  0-C , 62-C ) :   1.0447
B(  1-C ,  2-C ) :   1.2555 B(  1-C ,  7-S ) :   0.1435 B(  1-C , 71-H ) :   0.9212
B(  2-C ,  3-C ) :   1.0327 B(  2-C ,  6-C ) :   1.3496 B(  3-C ,  4-C ) :   1.0873
B(  3-C , 18-C ) :   0.7871 B(  3-C , 20-C ) :   0.8198 B(  4-C ,  5-C ) :   1.2108
B(  4-C , 14-C ) :   1.4225 B(  5-C ,  6-C ) :   1.0435 B(  5-C ,  8-C ) :   1.3000
B(  6-C ,  7-S ) :   1.3613 B(  8-C ,  9-C ) :   1.4057 B(  8-C , 72-H ) :   0.9755
B(  9-C , 10-C ) :   1.0566 B(  9-C , 13-C ) :   1.2218 B( 10-C , 11-C ) :   0.9976
B( 10-C , 22-C ) :   0.7981 B( 10-C , 24-C ) :   0.8048 B( 11-C , 12-C ) :   1.3346
B( 11-C , 17-C ) :   1.3204 B( 12-C , 13-C ) :   1.0256 B( 12-C , 15-S ) :   1.3620
B( 13-C , 14-C ) :   1.2832 B( 14-C , 73-H ) :   0.9736 B( 15-S , 16-C ) :   1.1574
B( 15-S , 17-C ) :   0.1391 B( 16-C , 17-C ) :   1.4251 B( 16-C , 26-C ) :   1.1004
B( 17-C , 74-H ) :   0.9573 B( 18-C , 19-C ) :   0.9808 B( 18-C , 75-H ) :   0.9623
B( 18-C , 76-H ) :   0.9602 B( 19-C , 77-H ) :   0.9722 B( 19-C , 78-H ) :   0.9764
B( 19-C , 79-H ) :   0.9727 B( 20-C , 21-C ) :   0.9557 B( 20-C , 80-H ) :   0.9662
B( 20-C , 81-H ) :   0.9616 B( 21-C , 82-H ) :   0.9755 B( 21-C , 83-H ) :   0.9748
B( 21-C , 84-H ) :   0.9740 B( 22-C , 23-C ) :   0.9760 B( 22-C , 85-H ) :   0.9582
B( 22-C , 86-H ) :   0.9591 B( 23-C , 87-H ) :   0.9650 B( 23-C , 88-H ) :   0.9738
B( 23-C , 89-H ) :   0.9697 B( 24-C , 25-C ) :   0.9561 B( 24-C , 90-H ) :   0.9618
B( 24-C , 91-H ) :   0.9665 B( 25-C , 92-H ) :   0.9744 B( 25-C , 93-H ) :   0.9743
B( 25-C , 94-H ) :   0.9760 B( 26-C , 27-C ) :   1.4960 B( 26-C , 36-O ) :   0.1067
B( 26-C , 95-H ) :   0.9462 B( 27-C , 28-C ) :   1.1764 B( 27-C , 31-C ) :   1.0044
B( 27-C , 36-O ) :  -0.1327 B( 28-C , 29-C ) :   1.0420 B( 28-C , 37-C ) :   1.4314
B( 29-C , 30-C ) :   1.3353 B( 29-C , 32-C ) :   1.3047 B( 30-C , 31-C ) :   0.9591
B( 30-C , 35-C ) :   1.3033 B( 30-C , 36-O ) :  -0.1440 B( 31-C , 36-O ) :   2.1606
B( 32-C , 33-C ) :   1.4002 B( 32-C , 96-H ) :   0.9323 B( 33-C , 34-C ) :   1.3261
B( 33-C , 40-F ) :   1.0800 B( 34-C , 35-C ) :   1.3665 B( 34-C , 41-F ) :   1.0658
B( 35-C , 97-H ) :   0.9778 B( 37-C , 38-C ) :   1.0407 B( 37-C , 39-C ) :   1.0261
B( 38-C , 42-N ) :   2.9793 B( 39-C , 43-N ) :   2.9277 B( 44-C , 45-C ) :   1.5250
B( 44-C , 64-C ) :   1.1029 B( 44-C , 98-H ) :   0.9442 B( 45-C , 46-C ) :   1.1361
B( 45-C , 49-C ) :   1.0021 B( 45-C , 54-O ) :  -0.1181 B( 46-C , 47-C ) :   1.0316
B( 46-C , 55-C ) :   1.4265 B( 47-C , 48-C ) :   1.3233 B( 47-C , 50-C ) :   1.3038
B( 48-C , 49-C ) :   0.9454 B( 48-C , 53-C ) :   1.3111 B( 48-C , 54-O ) :  -0.1398
B( 49-C , 54-O ) :   2.1634 B( 50-C , 51-C ) :   1.4005 B( 50-C , 99-H ) :   0.9347
B( 51-C , 52-C ) :   1.3279 B( 51-C , 58-F ) :   1.0765 B( 52-C , 53-C ) :   1.3654
B( 52-C , 59-F ) :   1.0674 B( 53-C ,100-H ) :   0.9754 B( 55-C , 56-C ) :   1.0459
B( 55-C , 57-C ) :   1.0312 B( 56-C , 60-N ) :   2.9832 B( 57-C , 61-N ) :   3.0065
B( 62-C , 63-S ) :   1.2764 B( 62-C , 66-C ) :   1.3293 B( 63-S , 64-C ) :   1.1801
B( 64-C , 65-C ) :   1.3781 B( 65-C , 66-C ) :   1.2572 B( 65-C ,101-H ) :   0.9531
B( 66-C , 67-S ) :   1.2100 B( 67-S , 68-C ) :   1.0500 B( 68-C , 69-C ) :   0.9833
B( 68-C ,102-H ) :   0.9459 B( 68-C ,103-H ) :   0.9442 B( 69-C , 70-C ) :   0.9630
B( 69-C ,104-H ) :   0.9629 B( 69-C ,105-H ) :   0.9676 B( 70-C ,106-H ) :   0.9734
B( 70-C ,107-H ) :   0.9761 B( 70-C ,108-H ) :   0.9729

-----------------------------------------------------------------------------
  SOC CORRECTED ABSORPTION SPECTRUM VIA TRANSITION ELECTRIC DIPOLE MOMENTS*
-----------------------------------------------------------------------------
State   Energy  Wavelength   fosc         T2         TX        TY        TZ
        (cm-1)    (nm)                  (au**2)     (au)      (au)      (au)
-----------------------------------------------------------------------------
   1    9097.5   1099.2   0.000000005   0.00000   0.00029   0.00030   0.00009
   2    9097.5   1099.2   0.000000000   0.00000   0.00004   0.00010   0.00000
   3    9097.5   1099.2   0.000000003   0.00000   0.00027   0.00021   0.00010
   4   11130.2    898.5   0.000000062   0.00000   0.00019   0.00133   0.00014
   5   11130.2    898.5   0.000000003   0.00000   0.00007   0.00030   0.00002
   6   11130.2    898.5   0.000000017   0.00000   0.00003   0.00070   0.00007
   7   13416.4    745.4   1.605614618  39.39871   0.98643   6.16651   0.63230
   8   15317.7    652.8   0.031500719   0.67702   0.54663   0.46912   0.39767
   9   15648.1    639.1   0.000000000   0.00000   0.00006   0.00008   0.00004
  10   15648.1    639.1   0.000000082   0.00000   0.00047   0.00123   0.00002
  11   15648.1    639.1   0.000000151   0.00000   0.00068   0.00152   0.00063
  12   18201.6    549.4   0.211639735   3.82791   0.10362   1.93182   0.29195

FINAL SINGLE POINT ENERGY     -4555.631570087256

DIPOLE MOMENT
-------------
                                X             Y             Z
Electronic contribution:     38.00301      18.50025      34.02980
Nuclear contribution   :    -39.21646     -19.43264     -34.96807
                        -----------------------------------------
Total Dipole Moment    :     -1.21345      -0.93238      -0.93828
                        -----------------------------------------
Magnitude (a.u.)       :      1.79504
Magnitude (Debye)      :      4.56263

Rotational constants in cm-1:     0.001643     0.000288     0.000256
Rotational constants in MHz :    49.256467     8.630308     7.681499

                             ****ORCA TERMINATED NORMALLY****
TOTAL RUN TIME: 0 days 2 hours 58 minutes 44 seconds 439 msec
