                         Program Version 4.2.0 -  RELEASE  -
|  1> # ORCA input file
|  2> # IDTCF.out
|  3> ! B3LYP def2-TZVP def2/J RIJCOSX Grid4 TightSCF
|  4>
|  5> %maxcore 2000
|  6> %tddft
|  7>   maxdim 5
|  8>   nroots 3
|  9>   dosoc true
| 10>   end
| 11>
| 12>
| 13>
| 14> * xyz 0 1
| 15>    C        2.71923         1.14877        -0.08754
| 16>    C        2.83688        -0.25690        -0.20035
| 17>    C        1.70485        -1.03952        -0.19162
| 18>    C        0.47277        -0.39111        -0.13449
| 19>    C        0.35719         1.01954        -0.07735
| 20>    C        1.48848         1.79859        -0.02208
| 21>    C       -0.85233        -0.91999        -0.07908
| 22>    C       -1.78665         0.10687         0.01016
| 23>    C       -1.09804         1.44606        -0.03681
| 24>    C        4.04276         1.67603        -0.03931
| 25>    C        4.98741         0.65686        -0.11920
| 26>    C        4.29767        -0.68000        -0.25107
| 27>    S       -1.57474        -2.46992        -0.07184
| 28>    C       -3.16751        -1.74028         0.04754
| 29>    C       -3.09228        -0.35039         0.07676
| 30>    S        4.74171         3.23096         0.06699
| 31>    C        6.34518         2.52323        -0.01367
| 32>    C        6.28915         1.13603        -0.11892
| 33>    C       -1.41522         2.30570         1.19612
| 34>    C       -1.53504         2.14093        -1.34845
| 35>    C       -0.81825         3.44253        -1.68000
| 36>    C       -1.11921         1.58162         2.50456
| 37>    C        4.68473        -1.27455        -1.62265
| 38>    C        4.58583        -1.61459         0.93990
| 39>    C        4.02301        -2.59789        -1.98245
| 40>    C        6.02741        -2.09110         1.05688
| 41>    C        7.45338         3.39482         0.02678
| 42>    C       -4.29443        -2.58748         0.09642
| 43>    C        8.76270         3.01923        -0.01009
| 44>    C        9.85236         3.91385         0.02444
| 45>    C       11.28537         3.42528         0.00727
| 46>    O       12.07344         4.62101         0.05169
| 47>    C       11.27334         5.69659         0.09145
| 48>    C        9.88866         5.29105         0.07600
| 49>    C       11.62554         2.67681        -1.28407
| 50>    C       11.62017         2.58592         1.24308
| 51>    C        8.80711         6.18142         0.10460
| 52>    C       11.78891         6.96475         0.13815
| 53>    C       10.99236         8.12291         0.18081
| 54>    C       13.18323         7.17152         0.14549
| 55>    N       10.39537         9.10194         0.21674
| 56>    N       14.31703         7.34436         0.15227
| 57>    N        7.89854         6.88269         0.12330
| 58>    C       -5.58700        -2.16234         0.17381
| 59>    C       -6.71573        -3.00547         0.22155
| 60>    C       -8.12098        -2.44549         0.28963
| 61>    O       -8.96670        -3.60126         0.32471
| 62>    C       -8.22226        -4.71610         0.28347
| 63>    C       -6.82047        -4.37993         0.21883
| 64>    C       -5.78270        -5.31978         0.16684
| 65>    C       -8.80090        -5.95743         0.30486
| 66>    C       -8.06425        -7.15459         0.26369
| 67>    C      -10.20245        -6.09273         0.37126
| 68>    C       -8.47556        -1.63075        -0.95720
| 69>    C       -8.35981        -1.63888         1.56865
| 70>    N      -11.34248        -6.20614         0.42579
| 71>    N       -7.51660        -8.16225         0.23188
| 72>    N       -4.90615        -6.05978         0.12327
| 73>    H        1.74185        -2.11723        -0.21130
| 74>    H        1.45137         2.87104         0.08662
| 75>    H       -3.95883         0.28077         0.15078
| 76>    H        7.17228         0.52974        -0.20243
| 77>    H       -2.47018         2.58589         1.16461
| 78>    H       -0.82179         3.21913         1.15426
| 79>    H       -2.60829         2.33153        -1.27609
| 80>    H       -1.37928         1.43608        -2.16941
| 81>    H       -0.93375         4.17456        -0.88553
| 82>    H       -1.24387         3.86310        -2.58833
| 83>    H        0.24023         3.27065        -1.85341
| 84>    H       -1.72479         0.68280         2.59711
| 85>    H       -1.33931         2.23109         3.34821
| 86>    H       -0.07105         1.29501         2.55553
| 87>    H        5.76890        -1.39760        -1.63950
| 88>    H        4.43012        -0.53422        -2.38594
| 89>    H        3.92652        -2.47995         0.86435
| 90>    H        4.31396        -1.07762         1.85262
| 91>    H        4.21715        -3.35831        -1.23119
| 92>    H        4.42261        -2.95155        -2.93041
| 93>    H        2.94948        -2.47876        -2.09618
| 94>    H        6.33130        -2.65618         0.18001
| 95>    H        6.12248        -2.73978         1.92485
| 96>    H        6.70499        -1.25235         1.18925
| 97>    H        7.21563         4.44692         0.09331
| 98>    H       -4.09057        -3.64821         0.06554
| 99>    H        9.00971         1.96848        -0.06800
|100>    H       11.38004         3.29052        -2.14839
|101>    H       11.06964         1.74579        -1.34140
|102>    H       12.69029         2.46055        -1.30181
|103>    H       11.37624         3.13858         2.14811
|104>    H       12.68374         2.36337         1.24717
|105>    H       11.05893         1.65634         1.23409
|106>    H       -5.78857        -1.10072         0.19991
|107>    H       -8.30707        -2.22499        -1.85300
|108>    H       -7.86776        -0.73237        -1.00937
|109>    H       -9.52511        -1.35231        -0.91642
|110>    H       -8.09987        -2.23454         2.44132
|111>    H       -9.41090        -1.37033         1.63086
|112>    H       -7.75851        -0.73466         1.56540
|113> *
|114>
|115>                          ****END OF INPUT****

CARTESIAN COORDINATES (ANGSTROEM)
---------------------------------
  C      2.719230    1.148770   -0.087540
  C      2.836880   -0.256900   -0.200350
  C      1.704850   -1.039520   -0.191620
  C      0.472770   -0.391110   -0.134490
  C      0.357190    1.019540   -0.077350
  C      1.488480    1.798590   -0.022080
  C     -0.852330   -0.919990   -0.079080
  C     -1.786650    0.106870    0.010160
  C     -1.098040    1.446060   -0.036810
  C      4.042760    1.676030   -0.039310
  C      4.987410    0.656860   -0.119200
  C      4.297670   -0.680000   -0.251070
  S     -1.574740   -2.469920   -0.071840
  C     -3.167510   -1.740280    0.047540
  C     -3.092280   -0.350390    0.076760
  S      4.741710    3.230960    0.066990
  C      6.345180    2.523230   -0.013670
  C      6.289150    1.136030   -0.118920
  C     -1.415220    2.305700    1.196120
  C     -1.535040    2.140930   -1.348450
  C     -0.818250    3.442530   -1.680000
  C     -1.119210    1.581620    2.504560
  C      4.684730   -1.274550   -1.622650
  C      4.585830   -1.614590    0.939900
  C      4.023010   -2.597890   -1.982450
  C      6.027410   -2.091100    1.056880
  C      7.453380    3.394820    0.026780
  C     -4.294430   -2.587480    0.096420
  C      8.762700    3.019230   -0.010090
  C      9.852360    3.913850    0.024440
  C     11.285370    3.425280    0.007270
  O     12.073440    4.621010    0.051690
  C     11.273340    5.696590    0.091450
  C      9.888660    5.291050    0.076000
  C     11.625540    2.676810   -1.284070
  C     11.620170    2.585920    1.243080
  C      8.807110    6.181420    0.104600
  C     11.788910    6.964750    0.138150
  C     10.992360    8.122910    0.180810
  C     13.183230    7.171520    0.145490
  N     10.395370    9.101940    0.216740
  N     14.317030    7.344360    0.152270
  N      7.898540    6.882690    0.123300
  C     -5.587000   -2.162340    0.173810
  C     -6.715730   -3.005470    0.221550
  C     -8.120980   -2.445490    0.289630
  O     -8.966700   -3.601260    0.324710
  C     -8.222260   -4.716100    0.283470
  C     -6.820470   -4.379930    0.218830
  C     -5.782700   -5.319780    0.166840
  C     -8.800900   -5.957430    0.304860
  C     -8.064250   -7.154590    0.263690
  C    -10.202450   -6.092730    0.371260
  C     -8.475560   -1.630750   -0.957200
  C     -8.359810   -1.638880    1.568650
  N    -11.342480   -6.206140    0.425790
  N     -7.516600   -8.162250    0.231880
  N     -4.906150   -6.059780    0.123270
  H      1.741850   -2.117230   -0.211300
  H      1.451370    2.871040    0.086620
  H     -3.958830    0.280770    0.150780
  H      7.172280    0.529740   -0.202430
  H     -2.470180    2.585890    1.164610
  H     -0.821790    3.219130    1.154260
  H     -2.608290    2.331530   -1.276090
  H     -1.379280    1.436080   -2.169410
  H     -0.933750    4.174560   -0.885530
  H     -1.243870    3.863100   -2.588330
  H      0.240230    3.270650   -1.853410
  H     -1.724790    0.682800    2.597110
  H     -1.339310    2.231090    3.348210
  H     -0.071050    1.295010    2.555530
  H      5.768900   -1.397600   -1.639500
  H      4.430120   -0.534220   -2.385940
  H      3.926520   -2.479950    0.864350
  H      4.313960   -1.077620    1.852620
  H      4.217150   -3.358310   -1.231190
  H      4.422610   -2.951550   -2.930410
  H      2.949480   -2.478760   -2.096180
  H      6.331300   -2.656180    0.180010
  H      6.122480   -2.739780    1.924850
  H      6.704990   -1.252350    1.189250
  H      7.215630    4.446920    0.093310
  H     -4.090570   -3.648210    0.065540
  H      9.009710    1.968480   -0.068000
  H     11.380040    3.290520   -2.148390
  H     11.069640    1.745790   -1.341400
  H     12.690290    2.460550   -1.301810
  H     11.376240    3.138580    2.148110
  H     12.683740    2.363370    1.247170
  H     11.058930    1.656340    1.234090
  H     -5.788570   -1.100720    0.199910
  H     -8.307070   -2.224990   -1.853000
  H     -7.867760   -0.732370   -1.009370
  H     -9.525110   -1.352310   -0.916420
  H     -8.099870   -2.234540    2.441320
  H     -9.410900   -1.370330    1.630860
  H     -7.758510   -0.734660    1.565400

 Total Charge           Charge          ....    0
 Multiplicity           Mult            ....    1
 Number of Electrons    NEL             ....  418
 Basis Dimension        Dim             .... 2050

ORBITAL ENERGIES
----------------

  NO   OCC          E(Eh)            E(eV)
   0   2.0000     -88.926183     -2419.8045
   1   2.0000     -88.925805     -2419.7942
   2   2.0000     -19.208475      -522.6892
   3   2.0000     -19.208460      -522.6888
   4   2.0000     -14.332032      -389.9944
   5   2.0000     -14.331991      -389.9933
   6   2.0000     -14.307924      -389.3384
   7   2.0000     -14.307807      -389.3352
   8   2.0000     -14.307070      -389.3152
   9   2.0000     -14.306902      -389.3106
  10   2.0000     -10.300553      -280.2923
  11   2.0000     -10.300447      -280.2894
  12   2.0000     -10.286993      -279.9233
  13   2.0000     -10.286971      -279.9227
  14   2.0000     -10.249938      -278.9150
  15   2.0000     -10.249800      -278.9112
  16   2.0000     -10.248724      -278.8819
  17   2.0000     -10.248178      -278.8671
  18   2.0000     -10.245441      -278.7926
  19   2.0000     -10.245292      -278.7886
  20   2.0000     -10.243044      -278.7274
  21   2.0000     -10.242864      -278.7225
  22   2.0000     -10.238113      -278.5932
  23   2.0000     -10.237984      -278.5897
  24   2.0000     -10.235175      -278.5133
  25   2.0000     -10.234884      -278.5054
  26   2.0000     -10.230100      -278.3752
  27   2.0000     -10.228108      -278.3210
  28   2.0000     -10.228033      -278.3189
  29   2.0000     -10.227990      -278.3177
  30   2.0000     -10.226790      -278.2851
  31   2.0000     -10.226285      -278.2714
  32   2.0000     -10.223521      -278.1962
  33   2.0000     -10.222783      -278.1761
  34   2.0000     -10.220800      -278.1221
  35   2.0000     -10.220800      -278.1221
  36   2.0000     -10.220355      -278.1100
  37   2.0000     -10.219819      -278.0954
  38   2.0000     -10.218420      -278.0574
  39   2.0000     -10.216891      -278.0157
  40   2.0000     -10.215593      -277.9804
  41   2.0000     -10.215139      -277.9681
  42   2.0000     -10.207463      -277.7592
  43   2.0000     -10.207355      -277.7562
  44   2.0000     -10.206582      -277.7352
  45   2.0000     -10.206447      -277.7315
  46   2.0000     -10.203056      -277.6393
  47   2.0000     -10.202818      -277.6328
  48   2.0000     -10.202725      -277.6303
  49   2.0000     -10.201636      -277.6006
  50   2.0000     -10.201268      -277.5906
  51   2.0000     -10.201263      -277.5905
  52   2.0000     -10.201165      -277.5878
  53   2.0000     -10.201091      -277.5858
  54   2.0000     -10.187952      -277.2283
  55   2.0000     -10.185638      -277.1653
  56   2.0000     -10.183927      -277.1187
  57   2.0000     -10.181138      -277.0429
  58   2.0000      -8.002267      -217.7528
  59   2.0000      -8.002017      -217.7460
  60   2.0000      -5.964550      -162.3037
  61   2.0000      -5.964280      -162.2963
  62   2.0000      -5.960922      -162.2049
  63   2.0000      -5.960675      -162.1982
  64   2.0000      -5.959218      -162.1586
  65   2.0000      -5.958958      -162.1515
  66   2.0000      -1.138603       -30.9830
  67   2.0000      -1.138542       -30.9813
  68   2.0000      -0.956596       -26.0303
  69   2.0000      -0.947302       -25.7774
  70   2.0000      -0.935685       -25.4613
  71   2.0000      -0.935469       -25.4554
  72   2.0000      -0.918594       -24.9962
  73   2.0000      -0.918501       -24.9937
  74   2.0000      -0.910822       -24.7847
  75   2.0000      -0.902978       -24.5713
  76   2.0000      -0.902871       -24.5684
  77   2.0000      -0.895435       -24.3660
  78   2.0000      -0.888364       -24.1736
  79   2.0000      -0.882584       -24.0163
  80   2.0000      -0.863773       -23.5045
  81   2.0000      -0.863725       -23.5032
  82   2.0000      -0.855633       -23.2829
  83   2.0000      -0.842614       -22.9287
  84   2.0000      -0.833611       -22.6837
  85   2.0000      -0.815820       -22.1996
  86   2.0000      -0.806615       -21.9491
  87   2.0000      -0.805266       -21.9124
  88   2.0000      -0.791426       -21.5358
  89   2.0000      -0.788004       -21.4427
  90   2.0000      -0.786656       -21.4060
  91   2.0000      -0.785124       -21.3643
  92   2.0000      -0.782936       -21.3048
  93   2.0000      -0.776962       -21.1422
  94   2.0000      -0.744206       -20.2509
  95   2.0000      -0.737052       -20.0562
  96   2.0000      -0.737031       -20.0556
  97   2.0000      -0.733584       -19.9618
  98   2.0000      -0.715853       -19.4794
  99   2.0000      -0.710006       -19.3202
 100   2.0000      -0.697622       -18.9833
 101   2.0000      -0.687797       -18.7159
 102   2.0000      -0.683086       -18.5877
 103   2.0000      -0.675010       -18.3680
 104   2.0000      -0.662292       -18.0219
 105   2.0000      -0.657767       -17.8987
 106   2.0000      -0.650973       -17.7139
 107   2.0000      -0.645804       -17.5732
 108   2.0000      -0.632734       -17.2176
 109   2.0000      -0.626140       -17.0381
 110   2.0000      -0.623252       -16.9595
 111   2.0000      -0.609667       -16.5899
 112   2.0000      -0.598102       -16.2752
 113   2.0000      -0.592672       -16.1274
 114   2.0000      -0.588032       -16.0012
 115   2.0000      -0.582768       -15.8579
 116   2.0000      -0.579874       -15.7792
 117   2.0000      -0.574304       -15.6276
 118   2.0000      -0.574084       -15.6216
 119   2.0000      -0.560125       -15.2418
 120   2.0000      -0.554703       -15.0942
 121   2.0000      -0.547372       -14.8947
 122   2.0000      -0.539913       -14.6918
 123   2.0000      -0.535782       -14.5794
 124   2.0000      -0.517818       -14.0905
 125   2.0000      -0.514608       -14.0032
 126   2.0000      -0.514563       -14.0020
 127   2.0000      -0.508982       -13.8501
 128   2.0000      -0.506426       -13.7805
 129   2.0000      -0.499740       -13.5986
 130   2.0000      -0.498688       -13.5700
 131   2.0000      -0.495301       -13.4778
 132   2.0000      -0.490937       -13.3591
 133   2.0000      -0.488580       -13.2949
 134   2.0000      -0.486306       -13.2330
 135   2.0000      -0.482640       -13.1333
 136   2.0000      -0.480463       -13.0741
 137   2.0000      -0.479171       -13.0389
 138   2.0000      -0.471656       -12.8344
 139   2.0000      -0.461874       -12.5682
 140   2.0000      -0.456416       -12.4197
 141   2.0000      -0.451183       -12.2773
 142   2.0000      -0.446557       -12.1514
 143   2.0000      -0.444664       -12.0999
 144   2.0000      -0.443445       -12.0668
 145   2.0000      -0.442673       -12.0457
 146   2.0000      -0.442057       -12.0290
 147   2.0000      -0.440518       -11.9871
 148   2.0000      -0.438800       -11.9404
 149   2.0000      -0.436589       -11.8802
 150   2.0000      -0.436326       -11.8730
 151   2.0000      -0.434717       -11.8293
 152   2.0000      -0.434201       -11.8152
 153   2.0000      -0.430089       -11.7033
 154   2.0000      -0.425707       -11.5841
 155   2.0000      -0.421543       -11.4708
 156   2.0000      -0.418940       -11.3999
 157   2.0000      -0.417390       -11.3578
 158   2.0000      -0.415473       -11.3056
 159   2.0000      -0.413384       -11.2487
 160   2.0000      -0.407627       -11.0921
 161   2.0000      -0.405337       -11.0298
 162   2.0000      -0.403727       -10.9860
 163   2.0000      -0.402980       -10.9657
 164   2.0000      -0.402790       -10.9605
 165   2.0000      -0.400826       -10.9070
 166   2.0000      -0.400723       -10.9042
 167   2.0000      -0.397534       -10.8175
 168   2.0000      -0.395444       -10.7606
 169   2.0000      -0.393486       -10.7073
 170   2.0000      -0.392183       -10.6719
 171   2.0000      -0.391874       -10.6634
 172   2.0000      -0.388035       -10.5590
 173   2.0000      -0.383708       -10.4412
 174   2.0000      -0.381346       -10.3770
 175   2.0000      -0.381203       -10.3731
 176   2.0000      -0.379191       -10.3183
 177   2.0000      -0.375522       -10.2185
 178   2.0000      -0.372958       -10.1487
 179   2.0000      -0.369422       -10.0525
 180   2.0000      -0.366630        -9.9765
 181   2.0000      -0.366461        -9.9719
 182   2.0000      -0.366348        -9.9688
 183   2.0000      -0.360692        -9.8149
 184   2.0000      -0.360591        -9.8122
 185   2.0000      -0.360473        -9.8090
 186   2.0000      -0.360229        -9.8023
 187   2.0000      -0.359804        -9.7908
 188   2.0000      -0.358622        -9.7586
 189   2.0000      -0.357646        -9.7321
 190   2.0000      -0.354716        -9.6523
 191   2.0000      -0.351968        -9.5775
 192   2.0000      -0.345259        -9.3950
 193   2.0000      -0.343286        -9.3413
 194   2.0000      -0.343144        -9.3374
 195   2.0000      -0.340014        -9.2523
 196   2.0000      -0.339886        -9.2488
 197   2.0000      -0.336507        -9.1568
 198   2.0000      -0.326382        -8.8813
 199   2.0000      -0.326094        -8.8735
 200   2.0000      -0.315860        -8.5950
 201   2.0000      -0.298754        -8.1295
 202   2.0000      -0.296844        -8.0775
 203   2.0000      -0.295776        -8.0485
 204   2.0000      -0.289430        -7.8758
 205   2.0000      -0.268893        -7.3169
 206   2.0000      -0.253405        -6.8955
 207   2.0000      -0.237294        -6.4571
 208   2.0000      -0.219096        -5.9619
 209   0.0000      -0.143674        -3.9096
 210   0.0000      -0.126843        -3.4516
 211   0.0000      -0.079148        -2.1537
 212   0.0000      -0.057771        -1.5720
 213   0.0000      -0.055445        -1.5087

MULLIKEN ATOMIC CHARGES
-----------------------
   0 C :    0.318246
   1 C :   -0.042293
   2 C :   -0.352014
   3 C :    0.321468
   4 C :   -0.163183
   5 C :   -0.420240
   6 C :   -0.111586
   7 C :   -0.044523
   8 C :    0.450714
   9 C :   -0.116290
  10 C :   -0.011408
  11 C :    0.341759
  12 S :    0.052322
  13 C :    0.178408
  14 C :   -0.314930
  15 S :    0.050177
  16 C :    0.152119
  17 C :   -0.283171
  18 C :   -0.221592
  19 C :   -0.159194
  20 C :   -0.371120
  21 C :   -0.357415
  22 C :   -0.214099
  23 C :   -0.212188
  24 C :   -0.370623
  25 C :   -0.368592
  26 C :   -0.207462
  27 C :   -0.219300
  28 C :   -0.225992
  29 C :    0.115963
  30 C :    0.233060
  31 O :   -0.260329
  32 C :    0.149728
  33 C :    0.037108
  34 C :   -0.330578
  35 C :   -0.331364
  36 C :   -0.254463
  37 C :    0.123551
  38 C :   -0.244477
  39 C :   -0.284011
  40 N :    0.054635
  41 N :    0.047546
  42 N :    0.082923
  43 C :   -0.224856
  44 C :    0.113257
  45 C :    0.240922
  46 O :   -0.261333
  47 C :    0.148045
  48 C :    0.037630
  49 C :   -0.251391
  50 C :    0.126349
  51 C :   -0.241541
  52 C :   -0.286133
  53 C :   -0.331815
  54 C :   -0.331759
  55 N :    0.045832
  56 N :    0.054328
  57 N :    0.081966
  58 H :    0.146306
  59 H :    0.142428
  60 H :    0.116165
  61 H :    0.136080
  62 H :    0.092207
  63 H :    0.100179
  64 H :    0.090242
  65 H :    0.103670
  66 H :    0.113258
  67 H :    0.121790
  68 H :    0.123948
  69 H :    0.122730
  70 H :    0.117882
  71 H :    0.122569
  72 H :    0.104803
  73 H :    0.106511
  74 H :    0.107012
  75 H :    0.107070
  76 H :    0.112966
  77 H :    0.122556
  78 H :    0.122464
  79 H :    0.116268
  80 H :    0.124819
  81 H :    0.106145
  82 H :    0.171651
  83 H :    0.172905
  84 H :    0.116688
  85 H :    0.130508
  86 H :    0.106805
  87 H :    0.138714
  88 H :    0.130509
  89 H :    0.138326
  90 H :    0.107746
  91 H :    0.116548
  92 H :    0.130718
  93 H :    0.107383
  94 H :    0.138341
  95 H :    0.130555
  96 H :    0.138871
  97 H :    0.106875
Sum of atomic charges:    0.0000000

LOEWDIN ATOMIC CHARGES
----------------------
   0 C :   -0.087310
   1 C :   -0.024533
   2 C :   -0.066120
   3 C :   -0.086065
   4 C :   -0.028735
   5 C :   -0.066613
   6 C :   -0.288468
   7 C :   -0.093724
   8 C :   -0.180492
   9 C :   -0.289023
  10 C :   -0.086100
  11 C :   -0.176532
  12 S :    0.800234
  13 C :   -0.337161
  14 C :   -0.099063
  15 S :    0.802729
  16 C :   -0.337710
  17 C :   -0.104253
  18 C :   -0.219182
  19 C :   -0.216089
  20 C :   -0.295326
  21 C :   -0.288645
  22 C :   -0.219180
  23 C :   -0.219594
  24 C :   -0.293906
  25 C :   -0.293152
  26 C :   -0.104214
  27 C :   -0.102890
  28 C :   -0.117238
  29 C :   -0.037290
  30 C :   -0.309122
  31 O :    0.360952
  32 C :   -0.138945
  33 C :   -0.096768
  34 C :   -0.227230
  35 C :   -0.227117
  36 C :   -0.170795
  37 C :   -0.161536
  38 C :   -0.171453
  39 C :   -0.162781
  40 N :    0.090466
  41 N :    0.077505
  42 N :    0.101211
  43 C :   -0.116628
  44 C :   -0.037726
  45 C :   -0.309079
  46 O :    0.361041
  47 C :   -0.138778
  48 C :   -0.096451
  49 C :   -0.169843
  50 C :   -0.161465
  51 C :   -0.171295
  52 C :   -0.162691
  53 C :   -0.227168
  54 C :   -0.227261
  55 N :    0.077598
  56 N :    0.090508
  57 N :    0.101143
  58 H :    0.150516
  59 H :    0.151785
  60 H :    0.146241
  61 H :    0.144898
  62 H :    0.139296
  63 H :    0.138652
  64 H :    0.139496
  65 H :    0.146175
  66 H :    0.117489
  67 H :    0.123049
  68 H :    0.120788
  69 H :    0.122514
  70 H :    0.119802
  71 H :    0.123459
  72 H :    0.139169
  73 H :    0.147205
  74 H :    0.139217
  75 H :    0.147045
  76 H :    0.118268
  77 H :    0.123533
  78 H :    0.120097
  79 H :    0.118571
  80 H :    0.123785
  81 H :    0.117467
  82 H :    0.167482
  83 H :    0.166904
  84 H :    0.150478
  85 H :    0.132206
  86 H :    0.125784
  87 H :    0.133271
  88 H :    0.132260
  89 H :    0.133106
  90 H :    0.126031
  91 H :    0.150761
  92 H :    0.132282
  93 H :    0.125907
  94 H :    0.133087
  95 H :    0.132224
  96 H :    0.133267
  97 H :    0.125782

  Mayer bond orders larger than 0.100000
B(  0-C ,  1-C ) :   1.2313 B(  0-C ,  5-C ) :   1.2764 B(  0-C ,  9-C ) :   1.0385
B(  1-C ,  2-C ) :   1.4282 B(  1-C , 11-C ) :   1.1033 B(  1-C , 22-C ) :   0.1062
B(  2-C ,  3-C ) :   1.3216 B(  2-C , 58-H ) :   0.9582 B(  3-C ,  4-C ) :   1.2117
B(  3-C ,  6-C ) :   1.0177 B(  4-C ,  5-C ) :   1.4166 B(  4-C ,  8-C ) :   1.0947
B(  5-C , 59-H ) :   0.9823 B(  6-C ,  7-C ) :   1.3242 B(  6-C , 12-S ) :   1.4088
B(  7-C ,  8-C ) :   1.0116 B(  7-C , 14-C ) :   1.3295 B(  8-C , 18-C ) :   0.7879
B(  8-C , 19-C ) :   0.8136 B(  9-C , 10-C ) :   1.3317 B(  9-C , 15-S ) :   1.4117
B( 10-C , 11-C ) :   1.0811 B( 10-C , 17-C ) :   1.3306 B( 10-C , 23-C ) :   0.1071
B( 11-C , 22-C ) :   0.8126 B( 11-C , 23-C ) :   0.8149 B( 12-S , 13-C ) :   1.2165
B( 12-S , 14-C ) :   0.1392 B( 13-C , 14-C ) :   1.3873 B( 13-C , 27-C ) :   1.2368
B( 14-C , 60-H ) :   0.9528 B( 15-S , 16-C ) :   1.2165 B( 15-S , 17-C ) :   0.1365
B( 16-C , 17-C ) :   1.4208 B( 16-C , 26-C ) :   1.2425 B( 17-C , 61-H ) :   0.9222
B( 18-C , 21-C ) :   0.9783 B( 18-C , 62-H ) :   0.9601 B( 18-C , 63-H ) :   0.9623
B( 19-C , 20-C ) :   0.9534 B( 19-C , 64-H ) :   0.9613 B( 19-C , 65-H ) :   0.9665
B( 20-C , 66-H ) :   0.9756 B( 20-C , 67-H ) :   0.9760 B( 20-C , 68-H ) :   0.9766
B( 21-C , 69-H ) :   0.9732 B( 21-C , 70-H ) :   0.9788 B( 21-C , 71-H ) :   0.9729
B( 22-C , 24-C ) :   0.9512 B( 22-C , 72-H ) :   0.9706 B( 22-C , 73-H ) :   0.9650
B( 23-C , 25-C ) :   0.9536 B( 23-C , 74-H ) :   0.9661 B( 23-C , 75-H ) :   0.9678
B( 24-C , 76-H ) :   0.9746 B( 24-C , 77-H ) :   0.9775 B( 24-C , 78-H ) :   0.9774
B( 25-C , 79-H ) :   0.9734 B( 25-C , 80-H ) :   0.9801 B( 25-C , 81-H ) :   0.9766
B( 26-C , 28-C ) :   1.6986 B( 26-C , 82-H ) :   0.8742 B( 27-C , 43-C ) :   1.7015
B( 27-C , 83-H ) :   0.8756 B( 28-C , 29-C ) :   1.1503 B( 28-C , 84-H ) :   0.9387
B( 29-C , 30-C ) :   0.9902 B( 29-C , 33-C ) :   1.4343 B( 30-C , 31-O ) :   0.7942
B( 30-C , 34-C ) :   0.9468 B( 30-C , 35-C ) :   0.9477 B( 31-O , 32-C ) :   1.2897
B( 32-C , 33-C ) :   1.0972 B( 32-C , 37-C ) :   1.4800 B( 33-C , 36-C ) :   1.0915
B( 34-C , 85-H ) :   0.9695 B( 34-C , 86-H ) :   0.9616 B( 34-C , 87-H ) :   0.9714
B( 35-C , 88-H ) :   0.9695 B( 35-C , 89-H ) :   0.9712 B( 35-C , 90-H ) :   0.9616
B( 36-C , 42-N ) :   2.9752 B( 37-C , 38-C ) :   1.0192 B( 37-C , 39-C ) :   1.0174
B( 38-C , 40-N ) :   3.0387 B( 39-C , 41-N ) :   3.0464 B( 43-C , 44-C ) :   1.1489
B( 43-C , 91-H ) :   0.9398 B( 44-C , 45-C ) :   0.9916 B( 44-C , 48-C ) :   1.4317
B( 45-C , 46-O ) :   0.7907 B( 45-C , 53-C ) :   0.9468 B( 45-C , 54-C ) :   0.9451
B( 46-O , 47-C ) :   1.2888 B( 47-C , 48-C ) :   1.0962 B( 47-C , 50-C ) :   1.4823
B( 48-C , 49-C ) :   1.0970 B( 49-C , 57-N ) :   2.9745 B( 50-C , 51-C ) :   1.0187
B( 50-C , 52-C ) :   1.0134 B( 51-C , 56-N ) :   3.0384 B( 52-C , 55-N ) :   3.0483
B( 53-C , 92-H ) :   0.9696 B( 53-C , 93-H ) :   0.9617 B( 53-C , 94-H ) :   0.9712
B( 54-C , 95-H ) :   0.9695 B( 54-C , 96-H ) :   0.9711 B( 54-C , 97-H ) :   0.9617

-----------------------------------------------------------------------------
  SOC CORRECTED ABSORPTION SPECTRUM VIA TRANSITION ELECTRIC DIPOLE MOMENTS*
-----------------------------------------------------------------------------
State   Energy  Wavelength   fosc         T2         TX        TY        TZ
        (cm-1)    (nm)                  (au**2)     (au)      (au)      (au)
-----------------------------------------------------------------------------
   1    9973.1   1002.7   0.000000000   0.00000   0.00006   0.00004   0.00000
   2    9973.1   1002.7   0.000000000   0.00000   0.00002   0.00001   0.00000
   3    9973.1   1002.7   0.000000000   0.00000   0.00007   0.00004   0.00000
   4   12112.8    825.6   0.000000001   0.00000   0.00017   0.00010   0.00000
   5   12112.8    825.6   0.000000000   0.00000   0.00000   0.00000   0.00000
   6   12112.8    825.6   0.000000000   0.00000   0.00004   0.00002   0.00000
   7   16277.2    614.4   3.817130062  77.20284   7.53645   4.51669   0.06539
   8   16999.2    588.3   0.000000000   0.00000   0.00000   0.00000   0.00000
   9   16999.2    588.3   0.000000000   0.00000   0.00004   0.00002   0.00000
  10   16999.2    588.3   0.000000136   0.00000   0.00139   0.00084   0.00001
  11   18195.7    549.6   0.000580201   0.01050   0.08441   0.05662   0.01286
  12   22132.7    451.8   0.315024388   4.68582   1.97068   0.89539   0.02283

FINAL SINGLE POINT ENERGY     -3127.706581549115

DIPOLE MOMENT
-------------
                                X             Y             Z
Electronic contribution:     -4.56146       2.70802       1.99432
Nuclear contribution   :      4.80826      -2.84715      -2.36179
                        -----------------------------------------
Total Dipole Moment    :      0.24680      -0.13913      -0.36747
                        -----------------------------------------
Magnitude (a.u.)       :      0.46401
Magnitude (Debye)      :      1.17941

Rotational constants in cm-1:     0.004650     0.000331     0.000314
Rotational constants in MHz :   139.404053     9.911544     9.407532

                             ****ORCA TERMINATED NORMALLY****
TOTAL RUN TIME: 0 days 9 hours 41 minutes 59 seconds 604 msec
