                         Program Version 4.2.0 -  RELEASE  -
|  1> # ORCA input file
|  2> # M34.out: Geometry 47
|  3> ! B3LYP def2-TZVP def2/J RIJCOSX Grid4 TightSCF
|  4>
|  5> %maxcore 6000
|  6> %tddft
|  7>   maxdim 5
|  8>   nroots 3
|  9>   dosoc true
| 10>   end
| 11> %pal
| 12>   nprocs 6
| 13>   end
| 14>
| 15>
| 16> * xyz 0 1
| 17>    C       -1.19310        -0.52550         0.10064
| 18>    C       -1.83687        -0.37330         1.37737
| 19>    C       -1.27956        -1.05732         2.48530
| 20>    C       -0.19584        -1.91013         2.26793
| 21>    C        0.42590        -2.07385         0.98579
| 22>    C       -0.12023        -1.38600        -0.11681
| 23>    O        0.40206        -1.54659        -1.36886
| 24>    C       -0.37981        -2.30146        -2.31877
| 25>    O       -1.74950        -0.90359         3.76034
| 26>    C       -1.45244         0.36590         4.38614
| 27>    S        0.52168        -2.90950         3.53991
| 28>    C        1.70295        -3.50520         2.39395
| 29>    C        1.55362        -2.95651         1.09934
| 30>    S       -1.83794         0.52478        -1.16566
| 31>    C       -3.04564         1.09515        -0.05098
| 32>    C       -2.95693         0.52602         1.23609
| 33>    C       -4.15109         1.95932        -0.06087
| 34>    C       -4.73593         1.88007         1.22936
| 35>    N       -4.00170         0.99994         2.02943
| 36>    S       -5.00266         3.00632        -1.13268
| 37>    C       -6.18808         3.35755         0.15045
| 38>    C       -5.88416         2.66920         1.34943
| 39>    C        2.83352        -4.34447         2.35991
| 40>    C        3.35610        -4.25244         1.04165
| 41>    N        2.57551        -3.40401         0.27323
| 42>    S        3.83590        -5.33708         3.36031
| 43>    C        4.98690        -5.57732         2.02158
| 44>    C        4.55936        -4.93569         0.85365
| 45>    C       -7.31767         4.21151         0.07005
| 46>    C       -7.89549         4.93539        -0.95805
| 47>    C        6.13200        -6.39140         2.21673
| 48>    C        7.27516        -6.52747         1.45234
| 49>    C       -7.42980         4.95915        -2.36604
| 50>    C       -8.43629         5.73071        -3.13200
| 51>    C       -9.45489         6.17077        -2.26662
| 52>    C       -9.12145         5.73675        -0.88356
| 53>    C        8.09321        -7.77795         1.61346
| 54>    C        9.00547        -7.81534         0.43459
| 55>    C        8.83883        -6.63796        -0.32261
| 56>    C        7.86393        -5.75595         0.36842
| 57>    C       -8.43604         5.98971        -4.49751
| 58>    C       -9.50766         6.70989        -5.01141
| 59>    C      -10.54964         7.13646        -4.16813
| 60>    C      -10.53855         6.88649        -2.79750
| 61>    C        9.89895        -8.81763         0.06605
| 62>    C       10.63085        -8.63129        -1.10341
| 63>    C       10.47388        -7.45916        -1.86595
| 64>    C        9.59075        -6.45197        -1.48930
| 65>    F       -9.57352         7.00682        -6.30576
| 66>    F      -11.56758         7.79532        -4.71705
| 67>    O       -6.43238         4.44221        -2.83840
| 68>    C       -9.85349         6.07816         0.24118
| 69>    C       -9.47556         5.71796         1.57213
| 70>    C      -11.05966         6.84235         0.17181
| 71>    C       -4.63785         0.24257         3.11332
| 72>    C       -5.61208        -0.80624         2.58066
| 73>    C        3.12451        -2.73003        -0.91138
| 74>    C        3.22218        -3.63265        -2.13411
| 75>    C       -0.70094        -3.71050        -1.85040
| 76>    C        0.01576         0.52562         4.73179
| 77>    O        8.00421        -8.60904         2.49262
| 78>    C        7.73078        -4.39727         0.12022
| 79>    F       11.19619        -7.32114        -2.97412
| 80>    F       11.49045        -9.55405        -1.53000
| 81>    N      -12.04538         7.45648         0.12676
| 82>    N       -9.18438         5.43761         2.66234
| 83>    C        7.06396        -3.50296         1.00871
| 84>    C        8.31766        -3.75730        -1.01452
| 85>    N        8.75798        -3.22887        -1.95183
| 86>    N        6.53598        -2.74419         1.71359
| 87>    H        0.24266        -2.30919        -3.22456
| 88>    H       -1.30612        -1.75106        -2.55445
| 89>    H       -2.07407         0.37957         5.29278
| 90>    H       -1.79633         1.18222         3.72812
| 91>    H       -6.50208         2.78028         2.24126
| 92>    H        5.10554        -5.00022        -0.08355
| 93>    H       -7.82697         4.26602         1.03206
| 94>    H        6.09633        -7.09124         3.06252
| 95>    H       -7.63025         5.63702        -5.14345
| 96>    H      -11.37192         7.25658        -2.20428
| 97>    H       10.02686        -9.71982         0.66683
| 98>    H        9.51750        -5.56876        -2.12011
| 99>    H       -5.14813         0.96537         3.76943
|100>    H       -3.84926        -0.24849         3.69328
|101>    H       -6.41330        -0.34667         1.98120
|102>    H       -6.07795        -1.35451         3.41384
|103>    H       -5.08035        -1.53475         1.94815
|104>    H        4.11858        -2.34076        -0.63360
|105>    H        2.47757        -1.87657        -1.13142
|106>    H        3.84098        -4.52332        -1.94808
|107>    H        3.68111        -3.07790        -2.96669
|108>    H        2.22892        -3.97769        -2.45541
|109>    H        0.21193        -4.26387        -1.58540
|110>    H       -1.21889        -4.25829        -2.65355
|111>    H       -1.35891        -3.70166        -0.96853
|112>    H        0.64108         0.54073         3.82690
|113>    H        0.36088        -0.29551         5.37662
|114>    H        0.16738         1.47625         5.26757
|115> *
|116>
|117>                          ****END OF INPUT****

CARTESIAN COORDINATES (ANGSTROEM)
---------------------------------
  C     -1.193100   -0.525500    0.100640
  C     -1.836870   -0.373300    1.377370
  C     -1.279560   -1.057320    2.485300
  C     -0.195840   -1.910130    2.267930
  C      0.425900   -2.073850    0.985790
  C     -0.120230   -1.386000   -0.116810
  O      0.402060   -1.546590   -1.368860
  C     -0.379810   -2.301460   -2.318770
  O     -1.749500   -0.903590    3.760340
  C     -1.452440    0.365900    4.386140
  S      0.521680   -2.909500    3.539910
  C      1.702950   -3.505200    2.393950
  C      1.553620   -2.956510    1.099340
  S     -1.837940    0.524780   -1.165660
  C     -3.045640    1.095150   -0.050980
  C     -2.956930    0.526020    1.236090
  C     -4.151090    1.959320   -0.060870
  C     -4.735930    1.880070    1.229360
  N     -4.001700    0.999940    2.029430
  S     -5.002660    3.006320   -1.132680
  C     -6.188080    3.357550    0.150450
  C     -5.884160    2.669200    1.349430
  C      2.833520   -4.344470    2.359910
  C      3.356100   -4.252440    1.041650
  N      2.575510   -3.404010    0.273230
  S      3.835900   -5.337080    3.360310
  C      4.986900   -5.577320    2.021580
  C      4.559360   -4.935690    0.853650
  C     -7.317670    4.211510    0.070050
  C     -7.895490    4.935390   -0.958050
  C      6.132000   -6.391400    2.216730
  C      7.275160   -6.527470    1.452340
  C     -7.429800    4.959150   -2.366040
  C     -8.436290    5.730710   -3.132000
  C     -9.454890    6.170770   -2.266620
  C     -9.121450    5.736750   -0.883560
  C      8.093210   -7.777950    1.613460
  C      9.005470   -7.815340    0.434590
  C      8.838830   -6.637960   -0.322610
  C      7.863930   -5.755950    0.368420
  C     -8.436040    5.989710   -4.497510
  C     -9.507660    6.709890   -5.011410
  C    -10.549640    7.136460   -4.168130
  C    -10.538550    6.886490   -2.797500
  C      9.898950   -8.817630    0.066050
  C     10.630850   -8.631290   -1.103410
  C     10.473880   -7.459160   -1.865950
  C      9.590750   -6.451970   -1.489300
  F     -9.573520    7.006820   -6.305760
  F    -11.567580    7.795320   -4.717050
  O     -6.432380    4.442210   -2.838400
  C     -9.853490    6.078160    0.241180
  C     -9.475560    5.717960    1.572130
  C    -11.059660    6.842350    0.171810
  C     -4.637850    0.242570    3.113320
  C     -5.612080   -0.806240    2.580660
  C      3.124510   -2.730030   -0.911380
  C      3.222180   -3.632650   -2.134110
  C     -0.700940   -3.710500   -1.850400
  C      0.015760    0.525620    4.731790
  O      8.004210   -8.609040    2.492620
  C      7.730780   -4.397270    0.120220
  F     11.196190   -7.321140   -2.974120
  F     11.490450   -9.554050   -1.530000
  N    -12.045380    7.456480    0.126760
  N     -9.184380    5.437610    2.662340
  C      7.063960   -3.502960    1.008710
  C      8.317660   -3.757300   -1.014520
  N      8.757980   -3.228870   -1.951830
  N      6.535980   -2.744190    1.713590
  H      0.242660   -2.309190   -3.224560
  H     -1.306120   -1.751060   -2.554450
  H     -2.074070    0.379570    5.292780
  H     -1.796330    1.182220    3.728120
  H     -6.502080    2.780280    2.241260
  H      5.105540   -5.000220   -0.083550
  H     -7.826970    4.266020    1.032060
  H      6.096330   -7.091240    3.062520
  H     -7.630250    5.637020   -5.143450
  H    -11.371920    7.256580   -2.204280
  H     10.026860   -9.719820    0.666830
  H      9.517500   -5.568760   -2.120110
  H     -5.148130    0.965370    3.769430
  H     -3.849260   -0.248490    3.693280
  H     -6.413300   -0.346670    1.981200
  H     -6.077950   -1.354510    3.413840
  H     -5.080350   -1.534750    1.948150
  H      4.118580   -2.340760   -0.633600
  H      2.477570   -1.876570   -1.131420
  H      3.840980   -4.523320   -1.948080
  H      3.681110   -3.077900   -2.966690
  H      2.228920   -3.977690   -2.455410
  H      0.211930   -4.263870   -1.585400
  H     -1.218890   -4.258290   -2.653550
  H     -1.358910   -3.701660   -0.968530
  H      0.641080    0.540730    3.826900
  H      0.360880   -0.295510    5.376620
  H      0.167380    1.476250    5.267570

 Total Charge           Charge          ....    0
 Multiplicity           Mult            ....    1
 Number of Electrons    NEL             ....  514
 Basis Dimension        Dim             .... 2362

ORBITAL ENERGIES
----------------

  NO   OCC          E(Eh)            E(eV)
   0   2.0000     -88.911543     -2419.4061
   1   2.0000     -88.907942     -2419.3081
   2   2.0000     -88.906180     -2419.2602
   3   2.0000     -88.906105     -2419.2581
   4   2.0000     -24.727304      -672.8641
   5   2.0000     -24.726313      -672.8372
   6   2.0000     -24.726276      -672.8362
   7   2.0000     -24.724011      -672.7745
   8   2.0000     -19.178006      -521.8601
   9   2.0000     -19.177343      -521.8420
  10   2.0000     -19.136046      -520.7183
  11   2.0000     -19.133535      -520.6500
  12   2.0000     -14.396974      -391.7616
  13   2.0000     -14.395617      -391.7247
  14   2.0000     -14.335662      -390.0932
  15   2.0000     -14.335544      -390.0900
  16   2.0000     -14.335464      -390.0878
  17   2.0000     -14.331769      -389.9873
  18   2.0000     -10.301599      -280.3208
  19   2.0000     -10.301039      -280.3055
  20   2.0000     -10.299836      -280.2728
  21   2.0000     -10.299180      -280.2549
  22   2.0000     -10.280830      -279.7556
  23   2.0000     -10.280503      -279.7467
  24   2.0000     -10.270882      -279.4849
  25   2.0000     -10.268881      -279.4305
  26   2.0000     -10.263582      -279.2863
  27   2.0000     -10.262813      -279.2653
  28   2.0000     -10.262190      -279.2484
  29   2.0000     -10.261358      -279.2257
  30   2.0000     -10.254080      -279.0277
  31   2.0000     -10.252533      -278.9856
  32   2.0000     -10.252093      -278.9736
  33   2.0000     -10.251673      -278.9622
  34   2.0000     -10.243450      -278.7385
  35   2.0000     -10.242553      -278.7140
  36   2.0000     -10.241815      -278.6940
  37   2.0000     -10.241631      -278.6889
  38   2.0000     -10.241111      -278.6748
  39   2.0000     -10.240664      -278.6626
  40   2.0000     -10.238795      -278.6118
  41   2.0000     -10.238027      -278.5909
  42   2.0000     -10.235965      -278.5348
  43   2.0000     -10.235923      -278.5336
  44   2.0000     -10.235718      -278.5280
  45   2.0000     -10.235332      -278.5175
  46   2.0000     -10.234048      -278.4826
  47   2.0000     -10.233805      -278.4760
  48   2.0000     -10.233699      -278.4731
  49   2.0000     -10.233538      -278.4687
  50   2.0000     -10.233413      -278.4653
  51   2.0000     -10.232610      -278.4435
  52   2.0000     -10.232551      -278.4419
  53   2.0000     -10.232016      -278.4273
  54   2.0000     -10.231595      -278.4159
  55   2.0000     -10.229535      -278.3598
  56   2.0000     -10.223821      -278.2043
  57   2.0000     -10.223613      -278.1987
  58   2.0000     -10.222242      -278.1614
  59   2.0000     -10.221305      -278.1359
  60   2.0000     -10.220995      -278.1274
  61   2.0000     -10.220989      -278.1273
  62   2.0000     -10.220121      -278.1036
  63   2.0000     -10.217926      -278.0439
  64   2.0000     -10.217825      -278.0411
  65   2.0000     -10.216681      -278.0100
  66   2.0000     -10.191455      -277.3236
  67   2.0000     -10.190781      -277.3052
  68   2.0000     -10.190650      -277.3017
  69   2.0000     -10.185336      -277.1571
  70   2.0000      -7.986798      -217.3318
  71   2.0000      -7.983719      -217.2480
  72   2.0000      -7.981432      -217.1858
  73   2.0000      -7.980615      -217.1636
  74   2.0000      -5.949636      -161.8978
  75   2.0000      -5.946705      -161.8181
  76   2.0000      -5.945874      -161.7955
  77   2.0000      -5.944513      -161.7584
  78   2.0000      -5.943543      -161.7320
  79   2.0000      -5.943045      -161.7185
  80   2.0000      -5.942924      -161.7152
  81   2.0000      -5.940792      -161.6572
  82   2.0000      -5.939521      -161.6226
  83   2.0000      -5.939287      -161.6162
  84   2.0000      -5.936936      -161.5523
  85   2.0000      -5.936706      -161.5460
  86   2.0000      -1.272876       -34.6367
  87   2.0000      -1.271589       -34.6017
  88   2.0000      -1.258749       -34.2523
  89   2.0000      -1.257084       -34.2070
  90   2.0000      -1.090452       -29.6727
  91   2.0000      -1.089004       -29.6333
  92   2.0000      -1.063783       -28.9470
  93   2.0000      -1.061058       -28.8729
  94   2.0000      -1.022377       -27.8203
  95   2.0000      -1.021744       -27.8031
  96   2.0000      -0.940787       -25.6001
  97   2.0000      -0.938898       -25.5487
  98   2.0000      -0.922580       -25.1047
  99   2.0000      -0.922051       -25.0903
 100   2.0000      -0.921370       -25.0718
 101   2.0000      -0.919634       -25.0245
 102   2.0000      -0.918728       -24.9999
 103   2.0000      -0.904425       -24.6106
 104   2.0000      -0.902908       -24.5694
 105   2.0000      -0.895478       -24.3672
 106   2.0000      -0.874964       -23.8090
 107   2.0000      -0.873677       -23.7740
 108   2.0000      -0.850042       -23.1308
 109   2.0000      -0.831735       -22.6327
 110   2.0000      -0.824950       -22.4480
 111   2.0000      -0.821141       -22.3444
 112   2.0000      -0.814569       -22.1656
 113   2.0000      -0.810099       -22.0439
 114   2.0000      -0.798518       -21.7288
 115   2.0000      -0.797732       -21.7074
 116   2.0000      -0.796976       -21.6868
 117   2.0000      -0.795349       -21.6425
 118   2.0000      -0.783645       -21.3241
 119   2.0000      -0.778457       -21.1829
 120   2.0000      -0.774999       -21.0888
 121   2.0000      -0.773460       -21.0469
 122   2.0000      -0.756768       -20.5927
 123   2.0000      -0.750385       -20.4190
 124   2.0000      -0.740990       -20.1634
 125   2.0000      -0.738060       -20.0836
 126   2.0000      -0.720599       -19.6085
 127   2.0000      -0.717744       -19.5308
 128   2.0000      -0.700422       -19.0594
 129   2.0000      -0.696281       -18.9468
 130   2.0000      -0.693491       -18.8708
 131   2.0000      -0.679640       -18.4939
 132   2.0000      -0.669650       -18.2221
 133   2.0000      -0.663276       -18.0487
 134   2.0000      -0.660261       -17.9666
 135   2.0000      -0.653260       -17.7761
 136   2.0000      -0.644909       -17.5489
 137   2.0000      -0.642568       -17.4852
 138   2.0000      -0.635103       -17.2820
 139   2.0000      -0.628359       -17.0985
 140   2.0000      -0.616172       -16.7669
 141   2.0000      -0.615619       -16.7518
 142   2.0000      -0.610609       -16.6155
 143   2.0000      -0.604425       -16.4472
 144   2.0000      -0.600896       -16.3512
 145   2.0000      -0.597289       -16.2531
 146   2.0000      -0.588343       -16.0096
 147   2.0000      -0.581237       -15.8163
 148   2.0000      -0.577240       -15.7075
 149   2.0000      -0.574981       -15.6460
 150   2.0000      -0.572746       -15.5852
 151   2.0000      -0.572569       -15.5804
 152   2.0000      -0.567020       -15.4294
 153   2.0000      -0.549422       -14.9505
 154   2.0000      -0.543516       -14.7898
 155   2.0000      -0.541653       -14.7391
 156   2.0000      -0.540169       -14.6987
 157   2.0000      -0.536473       -14.5982
 158   2.0000      -0.533349       -14.5132
 159   2.0000      -0.526778       -14.3343
 160   2.0000      -0.523168       -14.2361
 161   2.0000      -0.522252       -14.2112
 162   2.0000      -0.520948       -14.1757
 163   2.0000      -0.520709       -14.1692
 164   2.0000      -0.518564       -14.1108
 165   2.0000      -0.513759       -13.9801
 166   2.0000      -0.508735       -13.8434
 167   2.0000      -0.505039       -13.7428
 168   2.0000      -0.494462       -13.4550
 169   2.0000      -0.490152       -13.3377
 170   2.0000      -0.488652       -13.2969
 171   2.0000      -0.487669       -13.2701
 172   2.0000      -0.487160       -13.2563
 173   2.0000      -0.486033       -13.2256
 174   2.0000      -0.483325       -13.1519
 175   2.0000      -0.482198       -13.1213
 176   2.0000      -0.480488       -13.0747
 177   2.0000      -0.475814       -12.9476
 178   2.0000      -0.473109       -12.8740
 179   2.0000      -0.470580       -12.8051
 180   2.0000      -0.464565       -12.6415
 181   2.0000      -0.463130       -12.6024
 182   2.0000      -0.461379       -12.5548
 183   2.0000      -0.460773       -12.5383
 184   2.0000      -0.458329       -12.4718
 185   2.0000      -0.457550       -12.4506
 186   2.0000      -0.456324       -12.4172
 187   2.0000      -0.453914       -12.3516
 188   2.0000      -0.446319       -12.1450
 189   2.0000      -0.443288       -12.0625
 190   2.0000      -0.438045       -11.9198
 191   2.0000      -0.434959       -11.8358
 192   2.0000      -0.432461       -11.7679
 193   2.0000      -0.431443       -11.7402
 194   2.0000      -0.429777       -11.6948
 195   2.0000      -0.429154       -11.6779
 196   2.0000      -0.427301       -11.6275
 197   2.0000      -0.426561       -11.6073
 198   2.0000      -0.424543       -11.5524
 199   2.0000      -0.422547       -11.4981
 200   2.0000      -0.419843       -11.4245
 201   2.0000      -0.419126       -11.4050
 202   2.0000      -0.417165       -11.3516
 203   2.0000      -0.413225       -11.2444
 204   2.0000      -0.410779       -11.1779
 205   2.0000      -0.409924       -11.1546
 206   2.0000      -0.407834       -11.0977
 207   2.0000      -0.405365       -11.0305
 208   2.0000      -0.402073       -10.9410
 209   2.0000      -0.400421       -10.8960
 210   2.0000      -0.398864       -10.8537
 211   2.0000      -0.397970       -10.8293
 212   2.0000      -0.393571       -10.7096
 213   2.0000      -0.391177       -10.6445
 214   2.0000      -0.391037       -10.6407
 215   2.0000      -0.389852       -10.6084
 216   2.0000      -0.386968       -10.5299
 217   2.0000      -0.386265       -10.5108
 218   2.0000      -0.384871       -10.4729
 219   2.0000      -0.383835       -10.4447
 220   2.0000      -0.383049       -10.4233
 221   2.0000      -0.382294       -10.4027
 222   2.0000      -0.379263       -10.3203
 223   2.0000      -0.376181       -10.2364
 224   2.0000      -0.374437       -10.1890
 225   2.0000      -0.371022       -10.0960
 226   2.0000      -0.365791        -9.9537
 227   2.0000      -0.364162        -9.9093
 228   2.0000      -0.363118        -9.8809
 229   2.0000      -0.361986        -9.8501
 230   2.0000      -0.361484        -9.8365
 231   2.0000      -0.359721        -9.7885
 232   2.0000      -0.355882        -9.6840
 233   2.0000      -0.352281        -9.5860
 234   2.0000      -0.348895        -9.4939
 235   2.0000      -0.345941        -9.4135
 236   2.0000      -0.345143        -9.3918
 237   2.0000      -0.342956        -9.3323
 238   2.0000      -0.333347        -9.0708
 239   2.0000      -0.321423        -8.7464
 240   2.0000      -0.316825        -8.6212
 241   2.0000      -0.314619        -8.5612
 242   2.0000      -0.303403        -8.2560
 243   2.0000      -0.296959        -8.0807
 244   2.0000      -0.294411        -8.0113
 245   2.0000      -0.292116        -7.9489
 246   2.0000      -0.286393        -7.7932
 247   2.0000      -0.280159        -7.6235
 248   2.0000      -0.278772        -7.5858
 249   2.0000      -0.276749        -7.5307
 250   2.0000      -0.266201        -7.2437
 251   2.0000      -0.264281        -7.1915
 252   2.0000      -0.259987        -7.0746
 253   2.0000      -0.244028        -6.6403
 254   2.0000      -0.233299        -6.3484
 255   2.0000      -0.228167        -6.2087
 256   2.0000      -0.206763        -5.6263
 257   0.0000      -0.135881        -3.6975
 258   0.0000      -0.126028        -3.4294
 259   0.0000      -0.108987        -2.9657
 260   0.0000      -0.105535        -2.8717
 261   0.0000      -0.071899        -1.9565

MULLIKEN ATOMIC CHARGES
-----------------------
   0 C :    0.048925
   1 C :   -0.062364
   2 C :    0.095055
   3 C :    0.004795
   4 C :   -0.022113
   5 C :    0.047842
   6 O :   -0.381489
   7 C :   -0.031392
   8 O :   -0.365244
   9 C :   -0.035088
  10 S :    0.025659
  11 C :   -0.082525
  12 C :    0.264161
  13 S :    0.021254
  14 C :   -0.078445
  15 C :    0.203258
  16 C :   -0.054897
  17 C :    0.191680
  18 N :   -0.104460
  19 S :    0.085540
  20 C :    0.067112
  21 C :   -0.305942
  22 C :   -0.087994
  23 C :    0.287588
  24 N :   -0.075754
  25 S :    0.045392
  26 C :    0.217473
  27 C :   -0.429776
  28 C :   -0.160886
  29 C :   -0.048421
  30 C :   -0.205060
  31 C :   -0.020461
  32 C :    0.210535
  33 C :    0.100088
  34 C :    0.081642
  35 C :    0.036915
  36 C :    0.231066
  37 C :   -0.010734
  38 C :    0.126305
  39 C :    0.004223
  40 C :   -0.314313
  41 C :    0.288046
  42 C :    0.254569
  43 C :   -0.269470
  44 C :   -0.295629
  45 C :    0.277271
  46 C :    0.257876
  47 C :   -0.260805
  48 F :   -0.175976
  49 F :   -0.173254
  50 O :   -0.339096
  51 C :    0.138133
  52 C :   -0.187342
  53 C :   -0.197338
  54 C :   -0.121769
  55 C :   -0.346289
  56 C :   -0.130983
  57 C :   -0.348092
  58 C :   -0.354516
  59 C :   -0.335735
  60 O :   -0.291599
  61 C :    0.066985
  62 F :   -0.173032
  63 F :   -0.176413
  64 N :    0.005258
  65 N :    0.005059
  66 C :   -0.193979
  67 C :   -0.197085
  68 N :    0.002915
  69 N :    0.011796
  70 H :    0.118360
  71 H :    0.114857
  72 H :    0.114517
  73 H :    0.112300
  74 H :    0.148385
  75 H :    0.166158
  76 H :    0.157058
  77 H :    0.150679
  78 H :    0.149746
  79 H :    0.166974
  80 H :    0.152811
  81 H :    0.165942
  82 H :    0.115630
  83 H :    0.149248
  84 H :    0.127951
  85 H :    0.121127
  86 H :    0.121053
  87 H :    0.140401
  88 H :    0.152181
  89 H :    0.115261
  90 H :    0.127398
  91 H :    0.108950
  92 H :    0.115230
  93 H :    0.124941
  94 H :    0.131657
  95 H :    0.129229
  96 H :    0.122431
  97 H :    0.120869
Sum of atomic charges:   -0.0000000

LOEWDIN ATOMIC CHARGES
----------------------
   0 C :   -0.262731
   1 C :   -0.087363
   2 C :   -0.239127
   3 C :   -0.261653
   4 C :   -0.088582
   5 C :   -0.242255
   6 O :    0.229642
   7 C :   -0.319305
   8 O :    0.223767
   9 C :   -0.317435
  10 S :    0.723332
  11 C :   -0.332388
  12 C :   -0.124004
  13 S :    0.730160
  14 C :   -0.343502
  15 C :   -0.129004
  16 C :   -0.338084
  17 C :   -0.176138
  18 N :    0.272501
  19 S :    0.777829
  20 C :   -0.316346
  21 C :   -0.100644
  22 C :   -0.326978
  23 C :   -0.173920
  24 N :    0.286731
  25 S :    0.751124
  26 C :   -0.328138
  27 C :   -0.096431
  28 C :   -0.056870
  29 C :   -0.087812
  30 C :   -0.063771
  31 C :   -0.084128
  32 C :   -0.254428
  33 C :   -0.062965
  34 C :   -0.038726
  35 C :    0.018139
  36 C :   -0.249262
  37 C :   -0.060488
  38 C :   -0.040919
  39 C :    0.007027
  40 C :   -0.049149
  41 C :   -0.233237
  42 C :   -0.230380
  43 C :   -0.053174
  44 C :   -0.048865
  45 C :   -0.231384
  46 C :   -0.231931
  47 C :   -0.056337
  48 F :    0.224657
  49 F :    0.224761
  50 O :    0.120787
  51 C :   -0.138205
  52 C :   -0.156029
  53 C :   -0.152854
  54 C :   -0.263329
  55 C :   -0.296748
  56 C :   -0.254598
  57 C :   -0.299161
  58 C :   -0.308035
  59 C :   -0.308652
  60 O :    0.131572
  61 C :   -0.149844
  62 F :    0.226148
  63 F :    0.222472
  64 N :    0.070909
  65 N :    0.065428
  66 C :   -0.154554
  67 C :   -0.157853
  68 N :    0.068178
  69 N :    0.086144
  70 H :    0.130527
  71 H :    0.119735
  72 H :    0.129627
  73 H :    0.128506
  74 H :    0.155318
  75 H :    0.156350
  76 H :    0.179558
  77 H :    0.172114
  78 H :    0.166147
  79 H :    0.170241
  80 H :    0.166619
  81 H :    0.169797
  82 H :    0.137009
  83 H :    0.146525
  84 H :    0.123893
  85 H :    0.126701
  86 H :    0.125356
  87 H :    0.141948
  88 H :    0.147579
  89 H :    0.118238
  90 H :    0.130051
  91 H :    0.118988
  92 H :    0.119101
  93 H :    0.130324
  94 H :    0.127060
  95 H :    0.126757
  96 H :    0.123034
  97 H :    0.129304

  Mayer bond orders larger than 0.100000
B(  0-C ,  1-C ) :   1.2962 B(  0-C ,  5-C ) :   1.3576 B(  0-C , 13-S ) :   1.2421
B(  1-C ,  2-C ) :   1.2149 B(  1-C , 15-C ) :   1.1427 B(  2-C ,  3-C ) :   1.4160
B(  2-C ,  8-O ) :   1.0696 B(  3-C ,  4-C ) :   1.2843 B(  3-C , 10-S ) :   1.2662
B(  3-C , 12-C ) :  -0.1105 B(  4-C ,  5-C ) :   1.2595 B(  4-C , 12-C ) :   1.1184
B(  5-C ,  6-O ) :   1.0762 B(  6-O ,  7-C ) :   0.8809 B(  7-C , 58-C ) :   0.9617
B(  7-C , 70-H ) :   0.9693 B(  7-C , 71-H ) :   0.9614 B(  8-O ,  9-C ) :   0.8647
B(  9-C , 59-C ) :   0.9883 B(  9-C , 72-H ) :   0.9621 B(  9-C , 73-H ) :   0.9577
B( 10-S , 11-C ) :   1.2305 B( 11-C , 12-C ) :   1.3500 B( 11-C , 22-C ) :   1.1461
B( 12-C , 24-N ) :   1.1566 B( 13-S , 14-C ) :   1.2574 B( 14-C , 15-C ) :   1.3391
B( 14-C , 16-C ) :   1.1291 B( 15-C , 18-N ) :   1.1372 B( 16-C , 17-C ) :   1.2098
B( 16-C , 19-S ) :   1.3740 B( 17-C , 18-N ) :   1.1487 B( 17-C , 21-C ) :   1.3927
B( 18-N , 54-C ) :   0.8896 B( 19-S , 20-C ) :   1.2592 B( 19-S , 21-C ) :   0.1001
B( 20-C , 21-C ) :   1.3339 B( 20-C , 28-C ) :   1.2934 B( 21-C , 74-H ) :   0.9432
B( 22-C , 23-C ) :   1.2429 B( 22-C , 25-S ) :   1.3238 B( 23-C , 24-N ) :   1.1676
B( 23-C , 27-C ) :   1.3016 B( 24-N , 56-C ) :   0.8667 B( 25-S , 26-C ) :   1.1675
B( 25-S , 27-C ) :   0.1488 B( 26-C , 27-C ) :   1.4309 B( 26-C , 30-C ) :   1.1172
B( 27-C , 75-H ) :   0.9339 B( 28-C , 29-C ) :   1.3898 B( 28-C , 76-H ) :   0.8988
B( 29-C , 32-C ) :   1.0124 B( 29-C , 35-C ) :   1.1451 B( 30-C , 31-C ) :   1.4976
B( 30-C , 77-H ) :   0.9392 B( 31-C , 36-C ) :   1.0072 B( 31-C , 39-C ) :   1.1658
B( 31-C , 60-O ) :  -0.1206 B( 32-C , 33-C ) :   1.0265 B( 32-C , 50-O ) :   2.0256
B( 33-C , 34-C ) :   1.3318 B( 33-C , 40-C ) :   1.2973 B( 33-C , 50-O ) :  -0.1502
B( 34-C , 35-C ) :   1.0285 B( 34-C , 43-C ) :   1.3096 B( 35-C , 51-C ) :   1.4640
B( 36-C , 37-C ) :   0.9543 B( 36-C , 60-O ) :   2.1564 B( 37-C , 38-C ) :   1.3362
B( 37-C , 44-C ) :   1.3080 B( 37-C , 60-O ) :  -0.1433 B( 38-C , 39-C ) :   1.0275
B( 38-C , 47-C ) :   1.2976 B( 39-C , 61-C ) :   1.4063 B( 40-C , 41-C ) :   1.3632
B( 40-C , 78-H ) :   0.9795 B( 41-C , 42-C ) :   1.3290 B( 41-C , 48-F ) :   1.0662
B( 42-C , 43-C ) :   1.4021 B( 42-C , 49-F ) :   1.0854 B( 43-C , 79-H ) :   0.9285
B( 44-C , 45-C ) :   1.3650 B( 44-C , 80-H ) :   0.9766 B( 45-C , 46-C ) :   1.3295
B( 45-C , 63-F ) :   1.0654 B( 46-C , 47-C ) :   1.3985 B( 46-C , 62-F ) :   1.0820
B( 47-C , 81-H ) :   0.9335 B( 51-C , 52-C ) :   1.0272 B( 51-C , 53-C ) :   1.0231
B( 52-C , 65-N ) :   2.9788 B( 53-C , 64-N ) :   2.9736 B( 54-C , 55-C ) :   0.9594
B( 54-C , 82-H ) :   0.9619 B( 54-C , 83-H ) :   0.9522 B( 55-C , 84-H ) :   0.9730
B( 55-C , 85-H ) :   0.9696 B( 55-C , 86-H ) :   0.9700 B( 56-C , 57-C ) :   0.9489
B( 56-C , 87-H ) :   0.9584 B( 56-C , 88-H ) :   0.9485 B( 57-C , 89-H ) :   0.9752
B( 57-C , 90-H ) :   0.9714 B( 57-C , 91-H ) :   0.9723 B( 58-C , 92-H ) :   0.9713
B( 58-C , 93-H ) :   0.9625 B( 58-C , 94-H ) :   0.9667 B( 59-C , 95-H ) :   0.9689
B( 59-C , 96-H ) :   0.9708 B( 59-C , 97-H ) :   0.9619 B( 61-C , 66-C ) :   1.0531
B( 61-C , 67-C ) :   1.0431 B( 66-C , 69-N ) :   2.9651 B( 67-C , 68-N ) :   2.9790

-----------------------------------------------------------------------------
  SOC CORRECTED ABSORPTION SPECTRUM VIA TRANSITION ELECTRIC DIPOLE MOMENTS*
-----------------------------------------------------------------------------
State   Energy  Wavelength   fosc         T2         TX        TY        TZ
        (cm-1)    (nm)                  (au**2)     (au)      (au)      (au)
-----------------------------------------------------------------------------
   1   10075.7    992.5   0.000000000   0.00000   0.00007   0.00000   0.00004
   2   10075.7    992.5   0.000000000   0.00000   0.00009   0.00005   0.00001
   3   10075.7    992.5   0.000000021   0.00000   0.00073   0.00038   0.00014
   4   12049.5    829.9   0.000000009   0.00000   0.00042   0.00028   0.00001
   5   12049.5    829.9   0.000000005   0.00000   0.00033   0.00020   0.00001
   6   12049.5    829.9   0.000000005   0.00000   0.00032   0.00020   0.00002
   7   14135.9    707.4   1.573983523  36.65665   5.04623   3.28397   0.63858
   8   14986.0    667.3   0.000000000   0.00000   0.00005   0.00003   0.00001
   9   14986.0    667.3   0.000000007   0.00000   0.00034   0.00020   0.00001
  10   14986.0    667.3   0.000000778   0.00002   0.00339   0.00228   0.00066
  11   16168.2    618.5   0.255203896   5.19638   1.58088   1.52521   0.60904
  12   17799.4    561.8   0.804615342  14.88190   3.36157   1.85686   0.36579

FINAL SINGLE POINT ENERGY     -4619.062365756513

DIPOLE MOMENT
-------------
                                X             Y             Z
Electronic contribution:      8.09843      15.17967     -28.22201
Nuclear contribution   :     -8.17161     -17.42274      28.10916
                        -----------------------------------------
Total Dipole Moment    :     -0.07318      -2.24306      -0.11286
                        -----------------------------------------
Magnitude (a.u.)       :      2.24709
Magnitude (Debye)      :      5.71165

Rotational constants in cm-1:     0.002563     0.000238     0.000223
Rotational constants in MHz :    76.840507     7.135988     6.680129

                             ****ORCA TERMINATED NORMALLY****
TOTAL RUN TIME: 0 days 2 hours 2 minutes 22 seconds 750 msec
