                         Program Version 4.2.0 -  RELEASE  -
|  1> # ORCA input file
|  2> # M8.out
|  3> ! B3LYP def2-TZVP def2/J RIJCOSX Grid4 TightSCF
|  4>
|  5> %maxcore 2000
|  6> %tddft
|  7>   maxdim 5
|  8>   nroots 3
|  9>   dosoc true
| 10>   end
| 11>
| 12>
| 13>
| 14> * xyz 0 1
| 15>    C       -0.96256        -0.82411        -0.63995
| 16>    C       -1.49856        -0.52082         0.65156
| 17>    C       -0.89132        -0.98076         1.82833
| 18>    C        0.21936        -1.78989         1.64758
| 19>    C        0.73889        -2.11579         0.35821
| 20>    C        0.15197        -1.63106        -0.82400
| 21>    O        0.75581        -1.96084        -1.98907
| 22>    C        0.07223        -1.79535        -3.22560
| 23>    O       -1.37721        -0.65287         3.07009
| 24>    C       -0.79537         0.50827         3.66589
| 25>    O        0.94743        -2.34859         2.65433
| 26>    C        1.94852        -3.01978         2.04249
| 27>    C        1.87532        -2.91907         0.63940
| 28>    O       -1.67333        -0.20941        -1.64394
| 29>    C       -2.66138         0.46884        -1.02057
| 30>    C       -2.62507         0.30129         0.37600
| 31>    C       -3.71914         1.31631        -1.31463
| 32>    C       -4.31485         1.63066        -0.05712
| 33>    N       -3.63810         1.00352         0.96052
| 34>    S       -4.51963         2.10487        -2.61153
| 35>    C       -5.63768         2.87820        -1.46564
| 36>    C       -5.38709         2.50406        -0.15075
| 37>    C        3.07603        -3.76889         2.34767
| 38>    C        3.66310        -4.10323         1.09254
| 39>    N        2.92219        -3.57816         0.06572
| 40>    S        3.99401        -4.38275         3.66216
| 41>    C        5.19575        -5.02959         2.53932
| 42>    C        4.85193        -4.80794         1.21056
| 43>    C       -6.58270         3.74156        -2.03831
| 44>    C       -7.52409         4.57391        -1.48170
| 45>    C        6.29963        -5.71040         3.07715
| 46>    C        7.48655        -6.06636         2.49320
| 47>    C       -7.77540         4.86201        -0.05697
| 48>    C       -8.74584         5.97917        -0.04100
| 49>    C       -9.10624         6.31437        -1.35483
| 50>    C       -8.40189         5.41994        -2.27345
| 51>    C        8.28820        -7.14636         3.12020
| 52>    C        9.30621        -7.51260         2.10727
| 53>    C        9.19987        -6.64549         1.00644
| 54>    C        8.16301        -5.64955         1.29012
| 55>    C       -9.25636         6.64445         1.05608
| 56>    C      -10.14759         7.67861         0.82231
| 57>    C      -10.50791         8.02385        -0.48051
| 58>    C       -9.99856         7.35102        -1.58121
| 59>    C       10.23440        -8.53350         2.14612
| 60>    C       11.06385        -8.69153         1.04681
| 61>    C       10.95571        -7.84280        -0.05469
| 62>    C       10.03095        -6.80935        -0.08940
| 63>    F      -10.66543         8.35480         1.85523
| 64>    F      -11.36571         9.03114        -0.67802
| 65>    O       -7.31268         4.32984         0.93234
| 66>    C       -8.60155         5.38343        -3.62852
| 67>    C       -8.00908         4.48345        -4.54116
| 68>    C       -9.48101         6.24522        -4.31959
| 69>    C       -4.09829         0.92950         2.32719
| 70>    C       -5.37887         0.10517         2.43541
| 71>    C        3.19726        -3.75086        -1.33868
| 72>    C        2.57957        -5.04240        -1.86894
| 73>    C       -1.06686        -2.79229        -3.39422
| 74>    C        0.68469         0.37182         3.99136
| 75>    O        8.11818        -7.64443         4.20855
| 76>    C        8.06119        -4.43489         0.65890
| 77>    F       11.75880        -8.02801        -1.10859
| 78>    F       11.97554        -9.67140         1.03976
| 79>    N      -10.17143         6.91425        -4.94633
| 80>    N       -7.59967         3.79014        -5.36034
| 81>    C        7.25887        -3.37026         1.11383
| 82>    C        8.80353        -4.07383        -0.48335
| 83>    N        9.35220        -3.73679        -1.43367
| 84>    N        6.65104        -2.45515         1.44736
| 85>    H        0.84688        -1.97686        -3.97529
| 86>    H       -0.29277        -0.77105        -3.33231
| 87>    H       -1.37038         0.64407         4.58517
| 88>    H       -0.95665         1.37627         3.00968
| 89>    H       -5.96642         2.88162         0.67113
| 90>    H        5.42821        -5.18834         0.38678
| 91>    H       -6.52163         3.76539        -3.11997
| 92>    H        6.18102        -6.06829         4.09560
| 93>    H       -8.97262         6.37400         2.06060
| 94>    H      -10.30879         7.65944        -2.56571
| 95>    H       10.31641        -9.18863         2.99859
| 96>    H        9.98483        -6.18019        -0.96329
| 97>    H       -4.27526         1.94588         2.69157
| 98>    H       -3.31317         0.45937         2.91823
| 99>    H       -6.17732         0.55197         1.84857
|100>    H       -5.69451         0.05770         3.47345
|101>    H       -5.20570        -0.90740         2.07867
|102>    H        4.28192        -3.76217        -1.47368
|103>    H        2.77907        -2.89506        -1.86928
|104>    H        2.96970        -5.90425        -1.33217
|105>    H        2.80732        -5.15558        -2.92490
|106>    H        1.49991        -5.01542        -1.74476
|107>    H       -0.69831        -3.80887        -3.27699
|108>    H       -1.49635        -2.68479        -4.38567
|109>    H       -1.84633        -2.61482        -2.65782
|110>    H        0.86046        -0.53532         4.56283
|111>    H        0.99996         1.22971         4.57913
|112>    H        1.28289         0.33580         3.08383
|113> *
|114>
|115>                          ****END OF INPUT****

CARTESIAN COORDINATES (ANGSTROEM)
---------------------------------
  C     -0.962560   -0.824110   -0.639950
  C     -1.498560   -0.520820    0.651560
  C     -0.891320   -0.980760    1.828330
  C      0.219360   -1.789890    1.647580
  C      0.738890   -2.115790    0.358210
  C      0.151970   -1.631060   -0.824000
  O      0.755810   -1.960840   -1.989070
  C      0.072230   -1.795350   -3.225600
  O     -1.377210   -0.652870    3.070090
  C     -0.795370    0.508270    3.665890
  O      0.947430   -2.348590    2.654330
  C      1.948520   -3.019780    2.042490
  C      1.875320   -2.919070    0.639400
  O     -1.673330   -0.209410   -1.643940
  C     -2.661380    0.468840   -1.020570
  C     -2.625070    0.301290    0.376000
  C     -3.719140    1.316310   -1.314630
  C     -4.314850    1.630660   -0.057120
  N     -3.638100    1.003520    0.960520
  S     -4.519630    2.104870   -2.611530
  C     -5.637680    2.878200   -1.465640
  C     -5.387090    2.504060   -0.150750
  C      3.076030   -3.768890    2.347670
  C      3.663100   -4.103230    1.092540
  N      2.922190   -3.578160    0.065720
  S      3.994010   -4.382750    3.662160
  C      5.195750   -5.029590    2.539320
  C      4.851930   -4.807940    1.210560
  C     -6.582700    3.741560   -2.038310
  C     -7.524090    4.573910   -1.481700
  C      6.299630   -5.710400    3.077150
  C      7.486550   -6.066360    2.493200
  C     -7.775400    4.862010   -0.056970
  C     -8.745840    5.979170   -0.041000
  C     -9.106240    6.314370   -1.354830
  C     -8.401890    5.419940   -2.273450
  C      8.288200   -7.146360    3.120200
  C      9.306210   -7.512600    2.107270
  C      9.199870   -6.645490    1.006440
  C      8.163010   -5.649550    1.290120
  C     -9.256360    6.644450    1.056080
  C    -10.147590    7.678610    0.822310
  C    -10.507910    8.023850   -0.480510
  C     -9.998560    7.351020   -1.581210
  C     10.234400   -8.533500    2.146120
  C     11.063850   -8.691530    1.046810
  C     10.955710   -7.842800   -0.054690
  C     10.030950   -6.809350   -0.089400
  F    -10.665430    8.354800    1.855230
  F    -11.365710    9.031140   -0.678020
  O     -7.312680    4.329840    0.932340
  C     -8.601550    5.383430   -3.628520
  C     -8.009080    4.483450   -4.541160
  C     -9.481010    6.245220   -4.319590
  C     -4.098290    0.929500    2.327190
  C     -5.378870    0.105170    2.435410
  C      3.197260   -3.750860   -1.338680
  C      2.579570   -5.042400   -1.868940
  C     -1.066860   -2.792290   -3.394220
  C      0.684690    0.371820    3.991360
  O      8.118180   -7.644430    4.208550
  C      8.061190   -4.434890    0.658900
  F     11.758800   -8.028010   -1.108590
  F     11.975540   -9.671400    1.039760
  N    -10.171430    6.914250   -4.946330
  N     -7.599670    3.790140   -5.360340
  C      7.258870   -3.370260    1.113830
  C      8.803530   -4.073830   -0.483350
  N      9.352200   -3.736790   -1.433670
  N      6.651040   -2.455150    1.447360
  H      0.846880   -1.976860   -3.975290
  H     -0.292770   -0.771050   -3.332310
  H     -1.370380    0.644070    4.585170
  H     -0.956650    1.376270    3.009680
  H     -5.966420    2.881620    0.671130
  H      5.428210   -5.188340    0.386780
  H     -6.521630    3.765390   -3.119970
  H      6.181020   -6.068290    4.095600
  H     -8.972620    6.374000    2.060600
  H    -10.308790    7.659440   -2.565710
  H     10.316410   -9.188630    2.998590
  H      9.984830   -6.180190   -0.963290
  H     -4.275260    1.945880    2.691570
  H     -3.313170    0.459370    2.918230
  H     -6.177320    0.551970    1.848570
  H     -5.694510    0.057700    3.473450
  H     -5.205700   -0.907400    2.078670
  H      4.281920   -3.762170   -1.473680
  H      2.779070   -2.895060   -1.869280
  H      2.969700   -5.904250   -1.332170
  H      2.807320   -5.155580   -2.924900
  H      1.499910   -5.015420   -1.744760
  H     -0.698310   -3.808870   -3.276990
  H     -1.496350   -2.684790   -4.385670
  H     -1.846330   -2.614820   -2.657820
  H      0.860460   -0.535320    4.562830
  H      0.999960    1.229710    4.579130
  H      1.282890    0.335800    3.083830

 Total Charge           Charge          ....    0
 Multiplicity           Mult            ....    1
 Number of Electrons    NEL             ....  498
 Basis Dimension        Dim             .... 2350

ORBITAL ENERGIES
----------------

  NO   OCC          E(Eh)            E(eV)
   0   2.0000     -88.909129     -2419.3404
   1   2.0000     -88.908252     -2419.3165
   2   2.0000     -24.724248      -672.7810
   3   2.0000     -24.723743      -672.7673
   4   2.0000     -24.723356      -672.7567
   5   2.0000     -24.722290      -672.7277
   6   2.0000     -19.225938      -523.1644
   7   2.0000     -19.222402      -523.0682
   8   2.0000     -19.192860      -522.2643
   9   2.0000     -19.175547      -521.7932
  10   2.0000     -19.135443      -520.7019
  11   2.0000     -19.129608      -520.5431
  12   2.0000     -14.402094      -391.9009
  13   2.0000     -14.399909      -391.8414
  14   2.0000     -14.329123      -389.9153
  15   2.0000     -14.328650      -389.9024
  16   2.0000     -14.328203      -389.8902
  17   2.0000     -14.325184      -389.8081
  18   2.0000     -10.298969      -280.2492
  19   2.0000     -10.298569      -280.2383
  20   2.0000     -10.298127      -280.2263
  21   2.0000     -10.297934      -280.2210
  22   2.0000     -10.281196      -279.7656
  23   2.0000     -10.279111      -279.7088
  24   2.0000     -10.275084      -279.5993
  25   2.0000     -10.272497      -279.5288
  26   2.0000     -10.269815      -279.4559
  27   2.0000     -10.264855      -279.3209
  28   2.0000     -10.262874      -279.2670
  29   2.0000     -10.259510      -279.1755
  30   2.0000     -10.255577      -279.0684
  31   2.0000     -10.254927      -279.0507
  32   2.0000     -10.254678      -279.0440
  33   2.0000     -10.253291      -279.0062
  34   2.0000     -10.250866      -278.9402
  35   2.0000     -10.249242      -278.8960
  36   2.0000     -10.248328      -278.8712
  37   2.0000     -10.245691      -278.7994
  38   2.0000     -10.243018      -278.7267
  39   2.0000     -10.242524      -278.7132
  40   2.0000     -10.238479      -278.6032
  41   2.0000     -10.238037      -278.5912
  42   2.0000     -10.237480      -278.5760
  43   2.0000     -10.236714      -278.5551
  44   2.0000     -10.236106      -278.5386
  45   2.0000     -10.235181      -278.5134
  46   2.0000     -10.230472      -278.3853
  47   2.0000     -10.230033      -278.3733
  48   2.0000     -10.229388      -278.3558
  49   2.0000     -10.227960      -278.3170
  50   2.0000     -10.227867      -278.3144
  51   2.0000     -10.227438      -278.3027
  52   2.0000     -10.227041      -278.2919
  53   2.0000     -10.226933      -278.2890
  54   2.0000     -10.226557      -278.2788
  55   2.0000     -10.224075      -278.2112
  56   2.0000     -10.219030      -278.0740
  57   2.0000     -10.218934      -278.0713
  58   2.0000     -10.218930      -278.0712
  59   2.0000     -10.218045      -278.0471
  60   2.0000     -10.217613      -278.0354
  61   2.0000     -10.215172      -277.9690
  62   2.0000     -10.214487      -277.9503
  63   2.0000     -10.213986      -277.9367
  64   2.0000     -10.209763      -277.8218
  65   2.0000     -10.209500      -277.8146
  66   2.0000     -10.188367      -277.2396
  67   2.0000     -10.185942      -277.1736
  68   2.0000     -10.185871      -277.1716
  69   2.0000     -10.178613      -276.9741
  70   2.0000      -7.985060      -217.2845
  71   2.0000      -7.984133      -217.2593
  72   2.0000      -5.947829      -161.8487
  73   2.0000      -5.946937      -161.8244
  74   2.0000      -5.944088      -161.7469
  75   2.0000      -5.943147      -161.7213
  76   2.0000      -5.941134      -161.6665
  77   2.0000      -5.940207      -161.6413
  78   2.0000      -1.266908       -34.4743
  79   2.0000      -1.266592       -34.4657
  80   2.0000      -1.253578       -34.1116
  81   2.0000      -1.253208       -34.1015
  82   2.0000      -1.152649       -31.3652
  83   2.0000      -1.150535       -31.3076
  84   2.0000      -1.105898       -30.0930
  85   2.0000      -1.086952       -29.5775
  86   2.0000      -1.066268       -29.0146
  87   2.0000      -1.060786       -28.8655
  88   2.0000      -1.035334       -28.1729
  89   2.0000      -1.033485       -28.1226
  90   2.0000      -0.945697       -25.7337
  91   2.0000      -0.944001       -25.6876
  92   2.0000      -0.926218       -25.2037
  93   2.0000      -0.925900       -25.1950
  94   2.0000      -0.925248       -25.1773
  95   2.0000      -0.922212       -25.0947
  96   2.0000      -0.911898       -24.8140
  97   2.0000      -0.910623       -24.7793
  98   2.0000      -0.897459       -24.4211
  99   2.0000      -0.879135       -23.9225
 100   2.0000      -0.879048       -23.9201
 101   2.0000      -0.858078       -23.3495
 102   2.0000      -0.852695       -23.2030
 103   2.0000      -0.834898       -22.7187
 104   2.0000      -0.828367       -22.5410
 105   2.0000      -0.825013       -22.4497
 106   2.0000      -0.810445       -22.0533
 107   2.0000      -0.807908       -21.9843
 108   2.0000      -0.800431       -21.7808
 109   2.0000      -0.799627       -21.7590
 110   2.0000      -0.798180       -21.7196
 111   2.0000      -0.790639       -21.5144
 112   2.0000      -0.789395       -21.4805
 113   2.0000      -0.785264       -21.3681
 114   2.0000      -0.765232       -20.8230
 115   2.0000      -0.762650       -20.7528
 116   2.0000      -0.757564       -20.6144
 117   2.0000      -0.754693       -20.5362
 118   2.0000      -0.737446       -20.0669
 119   2.0000      -0.725883       -19.7523
 120   2.0000      -0.706072       -19.2132
 121   2.0000      -0.701145       -19.0791
 122   2.0000      -0.699247       -19.0275
 123   2.0000      -0.693892       -18.8818
 124   2.0000      -0.683665       -18.6035
 125   2.0000      -0.676372       -18.4050
 126   2.0000      -0.670929       -18.2569
 127   2.0000      -0.659119       -17.9355
 128   2.0000      -0.655015       -17.8239
 129   2.0000      -0.648729       -17.6528
 130   2.0000      -0.646791       -17.6001
 131   2.0000      -0.638349       -17.3704
 132   2.0000      -0.636192       -17.3117
 133   2.0000      -0.632375       -17.2078
 134   2.0000      -0.622474       -16.9384
 135   2.0000      -0.617154       -16.7936
 136   2.0000      -0.608992       -16.5715
 137   2.0000      -0.598563       -16.2877
 138   2.0000      -0.594957       -16.1896
 139   2.0000      -0.591836       -16.1047
 140   2.0000      -0.581277       -15.8174
 141   2.0000      -0.576814       -15.6959
 142   2.0000      -0.574182       -15.6243
 143   2.0000      -0.574046       -15.6206
 144   2.0000      -0.572509       -15.5788
 145   2.0000      -0.563235       -15.3264
 146   2.0000      -0.555954       -15.1283
 147   2.0000      -0.550905       -14.9909
 148   2.0000      -0.545926       -14.8554
 149   2.0000      -0.544782       -14.8243
 150   2.0000      -0.541309       -14.7298
 151   2.0000      -0.537802       -14.6343
 152   2.0000      -0.536319       -14.5940
 153   2.0000      -0.529680       -14.4133
 154   2.0000      -0.525725       -14.3057
 155   2.0000      -0.523289       -14.2394
 156   2.0000      -0.520304       -14.1582
 157   2.0000      -0.518861       -14.1189
 158   2.0000      -0.518677       -14.1139
 159   2.0000      -0.516744       -14.0613
 160   2.0000      -0.507229       -13.8024
 161   2.0000      -0.506704       -13.7881
 162   2.0000      -0.502823       -13.6825
 163   2.0000      -0.498214       -13.5571
 164   2.0000      -0.495114       -13.4727
 165   2.0000      -0.488743       -13.2994
 166   2.0000      -0.486202       -13.2302
 167   2.0000      -0.483977       -13.1697
 168   2.0000      -0.483828       -13.1656
 169   2.0000      -0.483727       -13.1629
 170   2.0000      -0.483505       -13.1568
 171   2.0000      -0.483346       -13.1525
 172   2.0000      -0.478663       -13.0251
 173   2.0000      -0.474504       -12.9119
 174   2.0000      -0.468827       -12.7574
 175   2.0000      -0.468114       -12.7380
 176   2.0000      -0.466334       -12.6896
 177   2.0000      -0.465343       -12.6626
 178   2.0000      -0.463857       -12.6222
 179   2.0000      -0.461415       -12.5557
 180   2.0000      -0.459763       -12.5108
 181   2.0000      -0.457240       -12.4421
 182   2.0000      -0.456605       -12.4248
 183   2.0000      -0.450344       -12.2545
 184   2.0000      -0.444107       -12.0848
 185   2.0000      -0.440557       -11.9882
 186   2.0000      -0.438112       -11.9216
 187   2.0000      -0.435112       -11.8400
 188   2.0000      -0.432702       -11.7744
 189   2.0000      -0.430283       -11.7086
 190   2.0000      -0.428169       -11.6511
 191   2.0000      -0.427834       -11.6420
 192   2.0000      -0.425802       -11.5867
 193   2.0000      -0.423561       -11.5257
 194   2.0000      -0.421874       -11.4798
 195   2.0000      -0.419803       -11.4234
 196   2.0000      -0.418831       -11.3970
 197   2.0000      -0.416296       -11.3280
 198   2.0000      -0.413562       -11.2536
 199   2.0000      -0.410389       -11.1672
 200   2.0000      -0.407592       -11.0911
 201   2.0000      -0.405073       -11.0226
 202   2.0000      -0.404289       -11.0013
 203   2.0000      -0.400793       -10.9061
 204   2.0000      -0.398017       -10.8306
 205   2.0000      -0.395210       -10.7542
 206   2.0000      -0.394313       -10.7298
 207   2.0000      -0.392501       -10.6805
 208   2.0000      -0.391135       -10.6433
 209   2.0000      -0.388845       -10.5810
 210   2.0000      -0.388371       -10.5681
 211   2.0000      -0.386930       -10.5289
 212   2.0000      -0.385563       -10.4917
 213   2.0000      -0.385035       -10.4773
 214   2.0000      -0.382446       -10.4069
 215   2.0000      -0.382233       -10.4011
 216   2.0000      -0.380372       -10.3504
 217   2.0000      -0.378567       -10.3013
 218   2.0000      -0.378340       -10.2952
 219   2.0000      -0.373101       -10.1526
 220   2.0000      -0.372890       -10.1468
 221   2.0000      -0.366476        -9.9723
 222   2.0000      -0.364857        -9.9283
 223   2.0000      -0.361677        -9.8417
 224   2.0000      -0.361516        -9.8374
 225   2.0000      -0.359540        -9.7836
 226   2.0000      -0.357497        -9.7280
 227   2.0000      -0.352432        -9.5902
 228   2.0000      -0.348718        -9.4891
 229   2.0000      -0.345748        -9.4083
 230   2.0000      -0.343889        -9.3577
 231   2.0000      -0.339247        -9.2314
 232   2.0000      -0.320345        -8.7170
 233   2.0000      -0.313818        -8.5394
 234   2.0000      -0.311460        -8.4753
 235   2.0000      -0.307520        -8.3681
 236   2.0000      -0.298371        -8.1191
 237   2.0000      -0.295083        -8.0296
 238   2.0000      -0.290828        -7.9138
 239   2.0000      -0.281108        -7.6493
 240   2.0000      -0.278984        -7.5915
 241   2.0000      -0.276214        -7.5162
 242   2.0000      -0.265880        -7.2350
 243   2.0000      -0.263719        -7.1762
 244   2.0000      -0.260551        -7.0900
 245   2.0000      -0.248007        -6.7486
 246   2.0000      -0.236040        -6.4230
 247   2.0000      -0.232285        -6.3208
 248   2.0000      -0.203557        -5.5391
 249   0.0000      -0.133969        -3.6455
 250   0.0000      -0.122982        -3.3465
 251   0.0000      -0.108218        -2.9448
 252   0.0000      -0.103815        -2.8249
 253   0.0000      -0.067026        -1.8239

MULLIKEN ATOMIC CHARGES
-----------------------
   0 C :    0.260433
   1 C :    0.066905
   2 C :    0.043233
   3 C :    0.234341
   4 C :    0.099658
   5 C :    0.008282
   6 O :   -0.341526
   7 C :   -0.002824
   8 O :   -0.359591
   9 C :   -0.037561
  10 O :   -0.268632
  11 C :    0.296562
  12 C :    0.005150
  13 O :   -0.317265
  14 C :    0.298074
  15 C :   -0.010828
  16 C :   -0.252797
  17 C :    0.270693
  18 N :   -0.057411
  19 S :    0.020506
  20 C :    0.084976
  21 C :   -0.361861
  22 C :   -0.220027
  23 C :    0.328097
  24 N :   -0.042942
  25 S :    0.033873
  26 C :    0.235379
  27 C :   -0.461950
  28 C :   -0.175860
  29 C :   -0.044953
  30 C :   -0.229338
  31 C :   -0.003201
  32 C :    0.222019
  33 C :    0.091782
  34 C :    0.080967
  35 C :    0.013600
  36 C :    0.223007
  37 C :   -0.010990
  38 C :    0.128175
  39 C :   -0.024824
  40 C :   -0.321597
  41 C :    0.287478
  42 C :    0.250078
  43 C :   -0.259852
  44 C :   -0.296359
  45 C :    0.279455
  46 C :    0.256887
  47 C :   -0.261142
  48 F :   -0.181067
  49 F :   -0.176499
  50 O :   -0.360933
  51 C :    0.162372
  52 C :   -0.238059
  53 C :   -0.228581
  54 C :   -0.138881
  55 C :   -0.339622
  56 C :   -0.130497
  57 C :   -0.341366
  58 C :   -0.340089
  59 C :   -0.309892
  60 O :   -0.288687
  61 C :    0.092224
  62 F :   -0.177790
  63 F :   -0.180087
  64 N :    0.041821
  65 N :    0.051680
  66 C :   -0.224386
  67 C :   -0.231063
  68 N :    0.041073
  69 N :    0.044022
  70 H :    0.111979
  71 H :    0.113846
  72 H :    0.113067
  73 H :    0.096655
  74 H :    0.208542
  75 H :    0.160308
  76 H :    0.157965
  77 H :    0.146284
  78 H :    0.145285
  79 H :    0.167443
  80 H :    0.150510
  81 H :    0.160201
  82 H :    0.116299
  83 H :    0.154640
  84 H :    0.132946
  85 H :    0.116286
  86 H :    0.115953
  87 H :    0.121736
  88 H :    0.139278
  89 H :    0.121236
  90 H :    0.116276
  91 H :    0.116340
  92 H :    0.111585
  93 H :    0.120487
  94 H :    0.126762
  95 H :    0.119286
  96 H :    0.119132
  97 H :    0.117702
Sum of atomic charges:   -0.0000000

LOEWDIN ATOMIC CHARGES
----------------------
   0 C :   -0.148933
   1 C :   -0.063218
   2 C :   -0.209617
   3 C :   -0.151372
   4 C :   -0.059409
   5 C :   -0.203707
   6 O :    0.269088
   7 C :   -0.315846
   8 O :    0.229337
   9 C :   -0.329061
  10 O :    0.376728
  11 C :   -0.204053
  12 C :   -0.103782
  13 O :    0.352762
  14 C :   -0.210705
  15 C :   -0.106176
  16 C :   -0.319437
  17 C :   -0.171748
  18 N :    0.298808
  19 S :    0.757359
  20 C :   -0.322214
  21 C :   -0.093714
  22 C :   -0.314804
  23 C :   -0.169056
  24 N :    0.303424
  25 S :    0.764754
  26 C :   -0.336826
  27 C :   -0.096179
  28 C :   -0.068817
  29 C :   -0.082352
  30 C :   -0.067531
  31 C :   -0.086568
  32 C :   -0.250459
  33 C :   -0.059744
  34 C :   -0.044713
  35 C :    0.009421
  36 C :   -0.257983
  37 C :   -0.058583
  38 C :   -0.044096
  39 C :    0.001938
  40 C :   -0.048014
  41 C :   -0.225325
  42 C :   -0.224072
  43 C :   -0.048505
  44 C :   -0.045751
  45 C :   -0.225910
  46 C :   -0.224168
  47 C :   -0.052542
  48 F :    0.212389
  49 F :    0.216349
  50 O :    0.117775
  51 C :   -0.135541
  52 C :   -0.172831
  53 C :   -0.164063
  54 C :   -0.257863
  55 C :   -0.287734
  56 C :   -0.256662
  57 C :   -0.294294
  58 C :   -0.299695
  59 C :   -0.300926
  60 O :    0.136088
  61 C :   -0.148270
  62 F :    0.215652
  63 F :    0.213042
  64 N :    0.082864
  65 N :    0.083838
  66 C :   -0.161197
  67 C :   -0.168299
  68 N :    0.079221
  69 N :    0.097687
  70 H :    0.128871
  71 H :    0.129199
  72 H :    0.128496
  73 H :    0.121259
  74 H :    0.158897
  75 H :    0.155761
  76 H :    0.174020
  77 H :    0.169957
  78 H :    0.163020
  79 H :    0.169654
  80 H :    0.164648
  81 H :    0.167884
  82 H :    0.138096
  83 H :    0.148231
  84 H :    0.122754
  85 H :    0.124026
  86 H :    0.122467
  87 H :    0.138828
  88 H :    0.144037
  89 H :    0.120047
  90 H :    0.122786
  91 H :    0.119877
  92 H :    0.118572
  93 H :    0.127511
  94 H :    0.122649
  95 H :    0.124025
  96 H :    0.125217
  97 H :    0.123050

  Mayer bond orders larger than 0.100000
B(  0-C ,  1-C ) :   1.2048 B(  0-C ,  5-C ) :   1.4274 B(  0-C , 13-O ) :   0.9204
B(  1-C ,  2-C ) :   1.2329 B(  1-C , 15-C ) :   1.2067 B(  2-C ,  3-C ) :   1.4990
B(  2-C ,  5-C ) :   0.1245 B(  2-C ,  8-O ) :   1.0476 B(  3-C ,  4-C ) :   1.2268
B(  3-C , 10-O ) :   1.0573 B(  4-C ,  5-C ) :   1.1904 B(  4-C , 12-C ) :   1.1927
B(  5-C ,  6-O ) :   1.1467 B(  6-O ,  7-C ) :   0.8875 B(  7-C , 58-C ) :   0.9546
B(  7-C , 70-H ) :   0.9668 B(  7-C , 71-H ) :   0.9638 B(  8-O ,  9-C ) :   0.8911
B(  9-C , 59-C ) :   0.9871 B(  9-C , 72-H ) :   0.9652 B(  9-C , 73-H ) :   0.9587
B( 10-O , 11-C ) :   1.0398 B( 11-C , 12-C ) :   1.3003 B( 11-C , 22-C ) :   1.2859
B( 12-C , 24-N ) :   1.1876 B( 13-O , 14-C ) :   1.0685 B( 14-C , 15-C ) :   1.2913
B( 14-C , 16-C ) :   1.2835 B( 15-C , 18-N ) :   1.2002 B( 16-C , 17-C ) :   1.2108
B( 16-C , 19-S ) :   1.3721 B( 17-C , 18-N ) :   1.1565 B( 17-C , 21-C ) :   1.3021
B( 18-N , 54-C ) :   0.8933 B( 19-S , 20-C ) :   1.2148 B( 19-S , 21-C ) :   0.1461
B( 20-C , 21-C ) :   1.4678 B( 20-C , 28-C ) :   1.3183 B( 21-C , 74-H ) :   0.8928
B( 22-C , 23-C ) :   1.2293 B( 22-C , 25-S ) :   1.3582 B( 23-C , 24-N ) :   1.1596
B( 23-C , 27-C ) :   1.2638 B( 24-N , 56-C ) :   0.8936 B( 25-S , 26-C ) :   1.1824
B( 25-S , 27-C ) :   0.1444 B( 26-C , 27-C ) :   1.4058 B( 26-C , 30-C ) :   1.1268
B( 27-C , 75-H ) :   0.9594 B( 28-C , 29-C ) :   1.4303 B( 28-C , 76-H ) :   0.8874
B( 29-C , 32-C ) :   1.0208 B( 29-C , 35-C ) :   1.1428 B( 30-C , 31-C ) :   1.4804
B( 30-C , 60-O ) :   0.1049 B( 30-C , 77-H ) :   0.9445 B( 31-C , 36-C ) :   1.0114
B( 31-C , 39-C ) :   1.1717 B( 31-C , 60-O ) :  -0.1374 B( 32-C , 33-C ) :   1.0283
B( 32-C , 50-O ) :   1.9996 B( 33-C , 34-C ) :   1.3318 B( 33-C , 40-C ) :   1.2981
B( 33-C , 50-O ) :  -0.1558 B( 34-C , 35-C ) :   1.0487 B( 34-C , 43-C ) :   1.3159
B( 35-C , 51-C ) :   1.4652 B( 36-C , 37-C ) :   0.9560 B( 36-C , 60-O ) :   2.1724
B( 37-C , 38-C ) :   1.3261 B( 37-C , 44-C ) :   1.3146 B( 37-C , 60-O ) :  -0.1498
B( 38-C , 39-C ) :   1.0323 B( 38-C , 47-C ) :   1.3084 B( 39-C , 61-C ) :   1.4138
B( 40-C , 41-C ) :   1.3580 B( 40-C , 78-H ) :   0.9852 B( 41-C , 42-C ) :   1.3466
B( 41-C , 48-F ) :   1.0622 B( 42-C , 43-C ) :   1.3886 B( 42-C , 49-F ) :   1.0840
B( 43-C , 79-H ) :   0.9281 B( 44-C , 45-C ) :   1.3542 B( 44-C , 80-H ) :   0.9830
B( 45-C , 46-C ) :   1.3465 B( 45-C , 63-F ) :   1.0623 B( 46-C , 47-C ) :   1.3872
B( 46-C , 62-F ) :   1.0753 B( 47-C , 81-H ) :   0.9432 B( 51-C , 52-C ) :   1.0302
B( 51-C , 53-C ) :   1.0268 B( 52-C , 65-N ) :   2.9932 B( 53-C , 64-N ) :   2.9847
B( 54-C , 55-C ) :   0.9612 B( 54-C , 82-H ) :   0.9589 B( 54-C , 83-H ) :   0.9501
B( 55-C , 84-H ) :   0.9776 B( 55-C , 85-H ) :   0.9702 B( 55-C , 86-H ) :   0.9700
B( 56-C , 57-C ) :   0.9389 B( 56-C , 87-H ) :   0.9636 B( 56-C , 88-H ) :   0.9562
B( 57-C , 89-H ) :   0.9743 B( 57-C , 90-H ) :   0.9730 B( 57-C , 91-H ) :   0.9770
B( 58-C , 92-H ) :   0.9720 B( 58-C , 93-H ) :   0.9644 B( 58-C , 94-H ) :   0.9741
B( 59-C , 95-H ) :   0.9693 B( 59-C , 96-H ) :   0.9619 B( 59-C , 97-H ) :   0.9721
B( 61-C , 66-C ) :   1.0518 B( 61-C , 67-C ) :   1.0504 B( 66-C , 69-N ) :   2.9758
B( 67-C , 68-N ) :   2.9959

-----------------------------------------------------------------------------
  SOC CORRECTED ABSORPTION SPECTRUM VIA TRANSITION ELECTRIC DIPOLE MOMENTS*
-----------------------------------------------------------------------------
State   Energy  Wavelength   fosc         T2         TX        TY        TZ
        (cm-1)    (nm)                  (au**2)     (au)      (au)      (au)
-----------------------------------------------------------------------------
   1    9699.8   1030.9   0.000000000   0.00000   0.00003   0.00001   0.00001
   2    9699.8   1030.9   0.000000000   0.00000   0.00008   0.00002   0.00001
   3    9699.8   1030.9   0.000000016   0.00000   0.00062   0.00038   0.00011
   4   11893.3    840.8   0.000000000   0.00000   0.00002   0.00001   0.00000
   5   11893.3    840.8   0.000000005   0.00000   0.00032   0.00014   0.00003
   6   11893.3    840.8   0.000000024   0.00000   0.00070   0.00042   0.00011
   7   14393.3    694.8   2.413163939  55.19521   6.16668   3.88180   1.44875
   8   16137.5    619.7   0.000001150   0.00002   0.00337   0.00303   0.00171
   9   16137.5    619.7   0.000000038   0.00000   0.00065   0.00057   0.00021
  10   16137.5    619.7   0.000000025   0.00000   0.00053   0.00044   0.00022
  11   16285.4    614.0   0.132387841   2.67624   0.92340   1.13865   0.72598
  12   18661.7    535.9   0.353967506   6.24435   1.98465   1.47429   0.36327

FINAL SINGLE POINT ENERGY     -3973.153469128231

DIPOLE MOMENT
-------------
                                X             Y             Z
Electronic contribution:      9.77123      14.96934      -2.33662
Nuclear contribution   :     -9.96716     -16.67571       4.05533
                        -----------------------------------------
Total Dipole Moment    :     -0.19592      -1.70637       1.71871
                        -----------------------------------------
Magnitude (a.u.)       :      2.42982
Magnitude (Debye)      :      6.17611

Rotational constants in cm-1:     0.003323     0.000238     0.000228
Rotational constants in MHz :    99.635507     7.128280     6.828486

                             ****ORCA TERMINATED NORMALLY****
TOTAL RUN TIME: 0 days 18 hours 58 minutes 22 seconds 95 msec
