                         Program Version 4.2.0 -  RELEASE  -
|  1> # ORCA input file
|  2> # N3.out: Geometry 122
|  3> ! B3LYP def2-TZVP def2/J RIJCOSX Grid4 TightSCF
|  4>
|  5> %maxcore 6000
|  6> %tddft
|  7>   maxdim 5
|  8>   nroots 3
|  9>   dosoc true
| 10>   end
| 11> %pal
| 12>   nprocs 6
| 13>   end
| 14>
| 15>
| 16> * xyz 0 1
| 17>    C        4.16064         0.57998         0.19647
| 18>    O        3.95169         1.47636         0.99298
| 19>    C        5.00419         0.68465        -1.02740
| 20>    C        5.63591         1.81641        -1.53311
| 21>    C        6.39826         1.66902        -2.68852
| 22>    F        7.02127         2.70913        -3.23802
| 23>    C        6.52402         0.40991        -3.30386
| 24>    F        7.26970         0.31301        -4.40120
| 25>    C        5.89180        -0.72087        -2.79567
| 26>    C        5.11226        -0.57869        -1.64017
| 27>    C        4.30805        -1.55342        -0.86575
| 28>    C        4.08867        -2.87005        -1.23450
| 29>    C        3.24642        -3.77032        -0.50743
| 30>    N        2.57440        -4.52637         0.06606
| 31>    C        4.66603        -3.45334        -2.40533
| 32>    N        5.12307        -3.94745        -3.35272
| 33>    C        3.74420        -0.84479         0.28586
| 34>    C        3.11830        -1.45674         1.35501
| 35>    C        2.36273        -0.99906         2.46806
| 36>    S        2.32673        -2.20326         3.78823
| 37>    C        1.25908        -1.22643         4.71775
| 38>    C        0.92025        -0.04452         4.02114
| 39>    C        1.51824         0.10368         2.74984
| 40>    C        1.13340         1.21767         1.81627
| 41>    C        0.53809         0.73653         0.48607
| 42>    S       -0.23566         0.95990         4.91104
| 43>    C       -0.25452        -0.22109         6.19866
| 44>    C        0.59760        -1.31056         5.96040
| 45>    N        0.46334        -2.24255         6.97435
| 46>    C        0.91174        -3.61827         6.76983
| 47>    C        2.41880        -3.79280         6.90562
| 48>    C       -0.47363        -1.75209         7.88408
| 49>    C       -0.94769        -0.48895         7.40172
| 50>    C       -2.01718         0.19687         8.06419
| 51>    N       -2.57888         1.34286         7.70376
| 52>    S       -3.80965         1.63288         8.77244
| 53>    N       -3.64855         0.28544         9.72124
| 54>    C       -2.63683        -0.41449         9.22759
| 55>    C       -2.11480        -1.64841         9.73330
| 56>    C       -1.01462        -2.29976         9.09893
| 57>    N       -0.69241        -3.44746         9.83566
| 58>    C        0.63159        -4.06374         9.97014
| 59>    C        0.64480        -5.56267         9.70267
| 60>    C       -1.59646        -3.53595        10.88801
| 61>    C       -2.47114        -2.43957        10.85068
| 62>    S       -3.60806        -2.41437        12.17072
| 63>    C       -2.89794        -3.90748        12.79609
| 64>    C       -1.85110        -4.39609        11.98448
| 65>    S       -1.29145        -5.92708        12.56489
| 66>    C       -2.42712        -5.87584        13.93283
| 67>    C       -3.23214        -4.72357        13.90586
| 68>    C       -4.40755        -4.43745        14.79872
| 69>    C       -4.31845        -3.08883        15.52727
| 70>    C       -2.45509        -7.06404        14.72893
| 71>    C       -2.64792        -7.22800        16.08163
| 72>    C       -2.73327        -8.50490        16.79753
| 73>    C       -3.02975        -9.74384        16.26127
| 74>    C       -3.11269       -10.93126        17.05511
| 75>    N       -3.18340       -11.90267        17.68922
| 76>    C       -3.30551        -9.95330        14.87280
| 77>    N       -3.52867       -10.16275        13.75175
| 78>    C       -2.49092        -8.22739        18.23224
| 79>    C       -2.39639        -9.07514        19.34461
| 80>    C       -2.13129        -8.50036        20.58423
| 81>    F       -2.02184        -9.26886        21.66330
| 82>    C       -1.96806        -7.11123        20.74016
| 83>    F       -1.71885        -6.63360        21.95580
| 84>    C       -2.06425        -6.26274        19.64351
| 85>    C       -2.32476        -6.83965        18.40447
| 86>    C       -2.45608        -6.14727        17.09530
| 87>    O       -2.33874        -4.95378        16.90644
| 88>    H        5.53875         2.78750        -1.04484
| 89>    H        6.03247        -1.66375        -3.31961
| 90>    H        3.24668        -2.54110         1.38153
| 91>    H        2.02424         1.83129         1.61820
| 92>    H        0.40164         1.85688         2.33529
| 93>    H        1.26998         0.16628        -0.10405
| 94>    H        0.21629         1.59744        -0.11922
| 95>    H       -0.33617         0.08804         0.65018
| 96>    H        0.58937        -3.92485         5.76081
| 97>    H        0.36180        -4.25727         7.46469
| 98>    H        2.77608        -3.50478         7.90561
| 99>    H        2.96146        -3.17453         6.17754
|100>    H        2.69656        -4.84182         6.72098
|101>    H        0.98698        -3.86253        10.99517
|102>    H        1.31887        -3.53087         9.30649
|103>    H       -0.03788        -6.10102        10.37243
|104>    H        1.65519        -5.96548         9.87205
|105>    H        0.33813        -5.80307         8.67408
|106>    H       -4.53266        -5.24953        15.52568
|107>    H       -5.30759        -4.45037        14.15614
|108>    H       -5.20921        -2.93479        16.15578
|109>    H       -4.26115        -2.24693        14.81985
|110>    H       -3.43112        -3.06147        16.17127
|111>    H       -2.21742        -7.96948        14.16290
|112>    H       -2.51503       -10.15579        19.29278
|113>    H       -1.93149        -5.18497        19.75360
|114> *
|115>
|116>                          ****END OF INPUT****

CARTESIAN COORDINATES (ANGSTROEM)
---------------------------------
  C      4.160640    0.579980    0.196470
  O      3.951690    1.476360    0.992980
  C      5.004190    0.684650   -1.027400
  C      5.635910    1.816410   -1.533110
  C      6.398260    1.669020   -2.688520
  F      7.021270    2.709130   -3.238020
  C      6.524020    0.409910   -3.303860
  F      7.269700    0.313010   -4.401200
  C      5.891800   -0.720870   -2.795670
  C      5.112260   -0.578690   -1.640170
  C      4.308050   -1.553420   -0.865750
  C      4.088670   -2.870050   -1.234500
  C      3.246420   -3.770320   -0.507430
  N      2.574400   -4.526370    0.066060
  C      4.666030   -3.453340   -2.405330
  N      5.123070   -3.947450   -3.352720
  C      3.744200   -0.844790    0.285860
  C      3.118300   -1.456740    1.355010
  C      2.362730   -0.999060    2.468060
  S      2.326730   -2.203260    3.788230
  C      1.259080   -1.226430    4.717750
  C      0.920250   -0.044520    4.021140
  C      1.518240    0.103680    2.749840
  C      1.133400    1.217670    1.816270
  C      0.538090    0.736530    0.486070
  S     -0.235660    0.959900    4.911040
  C     -0.254520   -0.221090    6.198660
  C      0.597600   -1.310560    5.960400
  N      0.463340   -2.242550    6.974350
  C      0.911740   -3.618270    6.769830
  C      2.418800   -3.792800    6.905620
  C     -0.473630   -1.752090    7.884080
  C     -0.947690   -0.488950    7.401720
  C     -2.017180    0.196870    8.064190
  N     -2.578880    1.342860    7.703760
  S     -3.809650    1.632880    8.772440
  N     -3.648550    0.285440    9.721240
  C     -2.636830   -0.414490    9.227590
  C     -2.114800   -1.648410    9.733300
  C     -1.014620   -2.299760    9.098930
  N     -0.692410   -3.447460    9.835660
  C      0.631590   -4.063740    9.970140
  C      0.644800   -5.562670    9.702670
  C     -1.596460   -3.535950   10.888010
  C     -2.471140   -2.439570   10.850680
  S     -3.608060   -2.414370   12.170720
  C     -2.897940   -3.907480   12.796090
  C     -1.851100   -4.396090   11.984480
  S     -1.291450   -5.927080   12.564890
  C     -2.427120   -5.875840   13.932830
  C     -3.232140   -4.723570   13.905860
  C     -4.407550   -4.437450   14.798720
  C     -4.318450   -3.088830   15.527270
  C     -2.455090   -7.064040   14.728930
  C     -2.647920   -7.228000   16.081630
  C     -2.733270   -8.504900   16.797530
  C     -3.029750   -9.743840   16.261270
  C     -3.112690  -10.931260   17.055110
  N     -3.183400  -11.902670   17.689220
  C     -3.305510   -9.953300   14.872800
  N     -3.528670  -10.162750   13.751750
  C     -2.490920   -8.227390   18.232240
  C     -2.396390   -9.075140   19.344610
  C     -2.131290   -8.500360   20.584230
  F     -2.021840   -9.268860   21.663300
  C     -1.968060   -7.111230   20.740160
  F     -1.718850   -6.633600   21.955800
  C     -2.064250   -6.262740   19.643510
  C     -2.324760   -6.839650   18.404470
  C     -2.456080   -6.147270   17.095300
  O     -2.338740   -4.953780   16.906440
  H      5.538750    2.787500   -1.044840
  H      6.032470   -1.663750   -3.319610
  H      3.246680   -2.541100    1.381530
  H      2.024240    1.831290    1.618200
  H      0.401640    1.856880    2.335290
  H      1.269980    0.166280   -0.104050
  H      0.216290    1.597440   -0.119220
  H     -0.336170    0.088040    0.650180
  H      0.589370   -3.924850    5.760810
  H      0.361800   -4.257270    7.464690
  H      2.776080   -3.504780    7.905610
  H      2.961460   -3.174530    6.177540
  H      2.696560   -4.841820    6.720980
  H      0.986980   -3.862530   10.995170
  H      1.318870   -3.530870    9.306490
  H     -0.037880   -6.101020   10.372430
  H      1.655190   -5.965480    9.872050
  H      0.338130   -5.803070    8.674080
  H     -4.532660   -5.249530   15.525680
  H     -5.307590   -4.450370   14.156140
  H     -5.209210   -2.934790   16.155780
  H     -4.261150   -2.246930   14.819850
  H     -3.431120   -3.061470   16.171270
  H     -2.217420   -7.969480   14.162900
  H     -2.515030  -10.155790   19.292780
  H     -1.931490   -5.184970   19.753600

 Total Charge           Charge          ....    0
 Multiplicity           Mult            ....    1
 Number of Electrons    NEL             ....  526
 Basis Dimension        Dim             .... 2387

ORBITAL ENERGIES
----------------

  NO   OCC          E(Eh)            E(eV)
   0   2.0000     -88.947855     -2420.3942
   1   2.0000     -88.915534     -2419.5147
   2   2.0000     -88.915380     -2419.5105
   3   2.0000     -88.912915     -2419.4434
   4   2.0000     -88.912439     -2419.4305
   5   2.0000     -24.731744      -672.9850
   6   2.0000     -24.729684      -672.9289
   7   2.0000     -24.728032      -672.8840
   8   2.0000     -24.725953      -672.8274
   9   2.0000     -19.139776      -520.8198
  10   2.0000     -19.136551      -520.7320
  11   2.0000     -14.411535      -392.1578
  12   2.0000     -14.409149      -392.0929
  13   2.0000     -14.362446      -390.8220
  14   2.0000     -14.362197      -390.8153
  15   2.0000     -14.338269      -390.1641
  16   2.0000     -14.338095      -390.1594
  17   2.0000     -14.336360      -390.1122
  18   2.0000     -14.334137      -390.0517
  19   2.0000     -10.305955      -280.4393
  20   2.0000     -10.305234      -280.4197
  21   2.0000     -10.302258      -280.3387
  22   2.0000     -10.301029      -280.3052
  23   2.0000     -10.287718      -279.9430
  24   2.0000     -10.283872      -279.8384
  25   2.0000     -10.269380      -279.4440
  26   2.0000     -10.268662      -279.4245
  27   2.0000     -10.266676      -279.3705
  28   2.0000     -10.265800      -279.3466
  29   2.0000     -10.265092      -279.3273
  30   2.0000     -10.262257      -279.2502
  31   2.0000     -10.256751      -279.1004
  32   2.0000     -10.256615      -279.0967
  33   2.0000     -10.250993      -278.9437
  34   2.0000     -10.250922      -278.9418
  35   2.0000     -10.250374      -278.9269
  36   2.0000     -10.249937      -278.9150
  37   2.0000     -10.247565      -278.8504
  38   2.0000     -10.247118      -278.8383
  39   2.0000     -10.246480      -278.8209
  40   2.0000     -10.244472      -278.7663
  41   2.0000     -10.241687      -278.6905
  42   2.0000     -10.239340      -278.6266
  43   2.0000     -10.239237      -278.6238
  44   2.0000     -10.238110      -278.5931
  45   2.0000     -10.237808      -278.5849
  46   2.0000     -10.237722      -278.5826
  47   2.0000     -10.237668      -278.5811
  48   2.0000     -10.237457      -278.5754
  49   2.0000     -10.236688      -278.5544
  50   2.0000     -10.235782      -278.5298
  51   2.0000     -10.234917      -278.5062
  52   2.0000     -10.234844      -278.5043
  53   2.0000     -10.234111      -278.4843
  54   2.0000     -10.232798      -278.4486
  55   2.0000     -10.227652      -278.3086
  56   2.0000     -10.226688      -278.2823
  57   2.0000     -10.225809      -278.2584
  58   2.0000     -10.224100      -278.2119
  59   2.0000     -10.223976      -278.2085
  60   2.0000     -10.223708      -278.2012
  61   2.0000     -10.223558      -278.1972
  62   2.0000     -10.222490      -278.1681
  63   2.0000     -10.220916      -278.1253
  64   2.0000     -10.220136      -278.1040
  65   2.0000     -10.206206      -277.7250
  66   2.0000     -10.206151      -277.7235
  67   2.0000     -10.197788      -277.4959
  68   2.0000     -10.192543      -277.3532
  69   2.0000     -10.178674      -276.9758
  70   2.0000     -10.171830      -276.7896
  71   2.0000      -8.018293      -218.1888
  72   2.0000      -7.991518      -217.4603
  73   2.0000      -7.991492      -217.4596
  74   2.0000      -7.987741      -217.3575
  75   2.0000      -7.987384      -217.3478
  76   2.0000      -5.983015      -162.8061
  77   2.0000      -5.975978      -162.6146
  78   2.0000      -5.974710      -162.5801
  79   2.0000      -5.954290      -162.0245
  80   2.0000      -5.954215      -162.0224
  81   2.0000      -5.950852      -161.9309
  82   2.0000      -5.950525      -161.9220
  83   2.0000      -5.950452      -161.9200
  84   2.0000      -5.950432      -161.9195
  85   2.0000      -5.947723      -161.8458
  86   2.0000      -5.947554      -161.8412
  87   2.0000      -5.947071      -161.8280
  88   2.0000      -5.946642      -161.8163
  89   2.0000      -5.943378      -161.7275
  90   2.0000      -5.943126      -161.7207
  91   2.0000      -1.277313       -34.7575
  92   2.0000      -1.273077       -34.6422
  93   2.0000      -1.262915       -34.3657
  94   2.0000      -1.258875       -34.2557
  95   2.0000      -1.069126       -29.0924
  96   2.0000      -1.064356       -28.9626
  97   2.0000      -1.039681       -28.2912
  98   2.0000      -1.026463       -27.9315
  99   2.0000      -1.023828       -27.8598
 100   2.0000      -0.943810       -25.6824
 101   2.0000      -0.940917       -25.6036
 102   2.0000      -0.933618       -25.4050
 103   2.0000      -0.931946       -25.3595
 104   2.0000      -0.925812       -25.1926
 105   2.0000      -0.924422       -25.1548
 106   2.0000      -0.923184       -25.1211
 107   2.0000      -0.920809       -25.0565
 108   2.0000      -0.905502       -24.6400
 109   2.0000      -0.889682       -24.2095
 110   2.0000      -0.883259       -24.0347
 111   2.0000      -0.879307       -23.9272
 112   2.0000      -0.873602       -23.7719
 113   2.0000      -0.865832       -23.5605
 114   2.0000      -0.837253       -22.7828
 115   2.0000      -0.828283       -22.5387
 116   2.0000      -0.824084       -22.4245
 117   2.0000      -0.820564       -22.3287
 118   2.0000      -0.818558       -22.2741
 119   2.0000      -0.815594       -22.1934
 120   2.0000      -0.807846       -21.9826
 121   2.0000      -0.803911       -21.8755
 122   2.0000      -0.801478       -21.8093
 123   2.0000      -0.797412       -21.6987
 124   2.0000      -0.781979       -21.2787
 125   2.0000      -0.778495       -21.1839
 126   2.0000      -0.760572       -20.6962
 127   2.0000      -0.759351       -20.6630
 128   2.0000      -0.752330       -20.4720
 129   2.0000      -0.742011       -20.1911
 130   2.0000      -0.730696       -19.8833
 131   2.0000      -0.725843       -19.7512
 132   2.0000      -0.717659       -19.5285
 133   2.0000      -0.702063       -19.1041
 134   2.0000      -0.698889       -19.0177
 135   2.0000      -0.696161       -18.9435
 136   2.0000      -0.684943       -18.6382
 137   2.0000      -0.679197       -18.4819
 138   2.0000      -0.672679       -18.3045
 139   2.0000      -0.660675       -17.9779
 140   2.0000      -0.656583       -17.8665
 141   2.0000      -0.646779       -17.5998
 142   2.0000      -0.643066       -17.4987
 143   2.0000      -0.640576       -17.4309
 144   2.0000      -0.637098       -17.3363
 145   2.0000      -0.634110       -17.2550
 146   2.0000      -0.631097       -17.1730
 147   2.0000      -0.619725       -16.8636
 148   2.0000      -0.610467       -16.6117
 149   2.0000      -0.601055       -16.3555
 150   2.0000      -0.596841       -16.2409
 151   2.0000      -0.594836       -16.1863
 152   2.0000      -0.591077       -16.0840
 153   2.0000      -0.583345       -15.8736
 154   2.0000      -0.578177       -15.7330
 155   2.0000      -0.575580       -15.6623
 156   2.0000      -0.573922       -15.6172
 157   2.0000      -0.569818       -15.5055
 158   2.0000      -0.564814       -15.3694
 159   2.0000      -0.552256       -15.0277
 160   2.0000      -0.549617       -14.9558
 161   2.0000      -0.544647       -14.8206
 162   2.0000      -0.539371       -14.6770
 163   2.0000      -0.527779       -14.3616
 164   2.0000      -0.527310       -14.3488
 165   2.0000      -0.526479       -14.3262
 166   2.0000      -0.523872       -14.2553
 167   2.0000      -0.522867       -14.2279
 168   2.0000      -0.522247       -14.2111
 169   2.0000      -0.518694       -14.1144
 170   2.0000      -0.514571       -14.0022
 171   2.0000      -0.507235       -13.8026
 172   2.0000      -0.504086       -13.7169
 173   2.0000      -0.501411       -13.6441
 174   2.0000      -0.493786       -13.4366
 175   2.0000      -0.491626       -13.3778
 176   2.0000      -0.487816       -13.2742
 177   2.0000      -0.486474       -13.2376
 178   2.0000      -0.482561       -13.1312
 179   2.0000      -0.481997       -13.1158
 180   2.0000      -0.478641       -13.0245
 181   2.0000      -0.477329       -12.9888
 182   2.0000      -0.473804       -12.8929
 183   2.0000      -0.471583       -12.8324
 184   2.0000      -0.469317       -12.7708
 185   2.0000      -0.468864       -12.7584
 186   2.0000      -0.466843       -12.7034
 187   2.0000      -0.465596       -12.6695
 188   2.0000      -0.463429       -12.6106
 189   2.0000      -0.461499       -12.5580
 190   2.0000      -0.459875       -12.5138
 191   2.0000      -0.457850       -12.4587
 192   2.0000      -0.456797       -12.4301
 193   2.0000      -0.450740       -12.2653
 194   2.0000      -0.448889       -12.2149
 195   2.0000      -0.443676       -12.0730
 196   2.0000      -0.441674       -12.0186
 197   2.0000      -0.436783       -11.8855
 198   2.0000      -0.434554       -11.8248
 199   2.0000      -0.433031       -11.7834
 200   2.0000      -0.432259       -11.7624
 201   2.0000      -0.430964       -11.7271
 202   2.0000      -0.428190       -11.6517
 203   2.0000      -0.426027       -11.5928
 204   2.0000      -0.423615       -11.5271
 205   2.0000      -0.422889       -11.5074
 206   2.0000      -0.419854       -11.4248
 207   2.0000      -0.418807       -11.3963
 208   2.0000      -0.416525       -11.3342
 209   2.0000      -0.412201       -11.2165
 210   2.0000      -0.411204       -11.1894
 211   2.0000      -0.407860       -11.0984
 212   2.0000      -0.403914       -10.9911
 213   2.0000      -0.403176       -10.9710
 214   2.0000      -0.397638       -10.8203
 215   2.0000      -0.397196       -10.8083
 216   2.0000      -0.395029       -10.7493
 217   2.0000      -0.393627       -10.7111
 218   2.0000      -0.392741       -10.6870
 219   2.0000      -0.391670       -10.6579
 220   2.0000      -0.390626       -10.6295
 221   2.0000      -0.390129       -10.6159
 222   2.0000      -0.388739       -10.5781
 223   2.0000      -0.386411       -10.5148
 224   2.0000      -0.385991       -10.5033
 225   2.0000      -0.383767       -10.4428
 226   2.0000      -0.382677       -10.4132
 227   2.0000      -0.372491       -10.1360
 228   2.0000      -0.370100       -10.0709
 229   2.0000      -0.367187        -9.9917
 230   2.0000      -0.366315        -9.9679
 231   2.0000      -0.365280        -9.9398
 232   2.0000      -0.363946        -9.9035
 233   2.0000      -0.363174        -9.8825
 234   2.0000      -0.361992        -9.8503
 235   2.0000      -0.359846        -9.7919
 236   2.0000      -0.356114        -9.6904
 237   2.0000      -0.354815        -9.6550
 238   2.0000      -0.353693        -9.6245
 239   2.0000      -0.351017        -9.5517
 240   2.0000      -0.348956        -9.4956
 241   2.0000      -0.348143        -9.4735
 242   2.0000      -0.345885        -9.4120
 243   2.0000      -0.341323        -9.2879
 244   2.0000      -0.339516        -9.2387
 245   2.0000      -0.336756        -9.1636
 246   2.0000      -0.316442        -8.6108
 247   2.0000      -0.312642        -8.5074
 248   2.0000      -0.309207        -8.4139
 249   2.0000      -0.300365        -8.1734
 250   2.0000      -0.297022        -8.0824
 251   2.0000      -0.291893        -7.9428
 252   2.0000      -0.288626        -7.8539
 253   2.0000      -0.286286        -7.7902
 254   2.0000      -0.281637        -7.6637
 255   2.0000      -0.273728        -7.4485
 256   2.0000      -0.269906        -7.3445
 257   2.0000      -0.267947        -7.2912
 258   2.0000      -0.262797        -7.1511
 259   2.0000      -0.247816        -6.7434
 260   2.0000      -0.240883        -6.5548
 261   2.0000      -0.237744        -6.4693
 262   2.0000      -0.211030        -5.7424
 263   0.0000      -0.137287        -3.7358
 264   0.0000      -0.129086        -3.5126
 265   0.0000      -0.114017        -3.1025
 266   0.0000      -0.109981        -2.9927
 267   0.0000      -0.095248        -2.5918

MULLIKEN ATOMIC CHARGES
-----------------------
   0 C :    0.193204
   1 O :   -0.337606
   2 C :    0.096117
   3 C :   -0.300315
   4 C :    0.279962
   5 F :   -0.175627
   6 C :    0.255472
   7 F :   -0.172416
   8 C :   -0.268302
   9 C :    0.073704
  10 C :    0.084251
  11 C :    0.134378
  12 C :   -0.205104
  13 N :    0.016260
  14 C :   -0.195660
  15 N :    0.007481
  16 C :   -0.126515
  17 C :   -0.175491
  18 C :    0.122740
  19 S :   -0.020637
  20 C :   -0.203439
  21 C :    0.038690
  22 C :    0.008844
  23 C :   -0.230178
  24 C :   -0.352472
  25 S :    0.039900
  26 C :   -0.150653
  27 C :    0.350842
  28 N :   -0.060180
  29 C :   -0.213504
  30 C :   -0.312052
  31 C :    0.059145
  32 C :    0.077076
  33 C :   -0.006930
  34 N :   -0.250930
  35 S :    0.334546
  36 N :   -0.251572
  37 C :   -0.027428
  38 C :    0.110170
  39 C :    0.044304
  40 N :   -0.093713
  41 C :   -0.184384
  42 C :   -0.319819
  43 C :    0.338589
  44 C :   -0.150775
  45 S :    0.032152
  46 C :    0.038081
  47 C :   -0.196734
  48 S :   -0.028005
  49 C :    0.105604
  50 C :    0.026769
  51 C :   -0.165463
  52 C :   -0.365828
  53 C :   -0.220987
  54 C :   -0.087387
  55 C :    0.055591
  56 C :    0.149425
  57 C :   -0.199178
  58 N :    0.009559
  59 C :   -0.209247
  60 N :    0.024720
  61 C :    0.074221
  62 C :   -0.264927
  63 C :    0.255089
  64 F :   -0.170563
  65 C :    0.282781
  66 F :   -0.173873
  67 C :   -0.296770
  68 C :    0.085436
  69 C :    0.204029
  70 O :   -0.325779
  71 H :    0.148743
  72 H :    0.167605
  73 H :    0.157423
  74 H :    0.169880
  75 H :    0.095056
  76 H :    0.125323
  77 H :    0.117191
  78 H :    0.114916
  79 H :    0.143458
  80 H :    0.135948
  81 H :    0.114460
  82 H :    0.135118
  83 H :    0.126461
  84 H :    0.138513
  85 H :    0.133860
  86 H :    0.137721
  87 H :    0.124457
  88 H :    0.117609
  89 H :    0.112724
  90 H :    0.113075
  91 H :    0.108825
  92 H :    0.111065
  93 H :    0.150803
  94 H :    0.162940
  95 H :    0.168196
  96 H :    0.149944
Sum of atomic charges:   -0.0000000

LOEWDIN ATOMIC CHARGES
----------------------
   0 C :   -0.253869
   1 O :    0.127501
   2 C :   -0.060434
   3 C :   -0.050325
   4 C :   -0.230660
   5 F :    0.223004
   6 C :   -0.231628
   7 F :    0.226120
   8 C :   -0.052897
   9 C :   -0.042249
  10 C :    0.014694
  11 C :   -0.135662
  12 C :   -0.159419
  13 N :    0.071158
  14 C :   -0.152904
  15 N :    0.073271
  16 C :   -0.093769
  17 C :   -0.074711
  18 C :   -0.280797
  19 S :    0.755263
  20 C :   -0.343007
  21 C :   -0.309595
  22 C :   -0.113045
  23 C :   -0.235259
  24 C :   -0.289145
  25 S :    0.739286
  26 C :   -0.281227
  27 C :   -0.181099
  28 N :    0.285779
  29 C :   -0.266452
  30 C :   -0.302018
  31 C :   -0.086455
  32 C :   -0.088502
  33 C :   -0.242377
  34 N :   -0.119753
  35 S :    0.643423
  36 N :   -0.118998
  37 C :   -0.242687
  38 C :   -0.087967
  39 C :   -0.089285
  40 N :    0.276324
  41 C :   -0.265763
  42 C :   -0.301520
  43 C :   -0.177194
  44 C :   -0.287015
  45 S :    0.749218
  46 C :   -0.308036
  47 C :   -0.336511
  48 S :    0.741421
  49 C :   -0.292773
  50 C :   -0.119305
  51 C :   -0.232027
  52 C :   -0.299050
  53 C :   -0.064965
  54 C :   -0.086753
  55 C :    0.014623
  56 C :   -0.133411
  57 C :   -0.150005
  58 N :    0.075910
  59 C :   -0.156508
  60 N :    0.077435
  61 C :   -0.041420
  62 C :   -0.051810
  63 C :   -0.230763
  64 F :    0.228475
  65 C :   -0.231589
  66 F :    0.225989
  67 C :   -0.048719
  68 C :   -0.060786
  69 C :   -0.252647
  70 O :    0.144470
  71 H :    0.165712
  72 H :    0.170644
  73 H :    0.173349
  74 H :    0.159924
  75 H :    0.140101
  76 H :    0.123588
  77 H :    0.123440
  78 H :    0.122659
  79 H :    0.144238
  80 H :    0.139482
  81 H :    0.119264
  82 H :    0.118756
  83 H :    0.131458
  84 H :    0.143938
  85 H :    0.138911
  86 H :    0.115716
  87 H :    0.131167
  88 H :    0.119889
  89 H :    0.147844
  90 H :    0.150028
  91 H :    0.121580
  92 H :    0.112400
  93 H :    0.128320
  94 H :    0.171928
  95 H :    0.170755
  96 H :    0.166307

  Mayer bond orders larger than 0.100000
B(  0-C ,  1-O ) :   2.0587 B(  0-C ,  2-C ) :   0.9556 B(  0-C , 16-C ) :   1.0344
B(  1-O ,  2-C ) :  -0.1568 B(  2-C ,  3-C ) :   1.3017 B(  2-C ,  9-C ) :   1.3351
B(  3-C ,  4-C ) :   1.3634 B(  3-C , 71-H ) :   0.9805 B(  4-C ,  5-F ) :   1.0676
B(  4-C ,  6-C ) :   1.3305 B(  6-C ,  7-F ) :   1.0853 B(  6-C ,  8-C ) :   1.4022
B(  8-C ,  9-C ) :   1.3124 B(  8-C , 72-H ) :   0.9269 B(  9-C , 10-C ) :   1.0310
B( 10-C , 11-C ) :   1.4605 B( 10-C , 16-C ) :   1.1152 B( 11-C , 12-C ) :   1.0259
B( 11-C , 14-C ) :   1.0246 B( 12-C , 13-N ) :   2.9923 B( 14-C , 15-N ) :   2.9735
B( 16-C , 17-C ) :   1.4322 B( 17-C , 18-C ) :   1.2523 B( 17-C , 73-H ) :   0.9171
B( 18-C , 19-S ) :   1.1760 B( 18-C , 22-C ) :   1.3645 B( 19-S , 20-C ) :   1.3500
B( 19-S , 22-C ) :   0.1046 B( 19-S , 27-C ) :  -0.1413 B( 20-C , 21-C ) :   1.3536
B( 20-C , 25-S ) :   0.1079 B( 20-C , 27-C ) :   1.0682 B( 21-C , 22-C ) :   1.2521
B( 21-C , 25-S ) :   1.1854 B( 22-C , 23-C ) :   0.9528 B( 23-C , 24-C ) :   0.9456
B( 23-C , 74-H ) :   0.9516 B( 23-C , 75-H ) :   0.9648 B( 24-C , 76-H ) :   0.9753
B( 24-C , 77-H ) :   0.9740 B( 24-C , 78-H ) :   0.9710 B( 25-S , 26-C ) :   1.3361
B( 26-C , 27-C ) :   1.2800 B( 26-C , 32-C ) :   1.1816 B( 27-C , 28-N ) :   1.1217
B( 28-N , 29-C ) :   0.8771 B( 28-N , 31-C ) :   1.2251 B( 29-C , 30-C ) :   0.9453
B( 29-C , 79-H ) :   0.9583 B( 29-C , 80-H ) :   0.9611 B( 30-C , 81-H ) :   0.9668
B( 30-C , 82-H ) :   0.9615 B( 30-C , 83-H ) :   0.9677 B( 31-C , 32-C ) :   1.2459
B( 31-C , 39-C ) :   1.2740 B( 32-C , 33-C ) :   1.0988 B( 33-C , 34-N ) :   1.6134
B( 33-C , 35-S ) :   0.1149 B( 33-C , 37-C ) :   1.1687 B( 34-N , 35-S ) :   1.2564
B( 34-N , 36-N ) :   0.1095 B( 35-S , 36-N ) :   1.2570 B( 35-S , 37-C ) :   0.1133
B( 36-N , 37-C ) :   1.6147 B( 37-C , 38-C ) :   1.0889 B( 38-C , 39-C ) :   1.2746
B( 38-C , 44-C ) :   1.1624 B( 39-C , 40-N ) :   1.2047 B( 40-N , 41-C ) :   0.8720
B( 40-N , 43-C ) :   1.1276 B( 41-C , 42-C ) :   0.9535 B( 41-C , 84-H ) :   0.9555
B( 41-C , 85-H ) :   0.9604 B( 42-C , 86-H ) :   0.9579 B( 42-C , 87-H ) :   0.9683
B( 42-C , 88-H ) :   0.9693 B( 43-C , 44-C ) :   1.2908 B( 43-C , 47-C ) :   1.0667
B( 43-C , 48-S ) :  -0.1340 B( 44-C , 45-S ) :   1.3512 B( 45-S , 46-C ) :   1.1638
B( 45-S , 47-C ) :   0.1109 B( 46-C , 47-C ) :   1.3646 B( 46-C , 50-C ) :   1.2274
B( 47-C , 48-S ) :   1.3213 B( 48-S , 49-C ) :   1.1945 B( 49-C , 50-C ) :   1.4191
B( 49-C , 53-C ) :   1.1617 B( 50-C , 51-C ) :   0.9734 B( 51-C , 52-C ) :   0.9521
B( 51-C , 89-H ) :   0.9739 B( 51-C , 90-H ) :   0.9450 B( 52-C , 91-H ) :   0.9706
B( 52-C , 92-H ) :   0.9680 B( 52-C , 93-H ) :   0.9719 B( 53-C , 54-C ) :   1.5197
B( 53-C , 94-H ) :   0.9140 B( 54-C , 55-C ) :   1.1295 B( 54-C , 69-C ) :   1.0191
B( 55-C , 56-C ) :   1.4739 B( 55-C , 61-C ) :   1.0163 B( 56-C , 57-C ) :   1.0262
B( 56-C , 59-C ) :   1.0132 B( 57-C , 58-N ) :   2.9701 B( 59-C , 60-N ) :   3.0002
B( 61-C , 62-C ) :   1.3069 B( 61-C , 68-C ) :   1.3316 B( 62-C , 63-C ) :   1.4043
B( 62-C , 95-H ) :   0.9288 B( 63-C , 64-F ) :   1.0858 B( 63-C , 65-C ) :   1.3279
B( 65-C , 66-F ) :   1.0697 B( 65-C , 67-C ) :   1.3658 B( 67-C , 68-C ) :   1.3018
B( 67-C , 96-H ) :   0.9782 B( 68-C , 69-C ) :   0.9727 B( 68-C , 70-O ) :  -0.1466
B( 69-C , 70-O ) :   2.0520

-----------------------------------------------------------------------------
  SOC CORRECTED ABSORPTION SPECTRUM VIA TRANSITION ELECTRIC DIPOLE MOMENTS*
-----------------------------------------------------------------------------
State   Energy  Wavelength   fosc         T2         TX        TY        TZ
        (cm-1)    (nm)                  (au**2)     (au)      (au)      (au)
-----------------------------------------------------------------------------
   1   10829.6    923.4   0.000000013   0.00000   0.00014   0.00044   0.00044
   2   10829.6    923.4   0.000000001   0.00000   0.00008   0.00002   0.00018
   3   10829.6    923.4   0.000000000   0.00000   0.00001   0.00002   0.00010
   4   12523.7    798.5   0.000000009   0.00000   0.00009   0.00034   0.00036
   5   12523.7    798.5   0.000000010   0.00000   0.00015   0.00019   0.00044
   6   12523.8    798.5   0.000000011   0.00000   0.00003   0.00041   0.00035
   7   14900.4    671.1   2.391039584  52.82808   2.42746   2.61093   6.33392
   8   16500.4    606.0   0.000000366   0.00001   0.00139   0.00037   0.00228
   9   16500.4    606.0   0.000000028   0.00000   0.00018   0.00040   0.00061
  10   16500.4    606.0   0.000000571   0.00001   0.00118   0.00061   0.00310
  11   16846.1    593.6   0.189685252   3.70690   1.08466   0.84936   1.34499
  12   18856.8    530.3   0.327292625   5.71404   0.59523   0.97876   2.09804

FINAL SINGLE POINT ENERGY     -4975.082375315548

DIPOLE MOMENT
-------------
                                X             Y             Z
Electronic contribution:      8.59408       3.34420       5.85692
Nuclear contribution   :     -8.09527      -1.04482      -4.40904
                        -----------------------------------------
Total Dipole Moment    :      0.49881       2.29939       1.44788
                        -----------------------------------------
Magnitude (a.u.)       :      2.76267
Magnitude (Debye)      :      7.02215

Rotational constants in cm-1:     0.002092     0.000227     0.000213
Rotational constants in MHz :    62.703803     6.816366     6.397506

                             ****ORCA TERMINATED NORMALLY****
TOTAL RUN TIME: 0 days 2 hours 22 minutes 17 seconds 128 msec
