                         Program Version 4.2.0 -  RELEASE  -
|  1> # ORCA input file
|  2> # N3.out
|  3> ! B3LYP def2-TZVP def2/J RIJCOSX Grid4 TightSCF
|  4>
|  5> %maxcore 2000
|  6> %tddft
|  7>   maxdim 5
|  8>   nroots 3
|  9>   dosoc true
| 10>   end
| 11>
| 12>
| 13>
| 14> * xyz 0 1
| 15>    C        2.95748         4.00128         0.96639
| 16>    O        4.06750         4.15209         0.48542
| 17>    C        2.06117         5.08219         1.42870
| 18>    C        2.28155         6.44451         1.41448
| 19>    C        1.27828         7.26203         1.90967
| 20>    F        1.44860         8.59038         1.91565
| 21>    C        0.09409         6.71418         2.40147
| 22>    F       -0.85793         7.52682         2.87420
| 23>    C       -0.12592         5.34423         2.41525
| 24>    C        0.87249         4.51965         1.92211
| 25>    C        0.95522         3.06243         1.79646
| 26>    C       -0.03554         2.18678         2.16267
| 27>    C        0.01316         0.78315         2.03519
| 28>    N       -0.02849        -0.36296         1.96157
| 29>    C       -1.26909         2.57915         2.72406
| 30>    N       -2.29039         2.82897         3.18447
| 31>    C        2.24394         2.75134         1.21625
| 32>    C        2.71721         1.48033         0.96970
| 33>    C        3.91558         1.04110         0.41020
| 34>    S        5.20648         2.09491        -0.17723
| 35>    C        6.13378         0.72072        -0.64594
| 36>    C        5.47387        -0.48631        -0.34605
| 37>    C        4.23024        -0.32253         0.24292
| 38>    C        3.33909        -1.47092         0.58428
| 39>    C        2.33746        -1.73333        -0.54414
| 40>    S        6.39707        -1.91583        -0.77279
| 41>    C        7.65994        -0.88595        -1.34775
| 42>    C        7.38014         0.48098        -1.22798
| 43>    N        8.43136         1.21925        -1.70907
| 44>    C        8.54106         2.60585        -1.31689
| 45>    C        9.43307         2.80610        -0.08498
| 46>    C        9.40281         0.33671        -2.14549
| 47>    C        8.94589        -0.99199        -1.89299
| 48>    C        9.76935        -2.11944        -2.09683
| 49>    N        9.49234        -3.39351        -1.86716
| 50>    S       10.81182        -4.27081        -2.19673
| 51>    N       11.78360        -3.06023        -2.64748
| 52>    C       11.11217        -1.92198        -2.55839
| 53>    C       11.52081        -0.62053        -2.92293
| 54>    C       10.65953         0.50116        -2.79217
| 55>    N       11.27120         1.59131        -3.40665
| 56>    C       10.70754         2.84043        -3.86873
| 57>    C       11.09761         4.05565        -3.01516
| 58>    C       12.47223         1.15776        -3.87540
| 59>    C       12.68829        -0.18490        -3.59254
| 60>    S       13.70711         1.85235        -4.85096
| 61>    C       14.59157         0.33467        -4.81096
| 62>    C       13.91610        -0.65312        -4.12993
| 63>    S       14.51494        -2.28238        -3.91107
| 64>    C       16.67105        -0.76141        -5.22645
| 65>    C       15.84985         0.21711        -5.51448
| 66>    C       16.17834         1.26861        -6.54624
| 67>    C       17.47991         0.98755        -7.28238
| 68>    C       17.41396        -1.82579        -5.08918
| 69>    C       17.02006        -3.04276        -5.78173
| 70>    C       17.87847        -4.01474        -6.41760
| 71>    C       19.23441        -3.91901        -6.57160
| 72>    C       20.01903        -4.87920        -7.24411
| 73>    N       20.69907        -5.63493        -7.77566
| 74>    C       19.99612        -2.82899        -6.09765
| 75>    N       20.65501        -1.95789        -5.74617
| 76>    C       17.00715        -5.06594        -6.95186
| 77>    C       17.27796        -6.24898        -7.60719
| 78>    C       16.19983        -7.04370        -7.98663
| 79>    F       16.44014        -8.19756        -8.62497
| 80>    C       14.88942        -6.66823        -7.71397
| 81>    F       13.87665        -7.45919        -8.09436
| 82>    C       14.60740        -5.48080        -7.04874
| 83>    C       15.67420        -4.69132        -6.67661
| 84>    C       15.70771        -3.42474        -5.95221
| 85>    O       14.58377        -2.84835        -5.52228
| 86>    C       12.50534         4.61803        -3.25965
| 87>    C       12.62293         5.24286        -4.64633
| 88>    C        8.84351         2.22613         1.21462
| 89>    C        9.42640         0.84470         1.50893
| 90>    C        9.09118         3.19023         2.38243
| 91>    C        8.37608         2.77921         3.66384
| 92>    C       12.81751         5.64556        -2.16271
| 93>    C       14.26275         6.12918        -2.17490
| 94>    H        3.19916         6.86327         1.03341
| 95>    H       -1.05858         4.97345         2.80700
| 96>    H        2.05748         0.67237         1.25437
| 97>    H        2.79752        -1.28741         1.51322
| 98>    H        3.96218        -2.35709         0.72015
| 99>    H        1.69690        -0.86871        -0.70049
|100>    H        1.71041        -2.58214        -0.28792
|101>    H        2.86142        -1.95155        -1.47175
|102>    H        7.52880         2.94637        -1.08498
|103>    H        8.90899         3.20978        -2.14151
|104>    H        9.57087         3.88290         0.03136
|105>    H       10.41290         2.35856        -0.26781
|106>    H        9.62257         2.72646        -3.91300
|107>    H       11.05874         2.99023        -4.89455
|108>    H       11.02756         3.78055        -1.96314
|109>    H       10.37431         4.85198        -3.20626
|110>    H       16.23740         2.23753        -6.04013
|111>    H       15.35022         1.32253        -7.25913
|112>    H       18.31304         0.93993        -6.58515
|113>    H       17.67707         1.77323        -8.00730
|114>    H       17.42266         0.03722        -7.80885
|115>    H       18.27671        -1.84689        -4.43937
|116>    H       18.27774        -6.58441        -7.83031
|117>    H       13.58776        -5.20190        -6.83886
|118>    H       13.23220         3.80535        -3.17265
|119>    H       11.92016         6.06675        -4.75063
|120>    H       12.42200         4.51526        -5.42824
|121>    H       13.62684         5.62178        -4.80870
|122>    H        7.75981         2.13293         1.09450
|123>    H       10.47936         0.92793         1.77260
|124>    H        9.34397         0.18779         0.64728
|125>    H        8.90206         0.37276         2.33489
|126>    H        8.73368         4.18171         2.09420
|127>    H       10.16503         3.26338         2.57017
|128>    H        7.31146         2.65263         3.47836
|129>    H        8.50138         3.54717         4.42351
|130>    H        8.77293         1.84805         4.05841
|131>    H       12.61564         5.18988        -1.18987
|132>    H       12.14684         6.50085        -2.27082
|133>    H       14.94761         5.28465        -2.14222
|134>    H       14.45204         6.75640        -1.30705
|135>    H       14.47783         6.71471        -3.06413
|136> *
|137>
|138>                          ****END OF INPUT****

CARTESIAN COORDINATES (ANGSTROEM)
---------------------------------
  C      2.957480    4.001280    0.966390
  O      4.067500    4.152090    0.485420
  C      2.061170    5.082190    1.428700
  C      2.281550    6.444510    1.414480
  C      1.278280    7.262030    1.909670
  F      1.448600    8.590380    1.915650
  C      0.094090    6.714180    2.401470
  F     -0.857930    7.526820    2.874200
  C     -0.125920    5.344230    2.415250
  C      0.872490    4.519650    1.922110
  C      0.955220    3.062430    1.796460
  C     -0.035540    2.186780    2.162670
  C      0.013160    0.783150    2.035190
  N     -0.028490   -0.362960    1.961570
  C     -1.269090    2.579150    2.724060
  N     -2.290390    2.828970    3.184470
  C      2.243940    2.751340    1.216250
  C      2.717210    1.480330    0.969700
  C      3.915580    1.041100    0.410200
  S      5.206480    2.094910   -0.177230
  C      6.133780    0.720720   -0.645940
  C      5.473870   -0.486310   -0.346050
  C      4.230240   -0.322530    0.242920
  C      3.339090   -1.470920    0.584280
  C      2.337460   -1.733330   -0.544140
  S      6.397070   -1.915830   -0.772790
  C      7.659940   -0.885950   -1.347750
  C      7.380140    0.480980   -1.227980
  N      8.431360    1.219250   -1.709070
  C      8.541060    2.605850   -1.316890
  C      9.433070    2.806100   -0.084980
  C      9.402810    0.336710   -2.145490
  C      8.945890   -0.991990   -1.892990
  C      9.769350   -2.119440   -2.096830
  N      9.492340   -3.393510   -1.867160
  S     10.811820   -4.270810   -2.196730
  N     11.783600   -3.060230   -2.647480
  C     11.112170   -1.921980   -2.558390
  C     11.520810   -0.620530   -2.922930
  C     10.659530    0.501160   -2.792170
  N     11.271200    1.591310   -3.406650
  C     10.707540    2.840430   -3.868730
  C     11.097610    4.055650   -3.015160
  C     12.472230    1.157760   -3.875400
  C     12.688290   -0.184900   -3.592540
  S     13.707110    1.852350   -4.850960
  C     14.591570    0.334670   -4.810960
  C     13.916100   -0.653120   -4.129930
  S     14.514940   -2.282380   -3.911070
  C     16.671050   -0.761410   -5.226450
  C     15.849850    0.217110   -5.514480
  C     16.178340    1.268610   -6.546240
  C     17.479910    0.987550   -7.282380
  C     17.413960   -1.825790   -5.089180
  C     17.020060   -3.042760   -5.781730
  C     17.878470   -4.014740   -6.417600
  C     19.234410   -3.919010   -6.571600
  C     20.019030   -4.879200   -7.244110
  N     20.699070   -5.634930   -7.775660
  C     19.996120   -2.828990   -6.097650
  N     20.655010   -1.957890   -5.746170
  C     17.007150   -5.065940   -6.951860
  C     17.277960   -6.248980   -7.607190
  C     16.199830   -7.043700   -7.986630
  F     16.440140   -8.197560   -8.624970
  C     14.889420   -6.668230   -7.713970
  F     13.876650   -7.459190   -8.094360
  C     14.607400   -5.480800   -7.048740
  C     15.674200   -4.691320   -6.676610
  C     15.707710   -3.424740   -5.952210
  O     14.583770   -2.848350   -5.522280
  C     12.505340    4.618030   -3.259650
  C     12.622930    5.242860   -4.646330
  C      8.843510    2.226130    1.214620
  C      9.426400    0.844700    1.508930
  C      9.091180    3.190230    2.382430
  C      8.376080    2.779210    3.663840
  C     12.817510    5.645560   -2.162710
  C     14.262750    6.129180   -2.174900
  H      3.199160    6.863270    1.033410
  H     -1.058580    4.973450    2.807000
  H      2.057480    0.672370    1.254370
  H      2.797520   -1.287410    1.513220
  H      3.962180   -2.357090    0.720150
  H      1.696900   -0.868710   -0.700490
  H      1.710410   -2.582140   -0.287920
  H      2.861420   -1.951550   -1.471750
  H      7.528800    2.946370   -1.084980
  H      8.908990    3.209780   -2.141510
  H      9.570870    3.882900    0.031360
  H     10.412900    2.358560   -0.267810
  H      9.622570    2.726460   -3.913000
  H     11.058740    2.990230   -4.894550
  H     11.027560    3.780550   -1.963140
  H     10.374310    4.851980   -3.206260
  H     16.237400    2.237530   -6.040130
  H     15.350220    1.322530   -7.259130
  H     18.313040    0.939930   -6.585150
  H     17.677070    1.773230   -8.007300
  H     17.422660    0.037220   -7.808850
  H     18.276710   -1.846890   -4.439370
  H     18.277740   -6.584410   -7.830310
  H     13.587760   -5.201900   -6.838860
  H     13.232200    3.805350   -3.172650
  H     11.920160    6.066750   -4.750630
  H     12.422000    4.515260   -5.428240
  H     13.626840    5.621780   -4.808700
  H      7.759810    2.132930    1.094500
  H     10.479360    0.927930    1.772600
  H      9.343970    0.187790    0.647280
  H      8.902060    0.372760    2.334890
  H      8.733680    4.181710    2.094200
  H     10.165030    3.263380    2.570170
  H      7.311460    2.652630    3.478360
  H      8.501380    3.547170    4.423510
  H      8.772930    1.848050    4.058410
  H     12.615640    5.189880   -1.189870
  H     12.146840    6.500850   -2.270820
  H     14.947610    5.284650   -2.142220
  H     14.452040    6.756400   -1.307050
  H     14.477830    6.714710   -3.064130

 Total Charge           Charge          ....    0
 Multiplicity           Mult            ....    1
 Number of Electrons    NEL             ....  590
 Basis Dimension        Dim             .... 2731

ORBITAL ENERGIES
----------------

  NO   OCC          E(Eh)            E(eV)
   0   2.0000     -88.944183     -2420.2943
   1   2.0000     -88.921153     -2419.6676
   2   2.0000     -88.915356     -2419.5098
   3   2.0000     -88.905929     -2419.2533
   4   2.0000     -88.902583     -2419.1623
   5   2.0000     -24.725131      -672.8050
   6   2.0000     -24.723007      -672.7472
   7   2.0000     -24.720399      -672.6763
   8   2.0000     -24.716743      -672.5768
   9   2.0000     -19.210219      -522.7366
  10   2.0000     -19.138343      -520.7808
  11   2.0000     -14.411110      -392.1462
  12   2.0000     -14.404176      -391.9576
  13   2.0000     -14.350583      -390.4992
  14   2.0000     -14.347981      -390.4284
  15   2.0000     -14.334367      -390.0580
  16   2.0000     -14.332448      -390.0057
  17   2.0000     -14.330956      -389.9651
  18   2.0000     -14.325416      -389.8144
  19   2.0000     -10.299245      -280.2567
  20   2.0000     -10.298582      -280.2387
  21   2.0000     -10.293803      -280.1086
  22   2.0000     -10.290359      -280.0149
  23   2.0000     -10.281074      -279.7622
  24   2.0000     -10.280448      -279.7452
  25   2.0000     -10.266062      -279.3538
  26   2.0000     -10.260590      -279.2048
  27   2.0000     -10.256931      -279.1053
  28   2.0000     -10.256869      -279.1036
  29   2.0000     -10.255482      -279.0659
  30   2.0000     -10.254501      -279.0392
  31   2.0000     -10.253585      -279.0142
  32   2.0000     -10.252033      -278.9720
  33   2.0000     -10.243474      -278.7391
  34   2.0000     -10.241893      -278.6961
  35   2.0000     -10.239836      -278.6401
  36   2.0000     -10.235746      -278.5288
  37   2.0000     -10.235322      -278.5173
  38   2.0000     -10.233659      -278.4720
  39   2.0000     -10.233476      -278.4670
  40   2.0000     -10.231399      -278.4105
  41   2.0000     -10.230981      -278.3992
  42   2.0000     -10.230459      -278.3849
  43   2.0000     -10.229899      -278.3697
  44   2.0000     -10.228781      -278.3393
  45   2.0000     -10.227763      -278.3116
  46   2.0000     -10.227721      -278.3104
  47   2.0000     -10.226704      -278.2828
  48   2.0000     -10.224506      -278.2229
  49   2.0000     -10.223188      -278.1871
  50   2.0000     -10.223124      -278.1853
  51   2.0000     -10.221078      -278.1297
  52   2.0000     -10.220288      -278.1082
  53   2.0000     -10.218362      -278.0558
  54   2.0000     -10.218183      -278.0509
  55   2.0000     -10.218028      -278.0467
  56   2.0000     -10.217053      -278.0201
  57   2.0000     -10.215598      -277.9806
  58   2.0000     -10.215010      -277.9646
  59   2.0000     -10.212513      -277.8966
  60   2.0000     -10.211236      -277.8619
  61   2.0000     -10.210314      -277.8368
  62   2.0000     -10.207199      -277.7520
  63   2.0000     -10.206508      -277.7332
  64   2.0000     -10.205096      -277.6948
  65   2.0000     -10.200909      -277.5809
  66   2.0000     -10.198915      -277.5266
  67   2.0000     -10.197310      -277.4829
  68   2.0000     -10.195387      -277.4306
  69   2.0000     -10.193398      -277.3765
  70   2.0000     -10.186301      -277.1833
  71   2.0000     -10.184476      -277.1337
  72   2.0000     -10.180023      -277.0125
  73   2.0000     -10.175265      -276.8830
  74   2.0000     -10.172728      -276.8140
  75   2.0000     -10.172213      -276.8000
  76   2.0000     -10.170975      -276.7663
  77   2.0000     -10.166380      -276.6413
  78   2.0000     -10.163922      -276.5744
  79   2.0000      -8.015327      -218.1081
  80   2.0000      -7.997441      -217.6214
  81   2.0000      -7.987830      -217.3599
  82   2.0000      -7.981529      -217.1885
  83   2.0000      -7.977748      -217.0856
  84   2.0000      -5.980013      -162.7244
  85   2.0000      -5.972600      -162.5227
  86   2.0000      -5.972168      -162.5110
  87   2.0000      -5.960016      -162.1803
  88   2.0000      -5.956301      -162.0792
  89   2.0000      -5.954481      -162.0297
  90   2.0000      -5.953799      -162.0111
  91   2.0000      -5.947240      -161.8326
  92   2.0000      -5.944481      -161.7575
  93   2.0000      -5.940763      -161.6564
  94   2.0000      -5.940739      -161.6557
  95   2.0000      -5.939640      -161.6258
  96   2.0000      -5.937286      -161.5618
  97   2.0000      -5.936476      -161.5397
  98   2.0000      -5.933687      -161.4638
  99   2.0000      -1.267249       -34.4836
 100   2.0000      -1.261436       -34.3254
 101   2.0000      -1.253876       -34.1197
 102   2.0000      -1.247841       -33.9555
 103   2.0000      -1.108704       -30.1694
 104   2.0000      -1.069180       -29.0939
 105   2.0000      -1.045512       -28.4498
 106   2.0000      -1.033180       -28.1143
 107   2.0000      -1.030241       -28.0343
 108   2.0000      -0.949372       -25.8337
 109   2.0000      -0.945296       -25.7228
 110   2.0000      -0.932462       -25.3736
 111   2.0000      -0.931382       -25.3442
 112   2.0000      -0.928425       -25.2637
 113   2.0000      -0.927624       -25.2419
 114   2.0000      -0.923077       -25.1182
 115   2.0000      -0.919991       -25.0342
 116   2.0000      -0.900043       -24.4914
 117   2.0000      -0.889784       -24.2123
 118   2.0000      -0.882182       -24.0054
 119   2.0000      -0.881151       -23.9773
 120   2.0000      -0.872368       -23.7383
 121   2.0000      -0.858603       -23.3638
 122   2.0000      -0.850513       -23.1436
 123   2.0000      -0.842478       -22.9250
 124   2.0000      -0.841348       -22.8942
 125   2.0000      -0.829737       -22.5783
 126   2.0000      -0.825659       -22.4673
 127   2.0000      -0.819040       -22.2872
 128   2.0000      -0.812952       -22.1215
 129   2.0000      -0.809079       -22.0161
 130   2.0000      -0.802514       -21.8375
 131   2.0000      -0.800893       -21.7934
 132   2.0000      -0.799331       -21.7509
 133   2.0000      -0.797497       -21.7010
 134   2.0000      -0.783930       -21.3318
 135   2.0000      -0.771038       -20.9810
 136   2.0000      -0.763782       -20.7836
 137   2.0000      -0.756969       -20.5982
 138   2.0000      -0.752641       -20.4804
 139   2.0000      -0.745213       -20.2783
 140   2.0000      -0.740469       -20.1492
 141   2.0000      -0.735724       -20.0201
 142   2.0000      -0.733647       -19.9635
 143   2.0000      -0.722058       -19.6482
 144   2.0000      -0.717973       -19.5370
 145   2.0000      -0.702862       -19.1258
 146   2.0000      -0.698086       -18.9959
 147   2.0000      -0.696949       -18.9649
 148   2.0000      -0.692481       -18.8434
 149   2.0000      -0.685756       -18.6604
 150   2.0000      -0.672083       -18.2883
 151   2.0000      -0.663295       -18.0492
 152   2.0000      -0.659260       -17.9394
 153   2.0000      -0.650498       -17.7010
 154   2.0000      -0.645913       -17.5762
 155   2.0000      -0.643573       -17.5125
 156   2.0000      -0.641145       -17.4464
 157   2.0000      -0.639939       -17.4136
 158   2.0000      -0.636316       -17.3150
 159   2.0000      -0.630131       -17.1467
 160   2.0000      -0.623079       -16.9548
 161   2.0000      -0.621805       -16.9202
 162   2.0000      -0.610943       -16.6246
 163   2.0000      -0.603936       -16.4339
 164   2.0000      -0.598115       -16.2755
 165   2.0000      -0.595407       -16.2018
 166   2.0000      -0.592253       -16.1160
 167   2.0000      -0.588347       -16.0097
 168   2.0000      -0.588034       -16.0012
 169   2.0000      -0.580120       -15.7859
 170   2.0000      -0.575251       -15.6534
 171   2.0000      -0.572716       -15.5844
 172   2.0000      -0.567576       -15.4445
 173   2.0000      -0.559035       -15.2121
 174   2.0000      -0.555651       -15.1200
 175   2.0000      -0.552909       -15.0454
 176   2.0000      -0.547936       -14.9101
 177   2.0000      -0.545814       -14.8524
 178   2.0000      -0.538804       -14.6616
 179   2.0000      -0.536799       -14.6070
 180   2.0000      -0.528671       -14.3859
 181   2.0000      -0.526004       -14.3133
 182   2.0000      -0.523386       -14.2420
 183   2.0000      -0.520498       -14.1635
 184   2.0000      -0.519436       -14.1346
 185   2.0000      -0.518660       -14.1134
 186   2.0000      -0.514512       -14.0006
 187   2.0000      -0.513343       -13.9688
 188   2.0000      -0.507497       -13.8097
 189   2.0000      -0.499398       -13.5893
 190   2.0000      -0.496906       -13.5215
 191   2.0000      -0.491500       -13.3744
 192   2.0000      -0.488683       -13.2977
 193   2.0000      -0.487574       -13.2676
 194   2.0000      -0.485128       -13.2010
 195   2.0000      -0.484228       -13.1765
 196   2.0000      -0.484031       -13.1712
 197   2.0000      -0.482102       -13.1187
 198   2.0000      -0.480703       -13.0806
 199   2.0000      -0.479052       -13.0357
 200   2.0000      -0.478715       -13.0265
 201   2.0000      -0.475522       -12.9396
 202   2.0000      -0.472894       -12.8681
 203   2.0000      -0.470663       -12.8074
 204   2.0000      -0.468759       -12.7556
 205   2.0000      -0.467409       -12.7188
 206   2.0000      -0.466981       -12.7072
 207   2.0000      -0.464421       -12.6376
 208   2.0000      -0.462708       -12.5909
 209   2.0000      -0.457837       -12.4584
 210   2.0000      -0.452894       -12.3239
 211   2.0000      -0.451959       -12.2984
 212   2.0000      -0.449634       -12.2352
 213   2.0000      -0.448845       -12.2137
 214   2.0000      -0.448001       -12.1907
 215   2.0000      -0.444151       -12.0860
 216   2.0000      -0.443167       -12.0592
 217   2.0000      -0.441863       -12.0237
 218   2.0000      -0.438636       -11.9359
 219   2.0000      -0.433807       -11.8045
 220   2.0000      -0.432506       -11.7691
 221   2.0000      -0.432057       -11.7569
 222   2.0000      -0.431124       -11.7315
 223   2.0000      -0.428639       -11.6639
 224   2.0000      -0.428162       -11.6509
 225   2.0000      -0.425716       -11.5843
 226   2.0000      -0.424659       -11.5556
 227   2.0000      -0.421386       -11.4665
 228   2.0000      -0.420600       -11.4451
 229   2.0000      -0.414913       -11.2903
 230   2.0000      -0.414208       -11.2712
 231   2.0000      -0.409956       -11.1555
 232   2.0000      -0.405848       -11.0437
 233   2.0000      -0.404817       -11.0156
 234   2.0000      -0.400779       -10.9058
 235   2.0000      -0.397531       -10.8174
 236   2.0000      -0.395737       -10.7685
 237   2.0000      -0.394667       -10.7394
 238   2.0000      -0.393843       -10.7170
 239   2.0000      -0.392850       -10.6900
 240   2.0000      -0.392133       -10.6705
 241   2.0000      -0.389956       -10.6112
 242   2.0000      -0.389083       -10.5875
 243   2.0000      -0.387812       -10.5529
 244   2.0000      -0.386308       -10.5120
 245   2.0000      -0.384456       -10.4616
 246   2.0000      -0.383647       -10.4396
 247   2.0000      -0.381569       -10.3830
 248   2.0000      -0.379796       -10.3348
 249   2.0000      -0.379192       -10.3183
 250   2.0000      -0.377582       -10.2745
 251   2.0000      -0.375519       -10.2184
 252   2.0000      -0.372694       -10.1415
 253   2.0000      -0.371919       -10.1204
 254   2.0000      -0.369981       -10.0677
 255   2.0000      -0.368443       -10.0258
 256   2.0000      -0.367886       -10.0107
 257   2.0000      -0.366520        -9.9735
 258   2.0000      -0.365844        -9.9551
 259   2.0000      -0.364137        -9.9087
 260   2.0000      -0.363701        -9.8968
 261   2.0000      -0.362330        -9.8595
 262   2.0000      -0.360249        -9.8029
 263   2.0000      -0.355036        -9.6610
 264   2.0000      -0.352372        -9.5885
 265   2.0000      -0.351934        -9.5766
 266   2.0000      -0.349564        -9.5121
 267   2.0000      -0.348760        -9.4902
 268   2.0000      -0.348206        -9.4752
 269   2.0000      -0.345092        -9.3904
 270   2.0000      -0.344090        -9.3632
 271   2.0000      -0.342062        -9.3080
 272   2.0000      -0.338765        -9.2183
 273   2.0000      -0.337970        -9.1966
 274   2.0000      -0.334387        -9.0991
 275   2.0000      -0.332632        -9.0514
 276   2.0000      -0.327557        -8.9133
 277   2.0000      -0.319207        -8.6861
 278   2.0000      -0.311048        -8.4641
 279   2.0000      -0.308346        -8.3905
 280   2.0000      -0.305559        -8.3147
 281   2.0000      -0.299938        -8.1617
 282   2.0000      -0.296174        -8.0593
 283   2.0000      -0.293566        -7.9883
 284   2.0000      -0.285013        -7.7556
 285   2.0000      -0.277946        -7.5633
 286   2.0000      -0.271883        -7.3983
 287   2.0000      -0.269032        -7.3207
 288   2.0000      -0.266246        -7.2449
 289   2.0000      -0.251831        -6.8527
 290   2.0000      -0.245106        -6.6697
 291   2.0000      -0.235546        -6.4095
 292   2.0000      -0.234249        -6.3742
 293   2.0000      -0.219998        -5.9865
 294   2.0000      -0.208280        -5.6676
 295   0.0000      -0.132774        -3.6130
 296   0.0000      -0.127542        -3.4706
 297   0.0000      -0.109119        -2.9693
 298   0.0000      -0.094165        -2.5624
 299   0.0000      -0.079837        -2.1725

MULLIKEN ATOMIC CHARGES
-----------------------
   0 C :    0.196690
   1 O :   -0.347419
   2 C :    0.097592
   3 C :   -0.317416
   4 C :    0.283772
   5 F :   -0.182041
   6 C :    0.256704
   7 F :   -0.177224
   8 C :   -0.269335
   9 C :    0.076039
  10 C :    0.008351
  11 C :    0.149498
  12 C :   -0.212282
  13 N :    0.023404
  14 C :   -0.230725
  15 N :    0.041674
  16 C :   -0.060625
  17 C :   -0.122267
  18 C :    0.049591
  19 S :    0.017010
  20 C :   -0.253425
  21 C :    0.036035
  22 C :    0.025793
  23 C :   -0.217039
  24 C :   -0.315584
  25 S :    0.024558
  26 C :   -0.153360
  27 C :    0.391619
  28 N :   -0.036934
  29 C :   -0.227089
  30 C :   -0.177090
  31 C :    0.048344
  32 C :    0.064186
  33 C :    0.022329
  34 N :   -0.252812
  35 S :    0.338948
  36 N :   -0.242049
  37 C :   -0.020219
  38 C :    0.022139
  39 C :   -0.048406
  40 N :   -0.018617
  41 C :   -0.238754
  42 C :   -0.166052
  43 C :    0.013544
  44 C :    0.168592
  45 S :   -0.022271
  46 C :    0.171761
  47 C :   -0.246029
  48 S :    0.140995
  49 C :    0.066507
  50 C :   -0.124360
  51 C :   -0.179179
  52 C :   -0.335637
  53 C :   -0.256852
  54 C :    0.001598
  55 C :    0.053477
  56 C :    0.194454
  57 C :   -0.218826
  58 N :    0.048834
  59 C :   -0.221089
  60 N :    0.045914
  61 C :    0.008983
  62 C :   -0.245660
  63 C :    0.241272
  64 F :   -0.183385
  65 C :    0.283597
  66 F :   -0.184893
  67 C :   -0.309353
  68 C :    0.126157
  69 C :    0.184055
  70 O :   -0.291533
  71 C :   -0.041176
  72 C :   -0.356566
  73 C :    0.051658
  74 C :   -0.405185
  75 C :   -0.140969
  76 C :   -0.358170
  77 C :   -0.144585
  78 C :   -0.349902
  79 H :    0.143596
  80 H :    0.166625
  81 H :    0.140116
  82 H :    0.125795
  83 H :    0.107348
  84 H :    0.118600
  85 H :    0.122204
  86 H :    0.114835
  87 H :    0.159440
  88 H :    0.129457
  89 H :    0.103031
  90 H :    0.108750
  91 H :    0.170394
  92 H :    0.144386
  93 H :    0.104436
  94 H :    0.096011
  95 H :    0.100769
  96 H :    0.107514
  97 H :    0.130149
  98 H :    0.115623
  99 H :    0.111783
 100 H :    0.154937
 101 H :    0.166301
 102 H :    0.144575
 103 H :    0.074211
 104 H :    0.108317
 105 H :    0.103433
 106 H :    0.123484
 107 H :    0.057882
 108 H :    0.103478
 109 H :    0.146873
 110 H :    0.116632
 111 H :    0.083206
 112 H :    0.083042
 113 H :    0.108385
 114 H :    0.112336
 115 H :    0.114005
 116 H :    0.088580
 117 H :    0.083493
 118 H :    0.106317
 119 H :    0.116035
 120 H :    0.110326
Sum of atomic charges:   -0.0000000

LOEWDIN ATOMIC CHARGES
----------------------
   0 C :   -0.258659
   1 O :    0.111400
   2 C :   -0.058875
   3 C :   -0.049412
   4 C :   -0.225798
   5 F :    0.211156
   6 C :   -0.224261
   7 F :    0.215807
   8 C :   -0.048688
   9 C :   -0.043178
  10 C :    0.009166
  11 C :   -0.137963
  12 C :   -0.168407
  13 N :    0.077775
  14 C :   -0.165723
  15 N :    0.081256
  16 C :   -0.094877
  17 C :   -0.054934
  18 C :   -0.299438
  19 S :    0.780325
  20 C :   -0.341164
  21 C :   -0.323250
  22 C :   -0.128257
  23 C :   -0.230525
  24 C :   -0.281733
  25 S :    0.752938
  26 C :   -0.293013
  27 C :   -0.194548
  28 N :    0.300307
  29 C :   -0.235750
  30 C :   -0.233340
  31 C :   -0.094566
  32 C :   -0.098413
  33 C :   -0.245930
  34 N :   -0.127825
  35 S :    0.653790
  36 N :   -0.131420
  37 C :   -0.242182
  38 C :   -0.063758
  39 C :   -0.095319
  40 N :    0.281870
  41 C :   -0.239158
  42 C :   -0.242619
  43 C :   -0.374164
  44 C :   -0.127760
  45 S :    0.777097
  46 C :   -0.293944
  47 C :   -0.375384
  48 S :    0.657692
  49 C :    0.010838
  50 C :   -0.173427
  51 C :   -0.242418
  52 C :   -0.286290
  53 C :   -0.118008
  54 C :   -0.091576
  55 C :    0.017136
  56 C :   -0.120532
  57 C :   -0.154584
  58 N :    0.093385
  59 C :   -0.154373
  60 N :    0.093764
  61 C :   -0.047400
  62 C :   -0.049290
  63 C :   -0.231933
  64 F :    0.208132
  65 C :   -0.228919
  66 F :    0.208745
  67 C :   -0.059376
  68 C :   -0.063702
  69 C :   -0.205169
  70 O :    0.088752
  71 C :   -0.294940
  72 C :   -0.281850
  73 C :   -0.280017
  74 C :   -0.274132
  75 C :   -0.267649
  76 C :   -0.302722
  77 C :   -0.263318
  78 C :   -0.302253
  79 H :    0.162417
  80 H :    0.169704
  81 H :    0.178075
  82 H :    0.146808
  83 H :    0.143598
  84 H :    0.120845
  85 H :    0.124375
  86 H :    0.119607
  87 H :    0.145484
  88 H :    0.135931
  89 H :    0.142380
  90 H :    0.139858
  91 H :    0.141367
  92 H :    0.141323
  93 H :    0.145059
  94 H :    0.142625
  95 H :    0.141993
  96 H :    0.142662
  97 H :    0.127729
  98 H :    0.119268
  99 H :    0.123511
 100 H :    0.165047
 101 H :    0.167888
 102 H :    0.161053
 103 H :    0.144100
 104 H :    0.122077
 105 H :    0.110300
 106 H :    0.122972
 107 H :    0.150441
 108 H :    0.120491
 109 H :    0.126584
 110 H :    0.121251
 111 H :    0.133101
 112 H :    0.132936
 113 H :    0.118857
 114 H :    0.117802
 115 H :    0.115960
 116 H :    0.134103
 117 H :    0.134219
 118 H :    0.118343
 119 H :    0.119258
 120 H :    0.115381

  Mayer bond orders larger than 0.100000
B(  0-C ,  1-O ) :   2.0129 B(  0-C ,  2-C ) :   1.0420 B(  0-C , 16-C ) :   1.0163
B(  1-O ,  2-C ) :  -0.1527 B(  2-C ,  3-C ) :   1.3097 B(  2-C ,  9-C ) :   1.3392
B(  3-C ,  4-C ) :   1.3530 B(  3-C , 79-H ) :   0.9863 B(  4-C ,  5-F ) :   1.0617
B(  4-C ,  6-C ) :   1.3486 B(  6-C ,  7-F ) :   1.0838 B(  6-C ,  8-C ) :   1.3819
B(  8-C ,  9-C ) :   1.3328 B(  8-C , 80-H ) :   0.9285 B(  9-C , 10-C ) :   1.0439
B( 10-C , 11-C ) :   1.4454 B( 10-C , 16-C ) :   1.1647 B( 11-C , 12-C ) :   1.0645
B( 11-C , 14-C ) :   1.0255 B( 12-C , 13-N ) :   2.9176 B( 14-C , 15-N ) :   2.9867
B( 16-C , 17-C ) :   1.4142 B( 17-C , 18-C ) :   1.3303 B( 17-C , 81-H ) :   0.8498
B( 18-C , 19-S ) :   1.2782 B( 18-C , 22-C ) :   1.2811 B( 19-S , 20-C ) :   1.3911
B( 19-S , 27-C ) :  -0.1578 B( 20-C , 21-C ) :   1.2998 B( 20-C , 25-S ) :   0.1130
B( 20-C , 27-C ) :   1.0219 B( 21-C , 22-C ) :   1.3648 B( 21-C , 25-S ) :   1.1856
B( 22-C , 23-C ) :   0.9530 B( 23-C , 24-C ) :   0.9677 B( 23-C , 82-H ) :   0.9508
B( 23-C , 83-H ) :   0.9727 B( 24-C , 84-H ) :   0.9728 B( 24-C , 85-H ) :   0.9728
B( 24-C , 86-H ) :   0.9700 B( 25-S , 26-C ) :   1.3665 B( 26-C , 27-C ) :   1.2369
B( 26-C , 32-C ) :   1.1616 B( 27-C , 28-N ) :   1.1227 B( 28-N , 29-C ) :   0.8708
B( 28-N , 31-C ) :   1.2080 B( 29-C , 30-C ) :   0.9431 B( 29-C , 87-H ) :   0.9652
B( 29-C , 88-H ) :   0.9679 B( 30-C , 73-C ) :   0.9262 B( 30-C , 89-H ) :   0.9661
B( 30-C , 90-H ) :   0.9635 B( 31-C , 32-C ) :   1.2576 B( 31-C , 39-C ) :   1.2937
B( 32-C , 33-C ) :   1.1107 B( 33-C , 34-N ) :   1.5950 B( 33-C , 35-S ) :   0.1178
B( 33-C , 37-C ) :   1.2006 B( 34-N , 35-S ) :   1.2819 B( 34-N , 36-N ) :   0.1075
B( 35-S , 36-N ) :   1.2905 B( 35-S , 37-C ) :   0.1253 B( 36-N , 37-C ) :   1.5890
B( 37-C , 38-C ) :   1.0914 B( 38-C , 39-C ) :   1.3106 B( 38-C , 44-C ) :   1.2075
B( 39-C , 40-N ) :   1.1581 B( 40-N , 41-C ) :   0.8508 B( 40-N , 43-C ) :   1.1819
B( 41-C , 42-C ) :   0.8968 B( 41-C , 91-H ) :   0.9833 B( 41-C , 92-H ) :   0.9770
B( 42-C , 71-C ) :   0.9710 B( 42-C , 93-H ) :   0.9707 B( 42-C , 94-H ) :   0.9677
B( 43-C , 44-C ) :   1.3495 B( 43-C , 45-S ) :   1.1931 B( 44-C , 46-C ) :  -0.1145
B( 44-C , 47-C ) :   1.0546 B( 45-S , 46-C ) :   1.2270 B( 45-S , 47-C ) :   0.1462
B( 46-C , 47-C ) :   1.4110 B( 46-C , 50-C ) :   1.0123 B( 47-C , 48-S ) :   1.1733
B( 48-S , 70-O ) :   0.8517 B( 49-C , 50-C ) :   1.7997 B( 49-C , 53-C ) :   1.8942
B( 50-C , 51-C ) :   0.9774 B( 51-C , 52-C ) :   0.9990 B( 51-C , 95-H ) :   0.9437
B( 51-C , 96-H ) :   0.9566 B( 52-C , 97-H ) :   0.9713 B( 52-C , 98-H ) :   0.9763
B( 52-C , 99-H ) :   0.9781 B( 53-C , 54-C ) :   1.0219 B( 53-C ,100-H ) :   0.9182
B( 54-C , 55-C ) :   1.0863 B( 54-C , 69-C ) :   1.5076 B( 55-C , 56-C ) :   1.4418
B( 55-C , 61-C ) :   1.0082 B( 56-C , 57-C ) :   1.0369 B( 56-C , 59-C ) :   1.0290
B( 57-C , 58-N ) :   2.9787 B( 59-C , 60-N ) :   2.9789 B( 61-C , 62-C ) :   1.3597
B( 61-C , 68-C ) :   1.3087 B( 62-C , 63-C ) :   1.3460 B( 62-C ,101-H ) :   0.9313
B( 63-C , 64-F ) :   1.0745 B( 63-C , 65-C ) :   1.3869 B( 65-C , 66-F ) :   1.0563
B( 65-C , 67-C ) :   1.3227 B( 67-C , 68-C ) :   1.3286 B( 67-C ,102-H ) :   0.9810
B( 68-C , 69-C ) :   1.0189 B( 68-C , 70-O ) :  -0.1011 B( 69-C , 70-O ) :   1.2146
B( 71-C , 72-C ) :   0.9423 B( 71-C , 77-C ) :   0.9744 B( 71-C ,103-H ) :   0.9455
B( 72-C ,104-H ) :   0.9638 B( 72-C ,105-H ) :   0.9752 B( 72-C ,106-H ) :   0.9853
B( 73-C , 74-C ) :   0.9443 B( 73-C , 75-C ) :   0.9461 B( 73-C ,107-H ) :   0.9658
B( 74-C ,108-H ) :   0.9641 B( 74-C ,109-H ) :   0.9828 B( 74-C ,110-H ) :   0.9803
B( 75-C , 76-C ) :   0.9606 B( 75-C ,111-H ) :   0.9679 B( 75-C ,112-H ) :   0.9660
B( 76-C ,113-H ) :   0.9753 B( 76-C ,114-H ) :   0.9799 B( 76-C ,115-H ) :   0.9807
B( 77-C , 78-C ) :   0.9624 B( 77-C ,116-H ) :   0.9722 B( 77-C ,117-H ) :   0.9636
B( 78-C ,118-H ) :   0.9759 B( 78-C ,119-H ) :   0.9810 B( 78-C ,120-H ) :   0.9797

-----------------------------------------------------------------------------
  SOC CORRECTED ABSORPTION SPECTRUM VIA TRANSITION ELECTRIC DIPOLE MOMENTS*
-----------------------------------------------------------------------------
State   Energy  Wavelength   fosc         T2         TX        TY        TZ
        (cm-1)    (nm)                  (au**2)     (au)      (au)      (au)
-----------------------------------------------------------------------------
   1   11494.5    870.0   0.000000001   0.00000   0.00011   0.00010   0.00006
   2   11494.5    870.0   0.000000000   0.00000   0.00009   0.00001   0.00004
   3   11494.5    870.0   0.000000036   0.00000   0.00052   0.00083   0.00029
   4   12099.8    826.5   0.000000018   0.00000   0.00047   0.00040   0.00033
   5   12099.8    826.5   0.000001569   0.00004   0.00448   0.00367   0.00303
   6   12100.0    826.4   0.000004969   0.00014   0.00675   0.00784   0.00531
   7   13262.5    754.0   0.000022325   0.00055   0.01600   0.01352   0.01074
   8   13262.6    754.0   0.000000061   0.00000   0.00089   0.00062   0.00057
   9   13262.7    754.0   0.000056219   0.00140   0.02488   0.02202   0.01707
  10   13929.1    717.9   0.032234364   0.76186   0.71731   0.32627   0.37532
  11   15044.5    664.7   0.058688862   1.28426   0.83907   0.53126   0.54588
  12   17014.1    587.7   1.405179714  27.18929   4.54339   1.44686   2.11034

FINAL SINGLE POINT ENERGY     -5289.359513006855

DIPOLE MOMENT
-------------
                                X             Y             Z
Electronic contribution:    -27.87705     -76.43512     -24.97434
Nuclear contribution   :     28.56829      79.34874      24.39601
                        -----------------------------------------
Total Dipole Moment    :      0.69124       2.91362      -0.57832
                        -----------------------------------------
Magnitude (a.u.)       :      3.04983
Magnitude (Debye)      :      7.75205

Rotational constants in cm-1:     0.001587     0.000264     0.000236
Rotational constants in MHz :    47.588505     7.915173     7.071037

                             ****ORCA TERMINATED NORMALLY****
TOTAL RUN TIME: 1 days 5 hours 14 minutes 21 seconds 329 msec
