                         Program Version 4.2.0 -  RELEASE  -
|  1> # ORCA input file
|  2> # NITV.out
|  3> ! B3LYP def2-TZVP def2/J RIJCOSX Grid4 TightSCF
|  4>
|  5> %maxcore 2000
|  6> %tddft
|  7>   maxdim 5
|  8>   nroots 3
|  9>   dosoc true
| 10>   end
| 11>
| 12>
| 13>
| 14> * xyz 0 1
| 15>    C       -0.50410        -1.84186        -0.17293
| 16>    C        5.04718         4.45477        -0.71344
| 17>    C       -0.99553        -3.16148        -0.08256
| 18>    C       -0.43812        -4.40205        -0.08943
| 19>    C        5.44481         5.80537        -0.69346
| 20>    C        4.70135         6.94346        -0.56808
| 21>    C        0.90449        -4.95147        -0.17206
| 22>    C        0.75897        -6.36301        -0.15348
| 23>    C       -0.57413        -6.79013        -0.05776
| 24>    C       -1.39751        -5.55716        -0.00240
| 25>    C        5.24756         8.29224        -0.56635
| 26>    C        4.15161         9.17183        -0.42400
| 27>    C        2.92162         8.50453        -0.33234
| 28>    C        3.22949         7.05060        -0.41812
| 29>    C        2.19461        -4.46212        -0.24959
| 30>    C        3.27915        -5.34945        -0.31559
| 31>    C        3.12326        -6.72538        -0.30685
| 32>    C        1.82317        -7.25486        -0.22117
| 33>    C        1.53054        -8.63013        -0.20228
| 34>    C        0.21339        -9.04968        -0.11023
| 35>    C       -0.85192        -8.13870        -0.03434
| 36>    C        4.25181        -7.66151        -0.37708
| 37>    N        3.92531        -9.01540        -0.34798
| 38>    C        2.65582        -9.57947        -0.28596
| 39>    C        5.05418        -9.93801        -0.39987
| 40>    C        5.76826       -10.06883         0.95164
| 41>    C        4.80401       -10.53322         2.03973
| 42>    C        6.92591       -11.05194         0.80399
| 43>    C        1.76996         9.24736        -0.19614
| 44>    C        1.87012        10.64843        -0.15459
| 45>    C        3.08779        11.30344        -0.24531
| 46>    C        4.26909        10.55419        -0.38363
| 47>    C        5.55883        11.10547        -0.49094
| 48>    C        6.64152        10.25053        -0.62963
| 49>    C        6.50456         8.85372        -0.66881
| 50>    C        5.69055        12.56789        -0.45419
| 51>    N        4.50048        13.28068        -0.29665
| 52>    C        3.21116        12.77229        -0.20466
| 53>    C        4.60844        14.73459        -0.23429
| 54>    C        4.46268        15.27508         1.19406
| 55>    C        5.51058        14.66514         2.12097
| 56>    C        4.59295        16.79501         1.16089
| 57>    O        5.40991        -7.30636        -0.46128
| 58>    O        2.49865       -10.78251        -0.30804
| 59>    O       -2.60167        -5.47115         0.09099
| 60>    O        2.42284         6.14102        -0.37100
| 61>    O        6.75481        13.14117        -0.55988
| 62>    O        2.25563        13.51344        -0.10212
| 63>    C       -1.32419        -0.72314        -0.13029
| 64>    C       -0.66483         0.49859        -0.24919
| 65>    C        0.71190         0.33921        -0.38788
| 66>    S        1.15164        -1.34533        -0.37096
| 67>    C        5.93427         3.39092        -0.85341
| 68>    C        5.34404         2.13304        -0.84890
| 69>    C        3.95825         2.21723        -0.70048
| 70>    S        3.41800         3.86476        -0.57411
| 71>    C        1.68800         1.35522        -0.51030
| 72>    C        3.02256         1.15402        -0.63295
| 73>    C        6.13406         0.86864        -0.95934
| 74>    C        6.77280         0.46942         0.38439
| 75>    C        5.70802         0.09615         1.41115
| 76>    C        7.73843        -0.69353         0.17392
| 77>    C       -1.37883         1.81020        -0.19772
| 78>    C       -1.67054         2.25568         1.24798
| 79>    C       -0.38194         2.55335         2.00849
| 80>    C       -2.56964         3.48865         1.23166
| 81>    H       -2.08038        -3.19348         0.00755
| 82>    H        6.51660         5.94493        -0.79625
| 83>    H        2.39867        -3.40550        -0.25901
| 84>    H        4.28289        -4.95472        -0.37686
| 85>    H        0.01722       -10.11175        -0.09686
| 86>    H       -1.86775        -8.49543         0.03992
| 87>    H        5.75663        -9.56173        -1.14733
| 88>    H        4.66382       -10.90834        -0.71096
| 89>    H        6.16980        -9.08708         1.22276
| 90>    H        4.32901       -11.46822         1.75108
| 91>    H        4.02397        -9.79418         2.21449
| 92>    H        5.33788       -10.68772         2.97461
| 93>    H        6.55275       -12.03762         0.53412
| 94>    H        7.47189       -11.13558         1.74038
| 95>    H        7.61643       -10.71935         0.03266
| 96>    H        0.80393         8.77145        -0.12371
| 97>    H        0.97744        11.24758        -0.04967
| 98>    H        7.62491        10.69031        -0.71074
| 99>    H        7.38903         8.24444        -0.77968
|100>    H        3.82013        15.15423        -0.86391
|101>    H        5.58711        15.00203        -0.63596
|102>    H        3.46446        15.01366         1.55940
|103>    H        6.51054        14.84446         1.73220
|104>    H        5.37006        13.58997         2.21830
|105>    H        5.43801        15.10603         3.11253
|106>    H        5.57820        17.08255         0.80021
|107>    H        4.45781        17.20723         2.15766
|108>    H        3.84283        17.23042         0.50519
|109>    H       -2.39123        -0.80717        -0.01721
|110>    H        6.99473         3.54461        -0.96116
|111>    H        1.32328         2.37254        -0.48623
|112>    H        3.40555         0.14318        -0.66784
|113>    H        6.93175         1.02078        -1.69018
|114>    H        5.50505         0.05183        -1.31425
|115>    H        7.33541         1.33024         0.76311
|116>    H        5.14641        -0.77448         1.07852
|117>    H        5.01274         0.91759         1.56792
|118>    H        6.17269        -0.14459         2.36445
|119>    H        7.21104        -1.55931        -0.22081
|120>    H        8.20177        -0.97653         1.11600
|121>    H        8.52566        -0.42272        -0.52614
|122>    H       -2.32959         1.70475        -0.72528
|123>    H       -0.79954         2.58553        -0.69948
|124>    H       -2.19745         1.44047         1.75701
|125>    H        0.15827         3.37309         1.53945
|126>    H        0.26705         1.68103         2.03605
|127>    H       -0.60976         2.83918         3.03280
|128>    H       -2.07366         4.31027         0.71939
|129>    H       -2.79619         3.80552         2.24690
|130>    H       -3.50739         3.27981         0.72160
|131> *
|132>
|133>                          ****END OF INPUT****

CARTESIAN COORDINATES (ANGSTROEM)
---------------------------------
  C     -0.504100   -1.841860   -0.172930
  C      5.047180    4.454770   -0.713440
  C     -0.995530   -3.161480   -0.082560
  C     -0.438120   -4.402050   -0.089430
  C      5.444810    5.805370   -0.693460
  C      4.701350    6.943460   -0.568080
  C      0.904490   -4.951470   -0.172060
  C      0.758970   -6.363010   -0.153480
  C     -0.574130   -6.790130   -0.057760
  C     -1.397510   -5.557160   -0.002400
  C      5.247560    8.292240   -0.566350
  C      4.151610    9.171830   -0.424000
  C      2.921620    8.504530   -0.332340
  C      3.229490    7.050600   -0.418120
  C      2.194610   -4.462120   -0.249590
  C      3.279150   -5.349450   -0.315590
  C      3.123260   -6.725380   -0.306850
  C      1.823170   -7.254860   -0.221170
  C      1.530540   -8.630130   -0.202280
  C      0.213390   -9.049680   -0.110230
  C     -0.851920   -8.138700   -0.034340
  C      4.251810   -7.661510   -0.377080
  N      3.925310   -9.015400   -0.347980
  C      2.655820   -9.579470   -0.285960
  C      5.054180   -9.938010   -0.399870
  C      5.768260  -10.068830    0.951640
  C      4.804010  -10.533220    2.039730
  C      6.925910  -11.051940    0.803990
  C      1.769960    9.247360   -0.196140
  C      1.870120   10.648430   -0.154590
  C      3.087790   11.303440   -0.245310
  C      4.269090   10.554190   -0.383630
  C      5.558830   11.105470   -0.490940
  C      6.641520   10.250530   -0.629630
  C      6.504560    8.853720   -0.668810
  C      5.690550   12.567890   -0.454190
  N      4.500480   13.280680   -0.296650
  C      3.211160   12.772290   -0.204660
  C      4.608440   14.734590   -0.234290
  C      4.462680   15.275080    1.194060
  C      5.510580   14.665140    2.120970
  C      4.592950   16.795010    1.160890
  O      5.409910   -7.306360   -0.461280
  O      2.498650  -10.782510   -0.308040
  O     -2.601670   -5.471150    0.090990
  O      2.422840    6.141020   -0.371000
  O      6.754810   13.141170   -0.559880
  O      2.255630   13.513440   -0.102120
  C     -1.324190   -0.723140   -0.130290
  C     -0.664830    0.498590   -0.249190
  C      0.711900    0.339210   -0.387880
  S      1.151640   -1.345330   -0.370960
  C      5.934270    3.390920   -0.853410
  C      5.344040    2.133040   -0.848900
  C      3.958250    2.217230   -0.700480
  S      3.418000    3.864760   -0.574110
  C      1.688000    1.355220   -0.510300
  C      3.022560    1.154020   -0.632950
  C      6.134060    0.868640   -0.959340
  C      6.772800    0.469420    0.384390
  C      5.708020    0.096150    1.411150
  C      7.738430   -0.693530    0.173920
  C     -1.378830    1.810200   -0.197720
  C     -1.670540    2.255680    1.247980
  C     -0.381940    2.553350    2.008490
  C     -2.569640    3.488650    1.231660
  H     -2.080380   -3.193480    0.007550
  H      6.516600    5.944930   -0.796250
  H      2.398670   -3.405500   -0.259010
  H      4.282890   -4.954720   -0.376860
  H      0.017220  -10.111750   -0.096860
  H     -1.867750   -8.495430    0.039920
  H      5.756630   -9.561730   -1.147330
  H      4.663820  -10.908340   -0.710960
  H      6.169800   -9.087080    1.222760
  H      4.329010  -11.468220    1.751080
  H      4.023970   -9.794180    2.214490
  H      5.337880  -10.687720    2.974610
  H      6.552750  -12.037620    0.534120
  H      7.471890  -11.135580    1.740380
  H      7.616430  -10.719350    0.032660
  H      0.803930    8.771450   -0.123710
  H      0.977440   11.247580   -0.049670
  H      7.624910   10.690310   -0.710740
  H      7.389030    8.244440   -0.779680
  H      3.820130   15.154230   -0.863910
  H      5.587110   15.002030   -0.635960
  H      3.464460   15.013660    1.559400
  H      6.510540   14.844460    1.732200
  H      5.370060   13.589970    2.218300
  H      5.438010   15.106030    3.112530
  H      5.578200   17.082550    0.800210
  H      4.457810   17.207230    2.157660
  H      3.842830   17.230420    0.505190
  H     -2.391230   -0.807170   -0.017210
  H      6.994730    3.544610   -0.961160
  H      1.323280    2.372540   -0.486230
  H      3.405550    0.143180   -0.667840
  H      6.931750    1.020780   -1.690180
  H      5.505050    0.051830   -1.314250
  H      7.335410    1.330240    0.763110
  H      5.146410   -0.774480    1.078520
  H      5.012740    0.917590    1.567920
  H      6.172690   -0.144590    2.364450
  H      7.211040   -1.559310   -0.220810
  H      8.201770   -0.976530    1.116000
  H      8.525660   -0.422720   -0.526140
  H     -2.329590    1.704750   -0.725280
  H     -0.799540    2.585530   -0.699480
  H     -2.197450    1.440470    1.757010
  H      0.158270    3.373090    1.539450
  H      0.267050    1.681030    2.036050
  H     -0.609760    2.839180    3.032800
  H     -2.073660    4.310270    0.719390
  H     -2.796190    3.805520    2.246900
  H     -3.507390    3.279810    0.721600

 Total Charge           Charge          ....    0
 Multiplicity           Mult            ....    1
 Number of Electrons    NEL             ....  480
 Basis Dimension        Dim             .... 2358

ORBITAL ENERGIES
----------------

  NO   OCC          E(Eh)            E(eV)
   0   2.0000     -88.900786     -2419.1134
   1   2.0000     -88.890450     -2418.8321
   2   2.0000     -19.133858      -520.6587
   3   2.0000     -19.122943      -520.3617
   4   2.0000     -19.113676      -520.1096
   5   2.0000     -19.111409      -520.0479
   6   2.0000     -19.110856      -520.0328
   7   2.0000     -19.109862      -520.0058
   8   2.0000     -14.371593      -391.0709
   9   2.0000     -14.370403      -391.0385
  10   2.0000     -10.294658      -280.1319
  11   2.0000     -10.293291      -280.0947
  12   2.0000     -10.292999      -280.0867
  13   2.0000     -10.291176      -280.0371
  14   2.0000     -10.277977      -279.6780
  15   2.0000     -10.267618      -279.3961
  16   2.0000     -10.230764      -278.3932
  17   2.0000     -10.229482      -278.3584
  18   2.0000     -10.227570      -278.3063
  19   2.0000     -10.223019      -278.1825
  20   2.0000     -10.219461      -278.0857
  21   2.0000     -10.215422      -277.9758
  22   2.0000     -10.214888      -277.9612
  23   2.0000     -10.213072      -277.9118
  24   2.0000     -10.212066      -277.8844
  25   2.0000     -10.210097      -277.8309
  26   2.0000     -10.209871      -277.8247
  27   2.0000     -10.209394      -277.8117
  28   2.0000     -10.208914      -277.7987
  29   2.0000     -10.208183      -277.7788
  30   2.0000     -10.207541      -277.7613
  31   2.0000     -10.207043      -277.7478
  32   2.0000     -10.206732      -277.7393
  33   2.0000     -10.205584      -277.7081
  34   2.0000     -10.205368      -277.7022
  35   2.0000     -10.205049      -277.6935
  36   2.0000     -10.204804      -277.6868
  37   2.0000     -10.204725      -277.6847
  38   2.0000     -10.204674      -277.6833
  39   2.0000     -10.204066      -277.6668
  40   2.0000     -10.204002      -277.6650
  41   2.0000     -10.203425      -277.6493
  42   2.0000     -10.202731      -277.6304
  43   2.0000     -10.202531      -277.6250
  44   2.0000     -10.200424      -277.5676
  45   2.0000     -10.200089      -277.5585
  46   2.0000     -10.199584      -277.5448
  47   2.0000     -10.199413      -277.5401
  48   2.0000     -10.199386      -277.5394
  49   2.0000     -10.197593      -277.4906
  50   2.0000     -10.197250      -277.4813
  51   2.0000     -10.196375      -277.4575
  52   2.0000     -10.187551      -277.2174
  53   2.0000     -10.187320      -277.2111
  54   2.0000     -10.187240      -277.2089
  55   2.0000     -10.186076      -277.1772
  56   2.0000     -10.169607      -276.7291
  57   2.0000     -10.168995      -276.7124
  58   2.0000     -10.165388      -276.6143
  59   2.0000     -10.164903      -276.6011
  60   2.0000     -10.163719      -276.5689
  61   2.0000     -10.161728      -276.5147
  62   2.0000     -10.153098      -276.2798
  63   2.0000     -10.152618      -276.2668
  64   2.0000     -10.149951      -276.1942
  65   2.0000     -10.149016      -276.1688
  66   2.0000      -7.978075      -217.0945
  67   2.0000      -7.966482      -216.7790
  68   2.0000      -5.940256      -161.6426
  69   2.0000      -5.936879      -161.5507
  70   2.0000      -5.934756      -161.4929
  71   2.0000      -5.928949      -161.3349
  72   2.0000      -5.925040      -161.2285
  73   2.0000      -5.923034      -161.1739
  74   2.0000      -1.075056       -29.2538
  75   2.0000      -1.073521       -29.2120
  76   2.0000      -1.063709       -28.9450
  77   2.0000      -1.054891       -28.7051
  78   2.0000      -1.053283       -28.6613
  79   2.0000      -1.052442       -28.6384
  80   2.0000      -0.953699       -25.9515
  81   2.0000      -0.952422       -25.9167
  82   2.0000      -0.928052       -25.2536
  83   2.0000      -0.924423       -25.1548
  84   2.0000      -0.916783       -24.9469
  85   2.0000      -0.910108       -24.7653
  86   2.0000      -0.868033       -23.6204
  87   2.0000      -0.862874       -23.4800
  88   2.0000      -0.856627       -23.3100
  89   2.0000      -0.853981       -23.2380
  90   2.0000      -0.840677       -22.8760
  91   2.0000      -0.834896       -22.7187
  92   2.0000      -0.832040       -22.6410
  93   2.0000      -0.814238       -22.1565
  94   2.0000      -0.808384       -21.9972
  95   2.0000      -0.802816       -21.8457
  96   2.0000      -0.795643       -21.6506
  97   2.0000      -0.780206       -21.2305
  98   2.0000      -0.778081       -21.1727
  99   2.0000      -0.772208       -21.0128
 100   2.0000      -0.769057       -20.9271
 101   2.0000      -0.768153       -20.9025
 102   2.0000      -0.760863       -20.7041
 103   2.0000      -0.754523       -20.5316
 104   2.0000      -0.735490       -20.0137
 105   2.0000      -0.721300       -19.6276
 106   2.0000      -0.713259       -19.4088
 107   2.0000      -0.698742       -19.0137
 108   2.0000      -0.696622       -18.9561
 109   2.0000      -0.694872       -18.9084
 110   2.0000      -0.693247       -18.8642
 111   2.0000      -0.692922       -18.8554
 112   2.0000      -0.691525       -18.8174
 113   2.0000      -0.690539       -18.7905
 114   2.0000      -0.683020       -18.5859
 115   2.0000      -0.682356       -18.5679
 116   2.0000      -0.670529       -18.2460
 117   2.0000      -0.654340       -17.8055
 118   2.0000      -0.648840       -17.6558
 119   2.0000      -0.645011       -17.5516
 120   2.0000      -0.638575       -17.3765
 121   2.0000      -0.634373       -17.2622
 122   2.0000      -0.620111       -16.8741
 123   2.0000      -0.604782       -16.4570
 124   2.0000      -0.595699       -16.2098
 125   2.0000      -0.587955       -15.9991
 126   2.0000      -0.582228       -15.8432
 127   2.0000      -0.580825       -15.8051
 128   2.0000      -0.575996       -15.6736
 129   2.0000      -0.573028       -15.5929
 130   2.0000      -0.570778       -15.5316
 131   2.0000      -0.565166       -15.3790
 132   2.0000      -0.561103       -15.2684
 133   2.0000      -0.559663       -15.2292
 134   2.0000      -0.547877       -14.9085
 135   2.0000      -0.544806       -14.8249
 136   2.0000      -0.538403       -14.6507
 137   2.0000      -0.534102       -14.5337
 138   2.0000      -0.529936       -14.4203
 139   2.0000      -0.522937       -14.2298
 140   2.0000      -0.519061       -14.1244
 141   2.0000      -0.507084       -13.7985
 142   2.0000      -0.504895       -13.7389
 143   2.0000      -0.493456       -13.4276
 144   2.0000      -0.492225       -13.3941
 145   2.0000      -0.490827       -13.3561
 146   2.0000      -0.488399       -13.2900
 147   2.0000      -0.485753       -13.2180
 148   2.0000      -0.485005       -13.1977
 149   2.0000      -0.478769       -13.0280
 150   2.0000      -0.477311       -12.9883
 151   2.0000      -0.472970       -12.8702
 152   2.0000      -0.470872       -12.8131
 153   2.0000      -0.464073       -12.6281
 154   2.0000      -0.462192       -12.5769
 155   2.0000      -0.460800       -12.5390
 156   2.0000      -0.459659       -12.5079
 157   2.0000      -0.458368       -12.4728
 158   2.0000      -0.457765       -12.4564
 159   2.0000      -0.457187       -12.4407
 160   2.0000      -0.456215       -12.4142
 161   2.0000      -0.453395       -12.3375
 162   2.0000      -0.452973       -12.3260
 163   2.0000      -0.452112       -12.3026
 164   2.0000      -0.451071       -12.2743
 165   2.0000      -0.445774       -12.1301
 166   2.0000      -0.443118       -12.0579
 167   2.0000      -0.441360       -12.0100
 168   2.0000      -0.439726       -11.9655
 169   2.0000      -0.436985       -11.8910
 170   2.0000      -0.435355       -11.8466
 171   2.0000      -0.429657       -11.6916
 172   2.0000      -0.429243       -11.6803
 173   2.0000      -0.426296       -11.6001
 174   2.0000      -0.422235       -11.4896
 175   2.0000      -0.418507       -11.3882
 176   2.0000      -0.417128       -11.3506
 177   2.0000      -0.414183       -11.2705
 178   2.0000      -0.412974       -11.2376
 179   2.0000      -0.412650       -11.2288
 180   2.0000      -0.411707       -11.2031
 181   2.0000      -0.409228       -11.1357
 182   2.0000      -0.408506       -11.1160
 183   2.0000      -0.403851       -10.9893
 184   2.0000      -0.401504       -10.9255
 185   2.0000      -0.399958       -10.8834
 186   2.0000      -0.399100       -10.8601
 187   2.0000      -0.398200       -10.8356
 188   2.0000      -0.396628       -10.7928
 189   2.0000      -0.395019       -10.7490
 190   2.0000      -0.394605       -10.7378
 191   2.0000      -0.393142       -10.6979
 192   2.0000      -0.389355       -10.5949
 193   2.0000      -0.386149       -10.5077
 194   2.0000      -0.385071       -10.4783
 195   2.0000      -0.384271       -10.4566
 196   2.0000      -0.381500       -10.3812
 197   2.0000      -0.379967       -10.3394
 198   2.0000      -0.376611       -10.2481
 199   2.0000      -0.376385       -10.2420
 200   2.0000      -0.373419       -10.1612
 201   2.0000      -0.369223       -10.0471
 202   2.0000      -0.363941        -9.9033
 203   2.0000      -0.363015        -9.8781
 204   2.0000      -0.361629        -9.8404
 205   2.0000      -0.355881        -9.6840
 206   2.0000      -0.355181        -9.6650
 207   2.0000      -0.350826        -9.5465
 208   2.0000      -0.348919        -9.4946
 209   2.0000      -0.346737        -9.4352
 210   2.0000      -0.346206        -9.4207
 211   2.0000      -0.345699        -9.4070
 212   2.0000      -0.343382        -9.3439
 213   2.0000      -0.340630        -9.2690
 214   2.0000      -0.338275        -9.2049
 215   2.0000      -0.336202        -9.1485
 216   2.0000      -0.335102        -9.1186
 217   2.0000      -0.334464        -9.1012
 218   2.0000      -0.333044        -9.0626
 219   2.0000      -0.328936        -8.9508
 220   2.0000      -0.327767        -8.9190
 221   2.0000      -0.322795        -8.7837
 222   2.0000      -0.311846        -8.4858
 223   2.0000      -0.291956        -7.9445
 224   2.0000      -0.289932        -7.8895
 225   2.0000      -0.288783        -7.8582
 226   2.0000      -0.283582        -7.7167
 227   2.0000      -0.280909        -7.6439
 228   2.0000      -0.275052        -7.4845
 229   2.0000      -0.274546        -7.4708
 230   2.0000      -0.274186        -7.4610
 231   2.0000      -0.273719        -7.4483
 232   2.0000      -0.271844        -7.3973
 233   2.0000      -0.268726        -7.3124
 234   2.0000      -0.267642        -7.2829
 235   2.0000      -0.267205        -7.2710
 236   2.0000      -0.262474        -7.1423
 237   2.0000      -0.250960        -6.8290
 238   2.0000      -0.235246        -6.4014
 239   2.0000      -0.203515        -5.5379
 240   0.0000      -0.124512        -3.3881
 241   0.0000      -0.115772        -3.1503
 242   0.0000      -0.111523        -3.0347
 243   0.0000      -0.096756        -2.6329
 244   0.0000      -0.059180        -1.6104

MULLIKEN ATOMIC CHARGES
-----------------------
   0 C :    0.213591
   1 C :    0.166080
   2 C :   -0.289675
   3 C :   -0.007596
   4 C :   -0.231812
   5 C :    0.014485
   6 C :   -0.012615
   7 C :    0.199006
   8 C :   -0.019402
   9 C :    0.214768
  10 C :    0.034352
  11 C :    0.167866
  12 C :    0.073764
  13 C :    0.172724
  14 C :   -0.109690
  15 C :   -0.211861
  16 C :    0.061147
  17 C :   -0.077560
  18 C :    0.075089
  19 C :   -0.146929
  20 C :   -0.176707
  21 C :    0.204285
  22 N :   -0.079039
  23 C :    0.194680
  24 C :   -0.086122
  25 C :   -0.031965
  26 C :   -0.335592
  27 C :   -0.342932
  28 C :   -0.174933
  29 C :   -0.137598
  30 C :    0.058447
  31 C :   -0.087545
  32 C :    0.054447
  33 C :   -0.161054
  34 C :   -0.176827
  35 C :    0.206764
  36 N :   -0.081641
  37 C :    0.217701
  38 C :   -0.086441
  39 C :   -0.034492
  40 C :   -0.332463
  41 C :   -0.343684
  42 O :   -0.342609
  43 O :   -0.337559
  44 O :   -0.286143
  45 O :   -0.330590
  46 O :   -0.339838
  47 O :   -0.337556
  48 C :   -0.156352
  49 C :    0.048049
  50 C :    0.112849
  51 S :   -0.048495
  52 C :   -0.205927
  53 C :    0.052568
  54 C :    0.116470
  55 S :    0.038489
  56 C :   -0.176508
  57 C :   -0.166354
  58 C :   -0.266464
  59 C :    0.013162
  60 C :   -0.368720
  61 C :   -0.324592
  62 C :   -0.278843
  63 C :    0.019567
  64 C :   -0.381759
  65 C :   -0.331213
  66 H :    0.135478
  67 H :    0.117386
  68 H :    0.137256
  69 H :    0.139380
  70 H :    0.144751
  71 H :    0.134395
  72 H :    0.111393
  73 H :    0.144495
  74 H :    0.091192
  75 H :    0.116277
  76 H :    0.099097
  77 H :    0.105930
  78 H :    0.102565
  79 H :    0.107038
  80 H :    0.109474
  81 H :    0.131874
  82 H :    0.144907
  83 H :    0.143102
  84 H :    0.107870
  85 H :    0.110441
  86 H :    0.145371
  87 H :    0.092924
  88 H :    0.115069
  89 H :    0.097948
  90 H :    0.106082
  91 H :    0.102249
  92 H :    0.107481
  93 H :    0.110215
  94 H :    0.125916
  95 H :    0.111094
  96 H :    0.143659
  97 H :    0.119528
  98 H :    0.103848
  99 H :    0.108956
 100 H :    0.065927
 101 H :    0.092924
 102 H :    0.134469
 103 H :    0.114405
 104 H :    0.102963
 105 H :    0.110895
 106 H :    0.104396
 107 H :    0.106022
 108 H :    0.121962
 109 H :    0.068508
 110 H :    0.114229
 111 H :    0.130688
 112 H :    0.112243
 113 H :    0.106839
 114 H :    0.109722
 115 H :    0.104515
Sum of atomic charges:    0.0000000

LOEWDIN ATOMIC CHARGES
----------------------
   0 C :   -0.345058
   1 C :   -0.338580
   2 C :   -0.077323
   3 C :   -0.083730
   4 C :   -0.072908
   5 C :   -0.086617
   6 C :   -0.042778
   7 C :   -0.007443
   8 C :   -0.048048
   9 C :   -0.244296
  10 C :   -0.043207
  11 C :   -0.013547
  12 C :   -0.045542
  13 C :   -0.244666
  14 C :   -0.102217
  15 C :   -0.051794
  16 C :   -0.075909
  17 C :   -0.029213
  18 C :   -0.061606
  19 C :   -0.048762
  20 C :   -0.064032
  21 C :   -0.353680
  22 N :    0.272421
  23 C :   -0.355418
  24 C :   -0.210109
  25 C :   -0.305732
  26 C :   -0.279402
  27 C :   -0.276993
  28 C :   -0.065294
  29 C :   -0.048867
  30 C :   -0.059576
  31 C :   -0.029455
  32 C :   -0.077284
  33 C :   -0.048479
  34 C :   -0.089223
  35 C :   -0.356987
  36 N :    0.272054
  37 C :   -0.352418
  38 C :   -0.210127
  39 C :   -0.306092
  40 C :   -0.279341
  41 C :   -0.276839
  42 O :    0.109672
  43 O :    0.111829
  44 O :    0.132057
  45 O :    0.118656
  46 O :    0.108825
  47 O :    0.115499
  48 C :   -0.103056
  49 C :   -0.151476
  50 C :   -0.319299
  51 S :    0.781108
  52 C :   -0.110849
  53 C :   -0.155865
  54 C :   -0.319428
  55 S :    0.816574
  56 C :   -0.148365
  57 C :   -0.148108
  58 C :   -0.188120
  59 C :   -0.296701
  60 C :   -0.276543
  61 C :   -0.278164
  62 C :   -0.186337
  63 C :   -0.295644
  64 C :   -0.276563
  65 C :   -0.278343
  66 H :    0.177601
  67 H :    0.164057
  68 H :    0.131404
  69 H :    0.157996
  70 H :    0.159322
  71 H :    0.154308
  72 H :    0.142993
  73 H :    0.147795
  74 H :    0.150945
  75 H :    0.124177
  76 H :    0.116948
  77 H :    0.118220
  78 H :    0.119727
  79 H :    0.119498
  80 H :    0.119683
  81 H :    0.152952
  82 H :    0.159216
  83 H :    0.159178
  84 H :    0.144928
  85 H :    0.142775
  86 H :    0.148062
  87 H :    0.151152
  88 H :    0.123982
  89 H :    0.116690
  90 H :    0.118292
  91 H :    0.119612
  92 H :    0.119637
  93 H :    0.119882
  94 H :    0.151443
  95 H :    0.147014
  96 H :    0.151242
  97 H :    0.145465
  98 H :    0.148288
  99 H :    0.142775
 100 H :    0.147634
 101 H :    0.117016
 102 H :    0.124778
 103 H :    0.120960
 104 H :    0.119719
 105 H :    0.120510
 106 H :    0.117622
 107 H :    0.149277
 108 H :    0.145565
 109 H :    0.147858
 110 H :    0.121462
 111 H :    0.123849
 112 H :    0.120747
 113 H :    0.120842
 114 H :    0.120213
 115 H :    0.117449

  Mayer bond orders larger than 0.100000
B(  0-C ,  2-C ) :   1.1029 B(  0-C , 48-C ) :   1.3492 B(  0-C , 51-S ) :   1.2058
B(  1-C ,  4-C ) :   1.2030 B(  1-C , 52-C ) :   1.3002 B(  1-C , 55-S ) :   1.2731
B(  2-C ,  3-C ) :   1.5494 B(  2-C , 44-O ) :   0.1127 B(  2-C , 66-H ) :   0.9462
B(  3-C ,  6-C ) :   1.1404 B(  3-C ,  7-C ) :  -0.1245 B(  3-C ,  9-C ) :   0.9641
B(  3-C , 44-O ) :  -0.1451 B(  4-C ,  5-C ) :   1.5337 B(  4-C , 67-H ) :   0.9456
B(  5-C , 10-C ) :   1.1009 B(  5-C , 11-C ) :  -0.1083 B(  5-C , 13-C ) :   0.9737
B(  6-C ,  7-C ) :   1.1833 B(  6-C , 14-C ) :   1.4267 B(  7-C ,  8-C ) :   1.2338
B(  7-C , 17-C ) :   1.3652 B(  8-C ,  9-C ) :   1.0256 B(  8-C , 20-C ) :   1.4289
B(  8-C , 44-O ) :  -0.1558 B(  9-C , 44-O ) :   2.1909 B( 10-C , 11-C ) :   1.1916
B( 10-C , 34-C ) :   1.4070 B( 11-C , 12-C ) :   1.2427 B( 11-C , 31-C ) :   1.3580
B( 12-C , 13-C ) :   1.0840 B( 12-C , 28-C ) :   1.4110 B( 12-C , 45-O ) :  -0.1492
B( 13-C , 45-O ) :   2.0416 B( 14-C , 15-C ) :   1.2908 B( 14-C , 68-H ) :   0.9424
B( 15-C , 16-C ) :   1.4813 B( 15-C , 42-O ) :   0.1147 B( 15-C , 69-H ) :   0.9724
B( 16-C , 17-C ) :   1.2455 B( 16-C , 21-C ) :   0.9902 B( 16-C , 42-O ) :  -0.1720
B( 17-C , 18-C ) :   1.2515 B( 18-C , 19-C ) :   1.4547 B( 18-C , 23-C ) :   0.9819
B( 18-C , 43-O ) :  -0.1325 B( 19-C , 20-C ) :   1.2683 B( 19-C , 70-H ) :   0.9735
B( 20-C , 71-H ) :   0.9950 B( 21-C , 22-N ) :   1.1518 B( 21-C , 42-O ) :   2.0609
B( 22-N , 23-C ) :   1.1580 B( 22-N , 24-C ) :   0.8566 B( 23-C , 43-O ) :   2.0288
B( 24-C , 25-C ) :   0.9792 B( 24-C , 72-H ) :   0.9501 B( 24-C , 73-H ) :   0.9462
B( 25-C , 26-C ) :   0.9709 B( 25-C , 27-C ) :   0.9464 B( 25-C , 74-H ) :   0.9683
B( 26-C , 75-H ) :   0.9644 B( 26-C , 76-H ) :   0.9762 B( 26-C , 77-H ) :   0.9776
B( 27-C , 78-H ) :   0.9730 B( 27-C , 79-H ) :   0.9811 B( 27-C , 80-H ) :   0.9801
B( 28-C , 29-C ) :   1.2705 B( 28-C , 81-H ) :   0.9956 B( 29-C , 30-C ) :   1.4623
B( 29-C , 82-H ) :   0.9706 B( 30-C , 31-C ) :   1.2585 B( 30-C , 37-C ) :   0.9807
B( 30-C , 47-O ) :  -0.1418 B( 31-C , 32-C ) :   1.2412 B( 32-C , 33-C ) :   1.4713
B( 32-C , 35-C ) :   0.9969 B( 32-C , 46-O ) :  -0.1447 B( 33-C , 34-C ) :   1.2841
B( 33-C , 46-O ) :   0.1034 B( 33-C , 83-H ) :   0.9686 B( 34-C , 84-H ) :   0.9864
B( 35-C , 36-N ) :   1.1376 B( 35-C , 46-O ) :   2.0331 B( 36-N , 37-C ) :   1.1658
B( 36-N , 38-C ) :   0.8546 B( 37-C , 47-O ) :   2.0514 B( 38-C , 39-C ) :   0.9779
B( 38-C , 85-H ) :   0.9504 B( 38-C , 86-H ) :   0.9471 B( 39-C , 40-C ) :   0.9704
B( 39-C , 41-C ) :   0.9467 B( 39-C , 87-H ) :   0.9677 B( 40-C , 88-H ) :   0.9649
B( 40-C , 89-H ) :   0.9763 B( 40-C , 90-H ) :   0.9777 B( 41-C , 91-H ) :   0.9731
B( 41-C , 92-H ) :   0.9817 B( 41-C , 93-H ) :   0.9796 B( 48-C , 49-C ) :   1.3228
B( 48-C , 94-H ) :   0.9666 B( 49-C , 50-C ) :   1.3438 B( 49-C , 62-C ) :   0.8943
B( 50-C , 51-S ) :   1.2526 B( 50-C , 56-C ) :   1.1510 B( 52-C , 53-C ) :   1.3722
B( 52-C , 95-H ) :   0.9688 B( 53-C , 54-C ) :   1.3291 B( 53-C , 58-C ) :   0.8905
B( 54-C , 55-S ) :   1.2962 B( 54-C , 57-C ) :   1.1525 B( 56-C , 57-C ) :   1.7128
B( 56-C , 96-H ) :   0.8983 B( 57-C , 97-H ) :   0.9007 B( 58-C , 59-C ) :   0.9549
B( 58-C , 98-H ) :   0.9726 B( 58-C , 99-H ) :   0.9856 B( 59-C , 60-C ) :   0.9666
B( 59-C , 61-C ) :   0.9456 B( 59-C ,100-H ) :   0.9599 B( 60-C ,101-H ) :   0.9720
B( 60-C ,102-H ) :   0.9743 B( 60-C ,103-H ) :   0.9771 B( 61-C ,104-H ) :   0.9716
B( 61-C ,105-H ) :   0.9819 B( 61-C ,106-H ) :   0.9783 B( 62-C , 63-C ) :   0.9532
B( 62-C ,107-H ) :   0.9698 B( 62-C ,108-H ) :   0.9836 B( 63-C , 64-C ) :   0.9648
B( 63-C , 65-C ) :   0.9438 B( 63-C ,109-H ) :   0.9602 B( 64-C ,110-H ) :   0.9713
B( 64-C ,111-H ) :   0.9737 B( 64-C ,112-H ) :   0.9757 B( 65-C ,113-H ) :   0.9726
B( 65-C ,114-H ) :   0.9815 B( 65-C ,115-H ) :   0.9776

-----------------------------------------------------------------------------
  SOC CORRECTED ABSORPTION SPECTRUM VIA TRANSITION ELECTRIC DIPOLE MOMENTS*
-----------------------------------------------------------------------------
State   Energy  Wavelength   fosc         T2         TX        TY        TZ
        (cm-1)    (nm)                  (au**2)     (au)      (au)      (au)
-----------------------------------------------------------------------------
   1    9828.3   1017.5   0.000000000   0.00000   0.00000   0.00001   0.00000
   2    9828.3   1017.5   0.000000000   0.00000   0.00001   0.00002   0.00000
   3    9828.3   1017.5   0.000000000   0.00000   0.00001   0.00001   0.00000
   4   14549.4    687.3   0.000000001   0.00000   0.00002   0.00012   0.00000
   5   14549.4    687.3   0.000000000   0.00000   0.00001   0.00004   0.00000
   6   14549.4    687.3   0.000000001   0.00000   0.00002   0.00017   0.00000
   7   15065.4    663.8   0.000000006   0.00000   0.00011   0.00035   0.00001
   8   15065.4    663.8   0.000000000   0.00000   0.00001   0.00002   0.00000
   9   15065.4    663.8   0.000000000   0.00000   0.00001   0.00002   0.00000
  10   16249.4    615.4   0.257199229   5.21085   0.58892   2.20520   0.03345
  11   16861.7    593.1   1.501401913  29.31370   1.06935   5.30642   0.11008
  12   17664.0    566.1   1.017663928  18.96668   1.56803   4.06122   0.12007

FINAL SINGLE POINT ENERGY     -3520.654638680087

DIPOLE MOMENT
-------------
                                X             Y             Z
Electronic contribution:    -26.71606      -8.81906     -28.61018
Nuclear contribution   :     27.28845       9.46158      28.81036
                        -----------------------------------------
Total Dipole Moment    :      0.57239       0.64252       0.20018
                        -----------------------------------------
Magnitude (a.u.)       :      0.88347
Magnitude (Debye)      :      2.24561

Rotational constants in cm-1:     0.002597     0.000284     0.000260
Rotational constants in MHz :    77.857798     8.528710     7.801993

                             ****ORCA TERMINATED NORMALLY****
TOTAL RUN TIME: 0 days 15 hours 52 minutes 43 seconds 487 msec
