                         Program Version 4.2.0 -  RELEASE  -
|  1> # ORCA input file
|  2> # PCBM.out
|  3> ! B3LYP def2-TZVP def2/J RIJCOSX Grid4 TightSCF
|  4>
|  5> %maxcore 2000
|  6> %tddft
|  7>   maxdim 5
|  8>   nroots 3
|  9>   dosoc true
| 10>   end
| 11>
| 12>
| 13>
| 14> * xyz 0 1
| 15>    C        0.30559        -2.43478         1.23997
| 16>    C        0.71540        -2.31512        -0.12843
| 17>    C        1.48289        -1.06491        -0.28305
| 18>    C        1.27037        -0.33412         0.98111
| 19>    C        0.64873        -1.21707         1.92221
| 20>    C       -0.17297        -0.73013         2.93128
| 21>    C       -0.44010         0.67684         3.00241
| 22>    C        0.12795         1.52917         2.06123
| 23>    C        0.99600         1.01620         1.03496
| 24>    C        0.73618         1.77347        -0.18283
| 25>    C        0.76051         1.15709        -1.41614
| 26>    C        1.20016        -0.23852        -1.61125
| 27>    C        0.20131        -0.82253        -2.52668
| 28>    C       -0.35453        -2.07191        -2.33862
| 29>    C       -0.09312        -2.83049        -1.12074
| 30>    C       -1.30351        -3.52650        -0.77324
| 31>    C       -2.30619        -3.21484        -1.75864
| 32>    C       -1.72053        -2.31606        -2.71909
| 33>    C       -2.49439        -1.30163        -3.27224
| 34>    C       -1.92703         0.00438        -3.44170
| 35>    C       -0.61337         0.23359        -3.05111
| 36>    C       -0.26870         1.45095        -2.36876
| 37>    C       -1.24999         2.39752        -2.10052
| 38>    C       -1.26012         3.05771        -0.82771
| 39>    C       -0.28838         2.73906         0.11516
| 40>    C       -0.66187         2.59368         1.49841
| 41>    C       -1.98266         2.76578         1.88837
| 42>    C       -2.57182         1.87291         2.85528
| 43>    C       -1.81343         0.84782         3.40282
| 44>    C       -2.39323        -0.46138         3.57902
| 45>    C       -3.70740        -0.69635         3.19812
| 46>    C       -4.49377         0.36971         2.63089
| 47>    C       -3.93650         1.63060         2.46445
| 48>    C       -4.19465         2.37962         1.25918
| 49>    C       -2.98926         3.08414         0.90626
| 50>    C       -2.63363         3.22839        -0.42732
| 51>    C       -3.47226         2.67029        -1.45991
| 52>    C       -2.61481         2.15656        -2.49760
| 53>    C       -2.94728         0.98206        -3.15624
| 54>    C       -4.15095         0.27232        -2.80498
| 55>    C       -3.87053        -1.14083        -2.87777
| 56>    C       -4.43023        -2.00678        -1.94886
| 57>    C       -3.63395        -3.06717        -1.38267
| 58>    C       -4.01292        -3.21826         0.00025
| 59>    C       -5.03356        -2.24485         0.29110
| 60>    C       -5.29168        -1.49576        -0.91419
| 61>    C       -5.55922        -0.13516        -0.84202
| 62>    C       -4.97776         0.76576        -1.80482
| 63>    C       -4.63206         1.98712        -1.11980
| 64>    C       -5.00039         1.83968         0.26556
| 65>    C       -5.57495         0.52895         0.43718
| 66>    C       -5.32645        -0.19192         1.59708
| 67>    C       -5.05260        -1.60516         1.52333
| 68>    C       -4.05295        -1.91777         2.51311
| 69>    C       -3.07172        -2.85946         2.23411
| 70>    C       -3.05018        -3.52160         0.95266
| 71>    C       -1.67412        -3.68308         0.55808
| 72>    C       -0.84965        -3.12326         1.58920
| 73>    C       -1.70817        -2.61400         2.62945
| 74>    C       -1.37601        -1.43947         3.28828
| 75>    C        2.56334        -0.78185        -1.28512
| 76>    C        3.09186        -1.94100        -2.11065
| 77>    C        3.60142         0.21917        -0.88996
| 78>    C        4.23428         0.13767         0.34323
| 79>    C        5.20855         1.05749         0.68737
| 80>    C        5.55728         2.06446        -0.19624
| 81>    C        4.92939         2.14943        -1.42741
| 82>    C        3.95542         1.23052        -1.77355
| 83>    H        5.69644         0.98645         1.64797
| 84>    H        6.31818         2.78150         0.07347
| 85>    H        3.96257        -0.64680         1.03420
| 86>    H        3.46059         1.29742        -2.73213
| 87>    H        5.19873         2.93333        -2.11976
| 88>    C        3.94725        -2.88121        -1.26451
| 89>    H        3.68924        -1.53750        -2.93234
| 90>    H        2.25721        -2.49711        -2.54039
| 91>    H        3.35872        -3.25844        -0.42603
| 92>    C        4.45478        -4.06045        -2.08596
| 93>    H        4.79917        -2.33820        -0.85204
| 94>    H        5.04791        -3.71976        -2.93705
| 95>    H        3.62006        -4.64307        -2.48300
| 96>    C        5.31281        -4.98892        -1.25710
| 97>    O        5.51344        -4.89199        -0.07686
| 98>    O        5.83538        -5.95738        -2.02162
| 99>    C        6.66155        -6.90533        -1.35822
|100>    H        7.04757        -7.56491        -2.13081
|101>    H        6.07877        -7.47014        -0.62794
|102>    H        7.47817        -6.39897        -0.84003
|103> *
|104>
|105>                          ****END OF INPUT****

CARTESIAN COORDINATES (ANGSTROEM)
---------------------------------
  C      0.305590   -2.434780    1.239970
  C      0.715400   -2.315120   -0.128430
  C      1.482890   -1.064910   -0.283050
  C      1.270370   -0.334120    0.981110
  C      0.648730   -1.217070    1.922210
  C     -0.172970   -0.730130    2.931280
  C     -0.440100    0.676840    3.002410
  C      0.127950    1.529170    2.061230
  C      0.996000    1.016200    1.034960
  C      0.736180    1.773470   -0.182830
  C      0.760510    1.157090   -1.416140
  C      1.200160   -0.238520   -1.611250
  C      0.201310   -0.822530   -2.526680
  C     -0.354530   -2.071910   -2.338620
  C     -0.093120   -2.830490   -1.120740
  C     -1.303510   -3.526500   -0.773240
  C     -2.306190   -3.214840   -1.758640
  C     -1.720530   -2.316060   -2.719090
  C     -2.494390   -1.301630   -3.272240
  C     -1.927030    0.004380   -3.441700
  C     -0.613370    0.233590   -3.051110
  C     -0.268700    1.450950   -2.368760
  C     -1.249990    2.397520   -2.100520
  C     -1.260120    3.057710   -0.827710
  C     -0.288380    2.739060    0.115160
  C     -0.661870    2.593680    1.498410
  C     -1.982660    2.765780    1.888370
  C     -2.571820    1.872910    2.855280
  C     -1.813430    0.847820    3.402820
  C     -2.393230   -0.461380    3.579020
  C     -3.707400   -0.696350    3.198120
  C     -4.493770    0.369710    2.630890
  C     -3.936500    1.630600    2.464450
  C     -4.194650    2.379620    1.259180
  C     -2.989260    3.084140    0.906260
  C     -2.633630    3.228390   -0.427320
  C     -3.472260    2.670290   -1.459910
  C     -2.614810    2.156560   -2.497600
  C     -2.947280    0.982060   -3.156240
  C     -4.150950    0.272320   -2.804980
  C     -3.870530   -1.140830   -2.877770
  C     -4.430230   -2.006780   -1.948860
  C     -3.633950   -3.067170   -1.382670
  C     -4.012920   -3.218260    0.000250
  C     -5.033560   -2.244850    0.291100
  C     -5.291680   -1.495760   -0.914190
  C     -5.559220   -0.135160   -0.842020
  C     -4.977760    0.765760   -1.804820
  C     -4.632060    1.987120   -1.119800
  C     -5.000390    1.839680    0.265560
  C     -5.574950    0.528950    0.437180
  C     -5.326450   -0.191920    1.597080
  C     -5.052600   -1.605160    1.523330
  C     -4.052950   -1.917770    2.513110
  C     -3.071720   -2.859460    2.234110
  C     -3.050180   -3.521600    0.952660
  C     -1.674120   -3.683080    0.558080
  C     -0.849650   -3.123260    1.589200
  C     -1.708170   -2.614000    2.629450
  C     -1.376010   -1.439470    3.288280
  C      2.563340   -0.781850   -1.285120
  C      3.091860   -1.941000   -2.110650
  C      3.601420    0.219170   -0.889960
  C      4.234280    0.137670    0.343230
  C      5.208550    1.057490    0.687370
  C      5.557280    2.064460   -0.196240
  C      4.929390    2.149430   -1.427410
  C      3.955420    1.230520   -1.773550
  H      5.696440    0.986450    1.647970
  H      6.318180    2.781500    0.073470
  H      3.962570   -0.646800    1.034200
  H      3.460590    1.297420   -2.732130
  H      5.198730    2.933330   -2.119760
  C      3.947250   -2.881210   -1.264510
  H      3.689240   -1.537500   -2.932340
  H      2.257210   -2.497110   -2.540390
  H      3.358720   -3.258440   -0.426030
  C      4.454780   -4.060450   -2.085960
  H      4.799170   -2.338200   -0.852040
  H      5.047910   -3.719760   -2.937050
  H      3.620060   -4.643070   -2.483000
  C      5.312810   -4.988920   -1.257100
  O      5.513440   -4.891990   -0.076860
  O      5.835380   -5.957380   -2.021620
  C      6.661550   -6.905330   -1.358220
  H      7.047570   -7.564910   -2.130810
  H      6.078770   -7.470140   -0.627940
  H      7.478170   -6.398970   -0.840030

 Total Charge           Charge          ....    0
 Multiplicity           Mult            ....    1
 Number of Electrons    NEL             ....  462
 Basis Dimension        Dim             .... 2378

ORBITAL ENERGIES
----------------

  NO   OCC          E(Eh)            E(eV)
   0   2.0000     -19.175430      -521.7900
   1   2.0000     -19.116175      -520.1776
   2   2.0000     -10.300919      -280.3023
   3   2.0000     -10.231586      -278.4156
   4   2.0000     -10.231283      -278.4074
   5   2.0000     -10.226818      -278.2859
   6   2.0000     -10.226426      -278.2752
   7   2.0000     -10.218089      -278.0483
   8   2.0000     -10.217874      -278.0425
   9   2.0000     -10.216085      -277.9938
  10   2.0000     -10.216011      -277.9918
  11   2.0000     -10.214558      -277.9522
  12   2.0000     -10.214460      -277.9496
  13   2.0000     -10.214121      -277.9404
  14   2.0000     -10.213805      -277.9318
  15   2.0000     -10.213787      -277.9313
  16   2.0000     -10.213685      -277.9285
  17   2.0000     -10.213678      -277.9283
  18   2.0000     -10.213610      -277.9265
  19   2.0000     -10.213589      -277.9259
  20   2.0000     -10.213493      -277.9233
  21   2.0000     -10.213413      -277.9211
  22   2.0000     -10.213343      -277.9192
  23   2.0000     -10.213279      -277.9175
  24   2.0000     -10.213218      -277.9158
  25   2.0000     -10.213101      -277.9126
  26   2.0000     -10.213078      -277.9120
  27   2.0000     -10.213017      -277.9103
  28   2.0000     -10.212977      -277.9092
  29   2.0000     -10.212891      -277.9069
  30   2.0000     -10.212875      -277.9064
  31   2.0000     -10.212819      -277.9049
  32   2.0000     -10.212814      -277.9048
  33   2.0000     -10.212741      -277.9028
  34   2.0000     -10.212697      -277.9016
  35   2.0000     -10.212609      -277.8992
  36   2.0000     -10.212577      -277.8983
  37   2.0000     -10.212539      -277.8973
  38   2.0000     -10.212475      -277.8956
  39   2.0000     -10.212450      -277.8949
  40   2.0000     -10.212383      -277.8931
  41   2.0000     -10.212331      -277.8916
  42   2.0000     -10.212291      -277.8906
  43   2.0000     -10.212265      -277.8899
  44   2.0000     -10.212228      -277.8889
  45   2.0000     -10.212134      -277.8863
  46   2.0000     -10.212113      -277.8857
  47   2.0000     -10.212062      -277.8843
  48   2.0000     -10.212050      -277.8840
  49   2.0000     -10.212010      -277.8829
  50   2.0000     -10.211958      -277.8815
  51   2.0000     -10.211952      -277.8813
  52   2.0000     -10.211807      -277.8774
  53   2.0000     -10.211566      -277.8708
  54   2.0000     -10.211467      -277.8681
  55   2.0000     -10.210922      -277.8533
  56   2.0000     -10.210817      -277.8505
  57   2.0000     -10.210702      -277.8473
  58   2.0000     -10.210674      -277.8466
  59   2.0000     -10.210177      -277.8330
  60   2.0000     -10.210162      -277.8326
  61   2.0000     -10.210025      -277.8289
  62   2.0000     -10.209881      -277.8250
  63   2.0000     -10.209282      -277.8087
  64   2.0000     -10.209057      -277.8026
  65   2.0000     -10.193373      -277.3758
  66   2.0000     -10.189405      -277.2678
  67   2.0000     -10.188109      -277.2325
  68   2.0000     -10.182645      -277.0839
  69   2.0000     -10.181489      -277.0524
  70   2.0000     -10.180928      -277.0371
  71   2.0000     -10.180212      -277.0177
  72   2.0000     -10.179655      -277.0025
  73   2.0000     -10.176681      -276.9216
  74   2.0000      -1.116252       -30.3748
  75   2.0000      -1.027086       -27.9484
  76   2.0000      -0.979243       -26.6466
  77   2.0000      -0.963487       -26.2178
  78   2.0000      -0.957246       -26.0480
  79   2.0000      -0.956434       -26.0259
  80   2.0000      -0.931682       -25.3524
  81   2.0000      -0.919598       -25.0235
  82   2.0000      -0.918260       -24.9871
  83   2.0000      -0.918192       -24.9853
  84   2.0000      -0.917869       -24.9765
  85   2.0000      -0.891183       -24.2503
  86   2.0000      -0.879471       -23.9316
  87   2.0000      -0.877929       -23.8897
  88   2.0000      -0.874885       -23.8068
  89   2.0000      -0.862153       -23.4604
  90   2.0000      -0.846030       -23.0216
  91   2.0000      -0.844837       -22.9892
  92   2.0000      -0.844537       -22.9810
  93   2.0000      -0.827695       -22.5227
  94   2.0000      -0.811479       -22.0815
  95   2.0000      -0.795860       -21.6564
  96   2.0000      -0.795168       -21.6376
  97   2.0000      -0.794562       -21.6211
  98   2.0000      -0.794262       -21.6130
  99   2.0000      -0.787048       -21.4167
 100   2.0000      -0.777077       -21.1453
 101   2.0000      -0.776868       -21.1396
 102   2.0000      -0.776511       -21.1299
 103   2.0000      -0.771371       -20.9901
 104   2.0000      -0.759887       -20.6776
 105   2.0000      -0.754931       -20.5427
 106   2.0000      -0.739713       -20.1286
 107   2.0000      -0.720763       -19.6130
 108   2.0000      -0.720198       -19.5976
 109   2.0000      -0.717665       -19.5287
 110   2.0000      -0.717521       -19.5247
 111   2.0000      -0.711882       -19.3713
 112   2.0000      -0.709885       -19.3170
 113   2.0000      -0.708464       -19.2783
 114   2.0000      -0.706617       -19.2280
 115   2.0000      -0.677999       -18.4493
 116   2.0000      -0.666671       -18.1410
 117   2.0000      -0.664864       -18.0919
 118   2.0000      -0.653257       -17.7760
 119   2.0000      -0.633927       -17.2500
 120   2.0000      -0.628416       -17.1001
 121   2.0000      -0.627355       -17.0712
 122   2.0000      -0.627132       -17.0651
 123   2.0000      -0.625601       -17.0235
 124   2.0000      -0.624893       -17.0042
 125   2.0000      -0.623206       -16.9583
 126   2.0000      -0.622554       -16.9406
 127   2.0000      -0.618734       -16.8366
 128   2.0000      -0.613602       -16.6970
 129   2.0000      -0.604724       -16.4554
 130   2.0000      -0.571106       -15.5406
 131   2.0000      -0.567741       -15.4490
 132   2.0000      -0.562664       -15.3109
 133   2.0000      -0.559300       -15.2193
 134   2.0000      -0.558747       -15.2043
 135   2.0000      -0.557881       -15.1807
 136   2.0000      -0.542508       -14.7624
 137   2.0000      -0.539394       -14.6777
 138   2.0000      -0.532948       -14.5023
 139   2.0000      -0.532130       -14.4800
 140   2.0000      -0.531812       -14.4714
 141   2.0000      -0.524460       -14.2713
 142   2.0000      -0.520348       -14.1594
 143   2.0000      -0.520063       -14.1516
 144   2.0000      -0.516783       -14.0624
 145   2.0000      -0.508855       -13.8467
 146   2.0000      -0.506585       -13.7849
 147   2.0000      -0.496506       -13.5106
 148   2.0000      -0.493744       -13.4355
 149   2.0000      -0.491597       -13.3770
 150   2.0000      -0.489292       -13.3143
 151   2.0000      -0.484823       -13.1927
 152   2.0000      -0.481800       -13.1105
 153   2.0000      -0.477670       -12.9981
 154   2.0000      -0.471545       -12.8314
 155   2.0000      -0.470815       -12.8115
 156   2.0000      -0.468957       -12.7610
 157   2.0000      -0.466275       -12.6880
 158   2.0000      -0.465089       -12.6557
 159   2.0000      -0.464178       -12.6309
 160   2.0000      -0.464073       -12.6281
 161   2.0000      -0.459032       -12.4909
 162   2.0000      -0.456375       -12.4186
 163   2.0000      -0.450780       -12.2663
 164   2.0000      -0.450051       -12.2465
 165   2.0000      -0.448183       -12.1957
 166   2.0000      -0.447336       -12.1726
 167   2.0000      -0.439777       -11.9669
 168   2.0000      -0.439188       -11.9509
 169   2.0000      -0.437329       -11.9003
 170   2.0000      -0.434732       -11.8297
 171   2.0000      -0.433500       -11.7961
 172   2.0000      -0.431891       -11.7523
 173   2.0000      -0.429228       -11.6799
 174   2.0000      -0.427327       -11.6282
 175   2.0000      -0.424809       -11.5596
 176   2.0000      -0.424576       -11.5533
 177   2.0000      -0.420723       -11.4485
 178   2.0000      -0.419249       -11.4083
 179   2.0000      -0.419163       -11.4060
 180   2.0000      -0.418809       -11.3964
 181   2.0000      -0.415641       -11.3102
 182   2.0000      -0.410044       -11.1579
 183   2.0000      -0.408687       -11.1209
 184   2.0000      -0.404606       -11.0099
 185   2.0000      -0.404129       -10.9969
 186   2.0000      -0.403319       -10.9749
 187   2.0000      -0.392765       -10.6877
 188   2.0000      -0.383696       -10.4409
 189   2.0000      -0.380791       -10.3619
 190   2.0000      -0.376470       -10.2443
 191   2.0000      -0.370763       -10.0890
 192   2.0000      -0.368038       -10.0148
 193   2.0000      -0.367481        -9.9997
 194   2.0000      -0.364392        -9.9156
 195   2.0000      -0.363851        -9.9009
 196   2.0000      -0.363237        -9.8842
 197   2.0000      -0.362499        -9.8641
 198   2.0000      -0.361567        -9.8387
 199   2.0000      -0.360595        -9.8123
 200   2.0000      -0.357199        -9.7199
 201   2.0000      -0.355085        -9.6624
 202   2.0000      -0.354202        -9.6383
 203   2.0000      -0.353782        -9.6269
 204   2.0000      -0.350913        -9.5488
 205   2.0000      -0.350072        -9.5260
 206   2.0000      -0.349733        -9.5167
 207   2.0000      -0.344134        -9.3644
 208   2.0000      -0.343369        -9.3436
 209   2.0000      -0.343111        -9.3365
 210   2.0000      -0.340923        -9.2770
 211   2.0000      -0.336452        -9.1553
 212   2.0000      -0.324318        -8.8251
 213   2.0000      -0.313782        -8.5385
 214   2.0000      -0.289174        -7.8688
 215   2.0000      -0.285545        -7.7701
 216   2.0000      -0.278693        -7.5836
 217   2.0000      -0.276216        -7.5162
 218   2.0000      -0.275224        -7.4892
 219   2.0000      -0.274504        -7.4696
 220   2.0000      -0.274441        -7.4679
 221   2.0000      -0.274065        -7.4577
 222   2.0000      -0.273467        -7.4414
 223   2.0000      -0.266429        -7.2499
 224   2.0000      -0.259939        -7.0733
 225   2.0000      -0.257028        -6.9941
 226   2.0000      -0.232316        -6.3216
 227   2.0000      -0.224661        -6.1133
 228   2.0000      -0.222915        -6.0658
 229   2.0000      -0.222787        -6.0623
 230   2.0000      -0.216813        -5.8998
 231   0.0000      -0.125382        -3.4118
 232   0.0000      -0.123379        -3.3573
 233   0.0000      -0.114307        -3.1104
 234   0.0000      -0.079264        -2.1569
 235   0.0000      -0.077492        -2.1087

MULLIKEN ATOMIC CHARGES
-----------------------
   0 C :    0.077713
   1 C :   -0.377319
   2 C :    0.656743
   3 C :   -0.399303
   4 C :   -0.017983
   5 C :   -0.011795
   6 C :    0.032315
   7 C :   -0.141561
   8 C :    0.195234
   9 C :    0.192269
  10 C :   -0.371919
  11 C :    0.563465
  12 C :   -0.233639
  13 C :    0.077542
  14 C :    0.100091
  15 C :   -0.092366
  16 C :    0.027669
  17 C :   -0.107018
  18 C :    0.003152
  19 C :    0.008659
  20 C :   -0.020494
  21 C :    0.014561
  22 C :    0.004326
  23 C :    0.023699
  24 C :   -0.116384
  25 C :    0.062616
  26 C :   -0.002931
  27 C :   -0.000380
  28 C :   -0.016158
  29 C :    0.008779
  30 C :    0.002750
  31 C :    0.006753
  32 C :   -0.007989
  33 C :    0.011047
  34 C :    0.007436
  35 C :   -0.028109
  36 C :    0.002308
  37 C :   -0.017762
  38 C :   -0.019142
  39 C :   -0.000593
  40 C :   -0.007982
  41 C :   -0.008980
  42 C :    0.005541
  43 C :    0.001240
  44 C :   -0.005292
  45 C :   -0.006052
  46 C :    0.003915
  47 C :   -0.003066
  48 C :    0.002238
  49 C :   -0.003547
  50 C :   -0.001066
  51 C :   -0.002317
  52 C :   -0.003950
  53 C :   -0.010710
  54 C :    0.016988
  55 C :   -0.016535
  56 C :    0.010857
  57 C :   -0.020392
  58 C :   -0.008554
  59 C :   -0.020056
  60 C :    0.181282
  61 C :   -0.178215
  62 C :   -0.124233
  63 C :   -0.157308
  64 C :   -0.109293
  65 C :   -0.101269
  66 C :   -0.112641
  67 C :   -0.181892
  68 H :    0.110039
  69 H :    0.109184
  70 H :    0.134171
  71 H :    0.113728
  72 H :    0.107695
  73 C :   -0.214090
  74 H :    0.097709
  75 H :    0.115226
  76 H :    0.112988
  77 C :   -0.205768
  78 H :    0.119999
  79 H :    0.114895
  80 H :    0.120167
  81 C :    0.308734
  82 O :   -0.322823
  83 O :   -0.259594
  84 C :   -0.168393
  85 H :    0.124144
  86 H :    0.122351
  87 H :    0.124646
Sum of atomic charges:   -0.0000000

LOEWDIN ATOMIC CHARGES
----------------------
   0 C :   -0.001173
   1 C :    0.008144
   2 C :   -0.013272
   3 C :    0.009462
   4 C :   -0.002401
   5 C :   -0.003645
   6 C :   -0.006233
   7 C :   -0.000677
   8 C :   -0.003169
   9 C :   -0.002341
  10 C :    0.013224
  11 C :   -0.010743
  12 C :    0.009207
  13 C :   -0.018917
  14 C :   -0.016064
  15 C :   -0.003078
  16 C :   -0.000227
  17 C :   -0.003107
  18 C :   -0.006364
  19 C :   -0.003944
  20 C :   -0.002912
  21 C :   -0.003113
  22 C :   -0.004119
  23 C :   -0.006280
  24 C :   -0.000491
  25 C :    0.001086
  26 C :    0.000420
  27 C :   -0.002708
  28 C :   -0.000973
  29 C :   -0.000252
  30 C :   -0.000433
  31 C :   -0.001079
  32 C :   -0.000591
  33 C :   -0.000725
  34 C :   -0.002679
  35 C :   -0.001119
  36 C :   -0.000533
  37 C :   -0.001437
  38 C :   -0.002089
  39 C :   -0.000654
  40 C :   -0.001088
  41 C :   -0.002560
  42 C :    0.000422
  43 C :   -0.002585
  44 C :   -0.000856
  45 C :   -0.000997
  46 C :   -0.000907
  47 C :   -0.000398
  48 C :   -0.000410
  49 C :   -0.001062
  50 C :   -0.001054
  51 C :   -0.001058
  52 C :   -0.000925
  53 C :   -0.000245
  54 C :   -0.000367
  55 C :   -0.000930
  56 C :   -0.005955
  57 C :   -0.003113
  58 C :   -0.001291
  59 C :   -0.001217
  60 C :   -0.105481
  61 C :   -0.177947
  62 C :   -0.091769
  63 C :   -0.092745
  64 C :   -0.132325
  65 C :   -0.134398
  66 C :   -0.134349
  67 C :   -0.093815
  68 H :    0.144525
  69 H :    0.143175
  70 H :    0.154980
  71 H :    0.151197
  72 H :    0.143618
  73 C :   -0.235669
  74 H :    0.146690
  75 H :    0.152417
  76 H :    0.145475
  77 C :   -0.218637
  78 H :    0.145977
  79 H :    0.150792
  80 H :    0.152530
  81 C :   -0.486710
  82 O :    0.116816
  83 O :    0.244425
  84 C :   -0.310536
  85 H :    0.111097
  86 H :    0.111242
  87 H :    0.112019

  Mayer bond orders larger than 0.100000
B(  0-C ,  1-C ) :   1.1715 B(  0-C ,  4-C ) :   1.1179 B(  0-C , 57-C ) :   1.3300
B(  1-C ,  2-C ) :   0.7740 B(  1-C , 14-C ) :   1.4183 B(  2-C ,  3-C ) :   0.7664
B(  2-C ,  4-C ) :  -0.1018 B(  2-C , 11-C ) :   0.7679 B(  2-C , 60-C ) :   1.0439
B(  3-C ,  4-C ) :   1.2116 B(  3-C ,  8-C ) :   1.3974 B(  4-C ,  5-C ) :   1.3388
B(  5-C ,  6-C ) :   1.1623 B(  5-C , 59-C ) :   1.1199 B(  6-C ,  7-C ) :   1.3166
B(  6-C , 28-C ) :   1.1305 B(  7-C ,  8-C ) :   1.1415 B(  7-C , 25-C ) :   1.1506
B(  8-C ,  9-C ) :   1.0537 B(  9-C , 10-C ) :   1.4240 B(  9-C , 24-C ) :   1.1293
B( 10-C , 11-C ) :   0.8082 B( 10-C , 21-C ) :   1.2020 B( 11-C , 12-C ) :   0.8298
B( 11-C , 21-C ) :  -0.1068 B( 11-C , 60-C ) :   1.0092 B( 12-C , 13-C ) :   1.3509
B( 12-C , 20-C ) :   1.1893 B( 13-C , 14-C ) :   1.0445 B( 13-C , 17-C ) :   1.1827
B( 14-C , 15-C ) :   1.1525 B( 15-C , 16-C ) :   1.1465 B( 15-C , 56-C ) :   1.3309
B( 16-C , 17-C ) :   1.1541 B( 16-C , 42-C ) :   1.3529 B( 17-C , 18-C ) :   1.3132
B( 18-C , 19-C ) :   1.1683 B( 18-C , 40-C ) :   1.1312 B( 19-C , 20-C ) :   1.3311
B( 19-C , 38-C ) :   1.1273 B( 20-C , 21-C ) :   1.1111 B( 21-C , 22-C ) :   1.3372
B( 22-C , 23-C ) :   1.1509 B( 22-C , 37-C ) :   1.1237 B( 23-C , 24-C ) :   1.3187
B( 23-C , 35-C ) :   1.1440 B( 24-C , 25-C ) :   1.1403 B( 25-C , 26-C ) :   1.3505
B( 26-C , 27-C ) :   1.1424 B( 26-C , 34-C ) :   1.1282 B( 27-C , 28-C ) :   1.3391
B( 27-C , 32-C ) :   1.1420 B( 28-C , 29-C ) :   1.1411 B( 29-C , 30-C ) :   1.3404
B( 29-C , 59-C ) :   1.1468 B( 30-C , 31-C ) :   1.1418 B( 30-C , 53-C ) :   1.1318
B( 31-C , 32-C ) :   1.3437 B( 31-C , 51-C ) :   1.1412 B( 32-C , 33-C ) :   1.1318
B( 33-C , 34-C ) :   1.1411 B( 33-C , 49-C ) :   1.3525 B( 34-C , 35-C ) :   1.3535
B( 35-C , 36-C ) :   1.1297 B( 36-C , 37-C ) :   1.1484 B( 36-C , 48-C ) :   1.3579
B( 37-C , 38-C ) :   1.3399 B( 38-C , 39-C ) :   1.1421 B( 39-C , 40-C ) :   1.1417
B( 39-C , 47-C ) :   1.3580 B( 40-C , 41-C ) :   1.3459 B( 41-C , 42-C ) :   1.1380
B( 41-C , 45-C ) :   1.1436 B( 42-C , 43-C ) :   1.1274 B( 43-C , 44-C ) :   1.1493
B( 43-C , 55-C ) :   1.3415 B( 44-C , 45-C ) :   1.1287 B( 44-C , 52-C ) :   1.3478
B( 45-C , 46-C ) :   1.3505 B( 46-C , 47-C ) :   1.1295 B( 46-C , 50-C ) :   1.1448
B( 47-C , 48-C ) :   1.1258 B( 48-C , 49-C ) :   1.1421 B( 49-C , 50-C ) :   1.1251
B( 50-C , 51-C ) :   1.3496 B( 51-C , 52-C ) :   1.1357 B( 52-C , 53-C ) :   1.1470
B( 53-C , 54-C ) :   1.3542 B( 54-C , 55-C ) :   1.1273 B( 54-C , 58-C ) :   1.1410
B( 55-C , 56-C ) :   1.1441 B( 56-C , 57-C ) :   1.1550 B( 57-C , 58-C ) :   1.1278
B( 58-C , 59-C ) :   1.3406 B( 60-C , 61-C ) :   0.8235 B( 60-C , 62-C ) :   0.6917
B( 61-C , 73-C ) :   0.9773 B( 61-C , 74-H ) :   0.9445 B( 61-C , 75-H ) :   0.9673
B( 62-C , 63-C ) :   1.3550 B( 62-C , 67-C ) :   1.3752 B( 63-C , 64-C ) :   1.4204
B( 63-C , 70-H ) :   0.9718 B( 64-C , 65-C ) :   1.3944 B( 64-C , 68-H ) :   0.9779
B( 65-C , 66-C ) :   1.3883 B( 65-C , 69-H ) :   0.9723 B( 66-C , 67-C ) :   1.4413
B( 66-C , 72-H ) :   0.9766 B( 67-C , 71-H ) :   0.9729 B( 73-C , 76-H ) :   0.9702
B( 73-C , 77-C ) :   0.9718 B( 73-C , 78-H ) :   0.9657 B( 77-C , 79-H ) :   0.9489
B( 77-C , 80-H ) :   0.9456 B( 77-C , 81-C ) :   1.0084 B( 81-C , 82-O ) :   2.0105
B( 81-C , 83-O ) :   1.2126 B( 83-O , 84-C ) :   0.8940 B( 84-C , 85-H ) :   0.9679
B( 84-C , 86-H ) :   0.9764 B( 84-C , 87-H ) :   0.9749

-----------------------------------------------------------------------------
  SOC CORRECTED ABSORPTION SPECTRUM VIA TRANSITION ELECTRIC DIPOLE MOMENTS*
-----------------------------------------------------------------------------
State   Energy  Wavelength   fosc         T2         TX        TY        TZ
        (cm-1)    (nm)                  (au**2)     (au)      (au)      (au)
-----------------------------------------------------------------------------
   1   13164.0    759.6   0.000000000   0.00000   0.00003   0.00003   0.00001
   2   13164.0    759.6   0.000000000   0.00000   0.00010   0.00001   0.00001
   3   13164.0    759.6   0.000000000   0.00000   0.00001   0.00001   0.00001
   4   13763.1    726.6   0.000000000   0.00000   0.00000   0.00000   0.00000
   5   13763.1    726.6   0.000000000   0.00000   0.00010   0.00001   0.00001
   6   13763.1    726.6   0.000000003   0.00000   0.00024   0.00000   0.00005
   7   14083.9    710.0   0.000000001   0.00000   0.00002   0.00007   0.00010
   8   14083.9    710.0   0.000000000   0.00000   0.00000   0.00000   0.00000
   9   14083.9    710.0   0.000000000   0.00000   0.00000   0.00001   0.00001
  10   15127.2    661.1   0.002272526   0.04946   0.02972   0.12004   0.18483
  11   15707.9    636.6   0.000005040   0.00011   0.00496   0.00823   0.00364
  12   16259.0    615.0   0.000003671   0.00007   0.00689   0.00272   0.00442

FINAL SINGLE POINT ENERGY     -2901.492251544697

DIPOLE MOMENT
-------------
                                X             Y             Z
Electronic contribution:    -72.04063      22.04822      13.68477
Nuclear contribution   :     73.42731     -22.32570     -14.49782
                        -----------------------------------------
Total Dipole Moment    :      1.38668      -0.27747      -0.81305
                        -----------------------------------------
Magnitude (a.u.)       :      1.63123
Magnitude (Debye)      :      4.14626

Rotational constants in cm-1:     0.002214     0.001169     0.001072
Rotational constants in MHz :    66.386768    35.039189    32.136526

                             ****ORCA TERMINATED NORMALLY****
TOTAL RUN TIME: 0 days 17 hours 7 minutes 44 seconds 170 msec
