                         Program Version 4.2.0 -  RELEASE  -
|  1> # ORCA input file
|  2> # SNBDT1-F.out: Geometry 170
|  3> ! B3LYP def2-TZVP def2/J RIJCOSX Grid4 TightSCF
|  4>
|  5> %maxcore 6000
|  6> %tddft
|  7>   maxdim 5
|  8>   nroots 3
|  9>   dosoc true
| 10>   end
| 11> %pal
| 12>   nprocs 6
| 13>   end
| 14>
| 15>
| 16> * xyz 0 1
| 17>    C       -3.02947        -0.81091         0.18491
| 18>    C       -1.97407        -0.21533        -0.53148
| 19>    C       -0.68458        -0.69249        -0.32498
| 20>    C       -0.36290        -1.72726         0.61672
| 21>    C       -1.41665        -2.25157         1.41810
| 22>    C       -2.72276        -1.77071         1.21500
| 23>    S        0.69953         0.01391        -1.15209
| 24>    C        1.75073        -1.02901        -0.24277
| 25>    C        1.07578        -1.91824         0.63522
| 26>    C        3.12978        -1.22518        -0.08882
| 27>    C        3.27602        -2.24751         0.87931
| 28>    N        2.03102        -2.66983         1.31459
| 29>    S        4.66005        -0.65745        -0.66057
| 30>    C        5.50513        -1.81243         0.39360
| 31>    C        4.60857        -2.59314         1.13885
| 32>    S       -4.13158        -2.06215         2.27995
| 33>    C       -5.11036        -0.97651         1.32718
| 34>    C       -4.42500        -0.46594         0.20571
| 35>    C       -6.37937        -0.36164         1.35909
| 36>    C       -6.43507         0.47970         0.21833
| 37>    N       -5.26193         0.38449        -0.50750
| 38>    S       -7.81324        -0.19879         2.31859
| 39>    C       -8.45136         1.03110         1.20461
| 40>    C       -7.59537         1.25205         0.12494
| 41>    O       -1.05712        -3.12846         2.39392
| 42>    O       -2.16552         0.86645        -1.34591
| 43>    C       -2.48747         2.10067        -0.65805
| 44>    C       -1.26840         2.88939        -0.18849
| 45>    C       -0.44804         3.41360        -1.36879
| 46>    C       -1.74799         4.02705         0.72087
| 47>    C       -1.94101        -4.15577         2.84747
| 48>    C       -1.16590        -5.13587         3.72346
| 49>    C       -0.52909        -4.43194         4.92562
| 50>    C       -2.09096        -6.27316         4.16661
| 51>    C       -5.18977         0.76637        -1.91542
| 52>    C       -5.72932        -0.29131        -2.89690
| 53>    C        1.90915        -3.86285         2.14070
| 54>    C        2.28917        -5.15073         1.38695
| 55>    C       -7.16915        -0.72884        -2.61677
| 56>    C       -5.59512         0.25787        -4.32057
| 57>    C        2.56263        -6.28381         2.37931
| 58>    C        1.22904        -5.53834         0.35465
| 59>    C        6.90366        -2.04307         0.35829
| 60>    C        7.95107        -1.38702        -0.24651
| 61>    C        9.17124        -2.18517        -0.58601
| 62>    C        9.92731        -1.35571        -1.56878
| 63>    C        9.26534        -0.12169        -1.75291
| 64>    C        8.11981        -0.05767        -0.81245
| 65>    C       11.08567        -1.69344        -2.25467
| 66>    C       11.56812        -0.75921        -3.17141
| 67>    C       10.92827         0.46402        -3.39452
| 68>    C        9.77493         0.79836        -2.67856
| 69>    C       -9.70380         1.66060         1.44755
| 70>    C      -10.14885         2.86933         0.96159
| 71>    C      -11.62534         3.11677         0.86324
| 72>    C      -11.77266         4.30180        -0.03410
| 73>    C      -10.49420         4.80149        -0.36331
| 74>    C       -9.46992         4.02057         0.37139
| 75>    C      -12.94436         4.85882        -0.53208
| 76>    C      -12.80802         5.93841        -1.40739
| 77>    C      -11.55607         6.44707        -1.76844
| 78>    C      -10.38914         5.88895        -1.24160
| 79>    O      -12.51628         2.45826         1.35735
| 80>    F      -13.89616         6.51131        -1.92954
| 81>    C       -8.17683         4.45446         0.61422
| 82>    C       -7.63279         5.63373         0.01634
| 83>    C       -7.28620         3.82650         1.53851
| 84>    N       -7.15702         6.57434        -0.47389
| 85>    N       -6.52321         3.37772         2.29167
| 86>    O        9.45040        -3.30288        -0.20251
| 87>    F       12.67496        -1.03764        -3.86532
| 88>    C        7.50812         1.10318        -0.37041
| 89>    C        7.72703         2.37004        -0.99409
| 90>    C        6.73029         1.13747         0.82808
| 91>    N        6.14497         1.18656         1.83061
| 92>    N        7.88682         3.39684        -1.51542
| 93>    H        4.94958        -3.36827         1.82462
| 94>    H       -7.83073         1.94773        -0.67755
| 95>    H       -3.15068         1.87701         0.19129
| 96>    H       -3.06027         2.69819        -1.38451
| 97>    H       -0.63842         2.20849         0.40993
| 98>    H       -1.02657         4.16031        -1.93910
| 99>    H       -0.16917         2.60315        -2.05670
|100>    H        0.47693         3.89876        -1.02143
|101>    H       -2.42247         4.71005         0.17657
|102>    H       -0.89831         4.62295         1.08684
|103>    H       -2.29640         3.64291         1.59565
|104>    H       -2.38710        -4.66439         1.97549
|105>    H       -2.75696        -3.72187         3.44840
|106>    H       -0.36621        -5.57350         3.10279
|107>    H       -1.30859        -4.00631         5.57965
|108>    H        0.13202        -3.60972         4.61695
|109>    H        0.06220        -5.14104         5.52647
|110>    H       -2.90975        -5.89532         4.80157
|111>    H       -1.53103        -7.01557         4.75626
|112>    H       -2.54129        -6.79512         3.30704
|113>    H       -4.14440         0.97052        -2.16445
|114>    H       -5.75407         1.70609        -2.02349
|115>    H       -5.07738        -1.17769        -2.79877
|116>    H        0.88530        -3.90679         2.50989
|117>    H        2.57123        -3.72937         3.01056
|118>    H        3.22864        -4.94626         0.84462
|119>    H       -7.49112        -1.47555        -3.35909
|120>    H       -7.86407         0.12513        -2.68437
|121>    H       -7.28542        -1.18067        -1.62145
|122>    H       -6.25427         1.13088        -4.46289
|123>    H       -5.88672        -0.50008        -5.06349
|124>    H       -4.56530         0.57891        -4.54303
|125>    H        1.65618        -6.54532         2.94974
|126>    H        3.34301        -6.00644         3.10546
|127>    H        2.89923        -7.19155         1.85510
|128>    H        0.30217        -5.86866         0.85166
|129>    H        1.58178        -6.36710        -0.27861
|130>    H        0.97454        -4.69495        -0.30554
|131>    H        7.20441        -3.00307         0.79717
|132>    H       11.59241        -2.64453        -2.08456
|133>    H       11.35133         1.15047        -4.13006
|134>    H        9.29301         1.75692        -2.85994
|135>    H      -10.45636         1.09576         2.01313
|136>    H      -13.92265         4.46526        -0.25149
|137>    H      -11.51415         7.28931        -2.46121
|138>    H       -9.42652         6.30462        -1.53106
|139> *
|140>
|141>                          ****END OF INPUT****

CARTESIAN COORDINATES (ANGSTROEM)
---------------------------------
  C     -3.029470   -0.810910    0.184910
  C     -1.974070   -0.215330   -0.531480
  C     -0.684580   -0.692490   -0.324980
  C     -0.362900   -1.727260    0.616720
  C     -1.416650   -2.251570    1.418100
  C     -2.722760   -1.770710    1.215000
  S      0.699530    0.013910   -1.152090
  C      1.750730   -1.029010   -0.242770
  C      1.075780   -1.918240    0.635220
  C      3.129780   -1.225180   -0.088820
  C      3.276020   -2.247510    0.879310
  N      2.031020   -2.669830    1.314590
  S      4.660050   -0.657450   -0.660570
  C      5.505130   -1.812430    0.393600
  C      4.608570   -2.593140    1.138850
  S     -4.131580   -2.062150    2.279950
  C     -5.110360   -0.976510    1.327180
  C     -4.425000   -0.465940    0.205710
  C     -6.379370   -0.361640    1.359090
  C     -6.435070    0.479700    0.218330
  N     -5.261930    0.384490   -0.507500
  S     -7.813240   -0.198790    2.318590
  C     -8.451360    1.031100    1.204610
  C     -7.595370    1.252050    0.124940
  O     -1.057120   -3.128460    2.393920
  O     -2.165520    0.866450   -1.345910
  C     -2.487470    2.100670   -0.658050
  C     -1.268400    2.889390   -0.188490
  C     -0.448040    3.413600   -1.368790
  C     -1.747990    4.027050    0.720870
  C     -1.941010   -4.155770    2.847470
  C     -1.165900   -5.135870    3.723460
  C     -0.529090   -4.431940    4.925620
  C     -2.090960   -6.273160    4.166610
  C     -5.189770    0.766370   -1.915420
  C     -5.729320   -0.291310   -2.896900
  C      1.909150   -3.862850    2.140700
  C      2.289170   -5.150730    1.386950
  C     -7.169150   -0.728840   -2.616770
  C     -5.595120    0.257870   -4.320570
  C      2.562630   -6.283810    2.379310
  C      1.229040   -5.538340    0.354650
  C      6.903660   -2.043070    0.358290
  C      7.951070   -1.387020   -0.246510
  C      9.171240   -2.185170   -0.586010
  C      9.927310   -1.355710   -1.568780
  C      9.265340   -0.121690   -1.752910
  C      8.119810   -0.057670   -0.812450
  C     11.085670   -1.693440   -2.254670
  C     11.568120   -0.759210   -3.171410
  C     10.928270    0.464020   -3.394520
  C      9.774930    0.798360   -2.678560
  C     -9.703800    1.660600    1.447550
  C    -10.148850    2.869330    0.961590
  C    -11.625340    3.116770    0.863240
  C    -11.772660    4.301800   -0.034100
  C    -10.494200    4.801490   -0.363310
  C     -9.469920    4.020570    0.371390
  C    -12.944360    4.858820   -0.532080
  C    -12.808020    5.938410   -1.407390
  C    -11.556070    6.447070   -1.768440
  C    -10.389140    5.888950   -1.241600
  O    -12.516280    2.458260    1.357350
  F    -13.896160    6.511310   -1.929540
  C     -8.176830    4.454460    0.614220
  C     -7.632790    5.633730    0.016340
  C     -7.286200    3.826500    1.538510
  N     -7.157020    6.574340   -0.473890
  N     -6.523210    3.377720    2.291670
  O      9.450400   -3.302880   -0.202510
  F     12.674960   -1.037640   -3.865320
  C      7.508120    1.103180   -0.370410
  C      7.727030    2.370040   -0.994090
  C      6.730290    1.137470    0.828080
  N      6.144970    1.186560    1.830610
  N      7.886820    3.396840   -1.515420
  H      4.949580   -3.368270    1.824620
  H     -7.830730    1.947730   -0.677550
  H     -3.150680    1.877010    0.191290
  H     -3.060270    2.698190   -1.384510
  H     -0.638420    2.208490    0.409930
  H     -1.026570    4.160310   -1.939100
  H     -0.169170    2.603150   -2.056700
  H      0.476930    3.898760   -1.021430
  H     -2.422470    4.710050    0.176570
  H     -0.898310    4.622950    1.086840
  H     -2.296400    3.642910    1.595650
  H     -2.387100   -4.664390    1.975490
  H     -2.756960   -3.721870    3.448400
  H     -0.366210   -5.573500    3.102790
  H     -1.308590   -4.006310    5.579650
  H      0.132020   -3.609720    4.616950
  H      0.062200   -5.141040    5.526470
  H     -2.909750   -5.895320    4.801570
  H     -1.531030   -7.015570    4.756260
  H     -2.541290   -6.795120    3.307040
  H     -4.144400    0.970520   -2.164450
  H     -5.754070    1.706090   -2.023490
  H     -5.077380   -1.177690   -2.798770
  H      0.885300   -3.906790    2.509890
  H      2.571230   -3.729370    3.010560
  H      3.228640   -4.946260    0.844620
  H     -7.491120   -1.475550   -3.359090
  H     -7.864070    0.125130   -2.684370
  H     -7.285420   -1.180670   -1.621450
  H     -6.254270    1.130880   -4.462890
  H     -5.886720   -0.500080   -5.063490
  H     -4.565300    0.578910   -4.543030
  H      1.656180   -6.545320    2.949740
  H      3.343010   -6.006440    3.105460
  H      2.899230   -7.191550    1.855100
  H      0.302170   -5.868660    0.851660
  H      1.581780   -6.367100   -0.278610
  H      0.974540   -4.694950   -0.305540
  H      7.204410   -3.003070    0.797170
  H     11.592410   -2.644530   -2.084560
  H     11.351330    1.150470   -4.130060
  H      9.293010    1.756920   -2.859940
  H    -10.456360    1.095760    2.013130
  H    -13.922650    4.465260   -0.251490
  H    -11.514150    7.289310   -2.461210
  H     -9.426520    6.304620   -1.531060

 Total Charge           Charge          ....    0
 Multiplicity           Mult            ....    1
 Number of Electrons    NEL             ....  562
 Basis Dimension        Dim             .... 2656

ORBITAL ENERGIES
----------------

  NO   OCC          E(Eh)            E(eV)
   0   2.0000     -88.909393     -2419.3476
   1   2.0000     -88.904910     -2419.2256
   2   2.0000     -88.903001     -2419.1736
   3   2.0000     -88.897683     -2419.0289
   4   2.0000     -24.718887      -672.6351
   5   2.0000     -24.712333      -672.4568
   6   2.0000     -19.184759      -522.0438
   7   2.0000     -19.169760      -521.6357
   8   2.0000     -19.131912      -520.6058
   9   2.0000     -19.125091      -520.4202
  10   2.0000     -14.394502      -391.6943
  11   2.0000     -14.393774      -391.6745
  12   2.0000     -14.332357      -390.0033
  13   2.0000     -14.330986      -389.9660
  14   2.0000     -14.324555      -389.7910
  15   2.0000     -14.320567      -389.6824
  16   2.0000     -10.294264      -280.1212
  17   2.0000     -10.286685      -279.9149
  18   2.0000     -10.279154      -279.7100
  19   2.0000     -10.275781      -279.6182
  20   2.0000     -10.271656      -279.5060
  21   2.0000     -10.260743      -279.2090
  22   2.0000     -10.259657      -279.1795
  23   2.0000     -10.259493      -279.1750
  24   2.0000     -10.252822      -278.9935
  25   2.0000     -10.250865      -278.9402
  26   2.0000     -10.250786      -278.9381
  27   2.0000     -10.250231      -278.9230
  28   2.0000     -10.247759      -278.8557
  29   2.0000     -10.240629      -278.6617
  30   2.0000     -10.239189      -278.6225
  31   2.0000     -10.238894      -278.6145
  32   2.0000     -10.235929      -278.5338
  33   2.0000     -10.235675      -278.5269
  34   2.0000     -10.234926      -278.5065
  35   2.0000     -10.234840      -278.5042
  36   2.0000     -10.233826      -278.4766
  37   2.0000     -10.232955      -278.4529
  38   2.0000     -10.232652      -278.4446
  39   2.0000     -10.231753      -278.4202
  40   2.0000     -10.230925      -278.3976
  41   2.0000     -10.230019      -278.3730
  42   2.0000     -10.228529      -278.3324
  43   2.0000     -10.227465      -278.3035
  44   2.0000     -10.227204      -278.2964
  45   2.0000     -10.226817      -278.2858
  46   2.0000     -10.225927      -278.2616
  47   2.0000     -10.225903      -278.2610
  48   2.0000     -10.225056      -278.2379
  49   2.0000     -10.224397      -278.2200
  50   2.0000     -10.219885      -278.0972
  51   2.0000     -10.219848      -278.0962
  52   2.0000     -10.218541      -278.0606
  53   2.0000     -10.218335      -278.0550
  54   2.0000     -10.218121      -278.0492
  55   2.0000     -10.217177      -278.0235
  56   2.0000     -10.216047      -277.9928
  57   2.0000     -10.215992      -277.9913
  58   2.0000     -10.215857      -277.9876
  59   2.0000     -10.211342      -277.8647
  60   2.0000     -10.210712      -277.8476
  61   2.0000     -10.209067      -277.8028
  62   2.0000     -10.208531      -277.7882
  63   2.0000     -10.206541      -277.7341
  64   2.0000     -10.203693      -277.6566
  65   2.0000     -10.199741      -277.5491
  66   2.0000     -10.199287      -277.5367
  67   2.0000     -10.185376      -277.1582
  68   2.0000     -10.183499      -277.1071
  69   2.0000     -10.183189      -277.0987
  70   2.0000     -10.179798      -277.0064
  71   2.0000     -10.179708      -277.0039
  72   2.0000     -10.179680      -277.0032
  73   2.0000     -10.177637      -276.9476
  74   2.0000     -10.165630      -276.6208
  75   2.0000     -10.162378      -276.5324
  76   2.0000      -7.984561      -217.2710
  77   2.0000      -7.980413      -217.1581
  78   2.0000      -7.978667      -217.1106
  79   2.0000      -7.973636      -216.9737
  80   2.0000      -5.947414      -161.8374
  81   2.0000      -5.943654      -161.7351
  82   2.0000      -5.943513      -161.7312
  83   2.0000      -5.941511      -161.6767
  84   2.0000      -5.940653      -161.6534
  85   2.0000      -5.939891      -161.6326
  86   2.0000      -5.937752      -161.5744
  87   2.0000      -5.936658      -161.5447
  88   2.0000      -5.935766      -161.5204
  89   2.0000      -5.934665      -161.4904
  90   2.0000      -5.932924      -161.4431
  91   2.0000      -5.929180      -161.3412
  92   2.0000      -1.257169       -34.2093
  93   2.0000      -1.250853       -34.0374
  94   2.0000      -1.097013       -29.8512
  95   2.0000      -1.080801       -29.4101
  96   2.0000      -1.059389       -28.8274
  97   2.0000      -1.052379       -28.6367
  98   2.0000      -1.022068       -27.8119
  99   2.0000      -1.018295       -27.7092
 100   2.0000      -0.936860       -25.4933
 101   2.0000      -0.928060       -25.2538
 102   2.0000      -0.918539       -24.9947
 103   2.0000      -0.916361       -24.9354
 104   2.0000      -0.914114       -24.8743
 105   2.0000      -0.910004       -24.7625
 106   2.0000      -0.907789       -24.7022
 107   2.0000      -0.902703       -24.5638
 108   2.0000      -0.898789       -24.4573
 109   2.0000      -0.890978       -24.2447
 110   2.0000      -0.869920       -23.6717
 111   2.0000      -0.863027       -23.4841
 112   2.0000      -0.850831       -23.1523
 113   2.0000      -0.839068       -22.8322
 114   2.0000      -0.835842       -22.7444
 115   2.0000      -0.822884       -22.3918
 116   2.0000      -0.821935       -22.3660
 117   2.0000      -0.816663       -22.2225
 118   2.0000      -0.813970       -22.1493
 119   2.0000      -0.808628       -22.0039
 120   2.0000      -0.800902       -21.7936
 121   2.0000      -0.790842       -21.5199
 122   2.0000      -0.789364       -21.4797
 123   2.0000      -0.783273       -21.3140
 124   2.0000      -0.781837       -21.2749
 125   2.0000      -0.776582       -21.1319
 126   2.0000      -0.764692       -20.8083
 127   2.0000      -0.759842       -20.6763
 128   2.0000      -0.750769       -20.4295
 129   2.0000      -0.738652       -20.0997
 130   2.0000      -0.731760       -19.9122
 131   2.0000      -0.719412       -19.5762
 132   2.0000      -0.714933       -19.4543
 133   2.0000      -0.706346       -19.2206
 134   2.0000      -0.704956       -19.1828
 135   2.0000      -0.703190       -19.1348
 136   2.0000      -0.696933       -18.9645
 137   2.0000      -0.694853       -18.9079
 138   2.0000      -0.692434       -18.8421
 139   2.0000      -0.688794       -18.7430
 140   2.0000      -0.688048       -18.7228
 141   2.0000      -0.683397       -18.5962
 142   2.0000      -0.675414       -18.3790
 143   2.0000      -0.658571       -17.9206
 144   2.0000      -0.643024       -17.4976
 145   2.0000      -0.633175       -17.2296
 146   2.0000      -0.626798       -17.0560
 147   2.0000      -0.621646       -16.9158
 148   2.0000      -0.618117       -16.8198
 149   2.0000      -0.608815       -16.5667
 150   2.0000      -0.606365       -16.5000
 151   2.0000      -0.601923       -16.3792
 152   2.0000      -0.599613       -16.3163
 153   2.0000      -0.598220       -16.2784
 154   2.0000      -0.594784       -16.1849
 155   2.0000      -0.591205       -16.0875
 156   2.0000      -0.588443       -16.0123
 157   2.0000      -0.582274       -15.8445
 158   2.0000      -0.578659       -15.7461
 159   2.0000      -0.570855       -15.5338
 160   2.0000      -0.568075       -15.4581
 161   2.0000      -0.566709       -15.4209
 162   2.0000      -0.561309       -15.2740
 163   2.0000      -0.545020       -14.8307
 164   2.0000      -0.539810       -14.6890
 165   2.0000      -0.537761       -14.6332
 166   2.0000      -0.534077       -14.5330
 167   2.0000      -0.531645       -14.4668
 168   2.0000      -0.529126       -14.3983
 169   2.0000      -0.525979       -14.3126
 170   2.0000      -0.520833       -14.1726
 171   2.0000      -0.517538       -14.0829
 172   2.0000      -0.515449       -14.0261
 173   2.0000      -0.510902       -13.9024
 174   2.0000      -0.509294       -13.8586
 175   2.0000      -0.502258       -13.6671
 176   2.0000      -0.499836       -13.6012
 177   2.0000      -0.496119       -13.5001
 178   2.0000      -0.493999       -13.4424
 179   2.0000      -0.493564       -13.4306
 180   2.0000      -0.491723       -13.3805
 181   2.0000      -0.491394       -13.3715
 182   2.0000      -0.486549       -13.2397
 183   2.0000      -0.481089       -13.0911
 184   2.0000      -0.477861       -13.0033
 185   2.0000      -0.475069       -12.9273
 186   2.0000      -0.473969       -12.8973
 187   2.0000      -0.470342       -12.7986
 188   2.0000      -0.465970       -12.6797
 189   2.0000      -0.464095       -12.6287
 190   2.0000      -0.461216       -12.5503
 191   2.0000      -0.457349       -12.4451
 192   2.0000      -0.456195       -12.4137
 193   2.0000      -0.454723       -12.3736
 194   2.0000      -0.452979       -12.3262
 195   2.0000      -0.451904       -12.2969
 196   2.0000      -0.449470       -12.2307
 197   2.0000      -0.447581       -12.1793
 198   2.0000      -0.445763       -12.1298
 199   2.0000      -0.443088       -12.0570
 200   2.0000      -0.441916       -12.0251
 201   2.0000      -0.440490       -11.9863
 202   2.0000      -0.438959       -11.9447
 203   2.0000      -0.434091       -11.8122
 204   2.0000      -0.430494       -11.7143
 205   2.0000      -0.428434       -11.6583
 206   2.0000      -0.425873       -11.5886
 207   2.0000      -0.424850       -11.5607
 208   2.0000      -0.422587       -11.4992
 209   2.0000      -0.419237       -11.4080
 210   2.0000      -0.418645       -11.3919
 211   2.0000      -0.417787       -11.3686
 212   2.0000      -0.415874       -11.3165
 213   2.0000      -0.413796       -11.2600
 214   2.0000      -0.410101       -11.1594
 215   2.0000      -0.407951       -11.1009
 216   2.0000      -0.406824       -11.0702
 217   2.0000      -0.406674       -11.0662
 218   2.0000      -0.404365       -11.0033
 219   2.0000      -0.403436       -10.9781
 220   2.0000      -0.402487       -10.9522
 221   2.0000      -0.400175       -10.8893
 222   2.0000      -0.398320       -10.8388
 223   2.0000      -0.395188       -10.7536
 224   2.0000      -0.394556       -10.7364
 225   2.0000      -0.390213       -10.6182
 226   2.0000      -0.388849       -10.5811
 227   2.0000      -0.388240       -10.5646
 228   2.0000      -0.387580       -10.5466
 229   2.0000      -0.386855       -10.5269
 230   2.0000      -0.386210       -10.5093
 231   2.0000      -0.383430       -10.4337
 232   2.0000      -0.380590       -10.3564
 233   2.0000      -0.379725       -10.3328
 234   2.0000      -0.379575       -10.3288
 235   2.0000      -0.378816       -10.3081
 236   2.0000      -0.377949       -10.2845
 237   2.0000      -0.374904       -10.2017
 238   2.0000      -0.370934       -10.0936
 239   2.0000      -0.368675       -10.0321
 240   2.0000      -0.368193       -10.0191
 241   2.0000      -0.366012        -9.9597
 242   2.0000      -0.364669        -9.9231
 243   2.0000      -0.363471        -9.8905
 244   2.0000      -0.361163        -9.8278
 245   2.0000      -0.360539        -9.8108
 246   2.0000      -0.360058        -9.7977
 247   2.0000      -0.358886        -9.7658
 248   2.0000      -0.356917        -9.7122
 249   2.0000      -0.356250        -9.6941
 250   2.0000      -0.354499        -9.6464
 251   2.0000      -0.352969        -9.6048
 252   2.0000      -0.350935        -9.5494
 253   2.0000      -0.350334        -9.5331
 254   2.0000      -0.348525        -9.4839
 255   2.0000      -0.346876        -9.4390
 256   2.0000      -0.343971        -9.3599
 257   2.0000      -0.342627        -9.3234
 258   2.0000      -0.338867        -9.2210
 259   2.0000      -0.337860        -9.1936
 260   2.0000      -0.335472        -9.1287
 261   2.0000      -0.330008        -8.9800
 262   2.0000      -0.328287        -8.9332
 263   2.0000      -0.322514        -8.7761
 264   2.0000      -0.312248        -8.4967
 265   2.0000      -0.304218        -8.2782
 266   2.0000      -0.295599        -8.0436
 267   2.0000      -0.295046        -8.0286
 268   2.0000      -0.288631        -7.8540
 269   2.0000      -0.288252        -7.8437
 270   2.0000      -0.280793        -7.6408
 271   2.0000      -0.277013        -7.5379
 272   2.0000      -0.273973        -7.4552
 273   2.0000      -0.269997        -7.3470
 274   2.0000      -0.261793        -7.1237
 275   2.0000      -0.254977        -6.9383
 276   2.0000      -0.251715        -6.8495
 277   2.0000      -0.237712        -6.4685
 278   2.0000      -0.228217        -6.2101
 279   2.0000      -0.220844        -6.0095
 280   2.0000      -0.199215        -5.4209
 281   0.0000      -0.131354        -3.5743
 282   0.0000      -0.120236        -3.2718
 283   0.0000      -0.105671        -2.8754
 284   0.0000      -0.098633        -2.6840
 285   0.0000      -0.067799        -1.8449

MULLIKEN ATOMIC CHARGES
-----------------------
   0 C :   -0.034978
   1 C :    0.149558
   2 C :    0.029097
   3 C :   -0.086919
   4 C :    0.117240
   5 C :    0.039172
   6 S :    0.003762
   7 C :   -0.016743
   8 C :    0.121789
   9 C :   -0.069201
  10 C :    0.215726
  11 N :   -0.023558
  12 S :    0.027805
  13 C :    0.225393
  14 C :   -0.319640
  15 S :   -0.018191
  16 C :   -0.034097
  17 C :    0.099379
  18 C :   -0.100342
  19 C :    0.258998
  20 N :   -0.028573
  21 S :    0.048209
  22 C :    0.188292
  23 C :   -0.388480
  24 O :   -0.345947
  25 O :   -0.389843
  26 C :   -0.056373
  27 C :   -0.002357
  28 C :   -0.347841
  29 C :   -0.350430
  30 C :   -0.060369
  31 C :    0.006444
  32 C :   -0.342171
  33 C :   -0.347800
  34 C :   -0.191857
  35 C :    0.020520
  36 C :   -0.149709
  37 C :   -0.018680
  38 C :   -0.351520
  39 C :   -0.349781
  40 C :   -0.344220
  41 C :   -0.364780
  42 C :   -0.225660
  43 C :   -0.037168
  44 C :    0.226101
  45 C :    0.007257
  46 C :    0.091366
  47 C :    0.024131
  48 C :   -0.315533
  49 C :    0.389029
  50 C :   -0.198365
  51 C :   -0.157563
  52 C :   -0.199160
  53 C :   -0.021047
  54 C :    0.225192
  55 C :    0.005620
  56 C :    0.108685
  57 C :   -0.052744
  58 C :   -0.310216
  59 C :    0.387841
  60 C :   -0.201410
  61 C :   -0.158423
  62 O :   -0.288913
  63 F :   -0.188623
  64 C :    0.132238
  65 C :   -0.204541
  66 C :   -0.178437
  67 N :    0.002649
  68 N :   -0.002623
  69 O :   -0.299286
  70 F :   -0.191724
  71 C :    0.108626
  72 C :   -0.220203
  73 C :   -0.208121
  74 N :    0.017524
  75 N :    0.001392
  76 H :    0.141374
  77 H :    0.157997
  78 H :    0.136095
  79 H :    0.100090
  80 H :    0.084332
  81 H :    0.098044
  82 H :    0.121135
  83 H :    0.118137
  84 H :    0.108498
  85 H :    0.118435
  86 H :    0.123562
  87 H :    0.109957
  88 H :    0.108579
  89 H :    0.049974
  90 H :    0.105887
  91 H :    0.132007
  92 H :    0.113848
  93 H :    0.112887
  94 H :    0.120494
  95 H :    0.113826
  96 H :    0.159924
  97 H :    0.114339
  98 H :    0.072167
  99 H :    0.130390
 100 H :    0.117373
 101 H :    0.092724
 102 H :    0.117819
 103 H :    0.092847
 104 H :    0.134018
 105 H :    0.102120
 106 H :    0.117295
 107 H :    0.120771
 108 H :    0.109125
 109 H :    0.110627
 110 H :    0.118983
 111 H :    0.099906
 112 H :    0.117888
 113 H :    0.129403
 114 H :    0.139435
 115 H :    0.143919
 116 H :    0.134507
 117 H :    0.164131
 118 H :    0.153512
 119 H :    0.147320
 120 H :    0.136903
 121 H :    0.162522
Sum of atomic charges:   -0.0000000

LOEWDIN ATOMIC CHARGES
----------------------
   0 C :   -0.094395
   1 C :   -0.246134
   2 C :   -0.268741
   3 C :   -0.081910
   4 C :   -0.223049
   5 C :   -0.253019
   6 S :    0.747337
   7 C :   -0.346515
   8 C :   -0.114807
   9 C :   -0.330862
  10 C :   -0.180176
  11 N :    0.295248
  12 S :    0.778350
  13 C :   -0.322733
  14 C :   -0.102609
  15 S :    0.697759
  16 C :   -0.338880
  17 C :   -0.132340
  18 C :   -0.328344
  19 C :   -0.185798
  20 N :    0.294021
  21 S :    0.750885
  22 C :   -0.334265
  23 C :   -0.101356
  24 O :    0.260465
  25 O :    0.227570
  26 C :   -0.265093
  27 C :   -0.319139
  28 C :   -0.290122
  29 C :   -0.277391
  30 C :   -0.286801
  31 C :   -0.321283
  32 C :   -0.282136
  33 C :   -0.276651
  34 C :   -0.217083
  35 C :   -0.303381
  36 C :   -0.216683
  37 C :   -0.306330
  38 C :   -0.279443
  39 C :   -0.279522
  40 C :   -0.281067
  41 C :   -0.280161
  42 C :   -0.061697
  43 C :   -0.091685
  44 C :   -0.247867
  45 C :   -0.055361
  46 C :   -0.042704
  47 C :    0.003207
  48 C :   -0.055347
  49 C :   -0.246031
  50 C :   -0.093793
  51 C :   -0.071226
  52 C :   -0.060476
  53 C :   -0.082516
  54 C :   -0.247491
  55 C :   -0.054706
  56 C :   -0.045746
  57 C :    0.005433
  58 C :   -0.053643
  59 C :   -0.243172
  60 C :   -0.092752
  61 C :   -0.071837
  62 O :    0.132265
  63 F :    0.206999
  64 C :   -0.145898
  65 C :   -0.156420
  66 C :   -0.149232
  67 N :    0.066446
  68 N :    0.083415
  69 O :    0.125495
  70 F :    0.205364
  71 C :   -0.149615
  72 C :   -0.152199
  73 C :   -0.170939
  74 N :    0.075709
  75 N :    0.067053
  76 H :    0.153589
  77 H :    0.155245
  78 H :    0.138743
  79 H :    0.132237
  80 H :    0.151965
  81 H :    0.120224
  82 H :    0.115578
  83 H :    0.124390
  84 H :    0.123754
  85 H :    0.124978
  86 H :    0.124394
  87 H :    0.131621
  88 H :    0.124022
  89 H :    0.144066
  90 H :    0.124598
  91 H :    0.122997
  92 H :    0.123792
  93 H :    0.124190
  94 H :    0.125867
  95 H :    0.122393
  96 H :    0.151620
  97 H :    0.141713
  98 H :    0.152351
  99 H :    0.145795
 100 H :    0.141587
 101 H :    0.155080
 102 H :    0.124434
 103 H :    0.120436
 104 H :    0.127365
 105 H :    0.121559
 106 H :    0.124401
 107 H :    0.123807
 108 H :    0.118569
 109 H :    0.121614
 110 H :    0.125487
 111 H :    0.118611
 112 H :    0.124015
 113 H :    0.126247
 114 H :    0.176825
 115 H :    0.163532
 116 H :    0.157113
 117 H :    0.162036
 118 H :    0.170320
 119 H :    0.164242
 120 H :    0.157846
 121 H :    0.162302

  Mayer bond orders larger than 0.100000
B(  0-C ,  1-C ) :   1.2630 B(  0-C ,  5-C ) :   1.1879 B(  0-C , 17-C ) :   1.1792
B(  1-C ,  2-C ) :   1.3977 B(  1-C , 25-O ) :   1.0259 B(  2-C ,  3-C ) :   1.2660
B(  2-C ,  6-S ) :   1.2106 B(  3-C ,  4-C ) :   1.2602 B(  3-C ,  8-C ) :   1.1638
B(  4-C ,  5-C ) :   1.3799 B(  4-C , 24-O ) :   1.0738 B(  5-C , 15-S ) :   1.1288
B(  6-S ,  7-C ) :   1.2513 B(  7-C ,  8-C ) :   1.3016 B(  7-C ,  9-C ) :   1.1377
B(  8-C , 11-N ) :   1.1881 B(  9-C , 10-C ) :   1.2482 B(  9-C , 12-S ) :   1.3209
B( 10-C , 11-N ) :   1.1353 B( 10-C , 14-C ) :   1.3293 B( 11-N , 36-C ) :   0.9232
B( 12-S , 13-C ) :   1.1602 B( 12-S , 14-C ) :   0.1213 B( 13-C , 14-C ) :   1.3884
B( 13-C , 42-C ) :   1.1265 B( 14-C , 76-H ) :   0.9567 B( 15-S , 16-C ) :   1.2828
B( 16-C , 17-C ) :   1.3267 B( 16-C , 18-C ) :   1.0993 B( 17-C , 20-N ) :   1.1452
B( 18-C , 19-C ) :   1.2538 B( 18-C , 21-S ) :   1.3166 B( 19-C , 20-N ) :   1.1257
B( 19-C , 23-C ) :   1.2818 B( 20-N , 34-C ) :   0.8788 B( 21-S , 22-C ) :   1.1607
B( 21-S , 23-C ) :   0.1421 B( 22-C , 23-C ) :   1.4386 B( 22-C , 52-C ) :   1.1082
B( 23-C , 77-H ) :   0.9594 B( 24-O , 30-C ) :   0.8956 B( 25-O , 26-C ) :   0.8314
B( 26-C , 27-C ) :   0.9922 B( 26-C , 78-H ) :   0.9697 B( 26-C , 79-H ) :   0.9533
B( 27-C , 28-C ) :   0.9596 B( 27-C , 29-C ) :   0.9516 B( 27-C , 80-H ) :   0.9531
B( 28-C , 81-H ) :   0.9649 B( 28-C , 82-H ) :   0.9746 B( 28-C , 83-H ) :   0.9777
B( 29-C , 84-H ) :   0.9698 B( 29-C , 85-H ) :   0.9747 B( 29-C , 86-H ) :   0.9754
B( 30-C , 31-C ) :   0.9902 B( 30-C , 87-H ) :   0.9545 B( 30-C , 88-H ) :   0.9455
B( 31-C , 32-C ) :   0.9617 B( 31-C , 33-C ) :   0.9550 B( 31-C , 89-H ) :   0.9524
B( 32-C , 90-H ) :   0.9636 B( 32-C , 91-H ) :   0.9736 B( 32-C , 92-H ) :   0.9745
B( 33-C , 93-H ) :   0.9737 B( 33-C , 94-H ) :   0.9776 B( 33-C , 95-H ) :   0.9747
B( 34-C , 35-C ) :   0.9540 B( 34-C , 96-H ) :   0.9564 B( 34-C , 97-H ) :   0.9612
B( 35-C , 38-C ) :   0.9790 B( 35-C , 39-C ) :   0.9485 B( 35-C , 98-H ) :   0.9493
B( 36-C , 37-C ) :   0.9239 B( 36-C , 99-H ) :   0.9702 B( 36-C ,100-H ) :   0.9585
B( 37-C , 40-C ) :   0.9447 B( 37-C , 41-C ) :   0.9697 B( 37-C ,101-H ) :   0.9692
B( 38-C ,102-H ) :   0.9758 B( 38-C ,103-H ) :   0.9641 B( 38-C ,104-H ) :   0.9709
B( 39-C ,105-H ) :   0.9674 B( 39-C ,106-H ) :   0.9778 B( 39-C ,107-H ) :   0.9768
B( 40-C ,108-H ) :   0.9687 B( 40-C ,109-H ) :   0.9733 B( 40-C ,110-H ) :   0.9759
B( 41-C ,111-H ) :   0.9681 B( 41-C ,112-H ) :   0.9744 B( 41-C ,113-H ) :   0.9753
B( 42-C , 43-C ) :   1.4844 B( 42-C ,114-H ) :   0.9419 B( 43-C , 44-C ) :   1.0125
B( 43-C , 47-C ) :   1.1610 B( 43-C , 69-O ) :  -0.1237 B( 44-C , 45-C ) :   0.9488
B( 44-C , 69-O ) :   2.1477 B( 45-C , 46-C ) :   1.3208 B( 45-C , 48-C ) :   1.3041
B( 45-C , 69-O ) :  -0.1371 B( 46-C , 47-C ) :   1.0504 B( 46-C , 51-C ) :   1.3677
B( 47-C , 71-C ) :   1.4206 B( 48-C , 49-C ) :   1.3634 B( 48-C ,115-H ) :   0.9932
B( 49-C , 50-C ) :   1.3731 B( 49-C , 70-F ) :   1.0323 B( 50-C , 51-C ) :   1.3676
B( 50-C ,116-H ) :   0.9761 B( 51-C ,117-H ) :   0.9263 B( 52-C , 53-C ) :   1.5206
B( 52-C , 62-O ) :   0.1029 B( 52-C ,118-H ) :   0.9386 B( 53-C , 54-C ) :   1.0109
B( 53-C , 57-C ) :   1.1351 B( 53-C , 62-O ) :  -0.1292 B( 54-C , 55-C ) :   0.9466
B( 54-C , 62-O ) :   2.1685 B( 55-C , 56-C ) :   1.3226 B( 55-C , 58-C ) :   1.3032
B( 55-C , 62-O ) :  -0.1359 B( 56-C , 57-C ) :   1.0338 B( 56-C , 61-C ) :   1.3514
B( 57-C , 64-C ) :   1.4253 B( 58-C , 59-C ) :   1.3648 B( 58-C ,119-H ) :   0.9918
B( 59-C , 60-C ) :   1.3701 B( 59-C , 63-F ) :   1.0356 B( 60-C , 61-C ) :   1.3790
B( 60-C ,120-H ) :   0.9748 B( 61-C ,121-H ) :   0.9269 B( 64-C , 65-C ) :   1.0344
B( 64-C , 66-C ) :   1.0470 B( 65-C , 67-N ) :   2.9887 B( 66-C , 68-N ) :   2.9566
B( 71-C , 72-C ) :   1.0499 B( 71-C , 73-C ) :   1.0286 B( 72-C , 75-N ) :   2.9906
B( 73-C , 74-N ) :   3.0161

-----------------------------------------------------------------------------
  SOC CORRECTED ABSORPTION SPECTRUM VIA TRANSITION ELECTRIC DIPOLE MOMENTS*
-----------------------------------------------------------------------------
State   Energy  Wavelength   fosc         T2         TX        TY        TZ
        (cm-1)    (nm)                  (au**2)     (au)      (au)      (au)
-----------------------------------------------------------------------------
   1    9702.6   1030.7   0.000000002   0.00000   0.00023   0.00005   0.00002
   2    9702.6   1030.7   0.000000002   0.00000   0.00029   0.00002   0.00002
   3    9702.6   1030.7   0.000000068   0.00000   0.00135   0.00070   0.00000
   4   11581.4    863.5   0.000000012   0.00000   0.00056   0.00014   0.00005
   5   11581.4    863.5   0.000000003   0.00000   0.00027   0.00002   0.00013
   6   11581.4    863.5   0.000000041   0.00000   0.00094   0.00055   0.00000
   7   13317.1    750.9   1.018074536  25.16789   4.81370   1.31368   0.52007
   8   14534.4    688.0   0.000000045   0.00000   0.00092   0.00041   0.00003
   9   14534.4    688.0   0.000000003   0.00000   0.00023   0.00007   0.00004
  10   14534.4    688.0   0.000000036   0.00000   0.00065   0.00063   0.00002
  11   15728.1    635.8   0.381767862   7.99096   2.73428   0.52325   0.49081
  12   17114.2    584.3   0.529698995  10.18939   2.98893   1.11425   0.11900

FINAL SINGLE POINT ENERGY     -4734.945661543165

DIPOLE MOMENT
-------------
                                X             Y             Z
Electronic contribution:     13.72170      55.38782     -12.81598
Nuclear contribution   :    -15.71489     -58.92729      11.75488
                        -----------------------------------------
Total Dipole Moment    :     -1.99319      -3.53947      -1.06110
                        -----------------------------------------
Magnitude (a.u.)       :      4.19840
Magnitude (Debye)      :     10.67149

Rotational constants in cm-1:     0.001545     0.000288     0.000257
Rotational constants in MHz :    46.332745     8.647981     7.690798

                             ****ORCA TERMINATED NORMALLY****
TOTAL RUN TIME: 0 days 2 hours 43 minutes 10 seconds 670 msec
