                         Program Version 4.2.0 -  RELEASE  -
|  1> # ORCA input file
|  2> # Y1-4F.out
|  3> ! B3LYP def2-TZVP def2/J RIJCOSX Grid4 TightSCF
|  4>
|  5> %maxcore 2000
|  6> %tddft
|  7>   maxdim 5
|  8>   nroots 3
|  9>   dosoc true
| 10>   end
| 11>
| 12>
| 13>
| 14> * xyz 0 1
| 15>    C        6.25257         3.09290         0.78855
| 16>    O        7.39651         3.02781         0.37278
| 17>    C        5.62162         4.27714         1.40581
| 18>    C        6.17629         5.51903         1.64186
| 19>    C        5.37322         6.47743         2.23881
| 20>    F        5.86885         7.69559         2.48780
| 21>    C        4.05362         6.18383         2.58243
| 22>    F        3.30031         7.12795         3.15660
| 23>    C        3.49789         4.93476         2.34518
| 24>    C        4.29463         3.96982         1.74951
| 25>    C        4.02081         2.58036         1.37492
| 26>    C        2.82642         1.93651         1.56867
| 27>    C        2.54339         0.59721         1.22668
| 28>    N        2.23128        -0.48137         0.98423
| 29>    C        1.68995         2.53795         2.15106
| 30>    N        0.73062         2.96518         2.61368
| 31>    C        5.23111         2.04596         0.78389
| 32>    C        5.39402         0.76842         0.29930
| 33>    C        6.50693         0.15236        -0.28016
| 34>    S        8.07934         0.89136        -0.56663
| 35>    C        8.66453        -0.58167        -1.24280
| 36>    C        7.68228        -1.59654        -1.23890
| 37>    C        6.48064        -1.18112        -0.70516
| 38>    S        8.24400        -3.11915        -1.89861
| 39>    C        9.79368        -2.39252        -2.17036
| 40>    C        9.86233        -1.04623        -1.78767
| 41>    N       11.12075        -0.56117        -2.01148
| 42>    C       11.43984         0.76603        -1.53816
| 43>    C       10.92455         1.84960        -2.48539
| 44>    C       11.88782        -1.57917        -2.55126
| 45>    C       11.06269        -2.74758        -2.63183
| 46>    C       11.58581        -3.99094        -3.04039
| 47>    N       11.04223        -5.20172        -3.17581
| 48>    N       12.04482        -5.96027        -3.54213
| 49>    C       11.88471        -7.36986        -3.75269
| 50>    C       12.02479        -8.12719        -2.43546
| 51>    N       13.20969        -5.37429        -3.66195
| 52>    C       12.96406        -4.10055        -3.34973
| 53>    C       13.77321        -2.94668        -3.33138
| 54>    C       13.23904        -1.66417        -2.98885
| 55>    N       14.24464        -0.72777        -3.17107
| 56>    C       14.24252         0.71706        -3.19015
| 57>    C       14.93709         1.30763        -1.96264
| 58>    C       15.37317        -1.38709        -3.57397
| 59>    C       15.11497        -2.76124        -3.67368
| 60>    S       16.47454        -3.69688        -4.19568
| 61>    C       17.41329        -2.22472        -4.29797
| 62>    C       16.68108        -1.07119        -3.94131
| 63>    S       17.65049         0.34181        -4.07749
| 64>    C       19.04486        -0.62229        -4.59172
| 65>    C       18.72722        -1.97259        -4.65657
| 66>    C       20.21197         0.10827        -4.85873
| 67>    C       21.48546        -0.28698        -5.18668
| 68>    C       22.57000         0.64631        -5.43815
| 69>    C       22.48261         2.00332        -5.61143
| 70>    C       23.59098         2.83850        -5.87079
| 71>    N       24.44531         3.57550        -6.08011
| 72>    C       21.30032         2.77433        -5.59514
| 73>    N       20.39416         3.48017        -5.61234
| 74>    C       23.80714        -0.12733        -5.54192
| 75>    C       25.12671         0.26506        -5.70668
| 76>    C       26.09672        -0.72417        -5.77079
| 77>    F       27.37666        -0.36604        -5.92264
| 78>    C       25.77204        -2.07802        -5.67840
| 79>    F       26.74173        -2.99817        -5.74718
| 80>    C       24.45604        -2.47741        -5.51244
| 81>    C       23.49211        -1.49117        -5.44335
| 82>    C       22.03333        -1.65652        -5.25207
| 83>    O       21.45652        -2.72010        -5.16358
| 84>    H        7.19691         5.74084         1.37395
| 85>    H        2.47361         4.76132         2.63081
| 86>    H        4.53677         0.11017         0.36757
| 87>    H        5.60511        -1.79765        -0.61091
| 88>    H       12.50971         0.84576        -1.37289
| 89>    H       10.94416         0.89283        -0.56970
| 90>    H       11.27879         2.82221        -2.15683
| 91>    H        9.83835         1.86398        -2.48021
| 92>    H       11.25366         1.67949        -3.50862
| 93>    H       12.65535        -7.68234        -4.45952
| 94>    H       10.89253        -7.52965        -4.17934
| 95>    H       13.01022        -7.95834        -2.00815
| 96>    H       11.89432        -9.19175        -2.60628
| 97>    H       11.27061        -7.78931        -1.72897
| 98>    H       13.22293         1.07653        -3.29087
| 99>    H       14.79269         1.03172        -4.08389
|100>    H       14.53818         0.89502        -1.03820
|101>    H       14.80919         2.38620        -1.95212
|102>    H       16.00114         1.08984        -1.99194
|103>    H       19.43876        -2.72164        -4.95054
|104>    H       20.06587         1.17785        -4.76125
|105>    H       25.43207         1.29555        -5.78130
|106>    H       24.19852        -3.52193        -5.43824
|107> *
|108>
|109>                          ****END OF INPUT****

CARTESIAN COORDINATES (ANGSTROEM)
---------------------------------
  C      6.252570    3.092900    0.788550
  O      7.396510    3.027810    0.372780
  C      5.621620    4.277140    1.405810
  C      6.176290    5.519030    1.641860
  C      5.373220    6.477430    2.238810
  F      5.868850    7.695590    2.487800
  C      4.053620    6.183830    2.582430
  F      3.300310    7.127950    3.156600
  C      3.497890    4.934760    2.345180
  C      4.294630    3.969820    1.749510
  C      4.020810    2.580360    1.374920
  C      2.826420    1.936510    1.568670
  C      2.543390    0.597210    1.226680
  N      2.231280   -0.481370    0.984230
  C      1.689950    2.537950    2.151060
  N      0.730620    2.965180    2.613680
  C      5.231110    2.045960    0.783890
  C      5.394020    0.768420    0.299300
  C      6.506930    0.152360   -0.280160
  S      8.079340    0.891360   -0.566630
  C      8.664530   -0.581670   -1.242800
  C      7.682280   -1.596540   -1.238900
  C      6.480640   -1.181120   -0.705160
  S      8.244000   -3.119150   -1.898610
  C      9.793680   -2.392520   -2.170360
  C      9.862330   -1.046230   -1.787670
  N     11.120750   -0.561170   -2.011480
  C     11.439840    0.766030   -1.538160
  C     10.924550    1.849600   -2.485390
  C     11.887820   -1.579170   -2.551260
  C     11.062690   -2.747580   -2.631830
  C     11.585810   -3.990940   -3.040390
  N     11.042230   -5.201720   -3.175810
  N     12.044820   -5.960270   -3.542130
  C     11.884710   -7.369860   -3.752690
  C     12.024790   -8.127190   -2.435460
  N     13.209690   -5.374290   -3.661950
  C     12.964060   -4.100550   -3.349730
  C     13.773210   -2.946680   -3.331380
  C     13.239040   -1.664170   -2.988850
  N     14.244640   -0.727770   -3.171070
  C     14.242520    0.717060   -3.190150
  C     14.937090    1.307630   -1.962640
  C     15.373170   -1.387090   -3.573970
  C     15.114970   -2.761240   -3.673680
  S     16.474540   -3.696880   -4.195680
  C     17.413290   -2.224720   -4.297970
  C     16.681080   -1.071190   -3.941310
  S     17.650490    0.341810   -4.077490
  C     19.044860   -0.622290   -4.591720
  C     18.727220   -1.972590   -4.656570
  C     20.211970    0.108270   -4.858730
  C     21.485460   -0.286980   -5.186680
  C     22.570000    0.646310   -5.438150
  C     22.482610    2.003320   -5.611430
  C     23.590980    2.838500   -5.870790
  N     24.445310    3.575500   -6.080110
  C     21.300320    2.774330   -5.595140
  N     20.394160    3.480170   -5.612340
  C     23.807140   -0.127330   -5.541920
  C     25.126710    0.265060   -5.706680
  C     26.096720   -0.724170   -5.770790
  F     27.376660   -0.366040   -5.922640
  C     25.772040   -2.078020   -5.678400
  F     26.741730   -2.998170   -5.747180
  C     24.456040   -2.477410   -5.512440
  C     23.492110   -1.491170   -5.443350
  C     22.033330   -1.656520   -5.252070
  O     21.456520   -2.720100   -5.163580
  H      7.196910    5.740840    1.373950
  H      2.473610    4.761320    2.630810
  H      4.536770    0.110170    0.367570
  H      5.605110   -1.797650   -0.610910
  H     12.509710    0.845760   -1.372890
  H     10.944160    0.892830   -0.569700
  H     11.278790    2.822210   -2.156830
  H      9.838350    1.863980   -2.480210
  H     11.253660    1.679490   -3.508620
  H     12.655350   -7.682340   -4.459520
  H     10.892530   -7.529650   -4.179340
  H     13.010220   -7.958340   -2.008150
  H     11.894320   -9.191750   -2.606280
  H     11.270610   -7.789310   -1.728970
  H     13.222930    1.076530   -3.290870
  H     14.792690    1.031720   -4.083890
  H     14.538180    0.895020   -1.038200
  H     14.809190    2.386200   -1.952120
  H     16.001140    1.089840   -1.991940
  H     19.438760   -2.721640   -4.950540
  H     20.065870    1.177850   -4.761250
  H     25.432070    1.295550   -5.781300
  H     24.198520   -3.521930   -5.438240

 Total Charge           Charge          ....    0
 Multiplicity           Mult            ....    1
 Number of Electrons    NEL             ....  502
 Basis Dimension        Dim             .... 2301

ORBITAL ENERGIES
----------------

  NO   OCC          E(Eh)            E(eV)
   0   2.0000     -88.916535     -2419.5419
   1   2.0000     -88.910791     -2419.3856
   2   2.0000     -88.909705     -2419.3561
   3   2.0000     -88.908890     -2419.3339
   4   2.0000     -24.727481      -672.8690
   5   2.0000     -24.725483      -672.8146
   6   2.0000     -24.725152      -672.8056
   7   2.0000     -24.723455      -672.7594
   8   2.0000     -19.142910      -520.9051
   9   2.0000     -19.136257      -520.7240
  10   2.0000     -14.449434      -393.1891
  11   2.0000     -14.407557      -392.0496
  12   2.0000     -14.406341      -392.0165
  13   2.0000     -14.363648      -390.8547
  14   2.0000     -14.363217      -390.8430
  15   2.0000     -14.332540      -390.0083
  16   2.0000     -14.331234      -389.9727
  17   2.0000     -14.328615      -389.9014
  18   2.0000     -14.327338      -389.8667
  19   2.0000     -10.302097      -280.3343
  20   2.0000     -10.301495      -280.3179
  21   2.0000     -10.299947      -280.2758
  22   2.0000     -10.299332      -280.2591
  23   2.0000     -10.284638      -279.8592
  24   2.0000     -10.282227      -279.7936
  25   2.0000     -10.262867      -279.2668
  26   2.0000     -10.262340      -279.2525
  27   2.0000     -10.258471      -279.1472
  28   2.0000     -10.257080      -279.1093
  29   2.0000     -10.257026      -279.1079
  30   2.0000     -10.255686      -279.0714
  31   2.0000     -10.254109      -279.0285
  32   2.0000     -10.251825      -278.9663
  33   2.0000     -10.248414      -278.8735
  34   2.0000     -10.246098      -278.8105
  35   2.0000     -10.243123      -278.7295
  36   2.0000     -10.241373      -278.6819
  37   2.0000     -10.240904      -278.6692
  38   2.0000     -10.237836      -278.5857
  39   2.0000     -10.237015      -278.5633
  40   2.0000     -10.236103      -278.5385
  41   2.0000     -10.234925      -278.5065
  42   2.0000     -10.233220      -278.4601
  43   2.0000     -10.233040      -278.4552
  44   2.0000     -10.232101      -278.4296
  45   2.0000     -10.231295      -278.4077
  46   2.0000     -10.230299      -278.3806
  47   2.0000     -10.230240      -278.3790
  48   2.0000     -10.229623      -278.3622
  49   2.0000     -10.229073      -278.3472
  50   2.0000     -10.227298      -278.2989
  51   2.0000     -10.226140      -278.2674
  52   2.0000     -10.223153      -278.1861
  53   2.0000     -10.222562      -278.1701
  54   2.0000     -10.222073      -278.1567
  55   2.0000     -10.221180      -278.1324
  56   2.0000     -10.220361      -278.1102
  57   2.0000     -10.220073      -278.1023
  58   2.0000     -10.219164      -278.0776
  59   2.0000     -10.218856      -278.0692
  60   2.0000     -10.217113      -278.0218
  61   2.0000     -10.216533      -278.0060
  62   2.0000     -10.216376      -278.0017
  63   2.0000     -10.215929      -277.9896
  64   2.0000     -10.215261      -277.9714
  65   2.0000     -10.212679      -277.9011
  66   2.0000     -10.200773      -277.5772
  67   2.0000     -10.197752      -277.4949
  68   2.0000     -10.184162      -277.1251
  69   2.0000      -7.992917      -217.4983
  70   2.0000      -7.986321      -217.3189
  71   2.0000      -7.984707      -217.2749
  72   2.0000      -7.984448      -217.2679
  73   2.0000      -5.955458      -162.0563
  74   2.0000      -5.951792      -161.9565
  75   2.0000      -5.949331      -161.8895
  76   2.0000      -5.949282      -161.8882
  77   2.0000      -5.947694      -161.8450
  78   2.0000      -5.947503      -161.8398
  79   2.0000      -5.945566      -161.7871
  80   2.0000      -5.943748      -161.7376
  81   2.0000      -5.943323      -161.7260
  82   2.0000      -5.942000      -161.6900
  83   2.0000      -5.940837      -161.6584
  84   2.0000      -5.940041      -161.6367
  85   2.0000      -1.269867       -34.5548
  86   2.0000      -1.267652       -34.4946
  87   2.0000      -1.256479       -34.1905
  88   2.0000      -1.254265       -34.1303
  89   2.0000      -1.140458       -31.0334
  90   2.0000      -1.073837       -29.2206
  91   2.0000      -1.067611       -29.0512
  92   2.0000      -1.045075       -28.4379
  93   2.0000      -1.034056       -28.1381
  94   2.0000      -0.947680       -25.7877
  95   2.0000      -0.946486       -25.7552
  96   2.0000      -0.938138       -25.5280
  97   2.0000      -0.934879       -25.4393
  98   2.0000      -0.929930       -25.3047
  99   2.0000      -0.927945       -25.2507
 100   2.0000      -0.925794       -25.1921
 101   2.0000      -0.924375       -25.1535
 102   2.0000      -0.920436       -25.0463
 103   2.0000      -0.909195       -24.7405
 104   2.0000      -0.887304       -24.1448
 105   2.0000      -0.886286       -24.1171
 106   2.0000      -0.877914       -23.8893
 107   2.0000      -0.876996       -23.8643
 108   2.0000      -0.861121       -23.4323
 109   2.0000      -0.842142       -22.9158
 110   2.0000      -0.831402       -22.6236
 111   2.0000      -0.828392       -22.5417
 112   2.0000      -0.814630       -22.1672
 113   2.0000      -0.811023       -22.0691
 114   2.0000      -0.809051       -22.0154
 115   2.0000      -0.802901       -21.8480
 116   2.0000      -0.800654       -21.7869
 117   2.0000      -0.796863       -21.6838
 118   2.0000      -0.791222       -21.5303
 119   2.0000      -0.780115       -21.2280
 120   2.0000      -0.765828       -20.8392
 121   2.0000      -0.760651       -20.6984
 122   2.0000      -0.745753       -20.2930
 123   2.0000      -0.740406       -20.1475
 124   2.0000      -0.734225       -19.9793
 125   2.0000      -0.721120       -19.6227
 126   2.0000      -0.705867       -19.2076
 127   2.0000      -0.704983       -19.1836
 128   2.0000      -0.703073       -19.1316
 129   2.0000      -0.699865       -19.0443
 130   2.0000      -0.694105       -18.8876
 131   2.0000      -0.674794       -18.3621
 132   2.0000      -0.666384       -18.1332
 133   2.0000      -0.658915       -17.9300
 134   2.0000      -0.650985       -17.7142
 135   2.0000      -0.642584       -17.4856
 136   2.0000      -0.638786       -17.3822
 137   2.0000      -0.635976       -17.3058
 138   2.0000      -0.634767       -17.2729
 139   2.0000      -0.625012       -17.0074
 140   2.0000      -0.612654       -16.6712
 141   2.0000      -0.603303       -16.4167
 142   2.0000      -0.598489       -16.2857
 143   2.0000      -0.595314       -16.1993
 144   2.0000      -0.591592       -16.0980
 145   2.0000      -0.584272       -15.8988
 146   2.0000      -0.582953       -15.8629
 147   2.0000      -0.578592       -15.7443
 148   2.0000      -0.576246       -15.6804
 149   2.0000      -0.573205       -15.5977
 150   2.0000      -0.571353       -15.5473
 151   2.0000      -0.570405       -15.5215
 152   2.0000      -0.553555       -15.0630
 153   2.0000      -0.549138       -14.9428
 154   2.0000      -0.544957       -14.8290
 155   2.0000      -0.541337       -14.7305
 156   2.0000      -0.536897       -14.6097
 157   2.0000      -0.532952       -14.5024
 158   2.0000      -0.527424       -14.3519
 159   2.0000      -0.525353       -14.2956
 160   2.0000      -0.521971       -14.2035
 161   2.0000      -0.521601       -14.1935
 162   2.0000      -0.519754       -14.1432
 163   2.0000      -0.516576       -14.0567
 164   2.0000      -0.512938       -13.9577
 165   2.0000      -0.508243       -13.8300
 166   2.0000      -0.502744       -13.6804
 167   2.0000      -0.495062       -13.4713
 168   2.0000      -0.488080       -13.2813
 169   2.0000      -0.487827       -13.2745
 170   2.0000      -0.486670       -13.2430
 171   2.0000      -0.484817       -13.1925
 172   2.0000      -0.484519       -13.1844
 173   2.0000      -0.482625       -13.1329
 174   2.0000      -0.478572       -13.0226
 175   2.0000      -0.475115       -12.9285
 176   2.0000      -0.473962       -12.8972
 177   2.0000      -0.470143       -12.7932
 178   2.0000      -0.469300       -12.7703
 179   2.0000      -0.468452       -12.7472
 180   2.0000      -0.468133       -12.7385
 181   2.0000      -0.466211       -12.6862
 182   2.0000      -0.463577       -12.6146
 183   2.0000      -0.462289       -12.5795
 184   2.0000      -0.455159       -12.3855
 185   2.0000      -0.452957       -12.3256
 186   2.0000      -0.446343       -12.1456
 187   2.0000      -0.443254       -12.0615
 188   2.0000      -0.442038       -12.0285
 189   2.0000      -0.438843       -11.9415
 190   2.0000      -0.434054       -11.8112
 191   2.0000      -0.432885       -11.7794
 192   2.0000      -0.431903       -11.7527
 193   2.0000      -0.430728       -11.7207
 194   2.0000      -0.430440       -11.7129
 195   2.0000      -0.428869       -11.6701
 196   2.0000      -0.427794       -11.6409
 197   2.0000      -0.424953       -11.5635
 198   2.0000      -0.421904       -11.4806
 199   2.0000      -0.419252       -11.4084
 200   2.0000      -0.418536       -11.3889
 201   2.0000      -0.414302       -11.2737
 202   2.0000      -0.410064       -11.1584
 203   2.0000      -0.409277       -11.1370
 204   2.0000      -0.408158       -11.1065
 205   2.0000      -0.401531       -10.9262
 206   2.0000      -0.400125       -10.8880
 207   2.0000      -0.396171       -10.7804
 208   2.0000      -0.394104       -10.7241
 209   2.0000      -0.393573       -10.7097
 210   2.0000      -0.392142       -10.6707
 211   2.0000      -0.390239       -10.6189
 212   2.0000      -0.389355       -10.5949
 213   2.0000      -0.388716       -10.5775
 214   2.0000      -0.386960       -10.5297
 215   2.0000      -0.384033       -10.4501
 216   2.0000      -0.382070       -10.3967
 217   2.0000      -0.380934       -10.3658
 218   2.0000      -0.380120       -10.3436
 219   2.0000      -0.375054       -10.2057
 220   2.0000      -0.369615       -10.0577
 221   2.0000      -0.367640       -10.0040
 222   2.0000      -0.365672        -9.9504
 223   2.0000      -0.364410        -9.9161
 224   2.0000      -0.362992        -9.8775
 225   2.0000      -0.362200        -9.8560
 226   2.0000      -0.353921        -9.6307
 227   2.0000      -0.350531        -9.5384
 228   2.0000      -0.348558        -9.4847
 229   2.0000      -0.346645        -9.4327
 230   2.0000      -0.346550        -9.4301
 231   2.0000      -0.343067        -9.3353
 232   2.0000      -0.337210        -9.1759
 233   2.0000      -0.336576        -9.1587
 234   2.0000      -0.317521        -8.6402
 235   2.0000      -0.316290        -8.6067
 236   2.0000      -0.315850        -8.5947
 237   2.0000      -0.303859        -8.2684
 238   2.0000      -0.298063        -8.1107
 239   2.0000      -0.294694        -8.0190
 240   2.0000      -0.290813        -7.9134
 241   2.0000      -0.282621        -7.6905
 242   2.0000      -0.281451        -7.6587
 243   2.0000      -0.273691        -7.4475
 244   2.0000      -0.269288        -7.3277
 245   2.0000      -0.268397        -7.3034
 246   2.0000      -0.262257        -7.1364
 247   2.0000      -0.246272        -6.7014
 248   2.0000      -0.240030        -6.5316
 249   2.0000      -0.229853        -6.2546
 250   2.0000      -0.207508        -5.6466
 251   0.0000      -0.136267        -3.7080
 252   0.0000      -0.125249        -3.4082
 253   0.0000      -0.112061        -3.0493
 254   0.0000      -0.108363        -2.9487
 255   0.0000      -0.072798        -1.9809

MULLIKEN ATOMIC CHARGES
-----------------------
   0 C :    0.205040
   1 O :   -0.346652
   2 C :    0.104268
   3 C :   -0.316666
   4 C :    0.284852
   5 F :   -0.180105
   6 C :    0.253614
   7 F :   -0.175356
   8 C :   -0.265285
   9 C :    0.073353
  10 C :    0.011186
  11 C :    0.156489
  12 C :   -0.228082
  13 N :    0.048463
  14 C :   -0.229120
  15 N :    0.044849
  16 C :    0.008765
  17 C :   -0.221619
  18 C :    0.057299
  19 S :    0.041198
  20 C :   -0.149683
  21 C :    0.026488
  22 C :   -0.199078
  23 S :    0.049612
  24 C :   -0.144015
  25 C :    0.324434
  26 N :   -0.033677
  27 C :   -0.215668
  28 C :   -0.306713
  29 C :    0.020329
  30 C :    0.052366
  31 C :    0.021221
  32 N :   -0.245331
  33 N :    0.286437
  34 C :   -0.088837
  35 C :   -0.347410
  36 N :   -0.239281
  37 C :    0.017272
  38 C :    0.041163
  39 C :    0.000217
  40 N :   -0.035284
  41 C :   -0.217358
  42 C :   -0.308591
  43 C :    0.396754
  44 C :   -0.155299
  45 S :    0.058571
  46 C :    0.084048
  47 C :   -0.249279
  48 S :   -0.015885
  49 C :    0.080533
  50 C :   -0.233080
  51 C :   -0.179798
  52 C :   -0.043461
  53 C :    0.038876
  54 C :    0.151158
  55 C :   -0.223065
  56 N :    0.043541
  57 C :   -0.248849
  58 N :    0.047861
  59 C :    0.059473
  60 C :   -0.253387
  61 C :    0.250028
  62 F :   -0.176248
  63 C :    0.290312
  64 F :   -0.179561
  65 C :   -0.325002
  66 C :    0.094355
  67 C :    0.221893
  68 O :   -0.347998
  69 H :    0.144585
  70 H :    0.166843
  71 H :    0.167883
  72 H :    0.148926
  73 H :    0.123267
  74 H :    0.135838
  75 H :    0.123703
  76 H :    0.136189
  77 H :    0.118235
  78 H :    0.127197
  79 H :    0.123063
  80 H :    0.122732
  81 H :    0.113743
  82 H :    0.126178
  83 H :    0.127375
  84 H :    0.135152
  85 H :    0.120103
  86 H :    0.126420
  87 H :    0.130198
  88 H :    0.187233
  89 H :    0.159994
  90 H :    0.165590
  91 H :    0.147955
Sum of atomic charges:    0.0000000

LOEWDIN ATOMIC CHARGES
----------------------
   0 C :   -0.256134
   1 O :    0.113418
   2 C :   -0.059124
   3 C :   -0.047849
   4 C :   -0.225195
   5 F :    0.213397
   6 C :   -0.223401
   7 F :    0.217738
   8 C :   -0.047772
   9 C :   -0.042704
  10 C :    0.009902
  11 C :   -0.134764
  12 C :   -0.167892
  13 N :    0.081831
  14 C :   -0.163740
  15 N :    0.084476
  16 C :   -0.091886
  17 C :   -0.053690
  18 C :   -0.326602
  19 S :    0.790944
  20 C :   -0.337187
  21 C :   -0.353226
  22 C :   -0.114509
  23 S :    0.746698
  24 C :   -0.286820
  25 C :   -0.187882
  26 N :    0.296221
  27 C :   -0.266626
  28 C :   -0.297107
  29 C :   -0.087019
  30 C :   -0.088400
  31 C :   -0.205330
  32 N :    0.088497
  33 N :    0.132923
  34 C :   -0.267609
  35 C :   -0.292446
  36 N :    0.088123
  37 C :   -0.205901
  38 C :   -0.088605
  39 C :   -0.086831
  40 N :    0.294488
  41 C :   -0.266698
  42 C :   -0.298163
  43 C :   -0.187801
  44 C :   -0.287681
  45 S :    0.759198
  46 C :   -0.350582
  47 C :   -0.340588
  48 S :    0.762682
  49 C :   -0.326830
  50 C :   -0.107029
  51 C :   -0.070188
  52 C :   -0.080968
  53 C :    0.010123
  54 C :   -0.135600
  55 C :   -0.164207
  56 N :    0.083617
  57 C :   -0.172087
  58 N :    0.080994
  59 C :   -0.044953
  60 C :   -0.048266
  61 C :   -0.223425
  62 F :    0.216670
  63 C :   -0.224454
  64 F :    0.213529
  65 C :   -0.046178
  66 C :   -0.058960
  67 C :   -0.250630
  68 O :    0.126831
  69 H :    0.162918
  70 H :    0.169841
  71 H :    0.180007
  72 H :    0.155147
  73 H :    0.137171
  74 H :    0.143454
  75 H :    0.126681
  76 H :    0.120711
  77 H :    0.117530
  78 H :    0.142472
  79 H :    0.141831
  80 H :    0.122823
  81 H :    0.123043
  82 H :    0.123391
  83 H :    0.138267
  84 H :    0.142869
  85 H :    0.118404
  86 H :    0.127044
  87 H :    0.117824
  88 H :    0.160686
  89 H :    0.173643
  90 H :    0.169503
  91 H :    0.163975

  Mayer bond orders larger than 0.100000
B(  0-C ,  1-O ) :   1.9949 B(  0-C ,  2-C ) :   1.0414 B(  0-C , 16-C ) :   1.0303
B(  1-O ,  2-C ) :  -0.1459 B(  2-C ,  3-C ) :   1.2996 B(  2-C ,  9-C ) :   1.3297
B(  3-C ,  4-C ) :   1.3590 B(  3-C , 69-H ) :   0.9888 B(  4-C ,  5-F ) :   1.0627
B(  4-C ,  6-C ) :   1.3451 B(  6-C ,  7-F ) :   1.0842 B(  6-C ,  8-C ) :   1.3887
B(  8-C ,  9-C ) :   1.3298 B(  8-C , 70-H ) :   0.9272 B(  9-C , 10-C ) :   1.0358
B( 10-C , 11-C ) :   1.4547 B( 10-C , 16-C ) :   1.1393 B( 11-C , 12-C ) :   1.0386
B( 11-C , 14-C ) :   1.0277 B( 12-C , 13-N ) :   2.9835 B( 14-C , 15-N ) :   2.9837
B( 16-C , 17-C ) :   1.3982 B( 17-C , 18-C ) :   1.3206 B( 17-C , 71-H ) :   0.8881
B( 18-C , 19-S ) :   1.2935 B( 18-C , 22-C ) :   1.2943 B( 19-S , 20-C ) :   1.4130
B( 19-S , 25-C ) :  -0.1818 B( 20-C , 21-C ) :   1.2875 B( 20-C , 25-C ) :   1.0809
B( 21-C , 22-C ) :   1.3640 B( 21-C , 23-S ) :   1.1789 B( 22-C , 72-H ) :   0.9544
B( 23-S , 24-C ) :   1.3291 B( 24-C , 25-C ) :   1.2753 B( 24-C , 30-C ) :   1.1899
B( 25-C , 26-N ) :   1.1198 B( 26-N , 27-C ) :   0.8849 B( 26-N , 29-C ) :   1.2332
B( 27-C , 28-C ) :   0.9507 B( 27-C , 73-H ) :   0.9554 B( 27-C , 74-H ) :   0.9608
B( 28-C , 75-H ) :   0.9723 B( 28-C , 76-H ) :   0.9598 B( 28-C , 77-H ) :   0.9636
B( 29-C , 30-C ) :   1.2129 B( 29-C , 39-C ) :   1.3496 B( 30-C , 31-C ) :   1.1749
B( 31-C , 32-N ) :   1.5056 B( 31-C , 37-C ) :   1.2264 B( 32-N , 33-N ) :   1.1658
B( 32-N , 36-N ) :   0.1125 B( 33-N , 34-C ) :   0.8941 B( 33-N , 36-N ) :   1.1706
B( 34-C , 35-C ) :   0.9583 B( 34-C , 78-H ) :   0.9609 B( 34-C , 79-H ) :   0.9604
B( 35-C , 80-H ) :   0.9717 B( 35-C , 81-H ) :   0.9688 B( 35-C , 82-H ) :   0.9717
B( 36-N , 37-C ) :   1.5134 B( 37-C , 38-C ) :   1.1749 B( 38-C , 39-C ) :   1.2289
B( 38-C , 44-C ) :   1.1862 B( 39-C , 40-N ) :   1.2212 B( 40-N , 41-C ) :   0.8827
B( 40-N , 43-C ) :   1.1284 B( 41-C , 42-C ) :   0.9478 B( 41-C , 83-H ) :   0.9572
B( 41-C , 84-H ) :   0.9634 B( 42-C , 85-H ) :   0.9643 B( 42-C , 86-H ) :   0.9724
B( 42-C , 87-H ) :   0.9605 B( 43-C , 44-C ) :   1.2625 B( 43-C , 47-C ) :   1.0307
B( 43-C , 48-S ) :  -0.1737 B( 44-C , 45-S ) :   1.3398 B( 45-S , 46-C ) :   1.1920
B( 45-S , 47-C ) :   0.1085 B( 46-C , 47-C ) :   1.3125 B( 46-C , 50-C ) :   1.3108
B( 47-C , 48-S ) :   1.3765 B( 48-S , 49-C ) :   1.2096 B( 49-C , 50-C ) :   1.4292
B( 49-C , 51-C ) :   1.3099 B( 50-C , 88-H ) :   0.9110 B( 51-C , 52-C ) :   1.4379
B( 51-C , 89-H ) :   0.8921 B( 52-C , 53-C ) :   1.1327 B( 52-C , 67-C ) :   1.0157
B( 53-C , 54-C ) :   1.4487 B( 53-C , 59-C ) :   1.0443 B( 54-C , 55-C ) :   1.0284
B( 54-C , 57-C ) :   1.0419 B( 55-C , 56-N ) :   2.9851 B( 57-C , 58-N ) :   2.9920
B( 59-C , 60-C ) :   1.3259 B( 59-C , 66-C ) :   1.3338 B( 60-C , 61-C ) :   1.3862
B( 60-C , 90-H ) :   0.9283 B( 61-C , 62-F ) :   1.0845 B( 61-C , 63-C ) :   1.3450
B( 63-C , 64-F ) :   1.0632 B( 63-C , 65-C ) :   1.3589 B( 65-C , 66-C ) :   1.2969
B( 65-C , 91-H ) :   0.9857 B( 66-C , 67-C ) :   1.0190 B( 66-C , 68-O ) :  -0.1553
B( 67-C , 68-O ) :   2.0127

-----------------------------------------------------------------------------
  SOC CORRECTED ABSORPTION SPECTRUM VIA TRANSITION ELECTRIC DIPOLE MOMENTS*
-----------------------------------------------------------------------------
State   Energy  Wavelength   fosc         T2         TX        TY        TZ
        (cm-1)    (nm)                  (au**2)     (au)      (au)      (au)
-----------------------------------------------------------------------------
   1   10271.0    973.6   0.000000000   0.00000   0.00001   0.00000   0.00000
   2   10271.0    973.6   0.000000000   0.00000   0.00000   0.00001   0.00000
   3   10271.0    973.6   0.000000000   0.00000   0.00000   0.00000   0.00000
   4   12491.9    800.5   0.000000006   0.00000   0.00037   0.00004   0.00013
   5   12491.9    800.5   0.000000000   0.00000   0.00000   0.00000   0.00000
   6   12491.9    800.5   0.000000000   0.00000   0.00002   0.00001   0.00001
   7   15044.5    664.7   2.947856715  64.50672   7.48565   0.88197   2.77379
   8   15926.7    627.9   0.000000001   0.00000   0.00007   0.00012   0.00006
   9   15926.7    627.9   0.000000000   0.00000   0.00008   0.00003   0.00004
  10   15926.7    627.9   0.000000052   0.00000   0.00099   0.00005   0.00032
  11   17002.5    588.1   0.078270842   1.51552   0.39530   1.15690   0.14437
  12   17971.7    556.4   0.012464943   0.22834   0.30792   0.36388   0.03342

FINAL SINGLE POINT ENERGY     -4553.664067754228

DIPOLE MOMENT
-------------
                                X             Y             Z
Electronic contribution:     16.13534      25.97873       3.45609
Nuclear contribution   :    -15.68440     -28.09878      -3.49642
                        -----------------------------------------
Total Dipole Moment    :      0.45094      -2.12005      -0.04032
                        -----------------------------------------
Magnitude (a.u.)       :      2.16785
Magnitude (Debye)      :      5.51024

Rotational constants in cm-1:     0.001670     0.000270     0.000234
Rotational constants in MHz :    50.059416     8.092459     7.026829

                             ****ORCA TERMINATED NORMALLY****
TOTAL RUN TIME: 0 days 9 hours 49 minutes 47 seconds 936 msec
