                         Program Version 4.2.0 -  RELEASE  -
|  1> # ORCA input file
|  2> # Y1-4F.out: Geometry 69
|  3> ! B3LYP def2-TZVP def2/J RIJCOSX Grid4 TightSCF
|  4>
|  5> %maxcore 6000
|  6> %tddft
|  7>   maxdim 5
|  8>   nroots 3
|  9>   dosoc true
| 10>   end
| 11> %pal
| 12>   nprocs 6
| 13>   end
| 14>
| 15>
| 16> * xyz 0 1
| 17>    C        5.98613         3.37779         0.58267
| 18>    O        7.20387         3.32388         0.61785
| 19>    C        5.14063         4.51001         1.04938
| 20>    C        5.54544         5.69064         1.66512
| 21>    C        4.55469         6.58674         2.05523
| 22>    F        4.86238         7.72771         2.66414
| 23>    C        3.19813         6.30114         1.82230
| 24>    F        2.29029         7.18511         2.23063
| 25>    C        2.79605         5.12749         1.19235
| 26>    C        3.78504         4.21451         0.80235
| 27>    C        3.69044         2.88349         0.15453
| 28>    C        2.51494         2.32200        -0.31600
| 29>    C        2.43281         1.04006        -0.94404
| 30>    N        2.33473         0.00131        -1.45717
| 31>    C        1.25584         2.99616        -0.24820
| 32>    N        0.22584         3.53310        -0.21103
| 33>    C        5.04872         2.34083         0.08491
| 34>    C        5.39475         1.07313        -0.33329
| 35>    C        6.61662         0.37549        -0.50362
| 36>    S        8.28470         0.94975        -0.28162
| 37>    C        8.91506        -0.57407        -0.84708
| 38>    C        7.87041        -1.48325        -1.16390
| 39>    C        6.59723        -0.95069        -0.97444
| 40>    S        8.43386        -3.02177        -1.80794
| 41>    C       10.06887        -2.44142        -1.67083
| 42>    C       10.17865        -1.13971        -1.15024
| 43>    N       11.52127        -0.77510        -1.09693
| 44>    C       11.97601         0.17416        -0.07222
| 45>    C       11.76127         1.64200        -0.41908
| 46>    C       12.26954        -1.83935        -1.63876
| 47>    C       11.36654        -2.90200        -1.96709
| 48>    C       11.85705        -4.12704        -2.50302
| 49>    N       11.22686        -5.25844        -2.85511
| 50>    N       12.21398        -6.03957        -3.27487
| 51>    C       11.96323        -7.41786        -3.67422
| 52>    C       11.59035        -8.28536        -2.47905
| 53>    N       13.44031        -5.53391        -3.22652
| 54>    C       13.24488        -4.29950        -2.73749
| 55>    C       14.14534        -3.21813        -2.52009
| 56>    C       13.65962        -1.97147        -1.98755
| 57>    N       14.71228        -1.05201        -2.04204
| 58>    C       14.72586         0.38005        -1.78392
| 59>    C       15.41073         0.74203        -0.46715
| 60>    C       15.81358        -1.68495        -2.58379
| 61>    C       15.49333        -3.02160        -2.87522
| 62>    S       16.77149        -3.88559        -3.69385
| 63>    C       17.74334        -2.41370        -3.68274
| 64>    C       17.10153        -1.32518        -3.03652
| 65>    S       18.08701         0.09240        -3.07809
| 66>    C       19.34906        -0.76283        -4.01063
| 67>    C       18.98993        -2.10066        -4.23078
| 68>    C       20.48080         0.00982        -4.37805
| 69>    C       21.54382        -0.23529        -5.22958
| 70>    C       22.63595         0.70586        -5.51162
| 71>    C       22.90599         1.91645        -4.89607
| 72>    C       23.96898         2.77944        -5.31071
| 73>    N       24.81561         3.51026        -5.62733
| 74>    C       22.16685         2.44423        -3.79102
| 75>    N       21.59630         2.92025        -2.89654
| 76>    C       23.45291         0.12732        -6.60750
| 77>    C       24.60380         0.58761        -7.26334
| 78>    C       25.14512        -0.20688        -8.26985
| 79>    F       26.23681         0.19208        -8.91694
| 80>    C       24.56978        -1.43724        -8.63469
| 81>    F       25.13594        -2.13871        -9.61132
| 82>    C       23.43655        -1.90781        -7.98266
| 83>    C       22.90150        -1.11334        -6.97455
| 84>    C       21.72290        -1.41430        -6.12425
| 85>    O       21.06408        -2.43836        -6.19365
| 86>    H        6.59815         5.90704         1.85569
| 87>    H        1.73214         4.96898         1.03049
| 88>    H        4.56064         0.42865        -0.61014
| 89>    H        5.66157        -1.46795        -1.18993
| 90>    H       13.02989        -0.03658         0.12645
| 91>    H       11.44243        -0.06504         0.86309
| 92>    H       12.20890         2.27569         0.36146
| 93>    H       10.69437         1.89677        -0.47641
| 94>    H       12.21469         1.91387        -1.38358
| 95>    H       12.88319        -7.76161        -4.16432
| 96>    H       11.15282        -7.40142        -4.41810
| 97>    H       12.42081        -8.33637        -1.75848
| 98>    H       11.34975        -9.30549        -2.81480
| 99>    H       10.70995        -7.86675        -1.96956
|100>    H       13.69735         0.74586        -1.83271
|101>    H       15.25276         0.86172        -2.62260
|102>    H       14.95239         0.21713         0.38418
|103>    H       15.34652         1.82552        -0.28407
|104>    H       16.47506         0.46165        -0.48991
|105>    H       19.63174        -2.76898        -4.79987
|106>    H       20.48000         0.99467        -3.90982
|107>    H       25.09702         1.52927        -7.03411
|108>    H       22.98768        -2.86384        -8.25576
|109> *
|110>
|111>                          ****END OF INPUT****

CARTESIAN COORDINATES (ANGSTROEM)
---------------------------------
  C      5.986130    3.377790    0.582670
  O      7.203870    3.323880    0.617850
  C      5.140630    4.510010    1.049380
  C      5.545440    5.690640    1.665120
  C      4.554690    6.586740    2.055230
  F      4.862380    7.727710    2.664140
  C      3.198130    6.301140    1.822300
  F      2.290290    7.185110    2.230630
  C      2.796050    5.127490    1.192350
  C      3.785040    4.214510    0.802350
  C      3.690440    2.883490    0.154530
  C      2.514940    2.322000   -0.316000
  C      2.432810    1.040060   -0.944040
  N      2.334730    0.001310   -1.457170
  C      1.255840    2.996160   -0.248200
  N      0.225840    3.533100   -0.211030
  C      5.048720    2.340830    0.084910
  C      5.394750    1.073130   -0.333290
  C      6.616620    0.375490   -0.503620
  S      8.284700    0.949750   -0.281620
  C      8.915060   -0.574070   -0.847080
  C      7.870410   -1.483250   -1.163900
  C      6.597230   -0.950690   -0.974440
  S      8.433860   -3.021770   -1.807940
  C     10.068870   -2.441420   -1.670830
  C     10.178650   -1.139710   -1.150240
  N     11.521270   -0.775100   -1.096930
  C     11.976010    0.174160   -0.072220
  C     11.761270    1.642000   -0.419080
  C     12.269540   -1.839350   -1.638760
  C     11.366540   -2.902000   -1.967090
  C     11.857050   -4.127040   -2.503020
  N     11.226860   -5.258440   -2.855110
  N     12.213980   -6.039570   -3.274870
  C     11.963230   -7.417860   -3.674220
  C     11.590350   -8.285360   -2.479050
  N     13.440310   -5.533910   -3.226520
  C     13.244880   -4.299500   -2.737490
  C     14.145340   -3.218130   -2.520090
  C     13.659620   -1.971470   -1.987550
  N     14.712280   -1.052010   -2.042040
  C     14.725860    0.380050   -1.783920
  C     15.410730    0.742030   -0.467150
  C     15.813580   -1.684950   -2.583790
  C     15.493330   -3.021600   -2.875220
  S     16.771490   -3.885590   -3.693850
  C     17.743340   -2.413700   -3.682740
  C     17.101530   -1.325180   -3.036520
  S     18.087010    0.092400   -3.078090
  C     19.349060   -0.762830   -4.010630
  C     18.989930   -2.100660   -4.230780
  C     20.480800    0.009820   -4.378050
  C     21.543820   -0.235290   -5.229580
  C     22.635950    0.705860   -5.511620
  C     22.905990    1.916450   -4.896070
  C     23.968980    2.779440   -5.310710
  N     24.815610    3.510260   -5.627330
  C     22.166850    2.444230   -3.791020
  N     21.596300    2.920250   -2.896540
  C     23.452910    0.127320   -6.607500
  C     24.603800    0.587610   -7.263340
  C     25.145120   -0.206880   -8.269850
  F     26.236810    0.192080   -8.916940
  C     24.569780   -1.437240   -8.634690
  F     25.135940   -2.138710   -9.611320
  C     23.436550   -1.907810   -7.982660
  C     22.901500   -1.113340   -6.974550
  C     21.722900   -1.414300   -6.124250
  O     21.064080   -2.438360   -6.193650
  H      6.598150    5.907040    1.855690
  H      1.732140    4.968980    1.030490
  H      4.560640    0.428650   -0.610140
  H      5.661570   -1.467950   -1.189930
  H     13.029890   -0.036580    0.126450
  H     11.442430   -0.065040    0.863090
  H     12.208900    2.275690    0.361460
  H     10.694370    1.896770   -0.476410
  H     12.214690    1.913870   -1.383580
  H     12.883190   -7.761610   -4.164320
  H     11.152820   -7.401420   -4.418100
  H     12.420810   -8.336370   -1.758480
  H     11.349750   -9.305490   -2.814800
  H     10.709950   -7.866750   -1.969560
  H     13.697350    0.745860   -1.832710
  H     15.252760    0.861720   -2.622600
  H     14.952390    0.217130    0.384180
  H     15.346520    1.825520   -0.284070
  H     16.475060    0.461650   -0.489910
  H     19.631740   -2.768980   -4.799870
  H     20.480000    0.994670   -3.909820
  H     25.097020    1.529270   -7.034110
  H     22.987680   -2.863840   -8.255760

 Total Charge           Charge          ....    0
 Multiplicity           Mult            ....    1
 Number of Electrons    NEL             ....  502
 Basis Dimension        Dim             .... 2301

ORBITAL ENERGIES
----------------

  NO   OCC          E(Eh)            E(eV)
   0   2.0000     -88.918152     -2419.5859
   1   2.0000     -88.915139     -2419.5039
   2   2.0000     -88.912280     -2419.4261
   3   2.0000     -88.911096     -2419.3939
   4   2.0000     -24.728680      -672.9016
   5   2.0000     -24.727704      -672.8750
   6   2.0000     -24.726260      -672.8357
   7   2.0000     -24.725558      -672.8166
   8   2.0000     -19.139723      -520.8183
   9   2.0000     -19.137361      -520.7541
  10   2.0000     -14.449953      -393.2032
  11   2.0000     -14.408424      -392.0732
  12   2.0000     -14.403817      -391.9478
  13   2.0000     -14.367975      -390.9725
  14   2.0000     -14.367215      -390.9518
  15   2.0000     -14.336947      -390.1282
  16   2.0000     -14.336643      -390.1199
  17   2.0000     -14.333315      -390.0293
  18   2.0000     -14.333190      -390.0259
  19   2.0000     -10.302379      -280.3420
  20   2.0000     -10.301363      -280.3144
  21   2.0000     -10.301346      -280.3139
  22   2.0000     -10.300574      -280.2929
  23   2.0000     -10.284910      -279.8666
  24   2.0000     -10.284732      -279.8618
  25   2.0000     -10.265127      -279.3283
  26   2.0000     -10.264365      -279.3076
  27   2.0000     -10.264210      -279.3033
  28   2.0000     -10.263791      -279.2920
  29   2.0000     -10.262903      -279.2678
  30   2.0000     -10.262513      -279.2572
  31   2.0000     -10.254329      -279.0345
  32   2.0000     -10.252365      -278.9810
  33   2.0000     -10.252101      -278.9738
  34   2.0000     -10.250336      -278.9258
  35   2.0000     -10.249978      -278.9161
  36   2.0000     -10.248548      -278.8772
  37   2.0000     -10.246018      -278.8083
  38   2.0000     -10.245982      -278.8073
  39   2.0000     -10.240533      -278.6591
  40   2.0000     -10.240028      -278.6453
  41   2.0000     -10.239335      -278.6265
  42   2.0000     -10.237725      -278.5827
  43   2.0000     -10.237249      -278.5697
  44   2.0000     -10.236751      -278.5562
  45   2.0000     -10.235688      -278.5272
  46   2.0000     -10.235422      -278.5200
  47   2.0000     -10.235062      -278.5102
  48   2.0000     -10.234604      -278.4977
  49   2.0000     -10.233676      -278.4725
  50   2.0000     -10.233496      -278.4676
  51   2.0000     -10.233440      -278.4661
  52   2.0000     -10.227820      -278.3131
  53   2.0000     -10.226957      -278.2897
  54   2.0000     -10.225082      -278.2386
  55   2.0000     -10.224989      -278.2361
  56   2.0000     -10.222779      -278.1760
  57   2.0000     -10.222613      -278.1714
  58   2.0000     -10.222538      -278.1694
  59   2.0000     -10.222133      -278.1584
  60   2.0000     -10.221887      -278.1517
  61   2.0000     -10.221387      -278.1381
  62   2.0000     -10.220988      -278.1272
  63   2.0000     -10.219361      -278.0830
  64   2.0000     -10.218568      -278.0614
  65   2.0000     -10.217406      -278.0298
  66   2.0000     -10.204828      -277.6875
  67   2.0000     -10.201491      -277.5967
  68   2.0000     -10.189186      -277.2618
  69   2.0000      -7.993878      -217.5245
  70   2.0000      -7.989594      -217.4079
  71   2.0000      -7.987430      -217.3490
  72   2.0000      -7.986094      -217.3127
  73   2.0000      -5.956495      -162.0845
  74   2.0000      -5.952846      -161.9852
  75   2.0000      -5.952520      -161.9763
  76   2.0000      -5.950490      -161.9211
  77   2.0000      -5.950220      -161.9137
  78   2.0000      -5.949195      -161.8858
  79   2.0000      -5.948541      -161.8680
  80   2.0000      -5.946743      -161.8191
  81   2.0000      -5.945693      -161.7905
  82   2.0000      -5.945443      -161.7837
  83   2.0000      -5.943079      -161.7194
  84   2.0000      -5.941674      -161.6812
  85   2.0000      -1.273942       -34.6657
  86   2.0000      -1.273286       -34.6479
  87   2.0000      -1.259217       -34.2650
  88   2.0000      -1.258809       -34.2539
  89   2.0000      -1.128437       -30.7063
  90   2.0000      -1.065879       -29.0040
  91   2.0000      -1.064585       -28.9688
  92   2.0000      -1.034471       -28.1494
  93   2.0000      -1.021219       -27.7888
  94   2.0000      -0.940807       -25.6007
  95   2.0000      -0.940465       -25.5913
  96   2.0000      -0.931657       -25.3517
  97   2.0000      -0.929346       -25.2888
  98   2.0000      -0.923764       -25.1369
  99   2.0000      -0.923146       -25.1201
 100   2.0000      -0.920503       -25.0482
 101   2.0000      -0.920120       -25.0377
 102   2.0000      -0.916248       -24.9324
 103   2.0000      -0.902581       -24.5605
 104   2.0000      -0.881233       -23.9796
 105   2.0000      -0.880306       -23.9543
 106   2.0000      -0.872297       -23.7364
 107   2.0000      -0.871154       -23.7053
 108   2.0000      -0.853706       -23.2305
 109   2.0000      -0.835380       -22.7318
 110   2.0000      -0.825191       -22.4546
 111   2.0000      -0.823063       -22.3967
 112   2.0000      -0.810485       -22.0544
 113   2.0000      -0.807364       -21.9695
 114   2.0000      -0.805672       -21.9234
 115   2.0000      -0.797928       -21.7127
 116   2.0000      -0.797266       -21.6947
 117   2.0000      -0.791440       -21.5362
 118   2.0000      -0.786456       -21.4006
 119   2.0000      -0.776391       -21.1267
 120   2.0000      -0.762215       -20.7409
 121   2.0000      -0.757970       -20.6254
 122   2.0000      -0.741946       -20.1894
 123   2.0000      -0.736739       -20.0477
 124   2.0000      -0.731906       -19.9162
 125   2.0000      -0.717644       -19.5281
 126   2.0000      -0.700187       -19.0531
 127   2.0000      -0.699277       -19.0283
 128   2.0000      -0.698509       -19.0074
 129   2.0000      -0.696298       -18.9472
 130   2.0000      -0.687135       -18.6979
 131   2.0000      -0.672295       -18.2941
 132   2.0000      -0.662534       -18.0285
 133   2.0000      -0.656523       -17.8649
 134   2.0000      -0.648349       -17.6425
 135   2.0000      -0.639107       -17.3910
 136   2.0000      -0.636656       -17.3243
 137   2.0000      -0.631460       -17.1829
 138   2.0000      -0.630363       -17.1530
 139   2.0000      -0.621165       -16.9028
 140   2.0000      -0.610422       -16.6104
 141   2.0000      -0.600924       -16.3520
 142   2.0000      -0.597557       -16.2603
 143   2.0000      -0.592420       -16.1206
 144   2.0000      -0.587440       -15.9851
 145   2.0000      -0.581345       -15.8192
 146   2.0000      -0.580255       -15.7895
 147   2.0000      -0.575662       -15.6646
 148   2.0000      -0.574650       -15.6370
 149   2.0000      -0.571542       -15.5525
 150   2.0000      -0.569405       -15.4943
 151   2.0000      -0.567260       -15.4359
 152   2.0000      -0.550427       -14.9779
 153   2.0000      -0.547397       -14.8954
 154   2.0000      -0.540939       -14.7197
 155   2.0000      -0.537931       -14.6378
 156   2.0000      -0.532491       -14.4898
 157   2.0000      -0.527741       -14.3606
 158   2.0000      -0.525346       -14.2954
 159   2.0000      -0.523148       -14.2356
 160   2.0000      -0.522449       -14.2166
 161   2.0000      -0.521390       -14.1878
 162   2.0000      -0.519069       -14.1246
 163   2.0000      -0.514148       -13.9907
 164   2.0000      -0.509695       -13.8695
 165   2.0000      -0.505424       -13.7533
 166   2.0000      -0.496413       -13.5081
 167   2.0000      -0.493608       -13.4318
 168   2.0000      -0.488163       -13.2836
 169   2.0000      -0.487613       -13.2686
 170   2.0000      -0.484138       -13.1741
 171   2.0000      -0.482750       -13.1363
 172   2.0000      -0.482320       -13.1246
 173   2.0000      -0.478177       -13.0119
 174   2.0000      -0.476074       -12.9546
 175   2.0000      -0.471606       -12.8331
 176   2.0000      -0.468017       -12.7354
 177   2.0000      -0.466047       -12.6818
 178   2.0000      -0.465386       -12.6638
 179   2.0000      -0.463274       -12.6063
 180   2.0000      -0.462425       -12.5832
 181   2.0000      -0.462253       -12.5785
 182   2.0000      -0.461367       -12.5544
 183   2.0000      -0.460674       -12.5356
 184   2.0000      -0.452370       -12.3096
 185   2.0000      -0.451575       -12.2880
 186   2.0000      -0.443128       -12.0581
 187   2.0000      -0.440989       -11.9999
 188   2.0000      -0.440647       -11.9906
 189   2.0000      -0.436518       -11.8783
 190   2.0000      -0.432567       -11.7708
 191   2.0000      -0.432134       -11.7590
 192   2.0000      -0.431090       -11.7306
 193   2.0000      -0.428380       -11.6568
 194   2.0000      -0.426062       -11.5937
 195   2.0000      -0.424674       -11.5560
 196   2.0000      -0.424289       -11.5455
 197   2.0000      -0.422808       -11.5052
 198   2.0000      -0.420324       -11.4376
 199   2.0000      -0.418504       -11.3881
 200   2.0000      -0.416413       -11.3312
 201   2.0000      -0.412179       -11.2160
 202   2.0000      -0.408756       -11.1228
 203   2.0000      -0.406862       -11.0713
 204   2.0000      -0.404399       -11.0042
 205   2.0000      -0.400480       -10.8976
 206   2.0000      -0.397588       -10.8189
 207   2.0000      -0.393401       -10.7050
 208   2.0000      -0.392723       -10.6865
 209   2.0000      -0.390904       -10.6370
 210   2.0000      -0.390468       -10.6252
 211   2.0000      -0.388921       -10.5831
 212   2.0000      -0.387843       -10.5537
 213   2.0000      -0.387153       -10.5350
 214   2.0000      -0.386185       -10.5086
 215   2.0000      -0.384293       -10.4571
 216   2.0000      -0.382813       -10.4169
 217   2.0000      -0.382277       -10.4023
 218   2.0000      -0.380499       -10.3539
 219   2.0000      -0.371054       -10.0969
 220   2.0000      -0.366709        -9.9787
 221   2.0000      -0.366081        -9.9616
 222   2.0000      -0.363273        -9.8852
 223   2.0000      -0.362665        -9.8686
 224   2.0000      -0.359776        -9.7900
 225   2.0000      -0.359051        -9.7703
 226   2.0000      -0.354154        -9.6370
 227   2.0000      -0.348454        -9.4819
 228   2.0000      -0.347233        -9.4487
 229   2.0000      -0.346625        -9.4322
 230   2.0000      -0.345925        -9.4131
 231   2.0000      -0.340981        -9.2786
 232   2.0000      -0.340358        -9.2616
 233   2.0000      -0.335141        -9.1196
 234   2.0000      -0.320355        -8.7173
 235   2.0000      -0.314967        -8.5707
 236   2.0000      -0.314404        -8.5554
 237   2.0000      -0.301516        -8.2047
 238   2.0000      -0.295856        -8.0506
 239   2.0000      -0.292714        -7.9652
 240   2.0000      -0.290082        -7.8935
 241   2.0000      -0.283064        -7.7026
 242   2.0000      -0.281803        -7.6682
 243   2.0000      -0.272374        -7.4117
 244   2.0000      -0.269174        -7.3246
 245   2.0000      -0.267391        -7.2761
 246   2.0000      -0.261990        -7.1291
 247   2.0000      -0.247531        -6.7357
 248   2.0000      -0.240355        -6.5404
 249   2.0000      -0.232281        -6.3207
 250   2.0000      -0.208842        -5.6829
 251   0.0000      -0.136925        -3.7259
 252   0.0000      -0.126532        -3.4431
 253   0.0000      -0.111646        -3.0381
 254   0.0000      -0.108795        -2.9605
 255   0.0000      -0.075496        -2.0544

MULLIKEN ATOMIC CHARGES
-----------------------
   0 C :    0.200217
   1 O :   -0.344771
   2 C :    0.093167
   3 C :   -0.301721
   4 C :    0.280415
   5 F :   -0.175511
   6 C :    0.253938
   7 F :   -0.172529
   8 C :   -0.270682
   9 C :    0.092158
  10 C :    0.036171
  11 C :    0.144589
  12 C :   -0.187429
  13 N :    0.007141
  14 C :   -0.200920
  15 N :    0.009684
  16 C :   -0.056098
  17 C :   -0.154815
  18 C :    0.016843
  19 S :    0.033051
  20 C :   -0.120955
  21 C :    0.019217
  22 C :   -0.173823
  23 S :    0.057341
  24 C :   -0.104387
  25 C :    0.243720
  26 N :   -0.089173
  27 C :   -0.171614
  28 C :   -0.331933
  29 C :   -0.009080
  30 C :    0.046497
  31 C :    0.016787
  32 N :   -0.246455
  33 N :    0.264825
  34 C :   -0.096527
  35 C :   -0.341815
  36 N :   -0.231111
  37 C :    0.046499
  38 C :    0.025443
  39 C :    0.053382
  40 N :   -0.018984
  41 C :   -0.217829
  42 C :   -0.311300
  43 C :    0.308756
  44 C :   -0.157050
  45 S :    0.059058
  46 C :    0.069317
  47 C :   -0.181678
  48 S :   -0.005262
  49 C :    0.101264
  50 C :   -0.231595
  51 C :   -0.193583
  52 C :   -0.069482
  53 C :    0.036926
  54 C :    0.150341
  55 C :   -0.198287
  56 N :    0.008602
  57 C :   -0.203893
  58 N :    0.014456
  59 C :    0.084898
  60 C :   -0.263740
  61 C :    0.254449
  62 F :   -0.172227
  63 C :    0.283625
  64 F :   -0.174968
  65 C :   -0.307240
  66 C :    0.082052
  67 C :    0.232676
  68 O :   -0.354204
  69 H :    0.147881
  70 H :    0.166827
  71 H :    0.157215
  72 H :    0.157016
  73 H :    0.126693
  74 H :    0.134936
  75 H :    0.123089
  76 H :    0.151745
  77 H :    0.116588
  78 H :    0.134326
  79 H :    0.119673
  80 H :    0.119050
  81 H :    0.114594
  82 H :    0.132588
  83 H :    0.129261
  84 H :    0.134390
  85 H :    0.118475
  86 H :    0.125871
  87 H :    0.134832
  88 H :    0.187189
  89 H :    0.165675
  90 H :    0.166974
  91 H :    0.150274
Sum of atomic charges:   -0.0000000

LOEWDIN ATOMIC CHARGES
----------------------
   0 C :   -0.250454
   1 O :    0.116116
   2 C :   -0.060193
   3 C :   -0.050675
   4 C :   -0.233108
   5 F :    0.225178
   6 C :   -0.230148
   7 F :    0.225398
   8 C :   -0.051811
   9 C :   -0.040326
  10 C :    0.017084
  11 C :   -0.136121
  12 C :   -0.156725
  13 N :    0.068375
  14 C :   -0.153582
  15 N :    0.072414
  16 C :   -0.089669
  17 C :   -0.056050
  18 C :   -0.325018
  19 S :    0.762406
  20 C :   -0.323952
  21 C :   -0.352439
  22 C :   -0.115532
  23 S :    0.743789
  24 C :   -0.288875
  25 C :   -0.176545
  26 N :    0.269323
  27 C :   -0.267072
  28 C :   -0.302803
  29 C :   -0.084257
  30 C :   -0.085133
  31 C :   -0.202778
  32 N :    0.083596
  33 N :    0.135737
  34 C :   -0.265390
  35 C :   -0.299306
  36 N :    0.082773
  37 C :   -0.204491
  38 C :   -0.085942
  39 C :   -0.082355
  40 N :    0.287109
  41 C :   -0.267920
  42 C :   -0.299874
  43 C :   -0.181489
  44 C :   -0.285841
  45 S :    0.741001
  46 C :   -0.344690
  47 C :   -0.337336
  48 S :    0.746462
  49 C :   -0.318397
  50 C :   -0.107478
  51 C :   -0.069249
  52 C :   -0.080340
  53 C :    0.017041
  54 C :   -0.136228
  55 C :   -0.152930
  56 N :    0.072890
  57 C :   -0.159324
  58 N :    0.070494
  59 C :   -0.040988
  60 C :   -0.052450
  61 C :   -0.230939
  62 F :    0.226223
  63 C :   -0.233263
  64 F :    0.225809
  65 C :   -0.048866
  66 C :   -0.062821
  67 C :   -0.243261
  68 O :    0.118692
  69 H :    0.165236
  70 H :    0.171242
  71 H :    0.182210
  72 H :    0.158908
  73 H :    0.137576
  74 H :    0.143269
  75 H :    0.130928
  76 H :    0.118358
  77 H :    0.119046
  78 H :    0.143573
  79 H :    0.141044
  80 H :    0.124508
  81 H :    0.126326
  82 H :    0.127048
  83 H :    0.139105
  84 H :    0.141416
  85 H :    0.119545
  86 H :    0.129843
  87 H :    0.124524
  88 H :    0.163076
  89 H :    0.173100
  90 H :    0.170620
  91 H :    0.166022

  Mayer bond orders larger than 0.100000
B(  0-C ,  1-O ) :   2.0444 B(  0-C ,  2-C ) :   1.0190 B(  0-C , 16-C ) :   1.0026
B(  1-O ,  2-C ) :  -0.1471 B(  2-C ,  3-C ) :   1.2980 B(  2-C ,  9-C ) :   1.3398
B(  3-C ,  4-C ) :   1.3650 B(  3-C , 69-H ) :   0.9820 B(  4-C ,  5-F ) :   1.0671
B(  4-C ,  6-C ) :   1.3290 B(  6-C ,  7-F ) :   1.0883 B(  6-C ,  8-C ) :   1.4000
B(  8-C ,  9-C ) :   1.3122 B(  8-C , 70-H ) :   0.9269 B(  9-C , 10-C ) :   1.0276
B( 10-C , 11-C ) :   1.4613 B( 10-C , 16-C ) :   1.1500 B( 11-C , 12-C ) :   1.0310
B( 11-C , 14-C ) :   1.0216 B( 12-C , 13-N ) :   2.9694 B( 14-C , 15-N ) :   2.9743
B( 16-C , 17-C ) :   1.4197 B( 17-C , 18-C ) :   1.2954 B( 17-C , 71-H ) :   0.8901
B( 18-C , 19-S ) :   1.2974 B( 18-C , 22-C ) :   1.3141 B( 19-S , 20-C ) :   1.3239
B( 19-S , 25-C ) :  -0.1140 B( 20-C , 21-C ) :   1.3151 B( 20-C , 25-C ) :   1.1035
B( 21-C , 22-C ) :   1.3393 B( 21-C , 23-S ) :   1.1773 B( 22-C , 72-H ) :   0.9418
B( 23-S , 24-C ) :   1.3204 B( 24-C , 25-C ) :   1.2993 B( 24-C , 30-C ) :   1.1753
B( 25-C , 26-N ) :   1.1367 B( 26-N , 27-C ) :   0.8760 B( 26-N , 29-C ) :   1.1908
B( 27-C , 28-C ) :   0.9535 B( 27-C , 73-H ) :   0.9605 B( 27-C , 74-H ) :   0.9540
B( 28-C , 75-H ) :   0.9684 B( 28-C , 76-H ) :   0.9591 B( 28-C , 77-H ) :   0.9700
B( 29-C , 30-C ) :   1.2629 B( 29-C , 39-C ) :   1.3124 B( 30-C , 31-C ) :   1.1453
B( 31-C , 32-N ) :   1.4854 B( 31-C , 37-C ) :   1.2385 B( 32-N , 33-N ) :   1.1557
B( 32-N , 36-N ) :   0.1166 B( 33-N , 34-C ) :   0.8943 B( 33-N , 36-N ) :   1.1729
B( 34-C , 35-C ) :   0.9655 B( 34-C , 78-H ) :   0.9598 B( 34-C , 79-H ) :   0.9582
B( 35-C , 80-H ) :   0.9688 B( 35-C , 81-H ) :   0.9661 B( 35-C , 82-H ) :   0.9697
B( 36-N , 37-C ) :   1.5129 B( 37-C , 38-C ) :   1.1590 B( 38-C , 39-C ) :   1.2162
B( 38-C , 44-C ) :   1.2071 B( 39-C , 40-N ) :   1.2243 B( 40-N , 41-C ) :   0.8863
B( 40-N , 43-C ) :   1.1094 B( 41-C , 42-C ) :   0.9427 B( 41-C , 83-H ) :   0.9618
B( 41-C , 84-H ) :   0.9579 B( 42-C , 85-H ) :   0.9662 B( 42-C , 86-H ) :   0.9693
B( 42-C , 87-H ) :   0.9645 B( 43-C , 44-C ) :   1.2895 B( 43-C , 47-C ) :   1.0980
B( 43-C , 48-S ) :  -0.1251 B( 44-C , 45-S ) :   1.3081 B( 45-S , 46-C ) :   1.1797
B( 46-C , 47-C ) :   1.3098 B( 46-C , 50-C ) :   1.3155 B( 47-C , 48-S ) :   1.3526
B( 48-S , 49-C ) :   1.1986 B( 48-S , 50-C ) :   0.1054 B( 49-C , 50-C ) :   1.4300
B( 49-C , 51-C ) :   1.2845 B( 50-C , 88-H ) :   0.9030 B( 51-C , 52-C ) :   1.4472
B( 51-C , 89-H ) :   0.8877 B( 52-C , 53-C ) :   1.1489 B( 52-C , 67-C ) :   1.0165
B( 53-C , 54-C ) :   1.4627 B( 53-C , 59-C ) :   1.0267 B( 54-C , 55-C ) :   1.0200
B( 54-C , 57-C ) :   1.0241 B( 55-C , 56-N ) :   2.9755 B( 57-C , 58-N ) :   2.9856
B( 59-C , 60-C ) :   1.3084 B( 59-C , 66-C ) :   1.3373 B( 60-C , 61-C ) :   1.4027
B( 60-C , 90-H ) :   0.9257 B( 61-C , 62-F ) :   1.0870 B( 61-C , 63-C ) :   1.3288
B( 63-C , 64-F ) :   1.0678 B( 63-C , 65-C ) :   1.3665 B( 65-C , 66-C ) :   1.3000
B( 65-C , 91-H ) :   0.9761 B( 66-C , 67-C ) :   1.0200 B( 66-C , 68-O ) :  -0.1513
B( 67-C , 68-O ) :   1.9956

-----------------------------------------------------------------------------
  SOC CORRECTED ABSORPTION SPECTRUM VIA TRANSITION ELECTRIC DIPOLE MOMENTS*
-----------------------------------------------------------------------------
State   Energy  Wavelength   fosc         T2         TX        TY        TZ
        (cm-1)    (nm)                  (au**2)     (au)      (au)      (au)
-----------------------------------------------------------------------------
   1   10402.7    961.3   0.000000000   0.00000   0.00004   0.00001   0.00001
   2   10402.7    961.3   0.000000001   0.00000   0.00014   0.00002   0.00005
   3   10402.7    961.3   0.000000003   0.00000   0.00026   0.00010   0.00008
   4   12501.7    799.9   0.000000041   0.00000   0.00099   0.00013   0.00029
   5   12501.7    799.9   0.000000000   0.00000   0.00004   0.00002   0.00001
   6   12501.7    799.9   0.000000000   0.00000   0.00004   0.00001   0.00002
   7   15006.1    666.4   2.804488725  61.52637   7.44813   0.87401   2.29953
   8   16242.7    615.7   0.000000028   0.00000   0.00067   0.00031   0.00018
   9   16242.7    615.7   0.000000000   0.00000   0.00002   0.00001   0.00001
  10   16242.7    615.7   0.000000157   0.00000   0.00155   0.00076   0.00046
  11   17027.4    587.3   0.106511883   2.05932   0.29155   1.40499   0.01820
  12   18371.0    544.3   0.013549671   0.24281   0.08039   0.43863   0.20966

FINAL SINGLE POINT ENERGY     -4553.667932013156

DIPOLE MOMENT
-------------
                                X             Y             Z
Electronic contribution:      8.53740      30.92905     -15.72528
Nuclear contribution   :     -8.06540     -33.37539      16.53649
                        -----------------------------------------
Total Dipole Moment    :      0.47200      -2.44634       0.81121
                        -----------------------------------------
Magnitude (a.u.)       :      2.62019
Magnitude (Debye)      :      6.66000

Rotational constants in cm-1:     0.001548     0.000264     0.000233
Rotational constants in MHz :    46.408876     7.917037     6.979983

                             ****ORCA TERMINATED NORMALLY****
TOTAL RUN TIME: 0 days 1 hours 51 minutes 40 seconds 782 msec
