                         Program Version 4.2.0 -  RELEASE  -
|  1> # ORCA input file
|  2> # Y11.out: Geometry 74
|  3> ! B3LYP def2-TZVP def2/J RIJCOSX Grid4 TightSCF
|  4>
|  5> %maxcore 6000
|  6> %tddft
|  7>   maxdim 5
|  8>   nroots 3
|  9>   dosoc true
| 10>   end
| 11> %pal
| 12>   nprocs 6
| 13>   end
| 14>
| 15>
| 16> * xyz 0 1
| 17>    C        3.83367         3.78411        -2.44660
| 18>    O        5.05103         3.70769        -2.47477
| 19>    C        3.02145         4.76311        -3.20704
| 20>    C        3.47746         5.74116        -4.08335
| 21>    C        2.53053         6.57577        -4.66414
| 22>    F        2.89955         7.52839        -5.51748
| 23>    C        1.16765         6.42851        -4.34788
| 24>    F        0.29672         7.27046        -4.89621
| 25>    C        0.71334         5.43633        -3.48161
| 26>    C        1.65960         4.58138        -2.90264
| 27>    C        1.52954         3.44249        -1.95541
| 28>    C        0.32633         2.98658        -1.43793
| 29>    C        0.21811         1.90260        -0.51155
| 30>    N        0.10529         1.02365         0.24211
| 31>    C       -0.93387         3.57122        -1.77645
| 32>    N       -1.96796         4.03376        -2.03750
| 33>    C        2.87928         2.94668        -1.68211
| 34>    C        3.20450         1.86625        -0.87770
| 35>    C        4.42023         1.30630        -0.42942
| 36>    S        6.04743         1.95013        -0.76180
| 37>    C        6.74205         0.75796         0.27404
| 38>    C        5.77997        -0.11170         0.82967
| 39>    C        4.46335         0.17033         0.43067
| 40>    C        3.27876        -0.64518         0.87374
| 41>    C        2.85631        -0.38251         2.32700
| 42>    S        6.49477        -1.34876         1.87978
| 43>    C        8.08523        -0.69655         1.53543
| 44>    C        8.04423         0.41572         0.68514
| 45>    N        9.32083         0.86764         0.41145
| 46>    C        9.50405         1.62430        -0.82895
| 47>    C        9.51259         0.74356        -2.07261
| 48>    C       10.21656         0.03181         1.09782
| 49>    C        9.44757        -0.95909         1.80527
| 50>    C       10.11560        -1.97261         2.55273
| 51>    N        9.64147        -2.98331         3.29779
| 52>    N       10.74164        -3.58460         3.73448
| 53>    C       10.68058        -4.78912         4.55013
| 54>    C       10.64728        -6.05834         3.70725
| 55>    N       11.90091        -3.07733         3.33203
| 56>    C       11.53510        -2.03261         2.57394
| 57>    C       12.31032        -1.04132         1.90613
| 58>    C       11.65046         0.02840         1.20400
| 59>    N       12.63929         0.89834         0.72975
| 60>    C       12.55641         2.24861         0.18492
| 61>    C       12.78793         2.30771        -1.32361
| 62>    C       13.86816         0.37313         1.07213
| 63>    C       13.69957        -0.81637         1.79369
| 64>    S       15.21306        -1.57374         2.22013
| 65>    C       16.09800        -0.26963         1.39984
| 66>    C       15.22026         0.69668         0.85107
| 67>    S       16.07394         1.92242        -0.00409
| 68>    C       17.63129         1.14129         0.35753
| 69>    C       17.46773        -0.04014         1.12656
| 70>    C       18.60040        -0.96000         1.47140
| 71>    C       18.23243        -2.41750         1.74344
| 72>    C       18.72137         1.67863        -0.36837
| 73>    C       20.09512         1.60076        -0.21708
| 74>    C       21.05919         1.95508        -1.26011
| 75>    C       20.79916         2.18769        -2.60060
| 76>    C       21.81462         2.56467        -3.53440
| 77>    N       22.61601         2.88081        -4.31473
| 78>    C       19.50663         2.05894        -3.20216
| 79>    N       18.48104         1.96038        -3.74154
| 80>    C       22.40502         1.95968        -0.64239
| 81>    C       23.67778         2.19219        -1.18061
| 82>    C       24.77584         2.10126        -0.33066
| 83>    F       26.00109         2.31793        -0.80330
| 84>    C       24.63136         1.77951         1.03085
| 85>    F       25.72536         1.69147         1.78242
| 86>    C       23.37062         1.55336         1.57483
| 87>    C       22.27610         1.63602         0.72173
| 88>    C       20.84211         1.40721         1.05730
| 89>    O       20.40254         1.19927         2.17401
| 90>    H        4.53782         5.85571        -4.31440
| 91>    H       -0.35549         5.37707        -3.28724
| 92>    H        2.35537         1.32359        -0.47122
| 93>    H        3.55566        -1.70781         0.75953
| 94>    H        2.41685        -0.48187         0.21392
| 95>    H        3.68803        -0.56239         3.02567
| 96>    H        2.02452        -1.04564         2.60564
| 97>    H        2.51174         0.65472         2.45378
| 98>    H       10.41139         2.21859        -0.77046
| 99>    H        8.68056         2.35103        -0.87941
|100>    H       10.33652         0.01412        -2.03548
|101>    H        9.63780         1.36673        -2.97154
|102>    H        8.56724         0.18992        -2.17174
|103>    H        9.77948        -4.69585         5.17186
|104>    H       11.56380        -4.76404         5.20351
|105>    H        9.76530        -6.06403         3.04931
|106>    H       10.59999        -6.94085         4.36336
|107>    H       11.55064        -6.13359         3.08356
|108>    H       13.32196         2.84924         0.70053
|109>    H       11.59785         2.68569         0.48907
|110>    H       13.79531         1.94833        -1.57803
|111>    H       12.69682         3.34340        -1.68488
|112>    H       12.07312         1.68416        -1.87468
|113>    H       19.13153        -0.52427         2.33348
|114>    H       19.33687        -0.90320         0.65147
|115>    H       17.62295        -2.52613         2.65389
|116>    H       19.14694        -3.00742         1.90369
|117>    H       17.67802        -2.86962         0.90649
|118>    H       18.39040         2.25222        -1.23745
|119>    H       23.85448         2.45168        -2.22242
|120>    H       23.25291         1.30092         2.62990
|121> *
|122>
|123>                          ****END OF INPUT****

CARTESIAN COORDINATES (ANGSTROEM)
---------------------------------
  C      3.833670    3.784110   -2.446600
  O      5.051030    3.707690   -2.474770
  C      3.021450    4.763110   -3.207040
  C      3.477460    5.741160   -4.083350
  C      2.530530    6.575770   -4.664140
  F      2.899550    7.528390   -5.517480
  C      1.167650    6.428510   -4.347880
  F      0.296720    7.270460   -4.896210
  C      0.713340    5.436330   -3.481610
  C      1.659600    4.581380   -2.902640
  C      1.529540    3.442490   -1.955410
  C      0.326330    2.986580   -1.437930
  C      0.218110    1.902600   -0.511550
  N      0.105290    1.023650    0.242110
  C     -0.933870    3.571220   -1.776450
  N     -1.967960    4.033760   -2.037500
  C      2.879280    2.946680   -1.682110
  C      3.204500    1.866250   -0.877700
  C      4.420230    1.306300   -0.429420
  S      6.047430    1.950130   -0.761800
  C      6.742050    0.757960    0.274040
  C      5.779970   -0.111700    0.829670
  C      4.463350    0.170330    0.430670
  C      3.278760   -0.645180    0.873740
  C      2.856310   -0.382510    2.327000
  S      6.494770   -1.348760    1.879780
  C      8.085230   -0.696550    1.535430
  C      8.044230    0.415720    0.685140
  N      9.320830    0.867640    0.411450
  C      9.504050    1.624300   -0.828950
  C      9.512590    0.743560   -2.072610
  C     10.216560    0.031810    1.097820
  C      9.447570   -0.959090    1.805270
  C     10.115600   -1.972610    2.552730
  N      9.641470   -2.983310    3.297790
  N     10.741640   -3.584600    3.734480
  C     10.680580   -4.789120    4.550130
  C     10.647280   -6.058340    3.707250
  N     11.900910   -3.077330    3.332030
  C     11.535100   -2.032610    2.573940
  C     12.310320   -1.041320    1.906130
  C     11.650460    0.028400    1.204000
  N     12.639290    0.898340    0.729750
  C     12.556410    2.248610    0.184920
  C     12.787930    2.307710   -1.323610
  C     13.868160    0.373130    1.072130
  C     13.699570   -0.816370    1.793690
  S     15.213060   -1.573740    2.220130
  C     16.098000   -0.269630    1.399840
  C     15.220260    0.696680    0.851070
  S     16.073940    1.922420   -0.004090
  C     17.631290    1.141290    0.357530
  C     17.467730   -0.040140    1.126560
  C     18.600400   -0.960000    1.471400
  C     18.232430   -2.417500    1.743440
  C     18.721370    1.678630   -0.368370
  C     20.095120    1.600760   -0.217080
  C     21.059190    1.955080   -1.260110
  C     20.799160    2.187690   -2.600600
  C     21.814620    2.564670   -3.534400
  N     22.616010    2.880810   -4.314730
  C     19.506630    2.058940   -3.202160
  N     18.481040    1.960380   -3.741540
  C     22.405020    1.959680   -0.642390
  C     23.677780    2.192190   -1.180610
  C     24.775840    2.101260   -0.330660
  F     26.001090    2.317930   -0.803300
  C     24.631360    1.779510    1.030850
  F     25.725360    1.691470    1.782420
  C     23.370620    1.553360    1.574830
  C     22.276100    1.636020    0.721730
  C     20.842110    1.407210    1.057300
  O     20.402540    1.199270    2.174010
  H      4.537820    5.855710   -4.314400
  H     -0.355490    5.377070   -3.287240
  H      2.355370    1.323590   -0.471220
  H      3.555660   -1.707810    0.759530
  H      2.416850   -0.481870    0.213920
  H      3.688030   -0.562390    3.025670
  H      2.024520   -1.045640    2.605640
  H      2.511740    0.654720    2.453780
  H     10.411390    2.218590   -0.770460
  H      8.680560    2.351030   -0.879410
  H     10.336520    0.014120   -2.035480
  H      9.637800    1.366730   -2.971540
  H      8.567240    0.189920   -2.171740
  H      9.779480   -4.695850    5.171860
  H     11.563800   -4.764040    5.203510
  H      9.765300   -6.064030    3.049310
  H     10.599990   -6.940850    4.363360
  H     11.550640   -6.133590    3.083560
  H     13.321960    2.849240    0.700530
  H     11.597850    2.685690    0.489070
  H     13.795310    1.948330   -1.578030
  H     12.696820    3.343400   -1.684880
  H     12.073120    1.684160   -1.874680
  H     19.131530   -0.524270    2.333480
  H     19.336870   -0.903200    0.651470
  H     17.622950   -2.526130    2.653890
  H     19.146940   -3.007420    1.903690
  H     17.678020   -2.869620    0.906490
  H     18.390400    2.252220   -1.237450
  H     23.854480    2.451680   -2.222420
  H     23.252910    1.300920    2.629900

 Total Charge           Charge          ....    0
 Multiplicity           Mult            ....    1
 Number of Electrons    NEL             ....  534
 Basis Dimension        Dim             .... 2473

ORBITAL ENERGIES
----------------

  NO   OCC          E(Eh)            E(eV)
   0   2.0000     -88.912915     -2419.4434
   1   2.0000     -88.909704     -2419.3561
   2   2.0000     -88.909474     -2419.3498
   3   2.0000     -88.907854     -2419.3057
   4   2.0000     -24.726918      -672.8537
   5   2.0000     -24.726247      -672.8354
   6   2.0000     -24.724399      -672.7851
   7   2.0000     -24.724011      -672.7745
   8   2.0000     -19.136704      -520.7362
   9   2.0000     -19.132939      -520.6337
  10   2.0000     -14.448111      -393.1531
  11   2.0000     -14.405473      -391.9929
  12   2.0000     -14.401625      -391.8881
  13   2.0000     -14.365910      -390.9163
  14   2.0000     -14.365486      -390.9048
  15   2.0000     -14.336774      -390.1235
  16   2.0000     -14.333612      -390.0374
  17   2.0000     -14.331900      -389.9908
  18   2.0000     -14.331269      -389.9737
  19   2.0000     -10.300240      -280.2838
  20   2.0000     -10.299907      -280.2747
  21   2.0000     -10.299591      -280.2661
  22   2.0000     -10.298697      -280.2418
  23   2.0000     -10.281346      -279.7696
  24   2.0000     -10.280946      -279.7588
  25   2.0000     -10.263076      -279.2725
  26   2.0000     -10.262521      -279.2574
  27   2.0000     -10.261828      -279.2385
  28   2.0000     -10.261699      -279.2350
  29   2.0000     -10.260946      -279.2145
  30   2.0000     -10.259401      -279.1725
  31   2.0000     -10.254963      -279.0517
  32   2.0000     -10.248473      -278.8751
  33   2.0000     -10.246696      -278.8268
  34   2.0000     -10.246133      -278.8114
  35   2.0000     -10.242990      -278.7259
  36   2.0000     -10.242956      -278.7250
  37   2.0000     -10.241156      -278.6760
  38   2.0000     -10.240035      -278.6455
  39   2.0000     -10.239249      -278.6241
  40   2.0000     -10.239239      -278.6238
  41   2.0000     -10.237919      -278.5879
  42   2.0000     -10.235718      -278.5280
  43   2.0000     -10.234844      -278.5043
  44   2.0000     -10.234197      -278.4866
  45   2.0000     -10.233307      -278.4625
  46   2.0000     -10.233235      -278.4605
  47   2.0000     -10.232548      -278.4418
  48   2.0000     -10.232085      -278.4292
  49   2.0000     -10.231998      -278.4268
  50   2.0000     -10.231809      -278.4217
  51   2.0000     -10.231740      -278.4198
  52   2.0000     -10.231375      -278.4099
  53   2.0000     -10.231005      -278.3998
  54   2.0000     -10.226143      -278.2675
  55   2.0000     -10.225686      -278.2551
  56   2.0000     -10.221957      -278.1536
  57   2.0000     -10.221782      -278.1488
  58   2.0000     -10.221369      -278.1376
  59   2.0000     -10.220741      -278.1205
  60   2.0000     -10.220466      -278.1130
  61   2.0000     -10.220346      -278.1098
  62   2.0000     -10.218605      -278.0624
  63   2.0000     -10.217477      -278.0317
  64   2.0000     -10.217049      -278.0200
  65   2.0000     -10.216856      -278.0148
  66   2.0000     -10.200701      -277.5752
  67   2.0000     -10.199040      -277.5300
  68   2.0000     -10.196451      -277.4595
  69   2.0000     -10.194526      -277.4071
  70   2.0000     -10.189300      -277.2649
  71   2.0000     -10.180616      -277.0286
  72   2.0000     -10.176869      -276.9267
  73   2.0000      -7.989178      -217.3966
  74   2.0000      -7.984581      -217.2715
  75   2.0000      -7.984324      -217.2645
  76   2.0000      -7.982728      -217.2211
  77   2.0000      -5.951865      -161.9585
  78   2.0000      -5.948140      -161.8571
  79   2.0000      -5.947703      -161.8452
  80   2.0000      -5.947398      -161.8369
  81   2.0000      -5.945627      -161.7887
  82   2.0000      -5.945340      -161.7809
  83   2.0000      -5.943908      -161.7420
  84   2.0000      -5.943725      -161.7370
  85   2.0000      -5.941593      -161.6790
  86   2.0000      -5.940140      -161.6394
  87   2.0000      -5.939912      -161.6332
  88   2.0000      -5.938816      -161.6034
  89   2.0000      -1.271690       -34.6044
  90   2.0000      -1.271340       -34.5949
  91   2.0000      -1.257813       -34.2268
  92   2.0000      -1.257015       -34.2051
  93   2.0000      -1.126138       -30.6438
  94   2.0000      -1.064025       -28.9536
  95   2.0000      -1.060154       -28.8483
  96   2.0000      -1.033124       -28.1127
  97   2.0000      -1.021672       -27.8011
  98   2.0000      -0.939536       -25.5661
  99   2.0000      -0.938403       -25.5352
 100   2.0000      -0.930948       -25.3324
 101   2.0000      -0.927354       -25.2346
 102   2.0000      -0.922927       -25.1141
 103   2.0000      -0.920546       -25.0493
 104   2.0000      -0.918524       -24.9943
 105   2.0000      -0.918476       -24.9930
 106   2.0000      -0.914127       -24.8747
 107   2.0000      -0.900382       -24.5006
 108   2.0000      -0.879983       -23.9456
 109   2.0000      -0.878082       -23.8938
 110   2.0000      -0.870856       -23.6972
 111   2.0000      -0.869102       -23.6495
 112   2.0000      -0.852784       -23.2054
 113   2.0000      -0.834247       -22.7010
 114   2.0000      -0.822845       -22.3907
 115   2.0000      -0.820873       -22.3371
 116   2.0000      -0.819717       -22.3056
 117   2.0000      -0.815946       -22.2030
 118   2.0000      -0.806354       -21.9420
 119   2.0000      -0.801938       -21.8219
 120   2.0000      -0.799268       -21.7492
 121   2.0000      -0.795833       -21.6557
 122   2.0000      -0.795197       -21.6384
 123   2.0000      -0.775721       -21.1084
 124   2.0000      -0.775154       -21.0930
 125   2.0000      -0.757057       -20.6006
 126   2.0000      -0.756383       -20.5822
 127   2.0000      -0.749931       -20.4067
 128   2.0000      -0.739369       -20.1192
 129   2.0000      -0.730642       -19.8818
 130   2.0000      -0.724261       -19.7082
 131   2.0000      -0.714412       -19.4401
 132   2.0000      -0.699828       -19.0433
 133   2.0000      -0.697671       -18.9846
 134   2.0000      -0.696042       -18.9403
 135   2.0000      -0.693885       -18.8816
 136   2.0000      -0.686351       -18.6766
 137   2.0000      -0.670476       -18.2446
 138   2.0000      -0.663426       -18.0527
 139   2.0000      -0.658271       -17.9125
 140   2.0000      -0.648878       -17.6569
 141   2.0000      -0.643690       -17.5157
 142   2.0000      -0.637609       -17.3502
 143   2.0000      -0.636555       -17.3215
 144   2.0000      -0.633123       -17.2281
 145   2.0000      -0.629186       -17.1210
 146   2.0000      -0.626687       -17.0530
 147   2.0000      -0.617578       -16.8052
 148   2.0000      -0.604686       -16.4543
 149   2.0000      -0.599584       -16.3155
 150   2.0000      -0.591627       -16.0990
 151   2.0000      -0.590337       -16.0639
 152   2.0000      -0.583754       -15.8847
 153   2.0000      -0.578820       -15.7505
 154   2.0000      -0.577709       -15.7203
 155   2.0000      -0.572917       -15.5899
 156   2.0000      -0.571848       -15.5608
 157   2.0000      -0.567242       -15.4354
 158   2.0000      -0.560161       -15.2427
 159   2.0000      -0.550333       -14.9753
 160   2.0000      -0.549330       -14.9480
 161   2.0000      -0.541956       -14.7474
 162   2.0000      -0.538163       -14.6442
 163   2.0000      -0.534402       -14.5418
 164   2.0000      -0.527557       -14.3555
 165   2.0000      -0.522429       -14.2160
 166   2.0000      -0.521175       -14.1819
 167   2.0000      -0.520687       -14.1686
 168   2.0000      -0.520569       -14.1654
 169   2.0000      -0.517963       -14.0945
 170   2.0000      -0.515479       -14.0269
 171   2.0000      -0.512504       -13.9459
 172   2.0000      -0.507000       -13.7962
 173   2.0000      -0.497237       -13.5305
 174   2.0000      -0.492218       -13.3939
 175   2.0000      -0.490749       -13.3540
 176   2.0000      -0.486938       -13.2502
 177   2.0000      -0.486705       -13.2439
 178   2.0000      -0.486023       -13.2254
 179   2.0000      -0.481908       -13.1134
 180   2.0000      -0.480392       -13.0721
 181   2.0000      -0.478556       -13.0222
 182   2.0000      -0.474970       -12.9246
 183   2.0000      -0.474349       -12.9077
 184   2.0000      -0.471391       -12.8272
 185   2.0000      -0.468893       -12.7592
 186   2.0000      -0.465251       -12.6601
 187   2.0000      -0.463202       -12.6044
 188   2.0000      -0.461814       -12.5666
 189   2.0000      -0.460853       -12.5404
 190   2.0000      -0.459677       -12.5084
 191   2.0000      -0.457568       -12.4511
 192   2.0000      -0.455975       -12.4077
 193   2.0000      -0.452916       -12.3245
 194   2.0000      -0.447867       -12.1871
 195   2.0000      -0.445884       -12.1331
 196   2.0000      -0.442599       -12.0437
 197   2.0000      -0.439087       -11.9482
 198   2.0000      -0.436178       -11.8690
 199   2.0000      -0.434961       -11.8359
 200   2.0000      -0.430237       -11.7074
 201   2.0000      -0.429683       -11.6923
 202   2.0000      -0.428921       -11.6715
 203   2.0000      -0.428480       -11.6595
 204   2.0000      -0.426094       -11.5946
 205   2.0000      -0.425225       -11.5710
 206   2.0000      -0.423187       -11.5155
 207   2.0000      -0.422015       -11.4836
 208   2.0000      -0.418771       -11.3953
 209   2.0000      -0.417777       -11.3683
 210   2.0000      -0.416636       -11.3372
 211   2.0000      -0.414909       -11.2903
 212   2.0000      -0.410465       -11.1693
 213   2.0000      -0.409427       -11.1411
 214   2.0000      -0.407815       -11.0972
 215   2.0000      -0.400546       -10.8994
 216   2.0000      -0.399658       -10.8753
 217   2.0000      -0.398758       -10.8507
 218   2.0000      -0.392398       -10.6777
 219   2.0000      -0.392027       -10.6676
 220   2.0000      -0.391599       -10.6560
 221   2.0000      -0.390323       -10.6212
 222   2.0000      -0.390225       -10.6186
 223   2.0000      -0.388356       -10.5677
 224   2.0000      -0.387948       -10.5566
 225   2.0000      -0.385736       -10.4964
 226   2.0000      -0.381822       -10.3899
 227   2.0000      -0.381480       -10.3806
 228   2.0000      -0.380435       -10.3522
 229   2.0000      -0.378854       -10.3091
 230   2.0000      -0.375929       -10.2295
 231   2.0000      -0.375298       -10.2124
 232   2.0000      -0.367273        -9.9940
 233   2.0000      -0.363946        -9.9035
 234   2.0000      -0.363102        -9.8805
 235   2.0000      -0.362453        -9.8629
 236   2.0000      -0.361083        -9.8256
 237   2.0000      -0.360900        -9.8206
 238   2.0000      -0.359232        -9.7752
 239   2.0000      -0.357897        -9.7389
 240   2.0000      -0.354627        -9.6499
 241   2.0000      -0.353355        -9.6153
 242   2.0000      -0.350224        -9.5301
 243   2.0000      -0.347558        -9.4575
 244   2.0000      -0.344793        -9.3823
 245   2.0000      -0.343244        -9.3402
 246   2.0000      -0.342830        -9.3289
 247   2.0000      -0.339384        -9.2351
 248   2.0000      -0.337498        -9.1838
 249   2.0000      -0.332345        -9.0436
 250   2.0000      -0.318380        -8.6636
 251   2.0000      -0.310131        -8.4391
 252   2.0000      -0.307289        -8.3618
 253   2.0000      -0.296797        -8.0763
 254   2.0000      -0.292925        -7.9709
 255   2.0000      -0.289209        -7.8698
 256   2.0000      -0.282970        -7.7000
 257   2.0000      -0.279441        -7.6040
 258   2.0000      -0.278821        -7.5871
 259   2.0000      -0.269227        -7.3260
 260   2.0000      -0.266119        -7.2415
 261   2.0000      -0.263421        -7.1680
 262   2.0000      -0.258283        -7.0283
 263   2.0000      -0.243427        -6.6240
 264   2.0000      -0.236508        -6.4357
 265   2.0000      -0.229758        -6.2520
 266   2.0000      -0.206658        -5.6234
 267   0.0000      -0.134568        -3.6618
 268   0.0000      -0.124677        -3.3926
 269   0.0000      -0.109352        -2.9756
 270   0.0000      -0.106210        -2.8901
 271   0.0000      -0.073082        -1.9886

MULLIKEN ATOMIC CHARGES
-----------------------
   0 C :    0.217752
   1 O :   -0.346970
   2 C :    0.089281
   3 C :   -0.315852
   4 C :    0.285195
   5 F :   -0.177091
   6 C :    0.252387
   7 F :   -0.172892
   8 C :   -0.266228
   9 C :    0.092598
  10 C :    0.015854
  11 C :    0.140144
  12 C :   -0.167089
  13 N :   -0.015717
  14 C :   -0.201324
  15 N :    0.004834
  16 C :   -0.104203
  17 C :   -0.073486
  18 C :    0.022948
  19 S :    0.018723
  20 C :   -0.196524
  21 C :    0.034438
  22 C :    0.040209
  23 C :   -0.218577
  24 C :   -0.325537
  25 S :    0.027301
  26 C :   -0.130678
  27 C :    0.338072
  28 N :   -0.101502
  29 C :   -0.146471
  30 C :   -0.342920
  31 C :    0.018586
  32 C :    0.023351
  33 C :    0.020395
  34 N :   -0.235368
  35 N :    0.264479
  36 C :   -0.093709
  37 C :   -0.344688
  38 N :   -0.233588
  39 C :    0.031625
  40 C :    0.060303
  41 C :    0.011824
  42 N :   -0.033290
  43 C :   -0.248949
  44 C :   -0.335647
  45 C :    0.384783
  46 C :   -0.183055
  47 S :    0.016489
  48 C :    0.041301
  49 C :   -0.194670
  50 S :   -0.021907
  51 C :    0.085278
  52 C :    0.038961
  53 C :   -0.245883
  54 C :   -0.356164
  55 C :   -0.210905
  56 C :   -0.089250
  57 C :    0.062875
  58 C :    0.142219
  59 C :   -0.198669
  60 N :    0.006605
  61 C :   -0.210387
  62 N :    0.014820
  63 C :    0.078864
  64 C :   -0.269399
  65 C :    0.252565
  66 F :   -0.173501
  67 C :    0.282978
  68 F :   -0.176511
  69 C :   -0.304157
  70 C :    0.089217
  71 C :    0.185662
  72 O :   -0.329557
  73 H :    0.146634
  74 H :    0.167254
  75 H :    0.112732
  76 H :    0.109145
  77 H :    0.129246
  78 H :    0.116078
  79 H :    0.121907
  80 H :    0.118349
  81 H :    0.111243
  82 H :    0.135978
  83 H :    0.123570
  84 H :    0.128490
  85 H :    0.139544
  86 H :    0.126770
  87 H :    0.126579
  88 H :    0.125010
  89 H :    0.114521
  90 H :    0.124710
  91 H :    0.140579
  92 H :    0.158174
  93 H :    0.141653
  94 H :    0.125568
  95 H :    0.134045
  96 H :    0.162827
  97 H :    0.112705
  98 H :    0.120062
  99 H :    0.124745
 100 H :    0.123519
 101 H :    0.161770
 102 H :    0.166353
 103 H :    0.149638
Sum of atomic charges:   -0.0000000

LOEWDIN ATOMIC CHARGES
----------------------
   0 C :   -0.254797
   1 O :    0.112793
   2 C :   -0.062833
   3 C :   -0.050609
   4 C :   -0.232540
   5 F :    0.222223
   6 C :   -0.231545
   7 F :    0.226198
   8 C :   -0.053298
   9 C :   -0.039800
  10 C :    0.017322
  11 C :   -0.138835
  12 C :   -0.154336
  13 N :    0.064320
  14 C :   -0.154538
  15 N :    0.070093
  16 C :   -0.090773
  17 C :   -0.056498
  18 C :   -0.294368
  19 S :    0.772286
  20 C :   -0.338540
  21 C :   -0.313445
  22 C :   -0.117520
  23 C :   -0.236003
  24 C :   -0.290914
  25 S :    0.724736
  26 C :   -0.280299
  27 C :   -0.188928
  28 N :    0.280501
  29 C :   -0.270152
  30 C :   -0.301111
  31 C :   -0.084269
  32 C :   -0.082128
  33 C :   -0.204235
  34 N :    0.082404
  35 N :    0.134937
  36 C :   -0.267128
  37 C :   -0.298926
  38 N :    0.081927
  39 C :   -0.204421
  40 C :   -0.084223
  41 C :   -0.082818
  42 N :    0.286829
  43 C :   -0.273035
  44 C :   -0.306159
  45 C :   -0.186452
  46 C :   -0.287083
  47 S :    0.737488
  48 C :   -0.298745
  49 C :   -0.340756
  50 S :    0.754299
  51 C :   -0.290446
  52 C :   -0.110317
  53 C :   -0.236959
  54 C :   -0.305075
  55 C :   -0.072931
  56 C :   -0.093009
  57 C :    0.013253
  58 C :   -0.136203
  59 C :   -0.153453
  60 N :    0.071827
  61 C :   -0.161123
  62 N :    0.069544
  63 C :   -0.043397
  64 C :   -0.053219
  65 C :   -0.232128
  66 F :    0.224368
  67 C :   -0.232479
  68 F :    0.223473
  69 C :   -0.051728
  70 C :   -0.061373
  71 C :   -0.257377
  72 O :    0.124104
  73 H :    0.165232
  74 H :    0.170616
  75 H :    0.177273
  76 H :    0.149071
  77 H :    0.145298
  78 H :    0.117567
  79 H :    0.126510
  80 H :    0.124204
  81 H :    0.135871
  82 H :    0.139986
  83 H :    0.123618
  84 H :    0.129996
  85 H :    0.128336
  86 H :    0.142522
  87 H :    0.142532
  88 H :    0.125439
  89 H :    0.126585
  90 H :    0.125371
  91 H :    0.143205
  92 H :    0.138597
  93 H :    0.121872
  94 H :    0.130182
  95 H :    0.124961
  96 H :    0.165263
  97 H :    0.155433
  98 H :    0.116475
  99 H :    0.124983
 100 H :    0.122408
 101 H :    0.172991
 102 H :    0.170467
 103 H :    0.165494

  Mayer bond orders larger than 0.100000
B(  0-C ,  1-O ) :   2.0361 B(  0-C ,  2-C ) :   1.0283 B(  0-C , 16-C ) :   1.0067
B(  1-O ,  2-C ) :  -0.1538 B(  2-C ,  3-C ) :   1.2988 B(  2-C ,  9-C ) :   1.3393
B(  3-C ,  4-C ) :   1.3632 B(  3-C , 73-H ) :   0.9811 B(  4-C ,  5-F ) :   1.0664
B(  4-C ,  6-C ) :   1.3320 B(  6-C ,  7-F ) :   1.0858 B(  6-C ,  8-C ) :   1.3958
B(  8-C ,  9-C ) :   1.3146 B(  8-C , 74-H ) :   0.9265 B(  9-C , 10-C ) :   1.0325
B( 10-C , 11-C ) :   1.4528 B( 10-C , 16-C ) :   1.1798 B( 11-C , 12-C ) :   1.0484
B( 11-C , 14-C ) :   1.0189 B( 12-C , 13-N ) :   2.9013 B( 14-C , 15-N ) :   2.9760
B( 16-C , 17-C ) :   1.4219 B( 17-C , 18-C ) :   1.2914 B( 17-C , 75-H ) :   0.8537
B( 18-C , 19-S ) :   1.2841 B( 18-C , 22-C ) :   1.2793 B( 19-S , 20-C ) :   1.3602
B( 19-S , 27-C ) :  -0.1325 B( 20-C , 21-C ) :   1.2885 B( 20-C , 27-C ) :   1.0861
B( 21-C , 22-C ) :   1.3028 B( 21-C , 25-S ) :   1.1837 B( 22-C , 23-C ) :   0.9685
B( 23-C , 24-C ) :   0.9744 B( 23-C , 76-H ) :   0.9668 B( 23-C , 77-H ) :   0.9454
B( 24-C , 78-H ) :   0.9725 B( 24-C , 79-H ) :   0.9708 B( 24-C , 80-H ) :   0.9679
B( 25-S , 26-C ) :   1.3141 B( 26-C , 27-C ) :   1.2895 B( 26-C , 32-C ) :   1.1981
B( 27-C , 28-N ) :   1.1353 B( 28-N , 29-C ) :   0.8998 B( 28-N , 31-C ) :   1.1951
B( 29-C , 30-C ) :   0.9600 B( 29-C , 81-H ) :   0.9586 B( 29-C , 82-H ) :   0.9536
B( 30-C , 83-H ) :   0.9669 B( 30-C , 84-H ) :   0.9690 B( 30-C , 85-H ) :   0.9655
B( 31-C , 32-C ) :   1.2524 B( 31-C , 41-C ) :   1.3216 B( 32-C , 33-C ) :   1.1533
B( 33-C , 34-N ) :   1.5158 B( 33-C , 39-C ) :   1.2327 B( 34-N , 35-N ) :   1.1675
B( 34-N , 38-N ) :   0.1190 B( 35-N , 36-C ) :   0.8915 B( 35-N , 38-N ) :   1.1656
B( 36-C , 37-C ) :   0.9613 B( 36-C , 86-H ) :   0.9604 B( 36-C , 87-H ) :   0.9600
B( 37-C , 88-H ) :   0.9704 B( 37-C , 89-H ) :   0.9663 B( 37-C , 90-H ) :   0.9705
B( 38-N , 39-C ) :   1.5125 B( 39-C , 40-C ) :   1.1617 B( 40-C , 41-C ) :   1.2057
B( 40-C , 46-C ) :   1.1684 B( 41-C , 42-N ) :   1.2310 B( 42-N , 43-C ) :   0.8684
B( 42-N , 45-C ) :   1.1197 B( 43-C , 44-C ) :   0.9284 B( 43-C , 91-H ) :   0.9593
B( 43-C , 92-H ) :   0.9687 B( 44-C , 93-H ) :   0.9610 B( 44-C , 94-H ) :   0.9691
B( 44-C , 95-H ) :   0.9733 B( 45-C , 46-C ) :   1.2487 B( 45-C , 49-C ) :   1.0741
B( 45-C , 50-S ) :  -0.1514 B( 46-C , 47-S ) :   1.3864 B( 47-S , 48-C ) :   1.1435
B( 47-S , 49-C ) :   0.1158 B( 48-C , 49-C ) :   1.3607 B( 48-C , 52-C ) :   1.2459
B( 49-C , 50-S ) :   1.3433 B( 50-S , 51-C ) :   1.1757 B( 51-C , 52-C ) :   1.3536
B( 51-C , 55-C ) :   1.2814 B( 52-C , 53-C ) :   0.9695 B( 53-C , 54-C ) :   0.9637
B( 53-C , 96-H ) :   0.9378 B( 53-C , 97-H ) :   0.9695 B( 54-C , 98-H ) :   0.9662
B( 54-C , 99-H ) :   0.9729 B( 54-C ,100-H ) :   0.9770 B( 55-C , 56-C ) :   1.4297
B( 55-C ,101-H ) :   0.9112 B( 56-C , 57-C ) :   1.1361 B( 56-C , 71-C ) :   1.0478
B( 57-C , 58-C ) :   1.4631 B( 57-C , 63-C ) :   1.0435 B( 58-C , 59-C ) :   1.0203
B( 58-C , 61-C ) :   1.0173 B( 59-C , 60-N ) :   2.9759 B( 61-C , 62-N ) :   3.0004
B( 63-C , 64-C ) :   1.3052 B( 63-C , 70-C ) :   1.3384 B( 64-C , 65-C ) :   1.4013
B( 64-C ,102-H ) :   0.9269 B( 65-C , 66-F ) :   1.0859 B( 65-C , 67-C ) :   1.3318
B( 67-C , 68-F ) :   1.0654 B( 67-C , 69-C ) :   1.3630 B( 69-C , 70-C ) :   1.3080
B( 69-C ,103-H ) :   0.9788 B( 70-C , 71-C ) :   0.9474 B( 70-C , 72-O ) :  -0.1594
B( 71-C , 72-O ) :   2.0762

-----------------------------------------------------------------------------
  SOC CORRECTED ABSORPTION SPECTRUM VIA TRANSITION ELECTRIC DIPOLE MOMENTS*
-----------------------------------------------------------------------------
State   Energy  Wavelength   fosc         T2         TX        TY        TZ
        (cm-1)    (nm)                  (au**2)     (au)      (au)      (au)
-----------------------------------------------------------------------------
   1   10449.7    957.0   0.000000010   0.00000   0.00057   0.00001   0.00003
   2   10449.7    957.0   0.000000022   0.00000   0.00084   0.00003   0.00000
   3   10449.7    957.0   0.000000006   0.00000   0.00044   0.00002   0.00003
   4   12395.8    806.7   0.000000004   0.00000   0.00033   0.00004   0.00004
   5   12395.8    806.7   0.000000001   0.00000   0.00011   0.00006   0.00006
   6   12395.8    806.7   0.000000002   0.00000   0.00005   0.00016   0.00017
   7   14875.2    672.3   2.548961532  56.41249   7.48938   0.52109   0.22395
   8   16188.3    617.7   0.000000076   0.00000   0.00122   0.00021   0.00016
   9   16188.3    617.7   0.000000027   0.00000   0.00074   0.00005   0.00002
  10   16188.3    617.7   0.000000088   0.00000   0.00065   0.00087   0.00079
  11   16884.2    592.3   0.139370942   2.71749   0.72198   1.06490   1.03064
  12   18305.6    546.3   0.013245407   0.23821   0.13927   0.41342   0.21884

FINAL SINGLE POINT ENERGY     -4710.857855260130

DIPOLE MOMENT
-------------
                                X             Y             Z
Electronic contribution:     18.45583      51.24702     -26.23159
Nuclear contribution   :    -17.72723     -53.05106      28.32428
                        -----------------------------------------
Total Dipole Moment    :      0.72860      -1.80404       2.09269
                        -----------------------------------------
Magnitude (a.u.)       :      2.85741
Magnitude (Debye)      :      7.26296

Rotational constants in cm-1:     0.001428     0.000259     0.000223
Rotational constants in MHz :    42.811414     7.765148     6.677639

                             ****ORCA TERMINATED NORMALLY****
TOTAL RUN TIME: 0 days 2 hours 26 minutes 34 seconds 33 msec
