                         Program Version 4.2.0 -  RELEASE  -
|  1> # ORCA input file
|  2> # Y14.out: Geometry 33
|  3> ! B3LYP def2-TZVP def2/J RIJCOSX Grid4 TightSCF
|  4>
|  5> %maxcore 6000
|  6> %tddft
|  7>   maxdim 5
|  8>   nroots 3
|  9>   dosoc true
| 10>   end
| 11> %pal
| 12>   nprocs 6
| 13>   end
| 14>
| 15>
| 16> * xyz 0 1
| 17>    C        0.07812        -2.84523        -1.00073
| 18>    O       -0.56363        -3.85769        -1.22758
| 19>    C        1.38276        -2.49451        -1.62240
| 20>    C        2.12213        -3.25056        -2.52124
| 21>    C        3.33128        -2.70508        -2.95162
| 22>    C        3.78017        -1.45624        -2.51274
| 23>    C        3.02096        -0.71008        -1.60707
| 24>    C        1.80550        -1.23773        -1.14603
| 25>    C        0.79889        -0.73226        -0.17850
| 26>    C        0.88930         0.48523         0.48011
| 27>    C        1.94407         1.42115         0.24694
| 28>    N        2.78039         2.20796         0.06610
| 29>    C       -0.06363         0.94412         1.44153
| 30>    N       -0.82014         1.33971         2.23168
| 31>    C       -0.26062        -1.73911        -0.07902
| 32>    C       -1.38018        -1.66747         0.73314
| 33>    C       -2.50063        -2.49819         0.95498
| 34>    S       -2.85244        -4.04066         0.12953
| 35>    C       -4.31234        -4.21328         1.03787
| 36>    C       -4.51208        -3.14573         1.93927
| 37>    C       -3.50999        -2.16532         1.90319
| 38>    C       -3.53199        -0.96437         2.80951
| 39>    C       -3.24191        -1.33473         4.27277
| 40>    S       -5.98352        -3.31577         2.90743
| 41>    C       -6.31432        -4.82657         2.09351
| 42>    C       -5.35061        -5.16393         1.13246
| 43>    N       -5.70635        -6.33791         0.49451
| 44>    C       -5.12083        -6.64501        -0.80831
| 45>    C       -6.04890        -6.43438        -2.01688
| 46>    C       -6.90962        -6.78179         1.06056
| 47>    C       -7.30969        -5.82338         2.05406
| 48>    C       -8.57264        -5.95103         2.69815
| 49>    N       -9.18257        -5.17305         3.60441
| 50>    N      -10.35693        -5.76987         3.77858
| 51>    C      -11.39502        -5.16722         4.60294
| 52>    C      -12.32883        -4.28478         3.78008
| 53>    N      -10.58612        -6.86063         3.05639
| 54>    C       -9.45307        -7.01018         2.35182
| 55>    C       -9.03592        -8.01430         1.42874
| 56>    C       -7.74308        -7.92373         0.80693
| 57>    N       -7.55921        -9.07121         0.02090
| 58>    C       -6.31514        -9.67833        -0.44393
| 59>    C       -5.34338       -10.14282         0.65542
| 60>    C       -8.70172        -9.84201         0.12915
| 61>    C       -9.62419        -9.21681         0.98037
| 62>    S      -11.08889       -10.14113         1.20905
| 63>    C      -10.45181       -11.39272         0.13553
| 64>    C       -9.17647       -11.07402        -0.37506
| 65>    S       -8.64020       -12.26963        -1.49901
| 66>    C      -10.12409       -13.22101        -1.26026
| 67>    C      -10.99934       -12.60571        -0.34343
| 68>    C      -12.39473       -13.05434        -0.00478
| 69>    C      -12.61286       -13.32704         1.49097
| 70>    C      -10.29040       -14.32870        -2.14188
| 71>    C      -11.04420       -15.47960        -2.10681
| 72>    C      -11.71079       -16.23985        -1.06054
| 73>    C      -11.36624       -16.25981         0.27947
| 74>    C      -12.06790       -17.05043         1.23953
| 75>    N      -12.65954       -17.67166         2.02378
| 76>    C      -10.22393       -15.56312         0.77533
| 77>    N       -9.28614       -15.01712         1.19128
| 78>    C      -12.64590       -17.18335        -1.72055
| 79>    C      -13.63219       -18.04202        -1.21557
| 80>    C      -14.32418       -18.87185        -2.10319
| 81>    C      -14.01906       -18.85638        -3.46910
| 82>    C      -13.04406       -18.01100        -3.99912
| 83>    C      -12.38348       -17.17833        -3.10742
| 84>    C      -11.33527       -16.16472        -3.41241
| 85>    O      -10.85264       -15.91878        -4.49821
| 86>    F      -14.68573       -19.67434        -4.28728
| 87>    F        4.09185        -3.39544        -3.80503
| 88>    C       -5.95523       -11.20484         1.59872
| 89>    C       -6.70404       -10.65452         2.81469
| 90>    C       -4.07457       -10.66585        -0.03114
| 91>    C       -6.56152        -4.98295        -2.17040
| 92>    C       -7.78484        -4.59639        -1.33764
| 93>    C       -5.28575        -6.86438        -3.27589
| 94>    H        1.77582        -4.22240        -2.87450
| 95>    H        4.73005        -1.07804        -2.89382
| 96>    H        3.39590         0.25450        -1.27494
| 97>    H       -1.43351        -0.77807         1.35540
| 98>    H       -4.53652        -0.51153         2.74212
| 99>    H       -2.82688        -0.18949         2.48270
|100>    H       -3.95482        -2.08432         4.64714
|101>    H       -3.31472        -0.44267         4.91230
|102>    H       -2.22991        -1.75605         4.37734
|103>    H       -4.70734        -7.65994        -0.80146
|104>    H       -4.25085        -5.98459        -0.91942
|105>    H       -6.92604        -7.09446        -1.89384
|106>    H      -10.87108        -4.58793         5.37480
|107>    H      -11.94014        -5.99057         5.08516
|108>    H      -11.75632        -3.50116         3.26175
|109>    H      -13.06868        -3.80004         4.43534
|110>    H      -12.86518        -4.88364         3.02881
|111>    H       -5.81363        -9.00165        -1.13973
|112>    H       -6.60397       -10.54919        -1.04825
|113>    H       -5.06508        -9.25845         1.25649
|114>    H      -12.66080       -13.93707        -0.59730
|115>    H      -13.08483       -12.25303        -0.32506
|116>    H      -13.63667       -13.68796         1.67180
|117>    H      -12.46379       -12.41480         2.08747
|118>    H      -11.91269       -14.07740         1.87690
|119>    H       -9.76520       -14.22493        -3.10205
|120>    H      -13.87988       -18.07433        -0.15577
|121>    H      -15.10394       -19.54690        -1.74606
|122>    H      -12.80578       -18.00598        -5.06417
|123>    H       -5.13865       -11.85036         1.96323
|124>    H       -6.61532       -11.87188         1.01704
|125>    H       -6.02672       -10.07248         3.46087
|126>    H       -7.11875       -11.47659         3.41834
|127>    H       -7.54151        -9.99987         2.54022
|128>    H       -4.29688       -11.54759        -0.65501
|129>    H       -3.32337       -10.96707         0.71372
|130>    H       -3.61404        -9.90425        -0.68187
|131>    H       -6.81968        -4.83970        -3.23371
|132>    H       -5.72912        -4.28445        -1.97232
|133>    H       -8.59622        -5.33225        -1.46461
|134>    H       -8.17352        -3.61891        -1.66401
|135>    H       -7.57092        -4.51891        -0.26381
|136>    H       -4.43519        -6.18920        -3.46322
|137>    H       -5.94011        -6.83055        -4.15947
|138>    H       -4.88373        -7.88753        -3.19336
|139> *
|140>
|141>                          ****END OF INPUT****

CARTESIAN COORDINATES (ANGSTROEM)
---------------------------------
  C      0.078120   -2.845230   -1.000730
  O     -0.563630   -3.857690   -1.227580
  C      1.382760   -2.494510   -1.622400
  C      2.122130   -3.250560   -2.521240
  C      3.331280   -2.705080   -2.951620
  C      3.780170   -1.456240   -2.512740
  C      3.020960   -0.710080   -1.607070
  C      1.805500   -1.237730   -1.146030
  C      0.798890   -0.732260   -0.178500
  C      0.889300    0.485230    0.480110
  C      1.944070    1.421150    0.246940
  N      2.780390    2.207960    0.066100
  C     -0.063630    0.944120    1.441530
  N     -0.820140    1.339710    2.231680
  C     -0.260620   -1.739110   -0.079020
  C     -1.380180   -1.667470    0.733140
  C     -2.500630   -2.498190    0.954980
  S     -2.852440   -4.040660    0.129530
  C     -4.312340   -4.213280    1.037870
  C     -4.512080   -3.145730    1.939270
  C     -3.509990   -2.165320    1.903190
  C     -3.531990   -0.964370    2.809510
  C     -3.241910   -1.334730    4.272770
  S     -5.983520   -3.315770    2.907430
  C     -6.314320   -4.826570    2.093510
  C     -5.350610   -5.163930    1.132460
  N     -5.706350   -6.337910    0.494510
  C     -5.120830   -6.645010   -0.808310
  C     -6.048900   -6.434380   -2.016880
  C     -6.909620   -6.781790    1.060560
  C     -7.309690   -5.823380    2.054060
  C     -8.572640   -5.951030    2.698150
  N     -9.182570   -5.173050    3.604410
  N    -10.356930   -5.769870    3.778580
  C    -11.395020   -5.167220    4.602940
  C    -12.328830   -4.284780    3.780080
  N    -10.586120   -6.860630    3.056390
  C     -9.453070   -7.010180    2.351820
  C     -9.035920   -8.014300    1.428740
  C     -7.743080   -7.923730    0.806930
  N     -7.559210   -9.071210    0.020900
  C     -6.315140   -9.678330   -0.443930
  C     -5.343380  -10.142820    0.655420
  C     -8.701720   -9.842010    0.129150
  C     -9.624190   -9.216810    0.980370
  S    -11.088890  -10.141130    1.209050
  C    -10.451810  -11.392720    0.135530
  C     -9.176470  -11.074020   -0.375060
  S     -8.640200  -12.269630   -1.499010
  C    -10.124090  -13.221010   -1.260260
  C    -10.999340  -12.605710   -0.343430
  C    -12.394730  -13.054340   -0.004780
  C    -12.612860  -13.327040    1.490970
  C    -10.290400  -14.328700   -2.141880
  C    -11.044200  -15.479600   -2.106810
  C    -11.710790  -16.239850   -1.060540
  C    -11.366240  -16.259810    0.279470
  C    -12.067900  -17.050430    1.239530
  N    -12.659540  -17.671660    2.023780
  C    -10.223930  -15.563120    0.775330
  N     -9.286140  -15.017120    1.191280
  C    -12.645900  -17.183350   -1.720550
  C    -13.632190  -18.042020   -1.215570
  C    -14.324180  -18.871850   -2.103190
  C    -14.019060  -18.856380   -3.469100
  C    -13.044060  -18.011000   -3.999120
  C    -12.383480  -17.178330   -3.107420
  C    -11.335270  -16.164720   -3.412410
  O    -10.852640  -15.918780   -4.498210
  F    -14.685730  -19.674340   -4.287280
  F      4.091850   -3.395440   -3.805030
  C     -5.955230  -11.204840    1.598720
  C     -6.704040  -10.654520    2.814690
  C     -4.074570  -10.665850   -0.031140
  C     -6.561520   -4.982950   -2.170400
  C     -7.784840   -4.596390   -1.337640
  C     -5.285750   -6.864380   -3.275890
  H      1.775820   -4.222400   -2.874500
  H      4.730050   -1.078040   -2.893820
  H      3.395900    0.254500   -1.274940
  H     -1.433510   -0.778070    1.355400
  H     -4.536520   -0.511530    2.742120
  H     -2.826880   -0.189490    2.482700
  H     -3.954820   -2.084320    4.647140
  H     -3.314720   -0.442670    4.912300
  H     -2.229910   -1.756050    4.377340
  H     -4.707340   -7.659940   -0.801460
  H     -4.250850   -5.984590   -0.919420
  H     -6.926040   -7.094460   -1.893840
  H    -10.871080   -4.587930    5.374800
  H    -11.940140   -5.990570    5.085160
  H    -11.756320   -3.501160    3.261750
  H    -13.068680   -3.800040    4.435340
  H    -12.865180   -4.883640    3.028810
  H     -5.813630   -9.001650   -1.139730
  H     -6.603970  -10.549190   -1.048250
  H     -5.065080   -9.258450    1.256490
  H    -12.660800  -13.937070   -0.597300
  H    -13.084830  -12.253030   -0.325060
  H    -13.636670  -13.687960    1.671800
  H    -12.463790  -12.414800    2.087470
  H    -11.912690  -14.077400    1.876900
  H     -9.765200  -14.224930   -3.102050
  H    -13.879880  -18.074330   -0.155770
  H    -15.103940  -19.546900   -1.746060
  H    -12.805780  -18.005980   -5.064170
  H     -5.138650  -11.850360    1.963230
  H     -6.615320  -11.871880    1.017040
  H     -6.026720  -10.072480    3.460870
  H     -7.118750  -11.476590    3.418340
  H     -7.541510   -9.999870    2.540220
  H     -4.296880  -11.547590   -0.655010
  H     -3.323370  -10.967070    0.713720
  H     -3.614040   -9.904250   -0.681870
  H     -6.819680   -4.839700   -3.233710
  H     -5.729120   -4.284450   -1.972320
  H     -8.596220   -5.332250   -1.464610
  H     -8.173520   -3.618910   -1.664010
  H     -7.570920   -4.518910   -0.263810
  H     -4.435190   -6.189200   -3.463220
  H     -5.940110   -6.830550   -4.159470
  H     -4.883730   -7.887530   -3.193360

 Total Charge           Charge          ....    0
 Multiplicity           Mult            ....    1
 Number of Electrons    NEL             ....  566
 Basis Dimension        Dim             .... 2681

ORBITAL ENERGIES
----------------

  NO   OCC          E(Eh)            E(eV)
   0   2.0000     -88.909638     -2419.3543
   1   2.0000     -88.905847     -2419.2511
   2   2.0000     -88.904459     -2419.2133
   3   2.0000     -88.904203     -2419.2064
   4   2.0000     -24.718475      -672.6239
   5   2.0000     -24.715885      -672.5534
   6   2.0000     -19.133006      -520.6356
   7   2.0000     -19.132520      -520.6223
   8   2.0000     -14.443989      -393.0409
   9   2.0000     -14.399030      -391.8175
  10   2.0000     -14.398638      -391.8069
  11   2.0000     -14.361993      -390.8097
  12   2.0000     -14.361870      -390.8064
  13   2.0000     -14.332119      -389.9968
  14   2.0000     -14.331984      -389.9931
  15   2.0000     -14.331276      -389.9739
  16   2.0000     -14.326317      -389.8389
  17   2.0000     -10.293551      -280.1018
  18   2.0000     -10.290079      -280.0073
  19   2.0000     -10.278944      -279.7043
  20   2.0000     -10.276453      -279.6365
  21   2.0000     -10.259708      -279.1809
  22   2.0000     -10.257746      -279.1275
  23   2.0000     -10.255788      -279.0742
  24   2.0000     -10.255747      -279.0731
  25   2.0000     -10.255113      -279.0558
  26   2.0000     -10.255037      -279.0537
  27   2.0000     -10.242550      -278.7140
  28   2.0000     -10.242061      -278.7006
  29   2.0000     -10.240348      -278.6540
  30   2.0000     -10.240153      -278.6487
  31   2.0000     -10.239583      -278.6332
  32   2.0000     -10.238848      -278.6132
  33   2.0000     -10.237470      -278.5757
  34   2.0000     -10.237104      -278.5658
  35   2.0000     -10.236150      -278.5398
  36   2.0000     -10.233554      -278.4692
  37   2.0000     -10.233284      -278.4618
  38   2.0000     -10.231856      -278.4230
  39   2.0000     -10.231855      -278.4229
  40   2.0000     -10.229626      -278.3623
  41   2.0000     -10.228997      -278.3452
  42   2.0000     -10.228101      -278.3208
  43   2.0000     -10.227405      -278.3018
  44   2.0000     -10.227156      -278.2951
  45   2.0000     -10.226958      -278.2897
  46   2.0000     -10.226478      -278.2766
  47   2.0000     -10.226229      -278.2698
  48   2.0000     -10.226165      -278.2681
  49   2.0000     -10.222216      -278.1606
  50   2.0000     -10.221902      -278.1521
  51   2.0000     -10.221273      -278.1350
  52   2.0000     -10.218436      -278.0578
  53   2.0000     -10.217156      -278.0229
  54   2.0000     -10.216050      -277.9929
  55   2.0000     -10.216042      -277.9926
  56   2.0000     -10.215934      -277.9897
  57   2.0000     -10.214985      -277.9639
  58   2.0000     -10.214502      -277.9507
  59   2.0000     -10.213718      -277.9294
  60   2.0000     -10.212773      -277.9037
  61   2.0000     -10.211700      -277.8745
  62   2.0000     -10.211612      -277.8721
  63   2.0000     -10.211280      -277.8631
  64   2.0000     -10.202893      -277.6348
  65   2.0000     -10.200885      -277.5802
  66   2.0000     -10.200052      -277.5575
  67   2.0000     -10.194439      -277.4048
  68   2.0000     -10.186362      -277.1850
  69   2.0000     -10.184247      -277.1274
  70   2.0000     -10.183876      -277.1174
  71   2.0000     -10.182578      -277.0820
  72   2.0000     -10.178581      -276.9733
  73   2.0000     -10.178316      -276.9661
  74   2.0000     -10.175435      -276.8877
  75   2.0000     -10.169512      -276.7265
  76   2.0000     -10.164391      -276.5871
  77   2.0000      -7.985539      -217.2976
  78   2.0000      -7.980869      -217.1705
  79   2.0000      -7.979533      -217.1341
  80   2.0000      -7.978963      -217.1186
  81   2.0000      -5.948293      -161.8613
  82   2.0000      -5.944546      -161.7593
  83   2.0000      -5.943896      -161.7416
  84   2.0000      -5.942566      -161.7055
  85   2.0000      -5.941869      -161.6865
  86   2.0000      -5.941662      -161.6808
  87   2.0000      -5.940162      -161.6400
  88   2.0000      -5.938860      -161.6046
  89   2.0000      -5.937871      -161.5777
  90   2.0000      -5.936580      -161.5425
  91   2.0000      -5.935202      -161.5050
  92   2.0000      -5.935022      -161.5002
  93   2.0000      -1.256983       -34.2043
  94   2.0000      -1.254456       -34.1355
  95   2.0000      -1.121960       -30.5301
  96   2.0000      -1.060293       -28.8520
  97   2.0000      -1.059391       -28.8275
  98   2.0000      -1.027277       -27.9536
  99   2.0000      -1.016061       -27.6484
 100   2.0000      -0.937003       -25.4972
 101   2.0000      -0.934517       -25.4295
 102   2.0000      -0.926625       -25.2147
 103   2.0000      -0.923399       -25.1270
 104   2.0000      -0.918247       -24.9868
 105   2.0000      -0.917440       -24.9648
 106   2.0000      -0.915781       -24.9197
 107   2.0000      -0.911607       -24.8061
 108   2.0000      -0.910047       -24.7636
 109   2.0000      -0.896299       -24.3895
 110   2.0000      -0.875607       -23.8265
 111   2.0000      -0.872803       -23.7502
 112   2.0000      -0.866588       -23.5811
 113   2.0000      -0.863876       -23.5073
 114   2.0000      -0.849909       -23.1272
 115   2.0000      -0.837951       -22.8018
 116   2.0000      -0.826697       -22.4956
 117   2.0000      -0.822012       -22.3681
 118   2.0000      -0.819264       -22.2933
 119   2.0000      -0.816667       -22.2226
 120   2.0000      -0.812927       -22.1209
 121   2.0000      -0.807516       -21.9736
 122   2.0000      -0.800392       -21.7798
 123   2.0000      -0.790054       -21.4985
 124   2.0000      -0.788619       -21.4594
 125   2.0000      -0.785279       -21.3685
 126   2.0000      -0.773673       -21.0527
 127   2.0000      -0.770404       -20.9638
 128   2.0000      -0.759320       -20.6622
 129   2.0000      -0.749832       -20.4040
 130   2.0000      -0.747480       -20.3400
 131   2.0000      -0.745521       -20.2867
 132   2.0000      -0.734171       -19.9778
 133   2.0000      -0.728551       -19.8249
 134   2.0000      -0.727726       -19.8024
 135   2.0000      -0.713790       -19.4232
 136   2.0000      -0.708647       -19.2833
 137   2.0000      -0.707457       -19.2509
 138   2.0000      -0.693200       -18.8629
 139   2.0000      -0.690146       -18.7798
 140   2.0000      -0.685316       -18.6484
 141   2.0000      -0.676052       -18.3963
 142   2.0000      -0.658738       -17.9252
 143   2.0000      -0.654772       -17.8173
 144   2.0000      -0.649205       -17.6658
 145   2.0000      -0.644003       -17.5242
 146   2.0000      -0.642769       -17.4906
 147   2.0000      -0.638131       -17.3644
 148   2.0000      -0.634356       -17.2617
 149   2.0000      -0.628402       -17.0997
 150   2.0000      -0.626199       -17.0397
 151   2.0000      -0.625270       -17.0145
 152   2.0000      -0.613737       -16.7006
 153   2.0000      -0.608169       -16.5491
 154   2.0000      -0.603923       -16.4336
 155   2.0000      -0.596363       -16.2279
 156   2.0000      -0.592153       -16.1133
 157   2.0000      -0.590225       -16.0608
 158   2.0000      -0.584210       -15.8972
 159   2.0000      -0.581867       -15.8334
 160   2.0000      -0.578009       -15.7284
 161   2.0000      -0.569208       -15.4889
 162   2.0000      -0.565580       -15.3902
 163   2.0000      -0.560536       -15.2530
 164   2.0000      -0.555176       -15.1071
 165   2.0000      -0.544838       -14.8258
 166   2.0000      -0.542230       -14.7548
 167   2.0000      -0.538065       -14.6415
 168   2.0000      -0.535655       -14.5759
 169   2.0000      -0.528231       -14.3739
 170   2.0000      -0.524517       -14.2728
 171   2.0000      -0.518143       -14.0994
 172   2.0000      -0.516371       -14.0512
 173   2.0000      -0.514751       -14.0071
 174   2.0000      -0.512906       -13.9569
 175   2.0000      -0.511480       -13.9181
 176   2.0000      -0.506113       -13.7720
 177   2.0000      -0.504002       -13.7146
 178   2.0000      -0.499841       -13.6014
 179   2.0000      -0.499419       -13.5899
 180   2.0000      -0.497072       -13.5260
 181   2.0000      -0.490690       -13.3523
 182   2.0000      -0.488138       -13.2829
 183   2.0000      -0.481109       -13.0917
 184   2.0000      -0.477819       -13.0021
 185   2.0000      -0.473569       -12.8865
 186   2.0000      -0.473423       -12.8825
 187   2.0000      -0.472999       -12.8710
 188   2.0000      -0.467780       -12.7289
 189   2.0000      -0.465667       -12.6715
 190   2.0000      -0.462325       -12.5805
 191   2.0000      -0.462012       -12.5720
 192   2.0000      -0.459669       -12.5082
 193   2.0000      -0.458291       -12.4707
 194   2.0000      -0.456409       -12.4195
 195   2.0000      -0.455873       -12.4049
 196   2.0000      -0.454376       -12.3642
 197   2.0000      -0.451483       -12.2855
 198   2.0000      -0.447747       -12.1838
 199   2.0000      -0.446013       -12.1366
 200   2.0000      -0.444136       -12.0855
 201   2.0000      -0.441965       -12.0265
 202   2.0000      -0.440046       -11.9743
 203   2.0000      -0.435780       -11.8582
 204   2.0000      -0.434034       -11.8107
 205   2.0000      -0.431897       -11.7525
 206   2.0000      -0.428674       -11.6648
 207   2.0000      -0.428158       -11.6508
 208   2.0000      -0.427178       -11.6241
 209   2.0000      -0.425282       -11.5725
 210   2.0000      -0.423643       -11.5279
 211   2.0000      -0.422365       -11.4931
 212   2.0000      -0.421881       -11.4800
 213   2.0000      -0.419975       -11.4281
 214   2.0000      -0.419215       -11.4074
 215   2.0000      -0.418240       -11.3809
 216   2.0000      -0.417343       -11.3565
 217   2.0000      -0.413781       -11.2595
 218   2.0000      -0.411599       -11.2002
 219   2.0000      -0.408944       -11.1279
 220   2.0000      -0.407467       -11.0877
 221   2.0000      -0.404964       -11.0196
 222   2.0000      -0.401875       -10.9356
 223   2.0000      -0.399376       -10.8676
 224   2.0000      -0.396881       -10.7997
 225   2.0000      -0.394250       -10.7281
 226   2.0000      -0.390270       -10.6198
 227   2.0000      -0.388915       -10.5829
 228   2.0000      -0.388180       -10.5629
 229   2.0000      -0.387628       -10.5479
 230   2.0000      -0.386813       -10.5257
 231   2.0000      -0.386514       -10.5176
 232   2.0000      -0.384578       -10.4649
 233   2.0000      -0.383959       -10.4481
 234   2.0000      -0.383658       -10.4399
 235   2.0000      -0.382831       -10.4174
 236   2.0000      -0.380774       -10.3614
 237   2.0000      -0.377988       -10.2856
 238   2.0000      -0.377251       -10.2655
 239   2.0000      -0.375663       -10.2223
 240   2.0000      -0.373426       -10.1614
 241   2.0000      -0.372104       -10.1255
 242   2.0000      -0.365991        -9.9591
 243   2.0000      -0.363694        -9.8966
 244   2.0000      -0.361127        -9.8268
 245   2.0000      -0.361016        -9.8237
 246   2.0000      -0.359774        -9.7899
 247   2.0000      -0.358305        -9.7500
 248   2.0000      -0.357653        -9.7322
 249   2.0000      -0.356193        -9.6925
 250   2.0000      -0.355516        -9.6741
 251   2.0000      -0.354086        -9.6352
 252   2.0000      -0.351695        -9.5701
 253   2.0000      -0.349306        -9.5051
 254   2.0000      -0.346385        -9.4256
 255   2.0000      -0.345603        -9.4043
 256   2.0000      -0.345124        -9.3913
 257   2.0000      -0.342304        -9.3146
 258   2.0000      -0.341150        -9.2832
 259   2.0000      -0.339872        -9.2484
 260   2.0000      -0.338483        -9.2106
 261   2.0000      -0.335497        -9.1293
 262   2.0000      -0.334152        -9.0927
 263   2.0000      -0.332190        -9.0393
 264   2.0000      -0.328069        -8.9272
 265   2.0000      -0.325830        -8.8663
 266   2.0000      -0.314673        -8.5627
 267   2.0000      -0.305089        -8.3019
 268   2.0000      -0.302753        -8.2383
 269   2.0000      -0.295246        -8.0340
 270   2.0000      -0.292054        -7.9472
 271   2.0000      -0.289266        -7.8713
 272   2.0000      -0.277696        -7.5565
 273   2.0000      -0.277155        -7.5418
 274   2.0000      -0.274566        -7.4713
 275   2.0000      -0.265785        -7.2324
 276   2.0000      -0.262199        -7.1348
 277   2.0000      -0.259034        -7.0487
 278   2.0000      -0.255539        -6.9536
 279   2.0000      -0.239778        -6.5247
 280   2.0000      -0.233496        -6.3537
 281   2.0000      -0.224989        -6.1223
 282   2.0000      -0.202427        -5.5083
 283   0.0000      -0.129434        -3.5221
 284   0.0000      -0.120043        -3.2665
 285   0.0000      -0.106467        -2.8971
 286   0.0000      -0.103893        -2.8271
 287   0.0000      -0.070244        -1.9114

MULLIKEN ATOMIC CHARGES
-----------------------
   0 C :    0.205891
   1 O :   -0.346209
   2 C :    0.120987
   3 C :   -0.331985
   4 C :    0.390471
   5 C :   -0.203057
   6 C :   -0.169323
   7 C :    0.055259
   8 C :    0.015889
   9 C :    0.131862
  10 C :   -0.210783
  11 N :    0.000239
  12 C :   -0.149538
  13 N :   -0.027164
  14 C :   -0.089731
  15 C :   -0.052655
  16 C :   -0.001148
  17 S :    0.027094
  18 C :   -0.203626
  19 C :    0.028580
  20 C :    0.050052
  21 C :   -0.242037
  22 C :   -0.329630
  23 S :    0.017922
  24 C :   -0.163539
  25 C :    0.333772
  26 N :    0.005148
  27 C :   -0.305370
  28 C :    0.052939
  29 C :   -0.003300
  30 C :   -0.000851
  31 C :    0.074970
  32 N :   -0.236624
  33 N :    0.262562
  34 C :   -0.090073
  35 C :   -0.346448
  36 N :   -0.234543
  37 C :    0.063027
  38 C :    0.023485
  39 C :   -0.048317
  40 N :   -0.005999
  41 C :   -0.285724
  42 C :    0.086156
  43 C :    0.381873
  44 C :   -0.171686
  45 S :    0.011520
  46 C :    0.078044
  47 C :   -0.280491
  48 S :   -0.014814
  49 C :    0.138876
  50 C :   -0.016572
  51 C :   -0.190760
  52 C :   -0.353744
  53 C :   -0.195849
  54 C :   -0.021679
  55 C :   -0.113358
  56 C :    0.127625
  57 C :   -0.190569
  58 N :    0.004774
  59 C :   -0.215183
  60 N :    0.018321
  61 C :    0.117708
  62 C :   -0.156920
  63 C :   -0.199155
  64 C :    0.388329
  65 C :   -0.311081
  66 C :   -0.005610
  67 C :    0.246320
  68 O :   -0.292128
  69 F :   -0.188849
  70 F :   -0.190211
  71 C :   -0.166770
  72 C :   -0.360838
  73 C :   -0.364537
  74 C :   -0.164369
  75 C :   -0.344661
  76 C :   -0.358459
  77 H :    0.140412
  78 H :    0.135790
  79 H :    0.168090
  80 H :    0.095983
  81 H :    0.107927
  82 H :    0.161984
  83 H :    0.117123
  84 H :    0.122440
  85 H :    0.112147
  86 H :    0.135080
  87 H :    0.139495
  88 H :    0.081989
  89 H :    0.127892
  90 H :    0.123895
  91 H :    0.123672
  92 H :    0.114137
  93 H :    0.125918
  94 H :    0.115022
  95 H :    0.131638
  96 H :    0.072173
  97 H :    0.133657
  98 H :    0.113762
  99 H :    0.118115
 100 H :    0.124687
 101 H :    0.137093
 102 H :    0.149849
 103 H :    0.164733
 104 H :    0.136830
 105 H :    0.146104
 106 H :    0.094475
 107 H :    0.115105
 108 H :    0.101721
 109 H :    0.121771
 110 H :    0.132031
 111 H :    0.114563
 112 H :    0.124373
 113 H :    0.110814
 114 H :    0.095613
 115 H :    0.095040
 116 H :    0.098846
 117 H :    0.114815
 118 H :    0.134968
 119 H :    0.122541
 120 H :    0.122143
 121 H :    0.109818
Sum of atomic charges:   -0.0000000

LOEWDIN ATOMIC CHARGES
----------------------
   0 C :   -0.252506
   1 O :    0.114067
   2 C :   -0.056029
   3 C :   -0.056147
   4 C :   -0.245594
   5 C :   -0.094215
   6 C :   -0.068565
   7 C :   -0.044495
   8 C :    0.017058
   9 C :   -0.141178
  10 C :   -0.155814
  11 N :    0.065784
  12 C :   -0.155051
  13 N :    0.057449
  14 C :   -0.092081
  15 C :   -0.055564
  16 C :   -0.293551
  17 S :    0.763168
  18 C :   -0.337953
  19 C :   -0.316432
  20 C :   -0.119460
  21 C :   -0.234556
  22 C :   -0.290764
  23 S :    0.730421
  24 C :   -0.294108
  25 C :   -0.191155
  26 N :    0.292711
  27 C :   -0.223010
  28 C :   -0.279645
  29 C :   -0.090269
  30 C :   -0.093599
  31 C :   -0.204786
  32 N :    0.082376
  33 N :    0.134179
  34 C :   -0.266966
  35 C :   -0.299269
  36 N :    0.081939
  37 C :   -0.202537
  38 C :   -0.091223
  39 C :   -0.094571
  40 N :    0.290229
  41 C :   -0.222895
  42 C :   -0.274632
  43 C :   -0.189853
  44 C :   -0.295931
  45 S :    0.735271
  46 C :   -0.309387
  47 C :   -0.339692
  48 S :    0.747425
  49 C :   -0.299839
  50 C :   -0.124990
  51 C :   -0.229794
  52 C :   -0.288770
  53 C :   -0.069376
  54 C :   -0.090981
  55 C :   -0.003396
  56 C :   -0.146426
  57 C :   -0.155028
  58 N :    0.069697
  59 C :   -0.157157
  60 N :    0.082303
  61 C :   -0.044427
  62 C :   -0.071083
  63 C :   -0.091944
  64 C :   -0.244449
  65 C :   -0.053290
  66 C :   -0.056829
  67 C :   -0.245574
  68 O :    0.131931
  69 F :    0.207644
  70 F :    0.206353
  71 C :   -0.257545
  72 C :   -0.303477
  73 C :   -0.279603
  74 C :   -0.259145
  75 C :   -0.303378
  76 C :   -0.279034
  77 H :    0.162336
  78 H :    0.157486
  79 H :    0.163446
  80 H :    0.177480
  81 H :    0.149088
  82 H :    0.146518
  83 H :    0.116800
  84 H :    0.125324
  85 H :    0.123163
  86 H :    0.134741
  87 H :    0.145923
  88 H :    0.153552
  89 H :    0.142667
  90 H :    0.141335
  91 H :    0.125401
  92 H :    0.125810
  93 H :    0.125243
  94 H :    0.136658
  95 H :    0.143363
  96 H :    0.153546
  97 H :    0.150461
  98 H :    0.151453
  99 H :    0.124714
 100 H :    0.117835
 101 H :    0.128890
 102 H :    0.173674
 103 H :    0.162290
 104 H :    0.157664
 105 H :    0.164486
 106 H :    0.139981
 107 H :    0.140382
 108 H :    0.118574
 109 H :    0.124592
 110 H :    0.126533
 111 H :    0.125097
 112 H :    0.125915
 113 H :    0.117009
 114 H :    0.141068
 115 H :    0.138762
 116 H :    0.120381
 117 H :    0.121219
 118 H :    0.127486
 119 H :    0.127505
 120 H :    0.125151
 121 H :    0.118013

  Mayer bond orders larger than 0.100000
B(  0-C ,  1-O ) :   2.0374 B(  0-C ,  2-C ) :   1.0255 B(  0-C , 14-C ) :   1.0008
B(  1-O ,  2-C ) :  -0.1456 B(  2-C ,  3-C ) :   1.2960 B(  2-C ,  7-C ) :   1.3376
B(  3-C ,  4-C ) :   1.3634 B(  3-C , 77-H ) :   0.9972 B(  4-C ,  5-C ) :   1.3725
B(  4-C , 70-F ) :   1.0340 B(  5-C ,  6-C ) :   1.3755 B(  5-C , 78-H ) :   0.9756
B(  6-C ,  7-C ) :   1.3817 B(  6-C , 79-H ) :   0.9151 B(  7-C ,  8-C ) :   1.0495
B(  8-C ,  9-C ) :   1.4496 B(  8-C , 14-C ) :   1.1720 B(  9-C , 10-C ) :   1.0106
B(  9-C , 12-C ) :   1.0635 B( 10-C , 11-N ) :   2.9873 B( 12-C , 13-N ) :   2.8895
B( 14-C , 15-C ) :   1.3974 B( 15-C , 16-C ) :   1.3115 B( 15-C , 80-H ) :   0.8520
B( 16-C , 17-S ) :   1.3022 B( 16-C , 20-C ) :   1.2748 B( 17-S , 18-C ) :   1.3559
B( 17-S , 25-C ) :  -0.1366 B( 18-C , 19-C ) :   1.3199 B( 18-C , 23-S ) :   0.1035
B( 18-C , 25-C ) :   1.0573 B( 19-C , 20-C ) :   1.3151 B( 19-C , 23-S ) :   1.1801
B( 20-C , 21-C ) :   0.9516 B( 21-C , 22-C ) :   0.9654 B( 21-C , 81-H ) :   0.9622
B( 21-C , 82-H ) :   0.9552 B( 22-C , 83-H ) :   0.9733 B( 22-C , 84-H ) :   0.9699
B( 22-C , 85-H ) :   0.9701 B( 23-S , 24-C ) :   1.3140 B( 24-C , 25-C ) :   1.2819
B( 24-C , 30-C ) :   1.1869 B( 25-C , 26-N ) :   1.1171 B( 26-N , 27-C ) :   0.8760
B( 26-N , 29-C ) :   1.1801 B( 27-C , 28-C ) :   0.9257 B( 27-C , 86-H ) :   0.9817
B( 27-C , 87-H ) :   0.9659 B( 28-C , 74-C ) :   0.9329 B( 28-C , 76-C ) :   0.9395
B( 28-C , 88-H ) :   0.9577 B( 29-C , 30-C ) :   1.1935 B( 29-C , 39-C ) :   1.4087
B( 30-C , 31-C ) :   1.1495 B( 31-C , 32-N ) :   1.5128 B( 31-C , 37-C ) :   1.2259
B( 32-N , 33-N ) :   1.1654 B( 32-N , 36-N ) :   0.1186 B( 33-N , 34-C ) :   0.8930
B( 33-N , 36-N ) :   1.1614 B( 34-C , 35-C ) :   0.9597 B( 34-C , 89-H ) :   0.9614
B( 34-C , 90-H ) :   0.9599 B( 35-C , 91-H ) :   0.9712 B( 35-C , 92-H ) :   0.9662
B( 35-C , 93-H ) :   0.9698 B( 36-N , 37-C ) :   1.5072 B( 37-C , 38-C ) :   1.1581
B( 38-C , 39-C ) :   1.2079 B( 38-C , 44-C ) :   1.1576 B( 39-C , 40-N ) :   1.1753
B( 40-N , 41-C ) :   0.8803 B( 40-N , 43-C ) :   1.1132 B( 41-C , 42-C ) :   0.9462
B( 41-C , 94-H ) :   0.9785 B( 41-C , 95-H ) :   0.9661 B( 42-C , 71-C ) :   0.9134
B( 42-C , 73-C ) :   0.9319 B( 42-C , 96-H ) :   0.9520 B( 43-C , 44-C ) :   1.2855
B( 43-C , 47-C ) :   1.0199 B( 43-C , 48-S ) :  -0.1403 B( 44-C , 45-S ) :   1.3425
B( 45-S , 46-C ) :   1.1648 B( 45-S , 47-C ) :   0.1271 B( 46-C , 47-C ) :   1.3919
B( 46-C , 50-C ) :   1.2413 B( 47-C , 48-S ) :   1.3396 B( 48-S , 49-C ) :   1.1793
B( 48-S , 50-C ) :   0.1128 B( 49-C , 50-C ) :   1.4227 B( 49-C , 53-C ) :   1.0748
B( 50-C , 51-C ) :   0.9517 B( 51-C , 52-C ) :   0.9530 B( 51-C , 97-H ) :   0.9856
B( 51-C , 98-H ) :   0.9450 B( 52-C , 99-H ) :   0.9714 B( 52-C ,100-H ) :   0.9647
B( 52-C ,101-H ) :   0.9698 B( 53-C , 54-C ) :   1.4934 B( 53-C ,102-H ) :   0.9394
B( 54-C , 55-C ) :   1.1432 B( 54-C , 67-C ) :   1.0076 B( 54-C , 68-O ) :  -0.1221
B( 55-C , 56-C ) :   1.3862 B( 55-C , 61-C ) :   1.0321 B( 56-C , 57-C ) :   1.0298
B( 56-C , 59-C ) :   1.0534 B( 57-C , 58-N ) :   2.9838 B( 59-C , 60-N ) :   2.9620
B( 61-C , 62-C ) :   1.3599 B( 61-C , 66-C ) :   1.3227 B( 62-C , 63-C ) :   1.3746
B( 62-C ,103-H ) :   0.9260 B( 63-C , 64-C ) :   1.3714 B( 63-C ,104-H ) :   0.9745
B( 64-C , 65-C ) :   1.3620 B( 64-C , 69-F ) :   1.0362 B( 65-C , 66-C ) :   1.3050
B( 65-C ,105-H ) :   0.9919 B( 66-C , 67-C ) :   0.9558 B( 66-C , 68-O ) :  -0.1347
B( 67-C , 68-O ) :   2.1479 B( 71-C , 72-C ) :   0.9709 B( 71-C ,106-H ) :   0.9705
B( 71-C ,107-H ) :   0.9569 B( 72-C ,108-H ) :   0.9727 B( 72-C ,109-H ) :   0.9740
B( 72-C ,110-H ) :   0.9746 B( 73-C ,111-H ) :   0.9718 B( 73-C ,112-H ) :   0.9778
B( 73-C ,113-H ) :   0.9760 B( 74-C , 75-C ) :   0.9800 B( 74-C ,114-H ) :   0.9695
B( 74-C ,115-H ) :   0.9563 B( 75-C ,116-H ) :   0.9717 B( 75-C ,117-H ) :   0.9737
B( 75-C ,118-H ) :   0.9734 B( 76-C ,119-H ) :   0.9726 B( 76-C ,120-H ) :   0.9782
B( 76-C ,121-H ) :   0.9732

-----------------------------------------------------------------------------
  SOC CORRECTED ABSORPTION SPECTRUM VIA TRANSITION ELECTRIC DIPOLE MOMENTS*
-----------------------------------------------------------------------------
State   Energy  Wavelength   fosc         T2         TX        TY        TZ
        (cm-1)    (nm)                  (au**2)     (au)      (au)      (au)
-----------------------------------------------------------------------------
   1   10697.6    934.8   0.000000006   0.00000   0.00016   0.00037   0.00005
   2   10697.6    934.8   0.000000001   0.00000   0.00009   0.00014   0.00002
   3   10697.6    934.8   0.000000047   0.00000   0.00059   0.00102   0.00022
   4   12505.2    799.7   0.000000026   0.00000   0.00051   0.00066   0.00007
   5   12505.2    799.7   0.000000002   0.00000   0.00012   0.00021   0.00003
   6   12505.2    799.7   0.000000048   0.00000   0.00052   0.00098   0.00019
   7   14785.9    676.3   2.230095427  49.65355   4.23025   5.61911   0.42909
   8   16393.5    610.0   0.000000257   0.00001   0.00167   0.00154   0.00008
   9   16393.5    610.0   0.000000001   0.00000   0.00011   0.00012   0.00000
  10   16393.5    610.0   0.000000394   0.00001   0.00135   0.00240   0.00056
  11   16933.1    590.6   0.344901264   6.70556   2.18275   1.34733   0.35482
  12   18327.9    545.6   0.010850582   0.19490   0.19986   0.21904   0.32707

FINAL SINGLE POINT ENERGY     -4748.151701824732

DIPOLE MOMENT
-------------
                                X             Y             Z
Electronic contribution:     16.16843     -17.68461     -21.77860
Nuclear contribution   :    -18.07379      17.27343      21.06537
                        -----------------------------------------
Total Dipole Moment    :     -1.90536      -0.41117      -0.71323
                        -----------------------------------------
Magnitude (a.u.)       :      2.07561
Magnitude (Debye)      :      5.27578

Rotational constants in cm-1:     0.001606     0.000272     0.000244
Rotational constants in MHz :    48.157021     8.166577     7.301503

                             ****ORCA TERMINATED NORMALLY****
TOTAL RUN TIME: 0 days 3 hours 26 minutes 5 seconds 31 msec
