                         Program Version 4.2.0 -  RELEASE  -
|  1> # ORCA input file
|  2> # Y15.out
|  3> ! B3LYP def2-TZVP def2/J RIJCOSX Grid4 TightSCF
|  4>
|  5> %maxcore 2000
|  6> %tddft
|  7>   maxdim 5
|  8>   nroots 3
|  9>   dosoc true
| 10>   end
| 11>
| 12>
| 13>
| 14> * xyz 0 1
| 15>    C        4.80123         3.56747         0.79132
| 16>    O        6.00162         3.68995         0.61660
| 17>    C        3.85957         4.64994         1.13971
| 18>    C        4.12006         5.99036         1.33294
| 19>    C        3.05910         6.82546         1.66139
| 20>   Cl        3.34002         8.50131         1.91118
| 21>    C        1.76723         6.30556         1.78877
| 22>   Cl        0.46413         7.34795         2.19539
| 23>    C        1.51062         4.95205         1.59252
| 24>    C        2.56523         4.11666         1.26549
| 25>    C        2.62142         2.67784         1.00425
| 26>    C        1.54517         1.82764         1.05133
| 27>    C        1.57771         0.43856         0.81068
| 28>    N        1.51848        -0.69508         0.63207
| 29>    C        0.22962         2.23448         1.35868
| 30>    N       -0.86236         2.49418         1.59907
| 31>    C        3.99995         2.34666         0.70822
| 32>    C        4.46588         1.08669         0.40603
| 33>    C        5.75357         0.62728         0.12545
| 34>    S        7.20304         1.63366         0.09494
| 35>    C        8.16619         0.25257        -0.27180
| 36>    C        7.39315        -0.92019        -0.37189
| 37>    C        6.03910        -0.72518        -0.15054
| 38>    C        5.03366        -1.82429        -0.25731
| 39>    C        4.38810        -1.83632        -1.64603
| 40>    S        8.33309        -2.35516        -0.73693
| 41>    C        9.76362        -1.37871        -0.75188
| 42>    C        9.51681        -0.01309        -0.49024
| 43>    N       10.68799         0.68073        -0.53725
| 44>    C       10.77719         2.09846        -0.29499
| 45>    C       10.56125         2.42912         1.18003
| 46>    C       11.69391        -0.20698        -0.84760
| 47>    C       11.12727        -1.51868        -0.98185
| 48>    C       11.96068        -2.64338        -1.22637
| 49>    N       11.69649        -3.94870        -1.20287
| 50>    N       12.83628        -4.51966        -1.49010
| 51>    C       13.01474        -5.94710        -1.48103
| 52>    C       11.67815        -6.66602        -1.50197
| 53>    N       13.84640        -3.70681        -1.71478
| 54>    C       13.33593        -2.49514        -1.53677
| 55>    C       13.87884        -1.16284        -1.67335
| 56>    C       13.04642        -0.04549        -1.13751
| 57>    N       14.15011         0.70298        -0.84935
| 58>    C       14.44276         2.05984        -0.48294
| 59>    C       14.39412         2.26461         1.02938
| 60>    C       15.05897        -0.33107        -1.15198
| 61>    C       14.67089        -0.79547        -2.92755
| 62>    S       14.33384         0.75598        -3.72639
| 63>    C       16.01066         0.92178        -3.18828
| 64>    C       16.00416        -0.27673        -2.35737
| 65>    S       17.48758        -1.21990        -2.01176
| 66>    C       17.13388         0.30464        -5.02709
| 67>    C       17.00397         1.32766        -4.21002
| 68>    C       17.56241         2.70188        -4.29805
| 69>    C       18.42095         2.89140        -5.54093
| 70>    C       16.75325        -0.87702        -5.39497
| 71>    C       16.26827        -2.01011        -5.62267
| 72>    C       14.98629        -5.22562        -5.15606
| 73>    C       15.21723        -6.57281        -4.99651
| 74>    C       14.18935        -7.46953        -4.67027
| 75>    N       13.36756        -8.21825        -4.37895
| 76>    C       16.50626        -7.12165        -5.13656
| 77>    N       17.54967        -7.58348        -5.25471
| 78>    C       13.75673        -4.48208        -5.05060
| 79>    C       12.46410        -4.82603        -4.67575
| 80>    C       11.53894        -3.80847        -4.51943
| 81>   Cl        9.94437        -4.18256        -3.99483
| 82>    C       11.88842        -2.46872        -4.76322
| 83>   Cl       10.73430        -1.22836        -4.47224
| 84>    C       13.14818        -2.12450        -5.21165
| 85>    C       14.08758        -3.14067        -5.34406
| 86>    C       15.50348        -3.10616        -5.55256
| 87>    O       15.99821        -4.38029        -5.43553
| 88>    H        5.12152         6.37759         1.23182
| 89>    H        0.50146         4.59021         1.70005
| 90>    H        3.72002         0.30434         0.38300
| 91>    H        4.25691        -1.72304         0.50196
| 92>    H        5.54816        -2.77369        -0.09596
| 93>    H        3.87124        -0.89924        -1.83941
| 94>    H        3.66693        -2.64602        -1.70851
| 95>    H        5.14468        -1.98117        -2.41369
| 96>    H       10.00945         2.60058        -0.89274
| 97>    H       11.75658         2.43833        -0.62921
| 98>    H       11.22336         1.83827         1.80946
| 99>    H        9.53489         2.21992         1.46835
|100>    H       10.75659         3.48339         1.35266
|101>    H       13.58004        -6.21552        -0.58146
|102>    H       13.62357        -6.21172        -2.34859
|103>    H       11.12116        -6.45766        -0.59326
|104>    H       11.84680        -7.73525        -1.58626
|105>    H       11.08037        -6.33818        -2.34678
|106>    H       13.75068         2.73718        -0.99287
|107>    H       15.45252         2.27280        -0.84649
|108>    H       13.41200         2.01851         1.42169
|109>    H       14.61775         3.30029         1.26890
|110>    H       15.12949         1.62601         1.51245
|111>    H       18.15153         2.89368        -3.39474
|112>    H       16.73107         3.41447        -4.29500
|113>    H       19.25172         2.18913        -5.53875
|114>    H       18.82118         3.90131        -5.57336
|115>    H       17.83104         2.72256        -6.43903
|116>    H       17.96920        -1.21602        -3.25338
|117>    H       12.18422        -5.84991        -4.48914
|118>    H       13.39608        -1.10080        -5.43566
|119> *
|120>
|121>                          ****END OF INPUT****

CARTESIAN COORDINATES (ANGSTROEM)
---------------------------------
  C      4.801230    3.567470    0.791320
  O      6.001620    3.689950    0.616600
  C      3.859570    4.649940    1.139710
  C      4.120060    5.990360    1.332940
  C      3.059100    6.825460    1.661390
  Cl     3.340020    8.501310    1.911180
  C      1.767230    6.305560    1.788770
  Cl     0.464130    7.347950    2.195390
  C      1.510620    4.952050    1.592520
  C      2.565230    4.116660    1.265490
  C      2.621420    2.677840    1.004250
  C      1.545170    1.827640    1.051330
  C      1.577710    0.438560    0.810680
  N      1.518480   -0.695080    0.632070
  C      0.229620    2.234480    1.358680
  N     -0.862360    2.494180    1.599070
  C      3.999950    2.346660    0.708220
  C      4.465880    1.086690    0.406030
  C      5.753570    0.627280    0.125450
  S      7.203040    1.633660    0.094940
  C      8.166190    0.252570   -0.271800
  C      7.393150   -0.920190   -0.371890
  C      6.039100   -0.725180   -0.150540
  C      5.033660   -1.824290   -0.257310
  C      4.388100   -1.836320   -1.646030
  S      8.333090   -2.355160   -0.736930
  C      9.763620   -1.378710   -0.751880
  C      9.516810   -0.013090   -0.490240
  N     10.687990    0.680730   -0.537250
  C     10.777190    2.098460   -0.294990
  C     10.561250    2.429120    1.180030
  C     11.693910   -0.206980   -0.847600
  C     11.127270   -1.518680   -0.981850
  C     11.960680   -2.643380   -1.226370
  N     11.696490   -3.948700   -1.202870
  N     12.836280   -4.519660   -1.490100
  C     13.014740   -5.947100   -1.481030
  C     11.678150   -6.666020   -1.501970
  N     13.846400   -3.706810   -1.714780
  C     13.335930   -2.495140   -1.536770
  C     13.878840   -1.162840   -1.673350
  C     13.046420   -0.045490   -1.137510
  N     14.150110    0.702980   -0.849350
  C     14.442760    2.059840   -0.482940
  C     14.394120    2.264610    1.029380
  C     15.058970   -0.331070   -1.151980
  C     14.670890   -0.795470   -2.927550
  S     14.333840    0.755980   -3.726390
  C     16.010660    0.921780   -3.188280
  C     16.004160   -0.276730   -2.357370
  S     17.487580   -1.219900   -2.011760
  C     17.133880    0.304640   -5.027090
  C     17.003970    1.327660   -4.210020
  C     17.562410    2.701880   -4.298050
  C     18.420950    2.891400   -5.540930
  C     16.753250   -0.877020   -5.394970
  C     16.268270   -2.010110   -5.622670
  C     14.986290   -5.225620   -5.156060
  C     15.217230   -6.572810   -4.996510
  C     14.189350   -7.469530   -4.670270
  N     13.367560   -8.218250   -4.378950
  C     16.506260   -7.121650   -5.136560
  N     17.549670   -7.583480   -5.254710
  C     13.756730   -4.482080   -5.050600
  C     12.464100   -4.826030   -4.675750
  C     11.538940   -3.808470   -4.519430
  Cl     9.944370   -4.182560   -3.994830
  C     11.888420   -2.468720   -4.763220
  Cl    10.734300   -1.228360   -4.472240
  C     13.148180   -2.124500   -5.211650
  C     14.087580   -3.140670   -5.344060
  C     15.503480   -3.106160   -5.552560
  O     15.998210   -4.380290   -5.435530
  H      5.121520    6.377590    1.231820
  H      0.501460    4.590210    1.700050
  H      3.720020    0.304340    0.383000
  H      4.256910   -1.723040    0.501960
  H      5.548160   -2.773690   -0.095960
  H      3.871240   -0.899240   -1.839410
  H      3.666930   -2.646020   -1.708510
  H      5.144680   -1.981170   -2.413690
  H     10.009450    2.600580   -0.892740
  H     11.756580    2.438330   -0.629210
  H     11.223360    1.838270    1.809460
  H      9.534890    2.219920    1.468350
  H     10.756590    3.483390    1.352660
  H     13.580040   -6.215520   -0.581460
  H     13.623570   -6.211720   -2.348590
  H     11.121160   -6.457660   -0.593260
  H     11.846800   -7.735250   -1.586260
  H     11.080370   -6.338180   -2.346780
  H     13.750680    2.737180   -0.992870
  H     15.452520    2.272800   -0.846490
  H     13.412000    2.018510    1.421690
  H     14.617750    3.300290    1.268900
  H     15.129490    1.626010    1.512450
  H     18.151530    2.893680   -3.394740
  H     16.731070    3.414470   -4.295000
  H     19.251720    2.189130   -5.538750
  H     18.821180    3.901310   -5.573360
  H     17.831040    2.722560   -6.439030
  H     17.969200   -1.216020   -3.253380
  H     12.184220   -5.849910   -4.489140
  H     13.396080   -1.100800   -5.435660

 Total Charge           Charge          ....    0
 Multiplicity           Mult            ....    1
 Number of Electrons    NEL             ....  566
 Basis Dimension        Dim             .... 2497

ORBITAL ENERGIES
----------------

  NO   OCC          E(Eh)            E(eV)
   0   2.0000    -101.554689     -2763.4436
   1   2.0000    -101.552626     -2763.3875
   2   2.0000    -101.550051     -2763.3174
   3   2.0000    -101.548296     -2763.2696
   4   2.0000     -88.909670     -2419.3551
   5   2.0000     -88.908710     -2419.3290
   6   2.0000     -88.895963     -2418.9821
   7   2.0000     -88.860639     -2418.0209
   8   2.0000     -19.231258      -523.3091
   9   2.0000     -19.143215      -520.9134
  10   2.0000     -14.443190      -393.0192
  11   2.0000     -14.410650      -392.1337
  12   2.0000     -14.403964      -391.9518
  13   2.0000     -14.361488      -390.7960
  14   2.0000     -14.359701      -390.7473
  15   2.0000     -14.335180      -390.0801
  16   2.0000     -14.329128      -389.9154
  17   2.0000     -14.327461      -389.8700
  18   2.0000     -14.315820      -389.5533
  19   2.0000     -10.304388      -280.3966
  20   2.0000     -10.285032      -279.8699
  21   2.0000     -10.283266      -279.8219
  22   2.0000     -10.275773      -279.6180
  23   2.0000     -10.275064      -279.5987
  24   2.0000     -10.274474      -279.5827
  25   2.0000     -10.272122      -279.5187
  26   2.0000     -10.265884      -279.3489
  27   2.0000     -10.260290      -279.1967
  28   2.0000     -10.259286      -279.1694
  29   2.0000     -10.259261      -279.1687
  30   2.0000     -10.257725      -279.1269
  31   2.0000     -10.254369      -279.0356
  32   2.0000     -10.251057      -278.9455
  33   2.0000     -10.250628      -278.9338
  34   2.0000     -10.250251      -278.9235
  35   2.0000     -10.246238      -278.8143
  36   2.0000     -10.240162      -278.6490
  37   2.0000     -10.239152      -278.6215
  38   2.0000     -10.238649      -278.6078
  39   2.0000     -10.236851      -278.5589
  40   2.0000     -10.235931      -278.5338
  41   2.0000     -10.234422      -278.4928
  42   2.0000     -10.233721      -278.4737
  43   2.0000     -10.233623      -278.4710
  44   2.0000     -10.232991      -278.4538
  45   2.0000     -10.232725      -278.4466
  46   2.0000     -10.231396      -278.4104
  47   2.0000     -10.230330      -278.3814
  48   2.0000     -10.229265      -278.3525
  49   2.0000     -10.227879      -278.3147
  50   2.0000     -10.227785      -278.3122
  51   2.0000     -10.227258      -278.2978
  52   2.0000     -10.227149      -278.2949
  53   2.0000     -10.225382      -278.2468
  54   2.0000     -10.224552      -278.2242
  55   2.0000     -10.223808      -278.2040
  56   2.0000     -10.223677      -278.2004
  57   2.0000     -10.222817      -278.1770
  58   2.0000     -10.222303      -278.1630
  59   2.0000     -10.222233      -278.1611
  60   2.0000     -10.221809      -278.1496
  61   2.0000     -10.221367      -278.1375
  62   2.0000     -10.219267      -278.0804
  63   2.0000     -10.218324      -278.0547
  64   2.0000     -10.216522      -278.0057
  65   2.0000     -10.214573      -277.9527
  66   2.0000     -10.201989      -277.6102
  67   2.0000     -10.198908      -277.5264
  68   2.0000     -10.196837      -277.4700
  69   2.0000     -10.193914      -277.3905
  70   2.0000     -10.177023      -276.9309
  71   2.0000     -10.176378      -276.9133
  72   2.0000     -10.169526      -276.7269
  73   2.0000      -9.487438      -258.1663
  74   2.0000      -9.485200      -258.1054
  75   2.0000      -9.482637      -258.0357
  76   2.0000      -9.480971      -257.9903
  77   2.0000      -7.985413      -217.2941
  78   2.0000      -7.983741      -217.2486
  79   2.0000      -7.972623      -216.9461
  80   2.0000      -7.938765      -216.0248
  81   2.0000      -7.249013      -197.2557
  82   2.0000      -7.246846      -197.1967
  83   2.0000      -7.244302      -197.1275
  84   2.0000      -7.242687      -197.0835
  85   2.0000      -7.240730      -197.0303
  86   2.0000      -7.239993      -197.0102
  87   2.0000      -7.238489      -196.9693
  88   2.0000      -7.237698      -196.9478
  89   2.0000      -7.235910      -196.8991
  90   2.0000      -7.235108      -196.8773
  91   2.0000      -7.234126      -196.8506
  92   2.0000      -7.233528      -196.8343
  93   2.0000      -5.948425      -161.8649
  94   2.0000      -5.946744      -161.8191
  95   2.0000      -5.944701      -161.7635
  96   2.0000      -5.942414      -161.7013
  97   2.0000      -5.941018      -161.6633
  98   2.0000      -5.939781      -161.6297
  99   2.0000      -5.935238      -161.5060
 100   2.0000      -5.931661      -161.4087
 101   2.0000      -5.928667      -161.3272
 102   2.0000      -5.901890      -160.5986
 103   2.0000      -5.898023      -160.4934
 104   2.0000      -5.893633      -160.3739
 105   2.0000      -1.160323       -31.5740
 106   2.0000      -1.136354       -30.9218
 107   2.0000      -1.073800       -29.2196
 108   2.0000      -1.058334       -28.7987
 109   2.0000      -1.042968       -28.3806
 110   2.0000      -0.954040       -25.9607
 111   2.0000      -0.949586       -25.8395
 112   2.0000      -0.944913       -25.7124
 113   2.0000      -0.938656       -25.5421
 114   2.0000      -0.937105       -25.4999
 115   2.0000      -0.934882       -25.4394
 116   2.0000      -0.927880       -25.2489
 117   2.0000      -0.917080       -24.9550
 118   2.0000      -0.915983       -24.9252
 119   2.0000      -0.914978       -24.8978
 120   2.0000      -0.903550       -24.5868
 121   2.0000      -0.888845       -24.1867
 122   2.0000      -0.885749       -24.1025
 123   2.0000      -0.885556       -24.0972
 124   2.0000      -0.883768       -24.0486
 125   2.0000      -0.873652       -23.7733
 126   2.0000      -0.864762       -23.5314
 127   2.0000      -0.861253       -23.4359
 128   2.0000      -0.855604       -23.2822
 129   2.0000      -0.841583       -22.9006
 130   2.0000      -0.827727       -22.5236
 131   2.0000      -0.824698       -22.4412
 132   2.0000      -0.824273       -22.4296
 133   2.0000      -0.806480       -21.9454
 134   2.0000      -0.798785       -21.7360
 135   2.0000      -0.795747       -21.6534
 136   2.0000      -0.792304       -21.5597
 137   2.0000      -0.789992       -21.4968
 138   2.0000      -0.789288       -21.4776
 139   2.0000      -0.781426       -21.2637
 140   2.0000      -0.774060       -21.0632
 141   2.0000      -0.771544       -20.9948
 142   2.0000      -0.757488       -20.6123
 143   2.0000      -0.752564       -20.4783
 144   2.0000      -0.741646       -20.1812
 145   2.0000      -0.732180       -19.9236
 146   2.0000      -0.727307       -19.7910
 147   2.0000      -0.703038       -19.1306
 148   2.0000      -0.700413       -19.0592
 149   2.0000      -0.697202       -18.9718
 150   2.0000      -0.694030       -18.8855
 151   2.0000      -0.690957       -18.8019
 152   2.0000      -0.678724       -18.4690
 153   2.0000      -0.672565       -18.3014
 154   2.0000      -0.667293       -18.1580
 155   2.0000      -0.656441       -17.8627
 156   2.0000      -0.653183       -17.7740
 157   2.0000      -0.652301       -17.7500
 158   2.0000      -0.649836       -17.6829
 159   2.0000      -0.636891       -17.3307
 160   2.0000      -0.628742       -17.1089
 161   2.0000      -0.626591       -17.0504
 162   2.0000      -0.624436       -16.9918
 163   2.0000      -0.618564       -16.8320
 164   2.0000      -0.603486       -16.4217
 165   2.0000      -0.601995       -16.3811
 166   2.0000      -0.595874       -16.2145
 167   2.0000      -0.589480       -16.0406
 168   2.0000      -0.582890       -15.8612
 169   2.0000      -0.581449       -15.8220
 170   2.0000      -0.570897       -15.5349
 171   2.0000      -0.560771       -15.2594
 172   2.0000      -0.557058       -15.1583
 173   2.0000      -0.554932       -15.1005
 174   2.0000      -0.549565       -14.9544
 175   2.0000      -0.544373       -14.8131
 176   2.0000      -0.541251       -14.7282
 177   2.0000      -0.533038       -14.5047
 178   2.0000      -0.530840       -14.4449
 179   2.0000      -0.528818       -14.3899
 180   2.0000      -0.527580       -14.3562
 181   2.0000      -0.521079       -14.1793
 182   2.0000      -0.519923       -14.1478
 183   2.0000      -0.514027       -13.9874
 184   2.0000      -0.511633       -13.9223
 185   2.0000      -0.509413       -13.8618
 186   2.0000      -0.502084       -13.6624
 187   2.0000      -0.497464       -13.5367
 188   2.0000      -0.493567       -13.4306
 189   2.0000      -0.489494       -13.3198
 190   2.0000      -0.487362       -13.2618
 191   2.0000      -0.486215       -13.2306
 192   2.0000      -0.485083       -13.1998
 193   2.0000      -0.482063       -13.1176
 194   2.0000      -0.480626       -13.0785
 195   2.0000      -0.479222       -13.0403
 196   2.0000      -0.478590       -13.0231
 197   2.0000      -0.476270       -12.9600
 198   2.0000      -0.471461       -12.8291
 199   2.0000      -0.468650       -12.7526
 200   2.0000      -0.464774       -12.6471
 201   2.0000      -0.462222       -12.5777
 202   2.0000      -0.458468       -12.4755
 203   2.0000      -0.457307       -12.4440
 204   2.0000      -0.451693       -12.2912
 205   2.0000      -0.447875       -12.1873
 206   2.0000      -0.443266       -12.0619
 207   2.0000      -0.442455       -12.0398
 208   2.0000      -0.439112       -11.9489
 209   2.0000      -0.433851       -11.8057
 210   2.0000      -0.432779       -11.7765
 211   2.0000      -0.431479       -11.7411
 212   2.0000      -0.428162       -11.6509
 213   2.0000      -0.425777       -11.5860
 214   2.0000      -0.424024       -11.5383
 215   2.0000      -0.422520       -11.4974
 216   2.0000      -0.419613       -11.4183
 217   2.0000      -0.418574       -11.3900
 218   2.0000      -0.417507       -11.3610
 219   2.0000      -0.416525       -11.3342
 220   2.0000      -0.415738       -11.3128
 221   2.0000      -0.410761       -11.1774
 222   2.0000      -0.406631       -11.0650
 223   2.0000      -0.406185       -11.0529
 224   2.0000      -0.405842       -11.0435
 225   2.0000      -0.400423       -10.8961
 226   2.0000      -0.395815       -10.7707
 227   2.0000      -0.394505       -10.7350
 228   2.0000      -0.391983       -10.6664
 229   2.0000      -0.391470       -10.6525
 230   2.0000      -0.390586       -10.6284
 231   2.0000      -0.386866       -10.5272
 232   2.0000      -0.385276       -10.4839
 233   2.0000      -0.384408       -10.4603
 234   2.0000      -0.382939       -10.4203
 235   2.0000      -0.382121       -10.3981
 236   2.0000      -0.379544       -10.3279
 237   2.0000      -0.379034       -10.3141
 238   2.0000      -0.376980       -10.2581
 239   2.0000      -0.375707       -10.2235
 240   2.0000      -0.372542       -10.1374
 241   2.0000      -0.372105       -10.1255
 242   2.0000      -0.371107       -10.0983
 243   2.0000      -0.370815       -10.0904
 244   2.0000      -0.370308       -10.0766
 245   2.0000      -0.368746       -10.0341
 246   2.0000      -0.366583        -9.9752
 247   2.0000      -0.365617        -9.9489
 248   2.0000      -0.363047        -9.8790
 249   2.0000      -0.360686        -9.8148
 250   2.0000      -0.359759        -9.7895
 251   2.0000      -0.356314        -9.6958
 252   2.0000      -0.355924        -9.6852
 253   2.0000      -0.353192        -9.6108
 254   2.0000      -0.349358        -9.5065
 255   2.0000      -0.346721        -9.4348
 256   2.0000      -0.344829        -9.3833
 257   2.0000      -0.343531        -9.3480
 258   2.0000      -0.341988        -9.3060
 259   2.0000      -0.334612        -9.1053
 260   2.0000      -0.332550        -9.0491
 261   2.0000      -0.327373        -8.9083
 262   2.0000      -0.326703        -8.8900
 263   2.0000      -0.324369        -8.8265
 264   2.0000      -0.318938        -8.6787
 265   2.0000      -0.311582        -8.4786
 266   2.0000      -0.310598        -8.4518
 267   2.0000      -0.304825        -8.2947
 268   2.0000      -0.293626        -7.9900
 269   2.0000      -0.291166        -7.9230
 270   2.0000      -0.287914        -7.8345
 271   2.0000      -0.286726        -7.8022
 272   2.0000      -0.282240        -7.6802
 273   2.0000      -0.278769        -7.5857
 274   2.0000      -0.267568        -7.2809
 275   2.0000      -0.265719        -7.2306
 276   2.0000      -0.264657        -7.2017
 277   2.0000      -0.257378        -7.0036
 278   2.0000      -0.243637        -6.6297
 279   2.0000      -0.241612        -6.5746
 280   2.0000      -0.235008        -6.3949
 281   2.0000      -0.216623        -5.8946
 282   2.0000      -0.202077        -5.4988
 283   0.0000      -0.141820        -3.8591
 284   0.0000      -0.127243        -3.4625
 285   0.0000      -0.116254        -3.1634
 286   0.0000      -0.102364        -2.7855
 287   0.0000      -0.093807        -2.5526

MULLIKEN ATOMIC CHARGES
-----------------------
   0 C :    0.196009
   1 O :   -0.344930
   2 C :    0.110197
   3 C :   -0.325917
   4 C :    0.173121
   5 Cl:   -0.058241
   6 C :    0.114448
   7 Cl:   -0.045147
   8 C :   -0.259689
   9 C :    0.102439
  10 C :   -0.024153
  11 C :    0.149399
  12 C :   -0.197596
  13 N :    0.021576
  14 C :   -0.227935
  15 N :    0.046459
  16 C :   -0.063857
  17 C :   -0.129451
  18 C :    0.073511
  19 S :    0.036105
  20 C :   -0.225830
  21 C :    0.034404
  22 C :    0.028227
  23 C :   -0.211795
  24 C :   -0.321386
  25 S :    0.010731
  26 C :   -0.124273
  27 C :    0.374094
  28 N :   -0.036675
  29 C :   -0.163793
  30 C :   -0.328994
  31 C :   -0.003907
  32 C :   -0.068797
  33 C :    0.081926
  34 N :   -0.250079
  35 N :    0.300173
  36 C :   -0.125090
  37 C :   -0.297601
  38 N :   -0.224244
  39 C :   -0.177374
  40 C :    0.013714
  41 C :   -0.029564
  42 N :    0.012345
  43 C :   -0.178034
  44 C :   -0.293684
  45 C :    0.103885
  46 C :    0.264514
  47 S :   -0.075334
  48 C :    0.119061
  49 C :   -0.182515
  50 S :   -0.125992
  51 C :    0.048973
  52 C :   -0.179194
  53 C :   -0.136840
  54 C :   -0.331210
  55 C :   -0.122105
  56 C :    0.054705
  57 C :    0.238265
  58 C :    0.139878
  59 C :   -0.228851
  60 N :    0.018843
  61 C :   -0.266985
  62 N :    0.053605
  63 C :    0.066775
  64 C :   -0.400711
  65 C :    0.143477
  66 Cl:   -0.056729
  67 C :    0.203088
  68 Cl:   -0.072504
  69 C :   -0.332885
  70 C :    0.113002
  71 C :    0.129847
  72 O :   -0.221129
  73 H :    0.133485
  74 H :    0.159733
  75 H :    0.141837
  76 H :    0.131491
  77 H :    0.106747
  78 H :    0.115634
  79 H :    0.124646
  80 H :    0.116135
  81 H :    0.131281
  82 H :    0.110947
  83 H :    0.119258
  84 H :    0.140483
  85 H :    0.121155
  86 H :    0.115723
  87 H :    0.131693
  88 H :    0.118724
  89 H :    0.133680
  90 H :    0.108104
  91 H :    0.120637
  92 H :    0.142726
  93 H :    0.095919
  94 H :    0.117070
  95 H :    0.131981
  96 H :    0.106918
  97 H :    0.100290
  98 H :    0.118271
  99 H :    0.116571
 100 H :    0.114615
 101 H :    0.136824
 102 H :    0.181563
 103 H :    0.150087
Sum of atomic charges:   -0.0000000

LOEWDIN ATOMIC CHARGES
----------------------
   0 C :   -0.256403
   1 O :    0.113883
   2 C :   -0.057619
   3 C :   -0.074965
   4 C :   -0.431824
   5 Cl:    0.447148
   6 C :   -0.428012
   7 Cl:    0.453555
   8 C :   -0.075534
   9 C :   -0.041824
  10 C :    0.009910
  11 C :   -0.135371
  12 C :   -0.167178
  13 N :    0.079265
  14 C :   -0.164715
  15 N :    0.084922
  16 C :   -0.090276
  17 C :   -0.053339
  18 C :   -0.295860
  19 S :    0.791407
  20 C :   -0.337414
  21 C :   -0.319092
  22 C :   -0.128734
  23 C :   -0.230155
  24 C :   -0.281560
  25 S :    0.747537
  26 C :   -0.289852
  27 C :   -0.175614
  28 N :    0.305591
  29 C :   -0.255893
  30 C :   -0.292745
  31 C :   -0.113036
  32 C :   -0.080737
  33 C :   -0.216636
  34 N :    0.101810
  35 N :    0.134047
  36 C :   -0.268252
  37 C :   -0.296570
  38 N :    0.107337
  39 C :   -0.189133
  40 C :   -0.154072
  41 C :   -0.088148
  42 N :    0.295635
  43 C :   -0.286564
  44 C :   -0.289449
  45 C :   -0.113395
  46 C :   -0.258721
  47 S :    0.708753
  48 C :   -0.270855
  49 C :   -0.494135
  50 S :    0.395845
  51 C :   -0.007487
  52 C :   -0.170755
  53 C :   -0.237718
  54 C :   -0.288442
  55 C :   -0.052300
  56 C :    0.013351
  57 C :   -0.113486
  58 C :   -0.159748
  59 C :   -0.174952
  60 N :    0.075133
  61 C :   -0.160999
  62 N :    0.088310
  63 C :   -0.064697
  64 C :   -0.082733
  65 C :   -0.439651
  66 Cl:    0.464054
  67 C :   -0.434002
  68 Cl:    0.464999
  69 C :   -0.085958
  70 C :   -0.058253
  71 C :   -0.179100
  72 O :    0.410826
  73 H :    0.158796
  74 H :    0.165249
  75 H :    0.178301
  76 H :    0.147700
  77 H :    0.143686
  78 H :    0.120590
  79 H :    0.124713
  80 H :    0.120217
  81 H :    0.142415
  82 H :    0.136348
  83 H :    0.118529
  84 H :    0.119273
  85 H :    0.125880
  86 H :    0.140860
  87 H :    0.142739
  88 H :    0.122726
  89 H :    0.128659
  90 H :    0.115510
  91 H :    0.129933
  92 H :    0.148294
  93 H :    0.115203
  94 H :    0.123748
  95 H :    0.126165
  96 H :    0.151006
  97 H :    0.147902
  98 H :    0.124401
  99 H :    0.119225
 100 H :    0.123262
 101 H :    0.045028
 102 H :    0.163469
 103 H :    0.150820

  Mayer bond orders larger than 0.100000
B(  0-C ,  1-O ) :   2.0157 B(  0-C ,  2-C ) :   1.0495 B(  0-C , 16-C ) :   1.0219
B(  1-O ,  2-C ) :  -0.1610 B(  2-C ,  3-C ) :   1.3841 B(  2-C ,  9-C ) :   1.3388
B(  3-C ,  4-C ) :   1.3381 B(  3-C ,  5-Cl) :   0.1024 B(  3-C , 73-H ) :   0.9870
B(  4-C ,  5-Cl) :   1.0426 B(  4-C ,  6-C ) :   1.2658 B(  6-C ,  7-Cl) :   1.1066
B(  6-C ,  8-C ) :   1.3706 B(  8-C ,  9-C ) :   1.4276 B(  8-C , 74-H ) :   0.9178
B(  9-C , 10-C ) :   1.0571 B( 10-C , 11-C ) :   1.4594 B( 10-C , 16-C ) :   1.1652
B( 11-C , 12-C ) :   1.0643 B( 11-C , 14-C ) :   1.0284 B( 12-C , 13-N ) :   2.9089
B( 14-C , 15-N ) :   2.9782 B( 16-C , 17-C ) :   1.4042 B( 17-C , 18-C ) :   1.3025
B( 17-C , 75-H ) :   0.8514 B( 18-C , 19-S ) :   1.2856 B( 18-C , 22-C ) :   1.2779
B( 19-S , 20-C ) :   1.4331 B( 19-S , 27-C ) :  -0.1697 B( 20-C , 21-C ) :   1.2655
B( 20-C , 27-C ) :   1.0831 B( 21-C , 22-C ) :   1.3639 B( 21-C , 25-S ) :   1.1959
B( 22-C , 23-C ) :   0.9522 B( 23-C , 24-C ) :   0.9626 B( 23-C , 76-H ) :   0.9508
B( 23-C , 77-H ) :   0.9709 B( 24-C , 78-H ) :   0.9741 B( 24-C , 79-H ) :   0.9729
B( 24-C , 80-H ) :   0.9712 B( 25-S , 26-C ) :   1.3541 B( 26-C , 27-C ) :   1.2051
B( 26-C , 32-C ) :   1.1889 B( 27-C , 28-N ) :   1.1462 B( 28-N , 29-C ) :   0.9008
B( 28-N , 31-C ) :   1.2245 B( 29-C , 30-C ) :   0.9557 B( 29-C , 81-H ) :   0.9618
B( 29-C , 82-H ) :   0.9537 B( 30-C , 83-H ) :   0.9668 B( 30-C , 84-H ) :   0.9633
B( 30-C , 85-H ) :   0.9683 B( 31-C , 32-C ) :   1.1592 B( 31-C , 41-C ) :   1.3112
B( 32-C , 33-C ) :   1.0457 B( 33-C , 34-N ) :   1.4858 B( 33-C , 39-C ) :   1.2879
B( 34-N , 35-N ) :   1.1540 B( 34-N , 38-N ) :   0.1059 B( 35-N , 36-C ) :   0.8906
B( 35-N , 38-N ) :   1.0974 B( 36-C , 37-C ) :   0.9829 B( 36-C , 86-H ) :   0.9470
B( 36-C , 87-H ) :   0.9652 B( 37-C , 88-H ) :   0.9646 B( 37-C , 89-H ) :   0.9611
B( 37-C , 90-H ) :   0.9738 B( 38-N , 39-C ) :   1.5753 B( 39-C , 40-C ) :   0.9192
B( 40-C , 41-C ) :   1.0693 B( 40-C , 45-C ) :   0.7533 B( 40-C , 46-C ) :   0.9051
B( 40-C , 49-C ) :   0.1290 B( 41-C , 42-N ) :   1.2451 B( 41-C , 45-C ) :   0.1097
B( 41-C , 47-S ) :   0.1044 B( 42-N , 43-C ) :   0.8754 B( 42-N , 45-C ) :   1.0520
B( 43-C , 44-C ) :   0.9491 B( 43-C , 91-H ) :   0.9623 B( 43-C , 92-H ) :   0.9564
B( 44-C , 93-H ) :   0.9738 B( 44-C , 94-H ) :   0.9741 B( 44-C , 95-H ) :   0.9707
B( 45-C , 46-C ) :   0.1983 B( 45-C , 49-C ) :   0.8557 B( 46-C , 47-S ) :   0.9607
B( 46-C , 49-C ) :   0.7776 B( 47-S , 48-C ) :   1.0842 B( 47-S , 49-C ) :   0.1675
B( 48-C , 49-C ) :   1.1242 B( 48-C , 52-C ) :   0.9879 B( 49-C , 50-S ) :   1.0930
B( 50-S ,101-H ) :   0.9524 B( 51-C , 52-C ) :   1.6977 B( 51-C , 55-C ) :   1.7498
B( 51-C , 56-C ) :   0.2317 B( 51-C , 71-C ) :   0.1426 B( 52-C , 53-C ) :   1.0257
B( 52-C , 56-C ) :   0.1168 B( 53-C , 54-C ) :   1.0036 B( 53-C , 96-H ) :   0.9456
B( 53-C , 97-H ) :   0.9404 B( 54-C , 98-H ) :   0.9722 B( 54-C , 99-H ) :   0.9758
B( 54-C ,100-H ) :   0.9725 B( 55-C , 56-C ) :   2.1626 B( 56-C , 71-C ) :   1.5377
B( 57-C , 58-C ) :   1.4172 B( 57-C , 63-C ) :   1.1252 B( 57-C , 72-O ) :   1.1884
B( 58-C , 59-C ) :   1.0351 B( 58-C , 61-C ) :   1.0305 B( 59-C , 60-N ) :   2.9579
B( 61-C , 62-N ) :   3.0304 B( 63-C , 64-C ) :   1.3158 B( 63-C , 70-C ) :   1.2595
B( 64-C , 65-C ) :   1.3653 B( 64-C ,102-H ) :   0.9445 B( 65-C , 66-Cl) :   1.0776
B( 65-C , 67-C ) :   1.2157 B( 67-C , 68-Cl) :   1.0305 B( 67-C , 69-C ) :   1.3937
B( 69-C , 70-C ) :   1.3530 B( 69-C ,103-H ) :   0.9599 B( 70-C , 71-C ) :   1.1170
B( 71-C , 72-O ) :   1.0275

-----------------------------------------------------------------------------
  SOC CORRECTED ABSORPTION SPECTRUM VIA TRANSITION ELECTRIC DIPOLE MOMENTS*
-----------------------------------------------------------------------------
State   Energy  Wavelength   fosc         T2         TX        TY        TZ
        (cm-1)    (nm)                  (au**2)     (au)      (au)      (au)
-----------------------------------------------------------------------------
   1    6666.6   1500.0   0.000000000   0.00000   0.00009   0.00008   0.00004
   2    6666.6   1500.0   0.000000079   0.00000   0.00146   0.00012   0.00132
   3    6666.6   1500.0   0.000000562   0.00003   0.00460   0.00068   0.00248
   4    9024.1   1108.1   0.000002843   0.00010   0.00820   0.00445   0.00409
   5    9024.1   1108.1   0.000000004   0.00000   0.00002   0.00035   0.00011
   6    9024.1   1108.1   0.000001312   0.00005   0.00588   0.00293   0.00216
   7   10976.7    911.0   0.000003836   0.00012   0.00856   0.00434   0.00479
   8   10976.7    911.0   0.000000086   0.00000   0.00149   0.00027   0.00054
   9   10976.7    911.0   0.000000440   0.00001   0.00056   0.00202   0.00297
  10   11660.9    857.6   0.714747343  20.17889   3.53040   1.93715   1.99063
  11   13195.3    757.8   0.132408275   3.30349   1.23796   1.09463   0.75679
  12   14999.2    666.7   0.360508687   7.91268   2.76572   0.24970   0.44849

FINAL SINGLE POINT ENERGY     -6151.730103522782

DIPOLE MOMENT
-------------
                                X             Y             Z
Electronic contribution:    -58.24719      13.87955      -3.18333
Nuclear contribution   :     59.53947      -9.36795       3.86053
                        -----------------------------------------
Total Dipole Moment    :      1.29228       4.51161       0.67721
                        -----------------------------------------
Magnitude (a.u.)       :      4.74164
Magnitude (Debye)      :     12.05230

Rotational constants in cm-1:     0.001601     0.000363     0.000315
Rotational constants in MHz :    47.996926    10.894608     9.453128

                             ****ORCA TERMINATED NORMALLY****
TOTAL RUN TIME: 1 days 4 hours 51 minutes 43 seconds 395 msec
