                         Program Version 4.2.0 -  RELEASE  -
|  1> # ORCA input file
|  2> # Y15.out: Geometry 34
|  3> ! B3LYP def2-TZVP def2/J RIJCOSX Grid4 TightSCF
|  4>
|  5> %maxcore 6000
|  6> %tddft
|  7>   maxdim 5
|  8>   nroots 3
|  9>   dosoc true
| 10>   end
| 11> %pal
| 12>   nprocs 6
| 13>   end
| 14>
| 15>
| 16> * xyz 0 1
| 17>    C        6.50516         4.64265        -0.80217
| 18>    O        7.24309         3.73449        -1.14794
| 19>    C        6.63929         6.06734        -1.19586
| 20>    C        7.61541         6.64225        -1.99343
| 21>    C        7.55750         8.02116        -2.22366
| 22>   Cl        8.77433         8.76595        -3.20340
| 23>    C        6.51537         8.78472        -1.65479
| 24>   Cl        6.42279        10.49065        -1.94003
| 25>    C        5.53438         8.19027        -0.84900
| 26>    C        5.59695         6.81504        -0.61412
| 27>    C        4.73801         5.90186         0.18353
| 28>    C        3.61689         6.30086         0.89679
| 29>    C        2.79674         5.41120         1.65901
| 30>    N        2.11018         4.71151         2.28555
| 31>    C        3.16779         7.65706         0.94724
| 32>    N        2.77823         8.75064         1.00938
| 33>    C        5.31171         4.56286         0.06860
| 34>    C        4.82398         3.41614         0.66993
| 35>    C        5.25717         2.07732         0.74575
| 36>    S        6.75274         1.38922         0.06283
| 37>    C        6.38285        -0.14574         0.77014
| 38>    C        5.14860        -0.13549         1.46126
| 39>    C        4.51125         1.10892         1.47592
| 40>    C        3.19512         1.36233         2.15824
| 41>    C        1.99664         1.33727         1.20061
| 42>    S        4.74135        -1.69201         2.19556
| 43>    C        6.24872        -2.33739         1.59265
| 44>    C        7.00805        -1.40502         0.86994
| 45>    N        8.19680        -1.97689         0.45221
| 46>    C        8.87030        -1.39514        -0.71056
| 47>    C        8.22181        -1.76728        -2.04010
| 48>    C        8.21652        -3.29927         0.92456
| 49>    C        6.98211        -3.54115         1.62251
| 50>    C        6.71145        -4.82554         2.17655
| 51>    N        5.65010        -5.29708         2.84993
| 52>    N        5.98138        -6.55872         3.09626
| 53>    C        5.05301        -7.48067         3.73506
| 54>    C        4.23099        -8.26355         2.71788
| 55>    N        7.15681        -6.97025         2.63679
| 56>    C        7.65613        -5.87559         2.04138
| 57>    C        8.91465        -5.63179         1.41922
| 58>    C        9.22016        -4.32693         0.89258
| 59>    N       10.55794        -4.33681         0.47808
| 60>    C       11.46563        -3.24645         0.13357
| 61>    C       11.78458        -3.17044        -1.35857
| 62>    C       11.06463        -5.60036         0.70854
| 63>    C       10.07523        -6.41727         1.27745
| 64>    S       10.63841        -8.02263         1.66909
| 65>    C       12.24628        -7.57516         1.08641
| 66>    C       12.30930        -6.25307         0.59386
| 67>    S       13.88603        -5.89507         0.00068
| 68>    C       14.48408        -7.51960         0.46673
| 69>    C       13.44536        -8.30952         1.02212
| 70>    C       13.46973        -9.76590         1.38397
| 71>    C       13.83824       -10.68529         0.21662
| 72>    C       15.84319        -7.71808         0.10496
| 73>    C       16.83113        -8.58202         0.54375
| 74>    C       18.15430        -8.75055        -0.07026
| 75>    C       18.62664        -8.19857        -1.24927
| 76>    C       19.95480        -8.41946        -1.73192
| 77>    N       21.03036        -8.57865        -2.14317
| 78>    C       17.85092        -7.35329        -2.10319
| 79>    N       17.24935        -6.66286        -2.81956
| 80>    C       18.93707        -9.66322         0.80112
| 81>    C       20.23852       -10.16612         0.70972
| 82>    C       20.69653       -11.03916         1.70640
| 83>   Cl       22.31133       -11.65489         1.59234
| 84>    C       19.86916       -11.41477         2.78696
| 85>   Cl       20.43442       -12.50915         4.00113
| 86>    C       18.57545       -10.89581         2.88850
| 87>    C       18.13660       -10.03423         1.89667
| 88>    C       16.82765        -9.34103         1.82210
| 89>    O       15.99066        -9.33762         2.70718
| 90>    H        8.41093         6.03636        -2.42923
| 91>    H        4.75793         8.82600        -0.43192
| 92>    H        3.90535         3.55182         1.23386
| 93>    H        3.21217         2.33001         2.68151
| 94>    H        3.05976         0.59699         2.93859
| 95>    H        2.08774         2.11975         0.43224
| 96>    H        1.06579         1.52110         1.75727
| 97>    H        1.91655         0.36710         0.68625
| 98>    H        9.91841        -1.68523        -0.70954
| 99>    H        8.85970        -0.30422        -0.56766
|100>    H        8.22011        -2.85862        -2.18515
|101>    H        8.78192        -1.30648        -2.86814
|102>    H        7.18375        -1.40663        -2.09056
|103>    H        4.41234        -6.86981         4.38514
|104>    H        5.65666        -8.15248         4.36136
|105>    H        3.63719        -7.58154         2.09001
|106>    H        3.54276        -8.94636         3.23977
|107>    H        4.88742        -8.85950         2.06580
|108>    H       12.39461        -3.41023         0.70157
|109>    H       11.04539        -2.31408         0.52737
|110>    H       12.27675        -4.09335        -1.69920
|111>    H       12.46812        -2.33236        -1.56316
|112>    H       10.87778        -3.03440        -1.96491
|113>    H       12.47095       -10.03960         1.75931
|114>    H       14.17270        -9.91376         2.21503
|115>    H       13.14993       -10.54752        -0.63134
|116>    H       13.78314       -11.73720         0.53734
|117>    H       14.85866       -10.49262        -0.14743
|118>    H       16.16218        -7.01283        -0.66559
|119>    H       20.91840        -9.90667        -0.09753
|120>    H       17.92738       -11.16479         3.72348
|121> *
|122>
|123>                          ****END OF INPUT****

CARTESIAN COORDINATES (ANGSTROEM)
---------------------------------
  C      6.505160    4.642650   -0.802170
  O      7.243090    3.734490   -1.147940
  C      6.639290    6.067340   -1.195860
  C      7.615410    6.642250   -1.993430
  C      7.557500    8.021160   -2.223660
  Cl     8.774330    8.765950   -3.203400
  C      6.515370    8.784720   -1.654790
  Cl     6.422790   10.490650   -1.940030
  C      5.534380    8.190270   -0.849000
  C      5.596950    6.815040   -0.614120
  C      4.738010    5.901860    0.183530
  C      3.616890    6.300860    0.896790
  C      2.796740    5.411200    1.659010
  N      2.110180    4.711510    2.285550
  C      3.167790    7.657060    0.947240
  N      2.778230    8.750640    1.009380
  C      5.311710    4.562860    0.068600
  C      4.823980    3.416140    0.669930
  C      5.257170    2.077320    0.745750
  S      6.752740    1.389220    0.062830
  C      6.382850   -0.145740    0.770140
  C      5.148600   -0.135490    1.461260
  C      4.511250    1.108920    1.475920
  C      3.195120    1.362330    2.158240
  C      1.996640    1.337270    1.200610
  S      4.741350   -1.692010    2.195560
  C      6.248720   -2.337390    1.592650
  C      7.008050   -1.405020    0.869940
  N      8.196800   -1.976890    0.452210
  C      8.870300   -1.395140   -0.710560
  C      8.221810   -1.767280   -2.040100
  C      8.216520   -3.299270    0.924560
  C      6.982110   -3.541150    1.622510
  C      6.711450   -4.825540    2.176550
  N      5.650100   -5.297080    2.849930
  N      5.981380   -6.558720    3.096260
  C      5.053010   -7.480670    3.735060
  C      4.230990   -8.263550    2.717880
  N      7.156810   -6.970250    2.636790
  C      7.656130   -5.875590    2.041380
  C      8.914650   -5.631790    1.419220
  C      9.220160   -4.326930    0.892580
  N     10.557940   -4.336810    0.478080
  C     11.465630   -3.246450    0.133570
  C     11.784580   -3.170440   -1.358570
  C     11.064630   -5.600360    0.708540
  C     10.075230   -6.417270    1.277450
  S     10.638410   -8.022630    1.669090
  C     12.246280   -7.575160    1.086410
  C     12.309300   -6.253070    0.593860
  S     13.886030   -5.895070    0.000680
  C     14.484080   -7.519600    0.466730
  C     13.445360   -8.309520    1.022120
  C     13.469730   -9.765900    1.383970
  C     13.838240  -10.685290    0.216620
  C     15.843190   -7.718080    0.104960
  C     16.831130   -8.582020    0.543750
  C     18.154300   -8.750550   -0.070260
  C     18.626640   -8.198570   -1.249270
  C     19.954800   -8.419460   -1.731920
  N     21.030360   -8.578650   -2.143170
  C     17.850920   -7.353290   -2.103190
  N     17.249350   -6.662860   -2.819560
  C     18.937070   -9.663220    0.801120
  C     20.238520  -10.166120    0.709720
  C     20.696530  -11.039160    1.706400
  Cl    22.311330  -11.654890    1.592340
  C     19.869160  -11.414770    2.786960
  Cl    20.434420  -12.509150    4.001130
  C     18.575450  -10.895810    2.888500
  C     18.136600  -10.034230    1.896670
  C     16.827650   -9.341030    1.822100
  O     15.990660   -9.337620    2.707180
  H      8.410930    6.036360   -2.429230
  H      4.757930    8.826000   -0.431920
  H      3.905350    3.551820    1.233860
  H      3.212170    2.330010    2.681510
  H      3.059760    0.596990    2.938590
  H      2.087740    2.119750    0.432240
  H      1.065790    1.521100    1.757270
  H      1.916550    0.367100    0.686250
  H      9.918410   -1.685230   -0.709540
  H      8.859700   -0.304220   -0.567660
  H      8.220110   -2.858620   -2.185150
  H      8.781920   -1.306480   -2.868140
  H      7.183750   -1.406630   -2.090560
  H      4.412340   -6.869810    4.385140
  H      5.656660   -8.152480    4.361360
  H      3.637190   -7.581540    2.090010
  H      3.542760   -8.946360    3.239770
  H      4.887420   -8.859500    2.065800
  H     12.394610   -3.410230    0.701570
  H     11.045390   -2.314080    0.527370
  H     12.276750   -4.093350   -1.699200
  H     12.468120   -2.332360   -1.563160
  H     10.877780   -3.034400   -1.964910
  H     12.470950  -10.039600    1.759310
  H     14.172700   -9.913760    2.215030
  H     13.149930  -10.547520   -0.631340
  H     13.783140  -11.737200    0.537340
  H     14.858660  -10.492620   -0.147430
  H     16.162180   -7.012830   -0.665590
  H     20.918400   -9.906670   -0.097530
  H     17.927380  -11.164790    3.723480

 Total Charge           Charge          ....    0
 Multiplicity           Mult            ....    1
 Number of Electrons    NEL             ....  566
 Basis Dimension        Dim             .... 2497

ORBITAL ENERGIES
----------------

  NO   OCC          E(Eh)            E(eV)
   0   2.0000    -101.549074     -2763.2908
   1   2.0000    -101.548756     -2763.2821
   2   2.0000    -101.546604     -2763.2236
   3   2.0000    -101.545976     -2763.2065
   4   2.0000     -88.914196     -2419.4783
   5   2.0000     -88.910221     -2419.3701
   6   2.0000     -88.909528     -2419.3513
   7   2.0000     -88.909193     -2419.3421
   8   2.0000     -19.135789      -520.7113
   9   2.0000     -19.134843      -520.6855
  10   2.0000     -14.449002      -393.1773
  11   2.0000     -14.406829      -392.0297
  12   2.0000     -14.402779      -391.9195
  13   2.0000     -14.366925      -390.9439
  14   2.0000     -14.366291      -390.9266
  15   2.0000     -14.336287      -390.1102
  16   2.0000     -14.335588      -390.0912
  17   2.0000     -14.332433      -390.0053
  18   2.0000     -14.330022      -389.9397
  19   2.0000     -10.280772      -279.7540
  20   2.0000     -10.280165      -279.7375
  21   2.0000     -10.274582      -279.5856
  22   2.0000     -10.274085      -279.5721
  23   2.0000     -10.274047      -279.5710
  24   2.0000     -10.273470      -279.5553
  25   2.0000     -10.263871      -279.2941
  26   2.0000     -10.263524      -279.2847
  27   2.0000     -10.262433      -279.2550
  28   2.0000     -10.261525      -279.2303
  29   2.0000     -10.260914      -279.2137
  30   2.0000     -10.259525      -279.1759
  31   2.0000     -10.255674      -279.0711
  32   2.0000     -10.248767      -278.8831
  33   2.0000     -10.248386      -278.8728
  34   2.0000     -10.248022      -278.8629
  35   2.0000     -10.245754      -278.8012
  36   2.0000     -10.245194      -278.7859
  37   2.0000     -10.242319      -278.7077
  38   2.0000     -10.239950      -278.6432
  39   2.0000     -10.239726      -278.6371
  40   2.0000     -10.237489      -278.5762
  41   2.0000     -10.236354      -278.5453
  42   2.0000     -10.236293      -278.5437
  43   2.0000     -10.235789      -278.5300
  44   2.0000     -10.233365      -278.4640
  45   2.0000     -10.232840      -278.4497
  46   2.0000     -10.232505      -278.4406
  47   2.0000     -10.232484      -278.4400
  48   2.0000     -10.232278      -278.4344
  49   2.0000     -10.232008      -278.4271
  50   2.0000     -10.231069      -278.4015
  51   2.0000     -10.230469      -278.3852
  52   2.0000     -10.230371      -278.3825
  53   2.0000     -10.229224      -278.3513
  54   2.0000     -10.226737      -278.2837
  55   2.0000     -10.226089      -278.2660
  56   2.0000     -10.221895      -278.1519
  57   2.0000     -10.221737      -278.1476
  58   2.0000     -10.221664      -278.1456
  59   2.0000     -10.221407      -278.1386
  60   2.0000     -10.220592      -278.1164
  61   2.0000     -10.220574      -278.1159
  62   2.0000     -10.220181      -278.1053
  63   2.0000     -10.215545      -277.9791
  64   2.0000     -10.215303      -277.9725
  65   2.0000     -10.215214      -277.9701
  66   2.0000     -10.203432      -277.6495
  67   2.0000     -10.198419      -277.5131
  68   2.0000     -10.197520      -277.4886
  69   2.0000     -10.190202      -277.2895
  70   2.0000     -10.189713      -277.2762
  71   2.0000     -10.178939      -276.9830
  72   2.0000     -10.177594      -276.9464
  73   2.0000      -9.481355      -258.0008
  74   2.0000      -9.481004      -257.9912
  75   2.0000      -9.478867      -257.9331
  76   2.0000      -9.478238      -257.9160
  77   2.0000      -7.990125      -217.4223
  78   2.0000      -7.985269      -217.2902
  79   2.0000      -7.984563      -217.2710
  80   2.0000      -7.983839      -217.2513
  81   2.0000      -7.243055      -197.0936
  82   2.0000      -7.242720      -197.0844
  83   2.0000      -7.240621      -197.0273
  84   2.0000      -7.239999      -197.0104
  85   2.0000      -7.234627      -196.8642
  86   2.0000      -7.234273      -196.8546
  87   2.0000      -7.233866      -196.8435
  88   2.0000      -7.233525      -196.8342
  89   2.0000      -7.232106      -196.7956
  90   2.0000      -7.231480      -196.7786
  91   2.0000      -7.231358      -196.7752
  92   2.0000      -7.230730      -196.7582
  93   2.0000      -5.952844      -161.9851
  94   2.0000      -5.949096      -161.8831
  95   2.0000      -5.948364      -161.8632
  96   2.0000      -5.947627      -161.8432
  97   2.0000      -5.946776      -161.8200
  98   2.0000      -5.946313      -161.8074
  99   2.0000      -5.944599      -161.7608
 100   2.0000      -5.943927      -161.7425
 101   2.0000      -5.942735      -161.7100
 102   2.0000      -5.940898      -161.6600
 103   2.0000      -5.940183      -161.6406
 104   2.0000      -5.939933      -161.6338
 105   2.0000      -1.127144       -30.6712
 106   2.0000      -1.062944       -28.9242
 107   2.0000      -1.062562       -28.9138
 108   2.0000      -1.033538       -28.1240
 109   2.0000      -1.021948       -27.8086
 110   2.0000      -0.943977       -25.6869
 111   2.0000      -0.943042       -25.6615
 112   2.0000      -0.935184       -25.4477
 113   2.0000      -0.934932       -25.4408
 114   2.0000      -0.931547       -25.3487
 115   2.0000      -0.928068       -25.2540
 116   2.0000      -0.920888       -25.0586
 117   2.0000      -0.920047       -25.0357
 118   2.0000      -0.914938       -24.8967
 119   2.0000      -0.905907       -24.6510
 120   2.0000      -0.904829       -24.6216
 121   2.0000      -0.901213       -24.5233
 122   2.0000      -0.879157       -23.9231
 123   2.0000      -0.878552       -23.9066
 124   2.0000      -0.876774       -23.8582
 125   2.0000      -0.874225       -23.7889
 126   2.0000      -0.855547       -23.2806
 127   2.0000      -0.851219       -23.1629
 128   2.0000      -0.848311       -23.0837
 129   2.0000      -0.834252       -22.7011
 130   2.0000      -0.820588       -22.3293
 131   2.0000      -0.818550       -22.2739
 132   2.0000      -0.816557       -22.2197
 133   2.0000      -0.815198       -22.1827
 134   2.0000      -0.804093       -21.8805
 135   2.0000      -0.791708       -21.5435
 136   2.0000      -0.788985       -21.4694
 137   2.0000      -0.781696       -21.2710
 138   2.0000      -0.780964       -21.2511
 139   2.0000      -0.776439       -21.1280
 140   2.0000      -0.774012       -21.0619
 141   2.0000      -0.758040       -20.6273
 142   2.0000      -0.755499       -20.5582
 143   2.0000      -0.743747       -20.2384
 144   2.0000      -0.731676       -19.9099
 145   2.0000      -0.726836       -19.7782
 146   2.0000      -0.722899       -19.6711
 147   2.0000      -0.706897       -19.2356
 148   2.0000      -0.700135       -19.0516
 149   2.0000      -0.691726       -18.8228
 150   2.0000      -0.688344       -18.7308
 151   2.0000      -0.688117       -18.7246
 152   2.0000      -0.680836       -18.5265
 153   2.0000      -0.664124       -18.0717
 154   2.0000      -0.659364       -17.9422
 155   2.0000      -0.650969       -17.7138
 156   2.0000      -0.645605       -17.5678
 157   2.0000      -0.644871       -17.5478
 158   2.0000      -0.633785       -17.2462
 159   2.0000      -0.629106       -17.1188
 160   2.0000      -0.623634       -16.9699
 161   2.0000      -0.618652       -16.8344
 162   2.0000      -0.617942       -16.8151
 163   2.0000      -0.611194       -16.6314
 164   2.0000      -0.601062       -16.3557
 165   2.0000      -0.593659       -16.1543
 166   2.0000      -0.583849       -15.8873
 167   2.0000      -0.581046       -15.8111
 168   2.0000      -0.580434       -15.7944
 169   2.0000      -0.575184       -15.6515
 170   2.0000      -0.562072       -15.2948
 171   2.0000      -0.554228       -15.0813
 172   2.0000      -0.548648       -14.9295
 173   2.0000      -0.546592       -14.8735
 174   2.0000      -0.543739       -14.7959
 175   2.0000      -0.534978       -14.5575
 176   2.0000      -0.533479       -14.5167
 177   2.0000      -0.530667       -14.4402
 178   2.0000      -0.519149       -14.1268
 179   2.0000      -0.516632       -14.0583
 180   2.0000      -0.512975       -13.9588
 181   2.0000      -0.510006       -13.8780
 182   2.0000      -0.508008       -13.8236
 183   2.0000      -0.502764       -13.6809
 184   2.0000      -0.501150       -13.6370
 185   2.0000      -0.494467       -13.4551
 186   2.0000      -0.488651       -13.2969
 187   2.0000      -0.487001       -13.2520
 188   2.0000      -0.486034       -13.2257
 189   2.0000      -0.482777       -13.1370
 190   2.0000      -0.480194       -13.0668
 191   2.0000      -0.476201       -12.9581
 192   2.0000      -0.474828       -12.9207
 193   2.0000      -0.473330       -12.8800
 194   2.0000      -0.470735       -12.8094
 195   2.0000      -0.468836       -12.7577
 196   2.0000      -0.465967       -12.6796
 197   2.0000      -0.465804       -12.6752
 198   2.0000      -0.464592       -12.6422
 199   2.0000      -0.461885       -12.5685
 200   2.0000      -0.461040       -12.5455
 201   2.0000      -0.457911       -12.4604
 202   2.0000      -0.455623       -12.3981
 203   2.0000      -0.453112       -12.3298
 204   2.0000      -0.450493       -12.2585
 205   2.0000      -0.442225       -12.0336
 206   2.0000      -0.441233       -12.0066
 207   2.0000      -0.439227       -11.9520
 208   2.0000      -0.438124       -11.9220
 209   2.0000      -0.437302       -11.8996
 210   2.0000      -0.432417       -11.7667
 211   2.0000      -0.431801       -11.7499
 212   2.0000      -0.429232       -11.6800
 213   2.0000      -0.426069       -11.5939
 214   2.0000      -0.423827       -11.5329
 215   2.0000      -0.421521       -11.4702
 216   2.0000      -0.420446       -11.4409
 217   2.0000      -0.419480       -11.4146
 218   2.0000      -0.416646       -11.3375
 219   2.0000      -0.415900       -11.3172
 220   2.0000      -0.414236       -11.2719
 221   2.0000      -0.412909       -11.2358
 222   2.0000      -0.410931       -11.1820
 223   2.0000      -0.407763       -11.0958
 224   2.0000      -0.403325       -10.9750
 225   2.0000      -0.401955       -10.9378
 226   2.0000      -0.400440       -10.8965
 227   2.0000      -0.399941       -10.8830
 228   2.0000      -0.399275       -10.8648
 229   2.0000      -0.398519       -10.8443
 230   2.0000      -0.393206       -10.6997
 231   2.0000      -0.390761       -10.6331
 232   2.0000      -0.389907       -10.6099
 233   2.0000      -0.389490       -10.5986
 234   2.0000      -0.385582       -10.4922
 235   2.0000      -0.382492       -10.4081
 236   2.0000      -0.381308       -10.3759
 237   2.0000      -0.380969       -10.3667
 238   2.0000      -0.378738       -10.3060
 239   2.0000      -0.374432       -10.1888
 240   2.0000      -0.372120       -10.1259
 241   2.0000      -0.370384       -10.0786
 242   2.0000      -0.367206        -9.9922
 243   2.0000      -0.366292        -9.9673
 244   2.0000      -0.365520        -9.9463
 245   2.0000      -0.364951        -9.9308
 246   2.0000      -0.364091        -9.9074
 247   2.0000      -0.363150        -9.8818
 248   2.0000      -0.361914        -9.8482
 249   2.0000      -0.360512        -9.8100
 250   2.0000      -0.359364        -9.7788
 251   2.0000      -0.357865        -9.7380
 252   2.0000      -0.353590        -9.6217
 253   2.0000      -0.351519        -9.5653
 254   2.0000      -0.350332        -9.5330
 255   2.0000      -0.346834        -9.4378
 256   2.0000      -0.344818        -9.3830
 257   2.0000      -0.344451        -9.3730
 258   2.0000      -0.343301        -9.3417
 259   2.0000      -0.342146        -9.3103
 260   2.0000      -0.341751        -9.2995
 261   2.0000      -0.339521        -9.2388
 262   2.0000      -0.332709        -9.0535
 263   2.0000      -0.328736        -8.9454
 264   2.0000      -0.324494        -8.8299
 265   2.0000      -0.324245        -8.8232
 266   2.0000      -0.319180        -8.6853
 267   2.0000      -0.307097        -8.3565
 268   2.0000      -0.306023        -8.3273
 269   2.0000      -0.294680        -8.0186
 270   2.0000      -0.286384        -7.7929
 271   2.0000      -0.284002        -7.7281
 272   2.0000      -0.283034        -7.7017
 273   2.0000      -0.278901        -7.5893
 274   2.0000      -0.278562        -7.5800
 275   2.0000      -0.266115        -7.2414
 276   2.0000      -0.264660        -7.2018
 277   2.0000      -0.262757        -7.1500
 278   2.0000      -0.258580        -7.0363
 279   2.0000      -0.244163        -6.6440
 280   2.0000      -0.236614        -6.4386
 281   2.0000      -0.230623        -6.2756
 282   2.0000      -0.206770        -5.6265
 283   0.0000      -0.135716        -3.6930
 284   0.0000      -0.125609        -3.4180
 285   0.0000      -0.111130        -3.0240
 286   0.0000      -0.108230        -2.9451
 287   0.0000      -0.075043        -2.0420

MULLIKEN ATOMIC CHARGES
-----------------------
   0 C :    0.198581
   1 O :   -0.346717
   2 C :    0.114996
   3 C :   -0.321865
   4 C :    0.164219
   5 Cl:   -0.061145
   6 C :    0.115295
   7 Cl:   -0.050436
   8 C :   -0.261187
   9 C :    0.106369
  10 C :    0.005859
  11 C :    0.141266
  12 C :   -0.161752
  13 N :   -0.018811
  14 C :   -0.205823
  15 N :    0.008804
  16 C :   -0.095139
  17 C :   -0.075157
  18 C :    0.011426
  19 S :    0.026124
  20 C :   -0.215372
  21 C :    0.017653
  22 C :    0.057642
  23 C :   -0.209773
  24 C :   -0.322849
  25 S :    0.025226
  26 C :   -0.156513
  27 C :    0.362175
  28 N :   -0.099215
  29 C :   -0.135656
  30 C :   -0.337214
  31 C :   -0.024110
  32 C :    0.054070
  33 C :    0.016823
  34 N :   -0.235484
  35 N :    0.261943
  36 C :   -0.090828
  37 C :   -0.347336
  38 N :   -0.235687
  39 C :    0.034127
  40 C :    0.038509
  41 C :    0.057580
  42 N :   -0.032264
  43 C :   -0.242852
  44 C :   -0.329073
  45 C :    0.378586
  46 C :   -0.169510
  47 S :    0.023391
  48 C :    0.063467
  49 C :   -0.239123
  50 S :   -0.018300
  51 C :    0.121142
  52 C :   -0.000349
  53 C :   -0.244916
  54 C :   -0.347428
  55 C :   -0.180601
  56 C :   -0.123171
  57 C :    0.051515
  58 C :    0.157081
  59 C :   -0.202171
  60 N :    0.008070
  61 C :   -0.201681
  62 N :    0.014594
  63 C :    0.093376
  64 C :   -0.266324
  65 C :    0.107246
  66 Cl:   -0.049668
  67 C :    0.169019
  68 Cl:   -0.060352
  69 C :   -0.314518
  70 C :    0.138961
  71 C :    0.194643
  72 O :   -0.342953
  73 H :    0.137584
  74 H :    0.162388
  75 H :    0.115612
  76 H :    0.136826
  77 H :    0.106704
  78 H :    0.117129
  79 H :    0.124859
  80 H :    0.113193
  81 H :    0.102359
  82 H :    0.133833
  83 H :    0.122959
  84 H :    0.125775
  85 H :    0.136869
  86 H :    0.129065
  87 H :    0.124631
  88 H :    0.123465
  89 H :    0.114976
  90 H :    0.127115
  91 H :    0.139990
  92 H :    0.158029
  93 H :    0.137412
  94 H :    0.127033
  95 H :    0.130144
  96 H :    0.091663
  97 H :    0.173643
  98 H :    0.113669
  99 H :    0.116294
 100 H :    0.123209
 101 H :    0.165042
 102 H :    0.163191
 103 H :    0.138887
Sum of atomic charges:   -0.0000000

LOEWDIN ATOMIC CHARGES
----------------------
   0 C :   -0.253113
   1 O :    0.113755
   2 C :   -0.061577
   3 C :   -0.076550
   4 C :   -0.418670
   5 Cl:    0.431503
   6 C :   -0.414048
   7 Cl:    0.435322
   8 C :   -0.079250
   9 C :   -0.039380
  10 C :    0.016933
  11 C :   -0.138517
  12 C :   -0.154120
  13 N :    0.065165
  14 C :   -0.155720
  15 N :    0.070994
  16 C :   -0.091768
  17 C :   -0.056295
  18 C :   -0.294464
  19 S :    0.766132
  20 C :   -0.333474
  21 C :   -0.317234
  22 C :   -0.119945
  23 C :   -0.237001
  24 C :   -0.290631
  25 S :    0.730022
  26 C :   -0.284065
  27 C :   -0.184664
  28 N :    0.279249
  29 C :   -0.269491
  30 C :   -0.298676
  31 C :   -0.084721
  32 C :   -0.083197
  33 C :   -0.204257
  34 N :    0.082514
  35 N :    0.135146
  36 C :   -0.266889
  37 C :   -0.299118
  38 N :    0.082313
  39 C :   -0.203383
  40 C :   -0.084959
  41 C :   -0.082886
  42 N :    0.286484
  43 C :   -0.271518
  44 C :   -0.304599
  45 C :   -0.182927
  46 C :   -0.286424
  47 S :    0.734914
  48 C :   -0.312269
  49 C :   -0.341786
  50 S :    0.748714
  51 C :   -0.278037
  52 C :   -0.114071
  53 C :   -0.237269
  54 C :   -0.290561
  55 C :   -0.074918
  56 C :   -0.090329
  57 C :    0.017235
  58 C :   -0.136026
  59 C :   -0.152697
  60 N :    0.073289
  61 C :   -0.158800
  62 N :    0.070279
  63 C :   -0.040664
  64 C :   -0.078671
  65 C :   -0.414374
  66 Cl:    0.435459
  67 C :   -0.419151
  68 Cl:    0.433605
  69 C :   -0.076257
  70 C :   -0.063172
  71 C :   -0.254186
  72 O :    0.126784
  73 H :    0.161386
  74 H :    0.165956
  75 H :    0.179818
  76 H :    0.150199
  77 H :    0.144002
  78 H :    0.122345
  79 H :    0.127617
  80 H :    0.120157
  81 H :    0.136089
  82 H :    0.140576
  83 H :    0.124192
  84 H :    0.129301
  85 H :    0.127968
  86 H :    0.142926
  87 H :    0.142137
  88 H :    0.125265
  89 H :    0.126682
  90 H :    0.125727
  91 H :    0.142793
  92 H :    0.138860
  93 H :    0.123746
  94 H :    0.130504
  95 H :    0.123696
  96 H :    0.139608
  97 H :    0.159604
  98 H :    0.122459
  99 H :    0.123625
 100 H :    0.123023
 101 H :    0.172996
 102 H :    0.165811
 103 H :    0.161893

  Mayer bond orders larger than 0.100000
B(  0-C ,  1-O ) :   2.0502 B(  0-C ,  2-C ) :   1.0305 B(  0-C , 16-C ) :   1.0069
B(  1-O ,  2-C ) :  -0.1676 B(  2-C ,  3-C ) :   1.3805 B(  2-C ,  9-C ) :   1.3339
B(  3-C ,  4-C ) :   1.3433 B(  3-C , 73-H ) :   0.9816 B(  4-C ,  5-Cl) :   1.0425
B(  4-C ,  6-C ) :   1.2556 B(  6-C ,  7-Cl) :   1.1025 B(  6-C ,  8-C ) :   1.3769
B(  8-C ,  9-C ) :   1.4215 B(  8-C , 74-H ) :   0.9148 B(  9-C , 10-C ) :   1.0410
B( 10-C , 11-C ) :   1.4477 B( 10-C , 16-C ) :   1.1758 B( 11-C , 12-C ) :   1.0596
B( 11-C , 14-C ) :   1.0196 B( 12-C , 13-N ) :   2.8898 B( 14-C , 15-N ) :   2.9773
B( 16-C , 17-C ) :   1.4228 B( 17-C , 18-C ) :   1.2786 B( 17-C , 75-H ) :   0.8534
B( 18-C , 19-S ) :   1.2917 B( 18-C , 22-C ) :   1.2770 B( 19-S , 20-C ) :   1.3748
B( 19-S , 27-C ) :  -0.1356 B( 20-C , 21-C ) :   1.2952 B( 20-C , 25-S ) :   0.1116
B( 20-C , 27-C ) :   1.0735 B( 21-C , 22-C ) :   1.3462 B( 21-C , 25-S ) :   1.1939
B( 22-C , 23-C ) :   0.9541 B( 23-C , 24-C ) :   0.9684 B( 23-C , 76-H ) :   0.9419
B( 23-C , 77-H ) :   0.9719 B( 24-C , 78-H ) :   0.9734 B( 24-C , 79-H ) :   0.9706
B( 24-C , 80-H ) :   0.9686 B( 25-S , 26-C ) :   1.3431 B( 26-C , 27-C ) :   1.2624
B( 26-C , 32-C ) :   1.1726 B( 27-C , 28-N ) :   1.1316 B( 28-N , 29-C ) :   0.9013
B( 28-N , 31-C ) :   1.1892 B( 29-C , 30-C ) :   0.9660 B( 29-C , 81-H ) :   0.9611
B( 29-C , 82-H ) :   0.9554 B( 30-C , 83-H ) :   0.9685 B( 30-C , 84-H ) :   0.9684
B( 30-C , 85-H ) :   0.9666 B( 31-C , 32-C ) :   1.2533 B( 31-C , 41-C ) :   1.3378
B( 32-C , 33-C ) :   1.1508 B( 33-C , 34-N ) :   1.5172 B( 33-C , 39-C ) :   1.2353
B( 34-N , 35-N ) :   1.1701 B( 34-N , 38-N ) :   0.1199 B( 35-N , 36-C ) :   0.8925
B( 35-N , 38-N ) :   1.1626 B( 36-C , 37-C ) :   0.9607 B( 36-C , 86-H ) :   0.9605
B( 36-C , 87-H ) :   0.9596 B( 37-C , 88-H ) :   0.9702 B( 37-C , 89-H ) :   0.9663
B( 37-C , 90-H ) :   0.9703 B( 38-N , 39-C ) :   1.5094 B( 39-C , 40-C ) :   1.1570
B( 40-C , 41-C ) :   1.2029 B( 40-C , 46-C ) :   1.1795 B( 41-C , 42-N ) :   1.2226
B( 42-N , 43-C ) :   0.8709 B( 42-N , 45-C ) :   1.1231 B( 43-C , 44-C ) :   0.9340
B( 43-C , 91-H ) :   0.9580 B( 43-C , 92-H ) :   0.9687 B( 44-C , 93-H ) :   0.9630
B( 44-C , 94-H ) :   0.9695 B( 44-C , 95-H ) :   0.9732 B( 45-C , 46-C ) :   1.2689
B( 45-C , 49-C ) :   1.0604 B( 45-C , 50-S ) :  -0.1514 B( 46-C , 47-S ) :   1.3511
B( 47-S , 48-C ) :   1.1871 B( 47-S , 49-C ) :   0.1163 B( 48-C , 49-C ) :   1.3416
B( 48-C , 52-C ) :   1.2600 B( 49-C , 50-S ) :   1.3770 B( 50-S , 51-C ) :   1.1754
B( 50-S , 52-C ) :   0.1113 B( 51-C , 52-C ) :   1.3591 B( 51-C , 55-C ) :   1.2703
B( 52-C , 53-C ) :   0.9567 B( 53-C , 54-C ) :   0.9458 B( 53-C , 96-H ) :   0.9614
B( 53-C , 97-H ) :   0.9493 B( 54-C , 98-H ) :   0.9712 B( 54-C , 99-H ) :   0.9748
B( 54-C ,100-H ) :   0.9748 B( 55-C , 56-C ) :   1.4214 B( 55-C ,101-H ) :   0.9014
B( 56-C , 57-C ) :   1.1362 B( 56-C , 71-C ) :   1.0383 B( 57-C , 58-C ) :   1.4688
B( 57-C , 63-C ) :   1.0298 B( 58-C , 59-C ) :   1.0202 B( 58-C , 61-C ) :   1.0215
B( 59-C , 60-N ) :   2.9732 B( 61-C , 62-N ) :   2.9888 B( 63-C , 64-C ) :   1.3965
B( 63-C , 70-C ) :   1.3378 B( 64-C , 65-C ) :   1.3808 B( 64-C ,102-H ) :   0.9197
B( 65-C , 66-Cl) :   1.1041 B( 65-C , 67-C ) :   1.2576 B( 67-C , 68-Cl) :   1.0414
B( 67-C , 69-C ) :   1.3404 B( 69-C , 70-C ) :   1.3768 B( 69-C , 72-O ) :   0.1004
B( 69-C ,103-H ) :   0.9812 B( 70-C , 71-C ) :   0.9570 B( 70-C , 72-O ) :  -0.1755
B( 71-C , 72-O ) :   2.0498

-----------------------------------------------------------------------------
  SOC CORRECTED ABSORPTION SPECTRUM VIA TRANSITION ELECTRIC DIPOLE MOMENTS*
-----------------------------------------------------------------------------
State   Energy  Wavelength   fosc         T2         TX        TY        TZ
        (cm-1)    (nm)                  (au**2)     (au)      (au)      (au)
-----------------------------------------------------------------------------
   1   10292.5    971.6   0.000000004   0.00000   0.00027   0.00024   0.00001
   2   10292.5    971.6   0.000000017   0.00000   0.00054   0.00051   0.00003
   3   10292.5    971.6   0.000000010   0.00000   0.00044   0.00035   0.00004
   4   12263.1    815.5   0.000000041   0.00000   0.00080   0.00066   0.00006
   5   12263.1    815.5   0.000000000   0.00000   0.00002   0.00007   0.00002
   6   12263.1    815.5   0.000000007   0.00000   0.00041   0.00014   0.00007
   7   14653.0    682.5   2.719752487  61.10517   5.28519   5.75938   0.03854
   8   16169.0    618.5   0.000000000   0.00000   0.00005   0.00007   0.00000
   9   16169.0    618.5   0.000000295   0.00001   0.00140   0.00201   0.00011
  10   16169.0    618.5   0.000000296   0.00001   0.00215   0.00116   0.00025
  11   16742.4    597.3   0.177886047   3.49785   0.12815   1.81842   0.41807
  12   18260.1    547.6   0.014810278   0.26701   0.45427   0.11869   0.21580

FINAL SINGLE POINT ENERGY     -6152.116531266834

DIPOLE MOMENT
-------------
                                X             Y             Z
Electronic contribution:     65.29203      37.04220      -0.51294
Nuclear contribution   :    -66.61034     -39.44914       1.12018
                        -----------------------------------------
Total Dipole Moment    :     -1.31831      -2.40693       0.60724
                        -----------------------------------------
Magnitude (a.u.)       :      2.81070
Magnitude (Debye)      :      7.14422

Rotational constants in cm-1:     0.001235     0.000215     0.000188
Rotational constants in MHz :    37.030059     6.437481     5.639241

                             ****ORCA TERMINATED NORMALLY****
TOTAL RUN TIME: 0 days 2 hours 11 minutes 23 seconds 693 msec
