                         Program Version 4.2.0 -  RELEASE  -
|  1> # ORCA input file
|  2> # Y16.out: Geometry 139
|  3> ! B3LYP def2-TZVP def2/J RIJCOSX Grid4 TightSCF
|  4>
|  5> %maxcore 6000
|  6> %tddft
|  7>   maxdim 5
|  8>   nroots 3
|  9>   dosoc true
| 10>   end
| 11> %pal
| 12>   nprocs 6
| 13>   end
| 14>
| 15>
| 16> * xyz 0 1
| 17>    C       -3.86936         2.67291        -6.89513
| 18>    O       -4.85091         3.14394        -6.34363
| 19>    C       -2.82319         3.44305        -7.61425
| 20>    C       -2.72849         4.82073        -7.76741
| 21>    C       -1.63324         5.33169        -8.47302
| 22>    C       -0.67240         4.46261        -9.00690
| 23>    C       -0.77157         3.07401        -8.85087
| 24>    C       -1.86284         2.55505        -8.14016
| 25>    C       -2.25241         1.16514        -7.78119
| 26>    C       -1.55243         0.03148        -8.16621
| 27>    C       -1.94996        -1.30419        -7.84793
| 28>    N       -2.23705        -2.40557        -7.60772
| 29>    C       -0.34068         0.08687        -8.92310
| 30>    N        0.65191         0.10444        -9.52772
| 31>    C       -3.47320         1.24644        -6.97690
| 32>    C       -4.09937         0.19059        -6.33786
| 33>    C       -5.21880         0.06446        -5.48343
| 34>    S       -6.32064         1.36361        -4.96260
| 35>    C       -7.21694         0.24478        -3.98746
| 36>    C       -6.68812        -1.06558        -4.07090
| 37>    C       -5.56873        -1.18795        -4.90526
| 38>    C       -4.88385        -2.49780        -5.19475
| 39>    C       -5.36256        -3.14934        -6.50231
| 40>    S       -7.56163        -2.23650        -3.07577
| 41>    C       -8.63861        -0.96251        -2.56045
| 42>    C       -8.32892         0.29359        -3.11525
| 43>    N       -9.26731         1.22961        -2.70241
| 44>    C       -9.53905         2.42826        -3.50136
| 45>    C       -8.53268         3.55415        -3.30674
| 46>    C      -10.18003         0.56957        -1.87305
| 47>    C       -9.81157        -0.81283        -1.78732
| 48>    C      -10.67569        -1.72006        -1.10540
| 49>    N      -10.60074        -3.04739        -0.92440
| 50>    N      -11.72834        -3.33567        -0.28616
| 51>    C      -12.11932        -4.71524        -0.02847
| 52>    C      -12.72870        -5.36318        -1.26896
| 53>    N      -12.55283        -2.32562        -0.04005
| 54>    C      -11.90458        -1.26462        -0.54657
| 55>    C      -12.24059         0.12107        -0.57587
| 56>    C      -11.35032         1.04335        -1.20316
| 57>    N      -11.86029         2.34899        -1.06860
| 58>    C      -10.99302         3.50958        -0.79731
| 59>    C      -11.33871         4.77081        -1.57169
| 60>    C      -13.08692         2.23154        -0.41515
| 61>    C      -13.32919         0.88585        -0.09030
| 62>    S      -14.83246         0.62697         0.75338
| 63>    C      -15.15839         2.35967         0.66848
| 64>    C      -14.14641         3.07614        -0.01078
| 65>    S      -14.61747         4.72376        -0.22471
| 66>    C      -16.15640         4.45122         0.63028
| 67>    C      -16.28137         3.11460         1.06715
| 68>    C      -17.48169         2.48595         1.71731
| 69>    C      -18.67111         2.31324         0.76199
| 70>    C      -17.08816         5.52120         0.52777
| 71>    C      -18.13744         5.91807         1.33188
| 72>    C      -19.15882         6.89181         0.94931
| 73>    C      -19.50459         7.25458        -0.34074
| 74>    C      -20.51682         8.22142        -0.63311
| 75>    N      -21.33226         9.00772        -0.89359
| 76>    C      -18.90802         6.66759        -1.50278
| 77>    N      -18.44296         6.20443        -2.46240
| 78>    C      -19.82001         7.36064         2.18921
| 79>    C      -20.82226         8.31260         2.41380
| 80>    C      -21.22846         8.55564         3.73178
| 81>    C      -20.65898         7.86714         4.81224
| 82>    C      -19.66599         6.90492         4.59260
| 83>    C      -19.26551         6.66506         3.28362
| 84>    C      -18.23173         5.70471         2.80367
| 85>    O      -17.55815         4.97095         3.50407
| 86>    H       -3.49479         5.46753        -7.33538
| 87>    H       -1.52074         6.40957        -8.61287
| 88>    H        0.17774         4.87464        -9.55570
| 89>    H       -0.00328         2.43436        -9.27718
| 90>    H       -3.62261        -0.77560        -6.48656
| 91>    H       -5.07067        -3.18165        -4.35095
| 92>    H       -3.79234        -2.36191        -5.24286
| 93>    H       -6.43725        -3.38370        -6.45966
| 94>    H       -4.80601        -4.07854        -6.69090
| 95>    H       -5.18941        -2.48203        -7.35838
| 96>    H      -10.55819         2.75394        -3.26667
| 97>    H       -9.55047         2.12181        -4.56116
| 98>    H       -8.79321         4.39731        -3.96329
| 99>    H       -7.51367         3.23609        -3.56779
|100>    H       -8.51331         3.91826        -2.26973
|101>    H      -12.83602        -4.68118         0.80251
|102>    H      -11.21825        -5.24964         0.30371
|103>    H      -13.59296        -4.77954        -1.61981
|104>    H      -13.07178        -6.38241        -1.03510
|105>    H      -11.98853        -5.41655        -2.08095
|106>    H       -9.96497         3.19626        -1.00616
|107>    H      -11.03518         3.71599         0.28605
|108>    H      -10.62323         5.56554        -1.31091
|109>    H      -12.34103         5.14166        -1.31909
|110>    H      -11.29955         4.61397        -2.65915
|111>    H      -17.76705         3.08772         2.59018
|112>    H      -17.17730         1.50073         2.10676
|113>    H      -19.02342         3.28209         0.37815
|114>    H      -19.51163         1.82811         1.28201
|115>    H      -18.39879         1.68839        -0.10238
|116>    H      -16.92158         6.14185        -0.35646
|117>    H      -21.27889         8.86671         1.59711
|118>    H      -22.00516         9.30041         3.92029
|119>    H      -21.00068         8.08630         5.82663
|120>    H      -19.20527         6.34570         5.40957
|121> *
|122>
|123>                          ****END OF INPUT****

CARTESIAN COORDINATES (ANGSTROEM)
---------------------------------
  C     -3.869360    2.672910   -6.895130
  O     -4.850910    3.143940   -6.343630
  C     -2.823190    3.443050   -7.614250
  C     -2.728490    4.820730   -7.767410
  C     -1.633240    5.331690   -8.473020
  C     -0.672400    4.462610   -9.006900
  C     -0.771570    3.074010   -8.850870
  C     -1.862840    2.555050   -8.140160
  C     -2.252410    1.165140   -7.781190
  C     -1.552430    0.031480   -8.166210
  C     -1.949960   -1.304190   -7.847930
  N     -2.237050   -2.405570   -7.607720
  C     -0.340680    0.086870   -8.923100
  N      0.651910    0.104440   -9.527720
  C     -3.473200    1.246440   -6.976900
  C     -4.099370    0.190590   -6.337860
  C     -5.218800    0.064460   -5.483430
  S     -6.320640    1.363610   -4.962600
  C     -7.216940    0.244780   -3.987460
  C     -6.688120   -1.065580   -4.070900
  C     -5.568730   -1.187950   -4.905260
  C     -4.883850   -2.497800   -5.194750
  C     -5.362560   -3.149340   -6.502310
  S     -7.561630   -2.236500   -3.075770
  C     -8.638610   -0.962510   -2.560450
  C     -8.328920    0.293590   -3.115250
  N     -9.267310    1.229610   -2.702410
  C     -9.539050    2.428260   -3.501360
  C     -8.532680    3.554150   -3.306740
  C    -10.180030    0.569570   -1.873050
  C     -9.811570   -0.812830   -1.787320
  C    -10.675690   -1.720060   -1.105400
  N    -10.600740   -3.047390   -0.924400
  N    -11.728340   -3.335670   -0.286160
  C    -12.119320   -4.715240   -0.028470
  C    -12.728700   -5.363180   -1.268960
  N    -12.552830   -2.325620   -0.040050
  C    -11.904580   -1.264620   -0.546570
  C    -12.240590    0.121070   -0.575870
  C    -11.350320    1.043350   -1.203160
  N    -11.860290    2.348990   -1.068600
  C    -10.993020    3.509580   -0.797310
  C    -11.338710    4.770810   -1.571690
  C    -13.086920    2.231540   -0.415150
  C    -13.329190    0.885850   -0.090300
  S    -14.832460    0.626970    0.753380
  C    -15.158390    2.359670    0.668480
  C    -14.146410    3.076140   -0.010780
  S    -14.617470    4.723760   -0.224710
  C    -16.156400    4.451220    0.630280
  C    -16.281370    3.114600    1.067150
  C    -17.481690    2.485950    1.717310
  C    -18.671110    2.313240    0.761990
  C    -17.088160    5.521200    0.527770
  C    -18.137440    5.918070    1.331880
  C    -19.158820    6.891810    0.949310
  C    -19.504590    7.254580   -0.340740
  C    -20.516820    8.221420   -0.633110
  N    -21.332260    9.007720   -0.893590
  C    -18.908020    6.667590   -1.502780
  N    -18.442960    6.204430   -2.462400
  C    -19.820010    7.360640    2.189210
  C    -20.822260    8.312600    2.413800
  C    -21.228460    8.555640    3.731780
  C    -20.658980    7.867140    4.812240
  C    -19.665990    6.904920    4.592600
  C    -19.265510    6.665060    3.283620
  C    -18.231730    5.704710    2.803670
  O    -17.558150    4.970950    3.504070
  H     -3.494790    5.467530   -7.335380
  H     -1.520740    6.409570   -8.612870
  H      0.177740    4.874640   -9.555700
  H     -0.003280    2.434360   -9.277180
  H     -3.622610   -0.775600   -6.486560
  H     -5.070670   -3.181650   -4.350950
  H     -3.792340   -2.361910   -5.242860
  H     -6.437250   -3.383700   -6.459660
  H     -4.806010   -4.078540   -6.690900
  H     -5.189410   -2.482030   -7.358380
  H    -10.558190    2.753940   -3.266670
  H     -9.550470    2.121810   -4.561160
  H     -8.793210    4.397310   -3.963290
  H     -7.513670    3.236090   -3.567790
  H     -8.513310    3.918260   -2.269730
  H    -12.836020   -4.681180    0.802510
  H    -11.218250   -5.249640    0.303710
  H    -13.592960   -4.779540   -1.619810
  H    -13.071780   -6.382410   -1.035100
  H    -11.988530   -5.416550   -2.080950
  H     -9.964970    3.196260   -1.006160
  H    -11.035180    3.715990    0.286050
  H    -10.623230    5.565540   -1.310910
  H    -12.341030    5.141660   -1.319090
  H    -11.299550    4.613970   -2.659150
  H    -17.767050    3.087720    2.590180
  H    -17.177300    1.500730    2.106760
  H    -19.023420    3.282090    0.378150
  H    -19.511630    1.828110    1.282010
  H    -18.398790    1.688390   -0.102380
  H    -16.921580    6.141850   -0.356460
  H    -21.278890    8.866710    1.597110
  H    -22.005160    9.300410    3.920290
  H    -21.000680    8.086300    5.826630
  H    -19.205270    6.345700    5.409570

 Total Charge           Charge          ....    0
 Multiplicity           Mult            ....    1
 Number of Electrons    NEL             ....  502
 Basis Dimension        Dim             .... 2373

ORBITAL ENERGIES
----------------

  NO   OCC          E(Eh)            E(eV)
   0   2.0000     -88.907489     -2419.2958
   1   2.0000     -88.906645     -2419.2728
   2   2.0000     -88.904599     -2419.2171
   3   2.0000     -88.903453     -2419.1859
   4   2.0000     -19.129082      -520.5288
   5   2.0000     -19.127800      -520.4939
   6   2.0000     -14.445411      -393.0796
   7   2.0000     -14.397383      -391.7727
   8   2.0000     -14.394449      -391.6929
   9   2.0000     -14.363361      -390.8469
  10   2.0000     -14.362342      -390.8192
  11   2.0000     -14.330424      -389.9507
  12   2.0000     -14.327478      -389.8705
  13   2.0000     -14.327056      -389.8590
  14   2.0000     -14.324459      -389.7883
  15   2.0000     -10.274384      -279.5802
  16   2.0000     -10.272564      -279.5307
  17   2.0000     -10.256923      -279.1051
  18   2.0000     -10.254352      -279.0351
  19   2.0000     -10.253969      -279.0247
  20   2.0000     -10.252551      -278.9861
  21   2.0000     -10.252502      -278.9847
  22   2.0000     -10.251766      -278.9647
  23   2.0000     -10.245117      -278.7838
  24   2.0000     -10.244138      -278.7572
  25   2.0000     -10.243549      -278.7411
  26   2.0000     -10.243063      -278.7279
  27   2.0000     -10.242098      -278.7017
  28   2.0000     -10.237939      -278.5885
  29   2.0000     -10.236800      -278.5575
  30   2.0000     -10.236785      -278.5571
  31   2.0000     -10.234816      -278.5035
  32   2.0000     -10.231555      -278.4148
  33   2.0000     -10.231050      -278.4010
  34   2.0000     -10.230882      -278.3965
  35   2.0000     -10.230626      -278.3895
  36   2.0000     -10.229132      -278.3488
  37   2.0000     -10.228669      -278.3362
  38   2.0000     -10.227940      -278.3164
  39   2.0000     -10.227221      -278.2968
  40   2.0000     -10.225890      -278.2606
  41   2.0000     -10.225859      -278.2598
  42   2.0000     -10.225311      -278.2448
  43   2.0000     -10.224293      -278.2172
  44   2.0000     -10.224167      -278.2137
  45   2.0000     -10.223722      -278.2016
  46   2.0000     -10.219612      -278.0898
  47   2.0000     -10.218906      -278.0706
  48   2.0000     -10.217594      -278.0349
  49   2.0000     -10.216039      -277.9925
  50   2.0000     -10.211836      -277.8782
  51   2.0000     -10.209716      -277.8205
  52   2.0000     -10.206841      -277.7423
  53   2.0000     -10.205957      -277.7182
  54   2.0000     -10.205725      -277.7119
  55   2.0000     -10.205560      -277.7074
  56   2.0000     -10.205262      -277.6993
  57   2.0000     -10.204985      -277.6918
  58   2.0000     -10.204685      -277.6836
  59   2.0000     -10.204469      -277.6777
  60   2.0000     -10.203568      -277.6532
  61   2.0000     -10.202980      -277.6372
  62   2.0000     -10.195925      -277.4452
  63   2.0000     -10.194986      -277.4197
  64   2.0000     -10.192885      -277.3625
  65   2.0000     -10.186790      -277.1967
  66   2.0000     -10.186436      -277.1870
  67   2.0000     -10.173459      -276.8339
  68   2.0000     -10.171275      -276.7745
  69   2.0000      -7.983475      -217.2414
  70   2.0000      -7.981718      -217.1936
  71   2.0000      -7.979685      -217.1383
  72   2.0000      -7.978113      -217.0955
  73   2.0000      -5.946211      -161.8046
  74   2.0000      -5.944707      -161.7637
  75   2.0000      -5.942706      -161.7093
  76   2.0000      -5.942518      -161.7041
  77   2.0000      -5.940999      -161.6628
  78   2.0000      -5.940985      -161.6624
  79   2.0000      -5.939569      -161.6239
  80   2.0000      -5.939028      -161.6092
  81   2.0000      -5.937498      -161.5675
  82   2.0000      -5.937015      -161.5544
  83   2.0000      -5.935353      -161.5092
  84   2.0000      -5.934209      -161.4780
  85   2.0000      -1.123608       -30.5749
  86   2.0000      -1.055262       -28.7151
  87   2.0000      -1.054756       -28.7014
  88   2.0000      -1.025680       -27.9102
  89   2.0000      -1.012381       -27.5483
  90   2.0000      -0.932289       -25.3689
  91   2.0000      -0.931803       -25.3557
  92   2.0000      -0.925666       -25.1886
  93   2.0000      -0.922071       -25.0908
  94   2.0000      -0.915132       -24.9020
  95   2.0000      -0.914237       -24.8776
  96   2.0000      -0.911385       -24.8001
  97   2.0000      -0.907992       -24.7077
  98   2.0000      -0.906267       -24.6608
  99   2.0000      -0.896086       -24.3837
 100   2.0000      -0.872187       -23.7334
 101   2.0000      -0.870309       -23.6823
 102   2.0000      -0.859946       -23.4003
 103   2.0000      -0.858231       -23.3536
 104   2.0000      -0.846652       -23.0386
 105   2.0000      -0.827214       -22.5096
 106   2.0000      -0.815262       -22.1844
 107   2.0000      -0.812760       -22.1163
 108   2.0000      -0.812385       -22.1061
 109   2.0000      -0.810591       -22.0573
 110   2.0000      -0.800264       -21.7763
 111   2.0000      -0.794629       -21.6229
 112   2.0000      -0.791299       -21.5323
 113   2.0000      -0.776636       -21.1333
 114   2.0000      -0.775260       -21.0959
 115   2.0000      -0.771542       -20.9947
 116   2.0000      -0.770910       -20.9775
 117   2.0000      -0.752375       -20.4732
 118   2.0000      -0.752138       -20.4667
 119   2.0000      -0.742605       -20.2073
 120   2.0000      -0.730205       -19.8699
 121   2.0000      -0.722128       -19.6501
 122   2.0000      -0.717715       -19.5300
 123   2.0000      -0.704830       -19.1794
 124   2.0000      -0.692169       -18.8349
 125   2.0000      -0.686737       -18.6871
 126   2.0000      -0.682686       -18.5768
 127   2.0000      -0.681516       -18.5450
 128   2.0000      -0.672019       -18.2866
 129   2.0000      -0.656027       -17.8514
 130   2.0000      -0.650531       -17.7019
 131   2.0000      -0.645137       -17.5551
 132   2.0000      -0.641015       -17.4429
 133   2.0000      -0.639347       -17.3975
 134   2.0000      -0.625161       -17.0115
 135   2.0000      -0.623522       -16.9669
 136   2.0000      -0.616512       -16.7762
 137   2.0000      -0.613118       -16.6838
 138   2.0000      -0.607552       -16.5323
 139   2.0000      -0.602789       -16.4027
 140   2.0000      -0.595286       -16.1985
 141   2.0000      -0.585444       -15.9307
 142   2.0000      -0.575105       -15.6494
 143   2.0000      -0.574885       -15.6434
 144   2.0000      -0.572631       -15.5821
 145   2.0000      -0.568436       -15.4679
 146   2.0000      -0.558513       -15.1979
 147   2.0000      -0.549615       -14.9558
 148   2.0000      -0.543104       -14.7786
 149   2.0000      -0.535162       -14.5625
 150   2.0000      -0.533429       -14.5153
 151   2.0000      -0.531697       -14.4682
 152   2.0000      -0.528894       -14.3919
 153   2.0000      -0.522900       -14.2288
 154   2.0000      -0.513257       -13.9664
 155   2.0000      -0.512332       -13.9413
 156   2.0000      -0.503279       -13.6949
 157   2.0000      -0.499575       -13.5941
 158   2.0000      -0.498246       -13.5580
 159   2.0000      -0.493947       -13.4410
 160   2.0000      -0.492600       -13.4043
 161   2.0000      -0.487878       -13.2758
 162   2.0000      -0.481764       -13.1095
 163   2.0000      -0.477503       -12.9935
 164   2.0000      -0.473623       -12.8879
 165   2.0000      -0.472013       -12.8441
 166   2.0000      -0.467793       -12.7293
 167   2.0000      -0.467210       -12.7134
 168   2.0000      -0.463976       -12.6254
 169   2.0000      -0.461725       -12.5642
 170   2.0000      -0.460474       -12.5301
 171   2.0000      -0.458040       -12.4639
 172   2.0000      -0.455732       -12.4011
 173   2.0000      -0.455191       -12.3864
 174   2.0000      -0.454485       -12.3672
 175   2.0000      -0.452959       -12.3256
 176   2.0000      -0.451114       -12.2754
 177   2.0000      -0.448672       -12.2090
 178   2.0000      -0.447177       -12.1683
 179   2.0000      -0.446884       -12.1603
 180   2.0000      -0.441742       -12.0204
 181   2.0000      -0.435432       -11.8487
 182   2.0000      -0.434746       -11.8300
 183   2.0000      -0.430560       -11.7161
 184   2.0000      -0.429867       -11.6973
 185   2.0000      -0.426757       -11.6126
 186   2.0000      -0.422421       -11.4947
 187   2.0000      -0.417990       -11.3741
 188   2.0000      -0.416186       -11.3250
 189   2.0000      -0.415173       -11.2974
 190   2.0000      -0.414969       -11.2919
 191   2.0000      -0.410578       -11.1724
 192   2.0000      -0.409549       -11.1444
 193   2.0000      -0.405837       -11.0434
 194   2.0000      -0.404877       -11.0173
 195   2.0000      -0.402155       -10.9432
 196   2.0000      -0.400589       -10.9006
 197   2.0000      -0.396537       -10.7903
 198   2.0000      -0.392935       -10.6923
 199   2.0000      -0.390833       -10.6351
 200   2.0000      -0.389550       -10.6002
 201   2.0000      -0.389368       -10.5952
 202   2.0000      -0.388183       -10.5630
 203   2.0000      -0.386946       -10.5293
 204   2.0000      -0.386672       -10.5219
 205   2.0000      -0.384127       -10.4526
 206   2.0000      -0.383759       -10.4426
 207   2.0000      -0.383022       -10.4226
 208   2.0000      -0.381186       -10.3726
 209   2.0000      -0.379633       -10.3304
 210   2.0000      -0.378490       -10.2992
 211   2.0000      -0.377543       -10.2735
 212   2.0000      -0.376037       -10.2325
 213   2.0000      -0.375504       -10.2180
 214   2.0000      -0.374930       -10.2024
 215   2.0000      -0.365035        -9.9331
 216   2.0000      -0.361124        -9.8267
 217   2.0000      -0.360367        -9.8061
 218   2.0000      -0.359423        -9.7804
 219   2.0000      -0.356078        -9.6894
 220   2.0000      -0.355621        -9.6770
 221   2.0000      -0.355327        -9.6689
 222   2.0000      -0.353743        -9.6258
 223   2.0000      -0.351849        -9.5743
 224   2.0000      -0.349143        -9.5007
 225   2.0000      -0.343144        -9.3374
 226   2.0000      -0.342374        -9.3165
 227   2.0000      -0.341228        -9.2853
 228   2.0000      -0.339296        -9.2327
 229   2.0000      -0.338078        -9.1996
 230   2.0000      -0.337561        -9.1855
 231   2.0000      -0.335072        -9.1178
 232   2.0000      -0.332597        -9.0504
 233   2.0000      -0.328712        -8.9447
 234   2.0000      -0.315554        -8.5867
 235   2.0000      -0.305822        -8.3218
 236   2.0000      -0.302908        -8.2425
 237   2.0000      -0.289143        -7.8680
 238   2.0000      -0.283735        -7.7208
 239   2.0000      -0.282888        -7.6978
 240   2.0000      -0.278951        -7.5907
 241   2.0000      -0.272888        -7.4257
 242   2.0000      -0.270983        -7.3738
 243   2.0000      -0.267862        -7.2889
 244   2.0000      -0.263095        -7.1592
 245   2.0000      -0.258917        -7.0455
 246   2.0000      -0.252851        -6.8804
 247   2.0000      -0.240412        -6.5419
 248   2.0000      -0.230807        -6.2806
 249   2.0000      -0.227581        -6.1928
 250   2.0000      -0.201755        -5.4900
 251   0.0000      -0.128912        -3.5079
 252   0.0000      -0.118726        -3.2307
 253   0.0000      -0.103316        -2.8114
 254   0.0000      -0.100081        -2.7233
 255   0.0000      -0.069215        -1.8834

MULLIKEN ATOMIC CHARGES
-----------------------
   0 C :    0.193048
   1 O :   -0.348093
   2 C :    0.097288
   3 C :   -0.217687
   4 C :   -0.064995
   5 C :   -0.111237
   6 C :   -0.185142
   7 C :    0.069050
   8 C :    0.024790
   9 C :    0.135713
  10 C :   -0.176859
  11 N :   -0.015856
  12 C :   -0.206005
  13 N :    0.003354
  14 C :   -0.090244
  15 C :   -0.104504
  16 C :    0.043400
  17 S :    0.027628
  18 C :   -0.180588
  19 C :   -0.001111
  20 C :    0.061504
  21 C :   -0.214651
  22 C :   -0.317132
  23 S :    0.022413
  24 C :   -0.131573
  25 C :    0.309716
  26 N :   -0.093143
  27 C :   -0.192830
  28 C :   -0.315245
  29 C :    0.101428
  30 C :   -0.018032
  31 C :    0.025085
  32 N :   -0.235016
  33 N :    0.257924
  34 C :   -0.087996
  35 C :   -0.348605
  36 N :   -0.230377
  37 C :    0.010734
  38 C :    0.019257
  39 C :    0.072622
  40 N :   -0.118423
  41 C :   -0.158078
  42 C :   -0.322227
  43 C :    0.321588
  44 C :   -0.132348
  45 S :    0.026627
  46 C :    0.047956
  47 C :   -0.215657
  48 S :   -0.028387
  49 C :    0.111990
  50 C :    0.036142
  51 C :   -0.246444
  52 C :   -0.343095
  53 C :   -0.216729
  54 C :   -0.102336
  55 C :    0.086641
  56 C :    0.127380
  57 C :   -0.205890
  58 N :    0.002845
  59 C :   -0.213251
  60 N :    0.016532
  61 C :    0.070812
  62 C :   -0.180477
  63 C :   -0.108903
  64 C :   -0.068210
  65 C :   -0.202923
  66 C :    0.075038
  67 C :    0.190798
  68 O :   -0.327183
  69 H :    0.130756
  70 H :    0.122394
  71 H :    0.126577
  72 H :    0.164082
  73 H :    0.116681
  74 H :    0.105603
  75 H :    0.127810
  76 H :    0.113128
  77 H :    0.124878
  78 H :    0.120970
  79 H :    0.141956
  80 H :    0.134681
  81 H :    0.122580
  82 H :    0.147389
  83 H :    0.105719
  84 H :    0.129079
  85 H :    0.122866
  86 H :    0.123689
  87 H :    0.114635
  88 H :    0.128214
  89 H :    0.132116
  90 H :    0.128974
  91 H :    0.122312
  92 H :    0.140680
  93 H :    0.112737
  94 H :    0.163875
  95 H :    0.095135
  96 H :    0.131251
  97 H :    0.114604
  98 H :    0.113716
  99 H :    0.160317
 100 H :    0.163708
 101 H :    0.126745
 102 H :    0.124353
 103 H :    0.133969
Sum of atomic charges:   -0.0000000

LOEWDIN ATOMIC CHARGES
----------------------
   0 C :   -0.251784
   1 O :    0.111921
   2 C :   -0.061945
   3 C :   -0.074681
   4 C :   -0.114345
   5 C :   -0.112148
   6 C :   -0.076075
   7 C :   -0.038511
   8 C :    0.018139
   9 C :   -0.140035
  10 C :   -0.156303
  11 N :    0.066043
  12 C :   -0.154662
  13 N :    0.065743
  14 C :   -0.089952
  15 C :   -0.056911
  16 C :   -0.296905
  17 S :    0.768234
  18 C :   -0.331559
  19 C :   -0.319179
  20 C :   -0.121888
  21 C :   -0.236905
  22 C :   -0.291333
  23 S :    0.728930
  24 C :   -0.286191
  25 C :   -0.177288
  26 N :    0.276236
  27 C :   -0.264427
  28 C :   -0.302181
  29 C :   -0.090384
  30 C :   -0.083678
  31 C :   -0.201057
  32 N :    0.082263
  33 N :    0.134049
  34 C :   -0.265938
  35 C :   -0.298878
  36 N :    0.081438
  37 C :   -0.201757
  38 C :   -0.082113
  39 C :   -0.092060
  40 N :    0.261022
  41 C :   -0.264074
  42 C :   -0.302803
  43 C :   -0.177909
  44 C :   -0.286989
  45 S :    0.739262
  46 C :   -0.314930
  47 C :   -0.335703
  48 S :    0.745435
  49 C :   -0.289459
  50 C :   -0.115151
  51 C :   -0.233859
  52 C :   -0.290954
  53 C :   -0.068490
  54 C :   -0.089971
  55 C :    0.013115
  56 C :   -0.136643
  57 C :   -0.152388
  58 N :    0.068669
  59 C :   -0.160410
  60 N :    0.070385
  61 C :   -0.041688
  62 C :   -0.076298
  63 C :   -0.112106
  64 C :   -0.113381
  65 C :   -0.074196
  66 C :   -0.060194
  67 C :   -0.252124
  68 O :    0.123885
  69 H :    0.155323
  70 H :    0.147721
  71 H :    0.150203
  72 H :    0.161213
  73 H :    0.179159
  74 H :    0.143152
  75 H :    0.147904
  76 H :    0.119157
  77 H :    0.127110
  78 H :    0.122712
  79 H :    0.141359
  80 H :    0.142845
  81 H :    0.130481
  82 H :    0.119339
  83 H :    0.118254
  84 H :    0.142488
  85 H :    0.141115
  86 H :    0.125552
  87 H :    0.125804
  88 H :    0.125672
  89 H :    0.140302
  90 H :    0.141156
  91 H :    0.130480
  92 H :    0.114018
  93 H :    0.121020
  94 H :    0.155932
  95 H :    0.141289
  96 H :    0.123471
  97 H :    0.122229
  98 H :    0.122173
  99 H :    0.172267
 100 H :    0.160746
 101 H :    0.150119
 102 H :    0.148080
 103 H :    0.156176

  Mayer bond orders larger than 0.100000
B(  0-C ,  1-O ) :   2.0457 B(  0-C ,  2-C ) :   1.0370 B(  0-C , 14-C ) :   0.9982
B(  1-O ,  2-C ) :  -0.1464 B(  2-C ,  3-C ) :   1.3813 B(  2-C ,  7-C ) :   1.3355
B(  3-C ,  4-C ) :   1.3754 B(  3-C , 69-H ) :   0.9788 B(  4-C ,  5-C ) :   1.3834
B(  4-C , 70-H ) :   0.9710 B(  5-C ,  6-C ) :   1.4244 B(  5-C , 71-H ) :   0.9657
B(  6-C ,  7-C ) :   1.3974 B(  6-C , 72-H ) :   0.9225 B(  7-C ,  8-C ) :   1.0374
B(  8-C ,  9-C ) :   1.4453 B(  8-C , 14-C ) :   1.1572 B(  9-C , 10-C ) :   1.0563
B(  9-C , 12-C ) :   1.0198 B( 10-C , 11-N ) :   2.9082 B( 12-C , 13-N ) :   2.9874
B( 14-C , 15-C ) :   1.4367 B( 15-C , 16-C ) :   1.2542 B( 15-C , 73-H ) :   0.8724
B( 16-C , 17-S ) :   1.3013 B( 16-C , 20-C ) :   1.2765 B( 17-S , 18-C ) :   1.3451
B( 17-S , 25-C ) :  -0.1204 B( 18-C , 19-C ) :   1.3037 B( 18-C , 25-C ) :   1.1060
B( 19-C , 20-C ) :   1.3385 B( 19-C , 23-S ) :   1.1898 B( 20-C , 21-C ) :   0.9509
B( 21-C , 22-C ) :   0.9673 B( 21-C , 74-H ) :   0.9732 B( 21-C , 75-H ) :   0.9486
B( 22-C , 76-H ) :   0.9661 B( 22-C , 77-H ) :   0.9698 B( 22-C , 78-H ) :   0.9739
B( 23-S , 24-C ) :   1.3294 B( 24-C , 25-C ) :   1.2718 B( 24-C , 30-C ) :   1.2038
B( 25-C , 26-N ) :   1.1375 B( 26-N , 27-C ) :   0.8689 B( 26-N , 29-C ) :   1.1865
B( 27-C , 28-C ) :   0.9588 B( 27-C , 79-H ) :   0.9606 B( 27-C , 80-H ) :   0.9596
B( 28-C , 81-H ) :   0.9697 B( 28-C , 82-H ) :   0.9589 B( 28-C , 83-H ) :   0.9663
B( 29-C , 30-C ) :   1.2247 B( 29-C , 39-C ) :   1.3275 B( 30-C , 31-C ) :   1.1763
B( 31-C , 32-N ) :   1.5098 B( 31-C , 37-C ) :   1.2261 B( 32-N , 33-N ) :   1.1629
B( 32-N , 36-N ) :   0.1200 B( 33-N , 34-C ) :   0.8938 B( 33-N , 36-N ) :   1.1729
B( 34-C , 35-C ) :   0.9611 B( 34-C , 84-H ) :   0.9606 B( 34-C , 85-H ) :   0.9599
B( 35-C , 86-H ) :   0.9708 B( 35-C , 87-H ) :   0.9662 B( 35-C , 88-H ) :   0.9696
B( 36-N , 37-C ) :   1.5139 B( 37-C , 38-C ) :   1.1681 B( 38-C , 39-C ) :   1.2735
B( 38-C , 44-C ) :   1.1438 B( 39-C , 40-N ) :   1.1422 B( 40-N , 41-C ) :   0.8618
B( 40-N , 43-C ) :   1.1465 B( 41-C , 42-C ) :   0.9659 B( 41-C , 89-H ) :   0.9635
B( 41-C , 90-H ) :   0.9539 B( 42-C , 91-H ) :   0.9712 B( 42-C , 92-H ) :   0.9584
B( 42-C , 93-H ) :   0.9688 B( 43-C , 44-C ) :   1.2930 B( 43-C , 47-C ) :   1.0684
B( 43-C , 48-S ) :  -0.1308 B( 44-C , 45-S ) :   1.3453 B( 45-S , 46-C ) :   1.1760
B( 45-S , 47-C ) :   0.1132 B( 46-C , 47-C ) :   1.3464 B( 46-C , 50-C ) :   1.2662
B( 47-C , 48-S ) :   1.3359 B( 48-S , 49-C ) :   1.1846 B( 48-S , 50-C ) :   0.1027
B( 49-C , 50-C ) :   1.4102 B( 49-C , 53-C ) :   1.2090 B( 50-C , 51-C ) :   0.9273
B( 51-C , 52-C ) :   0.9401 B( 51-C , 94-H ) :   0.9634 B( 51-C , 95-H ) :   0.9692
B( 52-C , 96-H ) :   0.9762 B( 52-C , 97-H ) :   0.9730 B( 52-C , 98-H ) :   0.9705
B( 53-C , 54-C ) :   1.4813 B( 53-C , 99-H ) :   0.9244 B( 54-C , 55-C ) :   1.0882
B( 54-C , 67-C ) :   1.0128 B( 55-C , 56-C ) :   1.4613 B( 55-C , 61-C ) :   1.0310
B( 56-C , 57-C ) :   1.0274 B( 56-C , 59-C ) :   1.0177 B( 57-C , 58-N ) :   2.9867
B( 59-C , 60-N ) :   3.0060 B( 61-C , 62-C ) :   1.3952 B( 61-C , 66-C ) :   1.3229
B( 62-C , 63-C ) :   1.4249 B( 62-C ,100-H ) :   0.9237 B( 63-C , 64-C ) :   1.3854
B( 63-C ,101-H ) :   0.9648 B( 64-C , 65-C ) :   1.3736 B( 64-C ,102-H ) :   0.9699
B( 65-C , 66-C ) :   1.3888 B( 65-C ,103-H ) :   0.9758 B( 66-C , 67-C ) :   0.9721
B( 66-C , 68-O ) :  -0.1416 B( 67-C , 68-O ) :   2.0789

-----------------------------------------------------------------------------
  SOC CORRECTED ABSORPTION SPECTRUM VIA TRANSITION ELECTRIC DIPOLE MOMENTS*
-----------------------------------------------------------------------------
State   Energy  Wavelength   fosc         T2         TX        TY        TZ
        (cm-1)    (nm)                  (au**2)     (au)      (au)      (au)
-----------------------------------------------------------------------------
   1   10515.5    951.0   0.000000011   0.00000   0.00047   0.00022   0.00025
   2   10515.5    951.0   0.000000001   0.00000   0.00008   0.00012   0.00003
   3   10515.5    951.0   0.000000008   0.00000   0.00039   0.00027   0.00014
   4   12482.6    801.1   0.000000001   0.00000   0.00014   0.00008   0.00003
   5   12482.6    801.1   0.000000002   0.00000   0.00021   0.00007   0.00012
   6   12482.6    801.1   0.000000012   0.00000   0.00047   0.00027   0.00017
   7   14993.7    666.9   2.608289886  57.26955   6.42948   2.26727   3.28494
   8   16743.4    597.2   0.000000101   0.00000   0.00118   0.00013   0.00076
   9   16743.4    597.2   0.000000003   0.00000   0.00019   0.00002   0.00012
  10   16743.4    597.2   0.000000305   0.00001   0.00203   0.00043   0.00130
  11   17126.4    583.9   0.171472266   3.29612   1.08603   0.80576   1.21136
  12   19063.4    524.6   0.044835909   0.77429   0.43135   0.74005   0.20138

FINAL SINGLE POINT ENERGY     -4313.873130153878

DIPOLE MOMENT
-------------
                                X             Y             Z
Electronic contribution:      6.59600       8.65325      -2.33130
Nuclear contribution   :     -7.02668      -8.52039       4.93897
                        -----------------------------------------
Total Dipole Moment    :     -0.43068       0.13285       2.60767
                        -----------------------------------------
Magnitude (a.u.)       :      2.64633
Magnitude (Debye)      :      6.72643

Rotational constants in cm-1:     0.001769     0.000307     0.000269
Rotational constants in MHz :    53.020371     9.211679     8.078137

                             ****ORCA TERMINATED NORMALLY****
TOTAL RUN TIME: 0 days 3 hours 40 minutes 40 seconds 758 msec
