                         Program Version 4.2.0 -  RELEASE  -
|  1> # ORCA input file
|  2> # Y2.out: Geometry 28
|  3> ! B3LYP def2-TZVP def2/J RIJCOSX Grid4 TightSCF
|  4>
|  5> %maxcore 6000
|  6> %tddft
|  7>   maxdim 5
|  8>   nroots 3
|  9>   dosoc true
| 10>   end
| 11> %pal
| 12>   nprocs 6
| 13>   end
| 14>
| 15>
| 16> * xyz 0 1
| 17>    C        4.82402         1.98656        -0.92646
| 18>    O        5.93157         2.44528        -1.11345
| 19>    C        3.50424         2.60185        -1.20098
| 20>    C        3.03899         3.77639        -1.72452
| 21>    S        1.30401         3.78766        -1.71473
| 22>    C        1.20542         2.21048        -0.99684
| 23>    C        2.46596         1.69954        -0.78609
| 24>    C        3.07311         0.49685        -0.18881
| 25>    C        2.37557        -0.42636         0.57687
| 26>    C        0.94906        -0.38913         0.63306
| 27>    N       -0.21277        -0.34731         0.64076
| 28>    C        3.01685        -1.36752         1.43036
| 29>    N        3.54610        -2.11701         2.14453
| 30>    C        4.50856         0.60184        -0.40176
| 31>    C        5.57251        -0.27015        -0.33522
| 32>    C        5.69257        -1.68066        -0.29603
| 33>    S        7.32394        -2.32501        -0.02106
| 34>    C        6.77173        -3.94168        -0.27235
| 35>    C        5.38497        -3.97412        -0.56491
| 36>    C        4.78187        -2.70962        -0.57000
| 37>    S        4.78321        -5.60825        -0.85365
| 38>    C        6.39462        -6.23078        -0.58361
| 39>    C        7.33423        -5.23362        -0.28771
| 40>    N        8.57418        -5.79974        -0.06737
| 41>    C        9.62517        -4.98029         0.52995
| 42>    C       10.38743        -4.12056        -0.47647
| 43>    C        8.45533        -7.18761        -0.24949
| 44>    C        7.07350        -7.46516        -0.54987
| 45>    C        6.62692        -8.80727        -0.71827
| 46>    N        5.40019        -9.31456        -0.91895
| 47>    N        5.61568       -10.62511        -0.96163
| 48>    C        4.51178       -11.57607        -1.00298
| 49>    C        4.06414       -11.98959         0.39837
| 50>    N        6.87003       -11.03008        -0.79492
| 51>    C        7.54799        -9.88213        -0.63965
| 52>    C        8.93421        -9.62480        -0.43260
| 53>    C        9.40374        -8.27451        -0.23285
| 54>    N       10.79970        -8.33221        -0.11955
| 55>    C       11.80712        -7.30630         0.11551
| 56>    C       12.19492        -7.17422         1.58861
| 57>    C       11.18943        -9.65150        -0.22772
| 58>    C       10.06374       -10.46589        -0.42224
| 59>    S       10.46042       -12.15522        -0.64094
| 60>    C       12.17279       -11.75094        -0.46631
| 61>    C       12.40399       -10.37043        -0.24653
| 62>    S       14.09321        -9.99782        -0.09481
| 63>    C       14.51200       -11.70908        -0.34114
| 64>    C       13.35317       -12.49382        -0.51560
| 65>    C       15.79669       -12.30486        -0.40306
| 66>    C       17.08566       -11.82324        -0.28716
| 67>    C       18.31204       -12.62505        -0.38435
| 68>    C       18.46598       -13.96805        -0.68470
| 69>    C       19.76562       -14.55910        -0.72984
| 70>    N       20.82803       -15.02932        -0.76438
| 71>    C       17.39238       -14.85792        -0.99069
| 72>    N       16.53854       -15.60410        -1.24841
| 73>    C       19.43620       -11.71295        -0.12291
| 74>    C       20.80839       -11.77911        -0.02666
| 75>    S       21.46799       -10.20685         0.30083
| 76>    C       19.90529        -9.45292         0.31391
| 77>    C       18.93350       -10.38528         0.07847
| 78>    C       17.45720       -10.40278        -0.01948
| 79>    O       16.69822        -9.45517         0.09585
| 80>    H        3.60569         4.62486        -2.10415
| 81>    H        0.23592         1.77103        -0.77453
| 82>    H        6.52634         0.26576        -0.43834
| 83>    H        3.73900        -2.52298        -0.81725
| 84>    H       10.29075        -5.62653         1.10558
| 85>    H        9.13728        -4.32868         1.27261
| 86>    H       11.15107        -3.52325         0.04603
| 87>    H        9.71249        -3.42399        -0.99588
| 88>    H       10.88487        -4.72861        -1.24660
| 89>    H        4.86403       -12.44151        -1.58100
| 90>    H        3.70126       -11.08404        -1.55717
| 91>    H        4.89705       -12.45529         0.94656
| 92>    H        3.24009       -12.71665         0.33577
| 93>    H        3.71131       -11.11593         0.96696
| 94>    H       11.45845        -6.36579        -0.31311
| 95>    H       12.69158        -7.58469        -0.47761
| 96>    H       11.31589        -6.98464         2.22341
| 97>    H       12.91133        -6.35063         1.73053
| 98>    H       12.67079        -8.09849         1.94771
| 99>    H       13.41523       -13.56895        -0.69066
|100>    H       15.71096       -13.37685        -0.58849
|101>    H       21.46940       -12.63604        -0.13228
|102>    H       19.79391        -8.38630         0.50150
|103> *
|104>
|105>                          ****END OF INPUT****

CARTESIAN COORDINATES (ANGSTROEM)
---------------------------------
  C      4.824020    1.986560   -0.926460
  O      5.931570    2.445280   -1.113450
  C      3.504240    2.601850   -1.200980
  C      3.038990    3.776390   -1.724520
  S      1.304010    3.787660   -1.714730
  C      1.205420    2.210480   -0.996840
  C      2.465960    1.699540   -0.786090
  C      3.073110    0.496850   -0.188810
  C      2.375570   -0.426360    0.576870
  C      0.949060   -0.389130    0.633060
  N     -0.212770   -0.347310    0.640760
  C      3.016850   -1.367520    1.430360
  N      3.546100   -2.117010    2.144530
  C      4.508560    0.601840   -0.401760
  C      5.572510   -0.270150   -0.335220
  C      5.692570   -1.680660   -0.296030
  S      7.323940   -2.325010   -0.021060
  C      6.771730   -3.941680   -0.272350
  C      5.384970   -3.974120   -0.564910
  C      4.781870   -2.709620   -0.570000
  S      4.783210   -5.608250   -0.853650
  C      6.394620   -6.230780   -0.583610
  C      7.334230   -5.233620   -0.287710
  N      8.574180   -5.799740   -0.067370
  C      9.625170   -4.980290    0.529950
  C     10.387430   -4.120560   -0.476470
  C      8.455330   -7.187610   -0.249490
  C      7.073500   -7.465160   -0.549870
  C      6.626920   -8.807270   -0.718270
  N      5.400190   -9.314560   -0.918950
  N      5.615680  -10.625110   -0.961630
  C      4.511780  -11.576070   -1.002980
  C      4.064140  -11.989590    0.398370
  N      6.870030  -11.030080   -0.794920
  C      7.547990   -9.882130   -0.639650
  C      8.934210   -9.624800   -0.432600
  C      9.403740   -8.274510   -0.232850
  N     10.799700   -8.332210   -0.119550
  C     11.807120   -7.306300    0.115510
  C     12.194920   -7.174220    1.588610
  C     11.189430   -9.651500   -0.227720
  C     10.063740  -10.465890   -0.422240
  S     10.460420  -12.155220   -0.640940
  C     12.172790  -11.750940   -0.466310
  C     12.403990  -10.370430   -0.246530
  S     14.093210   -9.997820   -0.094810
  C     14.512000  -11.709080   -0.341140
  C     13.353170  -12.493820   -0.515600
  C     15.796690  -12.304860   -0.403060
  C     17.085660  -11.823240   -0.287160
  C     18.312040  -12.625050   -0.384350
  C     18.465980  -13.968050   -0.684700
  C     19.765620  -14.559100   -0.729840
  N     20.828030  -15.029320   -0.764380
  C     17.392380  -14.857920   -0.990690
  N     16.538540  -15.604100   -1.248410
  C     19.436200  -11.712950   -0.122910
  C     20.808390  -11.779110   -0.026660
  S     21.467990  -10.206850    0.300830
  C     19.905290   -9.452920    0.313910
  C     18.933500  -10.385280    0.078470
  C     17.457200  -10.402780   -0.019480
  O     16.698220   -9.455170    0.095850
  H      3.605690    4.624860   -2.104150
  H      0.235920    1.771030   -0.774530
  H      6.526340    0.265760   -0.438340
  H      3.739000   -2.522980   -0.817250
  H     10.290750   -5.626530    1.105580
  H      9.137280   -4.328680    1.272610
  H     11.151070   -3.523250    0.046030
  H      9.712490   -3.423990   -0.995880
  H     10.884870   -4.728610   -1.246600
  H      4.864030  -12.441510   -1.581000
  H      3.701260  -11.084040   -1.557170
  H      4.897050  -12.455290    0.946560
  H      3.240090  -12.716650    0.335770
  H      3.711310  -11.115930    0.966960
  H     11.458450   -6.365790   -0.313110
  H     12.691580   -7.584690   -0.477610
  H     11.315890   -6.984640    2.223410
  H     12.911330   -6.350630    1.730530
  H     12.670790   -8.098490    1.947710
  H     13.415230  -13.568950   -0.690660
  H     15.710960  -13.376850   -0.588490
  H     21.469400  -12.636040   -0.132280
  H     19.793910   -8.386300    0.501500

 Total Charge           Charge          ....    0
 Multiplicity           Mult            ....    1
 Number of Electrons    NEL             ....  474
 Basis Dimension        Dim             .... 2127

ORBITAL ENERGIES
----------------

  NO   OCC          E(Eh)            E(eV)
   0   2.0000     -88.919632     -2419.6262
   1   2.0000     -88.918907     -2419.6065
   2   2.0000     -88.914772     -2419.4939
   3   2.0000     -88.910405     -2419.3751
   4   2.0000     -88.908193     -2419.3149
   5   2.0000     -88.906900     -2419.2798
   6   2.0000     -19.132821      -520.6305
   7   2.0000     -19.127494      -520.4856
   8   2.0000     -14.444458      -393.0537
   9   2.0000     -14.403959      -391.9517
  10   2.0000     -14.403895      -391.9499
  11   2.0000     -14.362660      -390.8279
  12   2.0000     -14.362245      -390.8166
  13   2.0000     -14.329729      -389.9317
  14   2.0000     -14.329033      -389.9128
  15   2.0000     -14.328762      -389.9054
  16   2.0000     -14.326296      -389.8383
  17   2.0000     -10.281034      -279.7612
  18   2.0000     -10.277664      -279.6695
  19   2.0000     -10.262653      -279.2610
  20   2.0000     -10.262232      -279.2495
  21   2.0000     -10.256774      -279.1010
  22   2.0000     -10.256003      -279.0800
  23   2.0000     -10.255877      -279.0766
  24   2.0000     -10.254478      -279.0385
  25   2.0000     -10.252432      -278.9829
  26   2.0000     -10.250603      -278.9331
  27   2.0000     -10.246752      -278.8283
  28   2.0000     -10.244732      -278.7733
  29   2.0000     -10.243526      -278.7405
  30   2.0000     -10.242549      -278.7139
  31   2.0000     -10.242236      -278.7054
  32   2.0000     -10.241058      -278.6734
  33   2.0000     -10.238439      -278.6021
  34   2.0000     -10.236206      -278.5413
  35   2.0000     -10.236016      -278.5362
  36   2.0000     -10.235579      -278.5243
  37   2.0000     -10.235350      -278.5180
  38   2.0000     -10.234458      -278.4938
  39   2.0000     -10.233695      -278.4730
  40   2.0000     -10.231261      -278.4068
  41   2.0000     -10.230545      -278.3873
  42   2.0000     -10.230225      -278.3786
  43   2.0000     -10.229192      -278.3505
  44   2.0000     -10.228717      -278.3376
  45   2.0000     -10.228652      -278.3358
  46   2.0000     -10.227140      -278.2946
  47   2.0000     -10.226549      -278.2785
  48   2.0000     -10.224022      -278.2098
  49   2.0000     -10.222540      -278.1695
  50   2.0000     -10.222003      -278.1548
  51   2.0000     -10.221672      -278.1458
  52   2.0000     -10.219675      -278.0915
  53   2.0000     -10.219119      -278.0764
  54   2.0000     -10.217846      -278.0417
  55   2.0000     -10.217350      -278.0282
  56   2.0000     -10.215964      -277.9905
  57   2.0000     -10.215046      -277.9655
  58   2.0000     -10.207393      -277.7573
  59   2.0000     -10.207220      -277.7526
  60   2.0000     -10.203394      -277.6485
  61   2.0000     -10.201146      -277.5873
  62   2.0000     -10.185510      -277.1618
  63   2.0000      -7.994824      -217.5502
  64   2.0000      -7.994105      -217.5306
  65   2.0000      -7.990722      -217.4386
  66   2.0000      -7.984847      -217.2787
  67   2.0000      -7.983038      -217.2295
  68   2.0000      -7.981785      -217.1954
  69   2.0000      -5.957232      -162.1045
  70   2.0000      -5.956511      -162.0849
  71   2.0000      -5.953357      -161.9991
  72   2.0000      -5.952977      -161.9887
  73   2.0000      -5.952311      -161.9706
  74   2.0000      -5.952256      -161.9691
  75   2.0000      -5.951586      -161.9509
  76   2.0000      -5.949660      -161.8985
  77   2.0000      -5.947790      -161.8476
  78   2.0000      -5.947042      -161.8272
  79   2.0000      -5.946176      -161.8037
  80   2.0000      -5.944935      -161.7699
  81   2.0000      -5.943686      -161.7359
  82   2.0000      -5.942408      -161.7012
  83   2.0000      -5.941184      -161.6678
  84   2.0000      -5.941025      -161.6635
  85   2.0000      -5.938602      -161.5976
  86   2.0000      -5.937297      -161.5621
  87   2.0000      -1.122156       -30.5354
  88   2.0000      -1.059794       -28.8384
  89   2.0000      -1.055660       -28.7260
  90   2.0000      -1.031027       -28.0557
  91   2.0000      -1.020478       -27.7686
  92   2.0000      -0.935382       -25.4530
  93   2.0000      -0.934856       -25.4387
  94   2.0000      -0.928565       -25.2675
  95   2.0000      -0.924787       -25.1647
  96   2.0000      -0.921206       -25.0673
  97   2.0000      -0.920170       -25.0391
  98   2.0000      -0.915327       -24.9073
  99   2.0000      -0.914621       -24.8881
 100   2.0000      -0.910375       -24.7725
 101   2.0000      -0.897779       -24.4298
 102   2.0000      -0.878109       -23.8946
 103   2.0000      -0.876801       -23.8590
 104   2.0000      -0.868677       -23.6379
 105   2.0000      -0.867081       -23.5945
 106   2.0000      -0.849870       -23.1261
 107   2.0000      -0.831951       -22.6385
 108   2.0000      -0.817725       -22.2514
 109   2.0000      -0.815101       -22.1800
 110   2.0000      -0.806585       -21.9483
 111   2.0000      -0.798328       -21.7236
 112   2.0000      -0.797405       -21.6985
 113   2.0000      -0.788017       -21.4430
 114   2.0000      -0.780487       -21.2381
 115   2.0000      -0.772679       -21.0257
 116   2.0000      -0.759845       -20.6764
 117   2.0000      -0.759428       -20.6651
 118   2.0000      -0.757901       -20.6235
 119   2.0000      -0.749403       -20.3923
 120   2.0000      -0.734143       -19.9770
 121   2.0000      -0.728681       -19.8284
 122   2.0000      -0.724785       -19.7224
 123   2.0000      -0.703035       -19.1306
 124   2.0000      -0.696634       -18.9564
 125   2.0000      -0.690136       -18.7795
 126   2.0000      -0.682373       -18.5683
 127   2.0000      -0.674199       -18.3459
 128   2.0000      -0.668566       -18.1926
 129   2.0000      -0.660053       -17.9609
 130   2.0000      -0.644530       -17.5385
 131   2.0000      -0.642919       -17.4947
 132   2.0000      -0.626860       -17.0577
 133   2.0000      -0.623219       -16.9586
 134   2.0000      -0.612302       -16.6616
 135   2.0000      -0.605147       -16.4669
 136   2.0000      -0.596417       -16.2293
 137   2.0000      -0.591069       -16.0838
 138   2.0000      -0.589220       -16.0335
 139   2.0000      -0.585042       -15.9198
 140   2.0000      -0.580022       -15.7832
 141   2.0000      -0.577849       -15.7241
 142   2.0000      -0.568305       -15.4644
 143   2.0000      -0.564588       -15.3632
 144   2.0000      -0.563968       -15.3464
 145   2.0000      -0.557784       -15.1781
 146   2.0000      -0.546814       -14.8796
 147   2.0000      -0.544087       -14.8054
 148   2.0000      -0.533721       -14.5233
 149   2.0000      -0.526933       -14.3386
 150   2.0000      -0.525266       -14.2932
 151   2.0000      -0.524082       -14.2610
 152   2.0000      -0.521941       -14.2027
 153   2.0000      -0.513698       -13.9784
 154   2.0000      -0.502886       -13.6842
 155   2.0000      -0.499290       -13.5864
 156   2.0000      -0.493765       -13.4360
 157   2.0000      -0.488726       -13.2989
 158   2.0000      -0.482416       -13.1272
 159   2.0000      -0.478809       -13.0291
 160   2.0000      -0.472578       -12.8595
 161   2.0000      -0.471342       -12.8259
 162   2.0000      -0.465573       -12.6689
 163   2.0000      -0.463276       -12.6064
 164   2.0000      -0.459648       -12.5076
 165   2.0000      -0.459467       -12.5027
 166   2.0000      -0.457616       -12.4524
 167   2.0000      -0.457185       -12.4406
 168   2.0000      -0.454613       -12.3707
 169   2.0000      -0.451795       -12.2940
 170   2.0000      -0.451254       -12.2793
 171   2.0000      -0.445279       -12.1167
 172   2.0000      -0.441373       -12.0104
 173   2.0000      -0.439416       -11.9571
 174   2.0000      -0.437308       -11.8997
 175   2.0000      -0.433854       -11.8058
 176   2.0000      -0.430141       -11.7047
 177   2.0000      -0.429618       -11.6905
 178   2.0000      -0.426543       -11.6068
 179   2.0000      -0.422499       -11.4968
 180   2.0000      -0.419799       -11.4233
 181   2.0000      -0.418193       -11.3796
 182   2.0000      -0.417307       -11.3555
 183   2.0000      -0.414981       -11.2922
 184   2.0000      -0.412744       -11.2313
 185   2.0000      -0.411075       -11.1859
 186   2.0000      -0.408506       -11.1160
 187   2.0000      -0.407299       -11.0832
 188   2.0000      -0.405370       -11.0307
 189   2.0000      -0.402424       -10.9505
 190   2.0000      -0.401914       -10.9366
 191   2.0000      -0.397630       -10.8201
 192   2.0000      -0.396486       -10.7889
 193   2.0000      -0.395024       -10.7491
 194   2.0000      -0.394088       -10.7237
 195   2.0000      -0.387652       -10.5485
 196   2.0000      -0.385753       -10.4969
 197   2.0000      -0.384695       -10.4681
 198   2.0000      -0.384329       -10.4581
 199   2.0000      -0.380788       -10.3618
 200   2.0000      -0.380576       -10.3560
 201   2.0000      -0.377481       -10.2718
 202   2.0000      -0.375444       -10.2163
 203   2.0000      -0.372661       -10.1406
 204   2.0000      -0.372209       -10.1283
 205   2.0000      -0.367809       -10.0086
 206   2.0000      -0.363327        -9.8866
 207   2.0000      -0.361873        -9.8471
 208   2.0000      -0.358174        -9.7464
 209   2.0000      -0.356976        -9.7138
 210   2.0000      -0.356420        -9.6987
 211   2.0000      -0.354120        -9.6361
 212   2.0000      -0.350014        -9.5244
 213   2.0000      -0.345499        -9.4015
 214   2.0000      -0.344218        -9.3666
 215   2.0000      -0.342620        -9.3232
 216   2.0000      -0.342067        -9.3081
 217   2.0000      -0.337669        -9.1884
 218   2.0000      -0.335782        -9.1371
 219   2.0000      -0.330740        -8.9999
 220   2.0000      -0.314944        -8.5701
 221   2.0000      -0.310291        -8.4435
 222   2.0000      -0.308689        -8.3999
 223   2.0000      -0.296187        -8.0597
 224   2.0000      -0.286523        -7.7967
 225   2.0000      -0.278703        -7.5839
 226   2.0000      -0.278193        -7.5700
 227   2.0000      -0.275774        -7.5042
 228   2.0000      -0.273514        -7.4427
 229   2.0000      -0.268656        -7.3105
 230   2.0000      -0.265432        -7.2228
 231   2.0000      -0.259635        -7.0650
 232   2.0000      -0.254545        -6.9265
 233   2.0000      -0.242363        -6.5950
 234   2.0000      -0.235384        -6.4051
 235   2.0000      -0.226920        -6.1748
 236   2.0000      -0.203625        -5.5409
 237   0.0000      -0.133049        -3.6204
 238   0.0000      -0.122382        -3.3302
 239   0.0000      -0.093819        -2.5529
 240   0.0000      -0.091695        -2.4952
 241   0.0000      -0.072386        -1.9697

MULLIKEN ATOMIC CHARGES
-----------------------
   0 C :    0.209440
   1 O :   -0.294474
   2 C :   -0.126882
   3 C :   -0.147261
   4 S :    0.120230
   5 C :   -0.172394
   6 C :    0.098298
   7 C :    0.013257
   8 C :    0.073020
   9 C :   -0.211612
  10 N :   -0.012002
  11 C :   -0.213360
  12 N :    0.016086
  13 C :   -0.035084
  14 C :   -0.201945
  15 C :    0.209391
  16 S :   -0.000552
  17 C :   -0.195004
  18 C :    0.120258
  19 C :   -0.302692
  20 S :    0.059005
  21 C :   -0.155600
  22 C :    0.329428
  23 N :   -0.041836
  24 C :   -0.221471
  25 C :   -0.311095
  26 C :   -0.002675
  27 C :    0.068337
  28 C :    0.019175
  29 N :   -0.234943
  30 N :    0.253639
  31 C :   -0.089128
  32 C :   -0.348960
  33 N :   -0.235997
  34 C :    0.022946
  35 C :    0.053936
  36 C :    0.008977
  37 N :   -0.034327
  38 C :   -0.209870
  39 C :   -0.309438
  40 C :    0.303992
  41 C :   -0.136261
  42 S :    0.051540
  43 C :    0.024444
  44 C :   -0.147110
  45 S :    0.041408
  46 C :    0.047691
  47 C :   -0.182471
  48 C :   -0.178471
  49 C :   -0.049828
  50 C :    0.024298
  51 C :    0.131546
  52 C :   -0.213115
  53 N :   -0.010031
  54 C :   -0.191906
  55 N :    0.004616
  56 C :    0.065010
  57 C :   -0.176427
  58 S :    0.118244
  59 C :   -0.134850
  60 C :   -0.038755
  61 C :    0.174385
  62 O :   -0.343570
  63 H :    0.169850
  64 H :    0.191003
  65 H :    0.147868
  66 H :    0.161008
  67 H :    0.126650
  68 H :    0.140399
  69 H :    0.124919
  70 H :    0.131608
  71 H :    0.124035
  72 H :    0.124341
  73 H :    0.128332
  74 H :    0.127195
  75 H :    0.115008
  76 H :    0.125849
  77 H :    0.111016
  78 H :    0.136031
  79 H :    0.121040
  80 H :    0.125667
  81 H :    0.136714
  82 H :    0.154903
  83 H :    0.163265
  84 H :    0.194744
  85 H :    0.167358
Sum of atomic charges:   -0.0000000

LOEWDIN ATOMIC CHARGES
----------------------
   0 C :   -0.252161
   1 O :    0.124226
   2 C :   -0.132229
   3 C :   -0.314148
   4 S :    0.749268
   5 C :   -0.322580
   6 C :   -0.112067
   7 C :    0.002902
   8 C :   -0.149476
   9 C :   -0.149221
  10 N :    0.064803
  11 C :   -0.157803
  12 N :    0.083559
  13 C :   -0.079944
  14 C :   -0.075628
  15 C :   -0.328964
  16 S :    0.754734
  17 C :   -0.336033
  18 C :   -0.338638
  19 C :   -0.107330
  20 S :    0.740947
  21 C :   -0.283550
  22 C :   -0.185591
  23 N :    0.283772
  24 C :   -0.271306
  25 C :   -0.305850
  26 C :   -0.080943
  27 C :   -0.084743
  28 C :   -0.205040
  29 N :    0.082437
  30 N :    0.134514
  31 C :   -0.265771
  32 C :   -0.298800
  33 N :    0.082291
  34 C :   -0.204711
  35 C :   -0.085430
  36 C :   -0.080483
  37 N :    0.287320
  38 C :   -0.270491
  39 C :   -0.302482
  40 C :   -0.185392
  41 C :   -0.284888
  42 S :    0.729571
  43 C :   -0.346735
  44 C :   -0.332818
  45 S :    0.765513
  46 C :   -0.322082
  47 C :   -0.115050
  48 C :   -0.057451
  49 C :   -0.084634
  50 C :    0.010823
  51 C :   -0.141952
  52 C :   -0.148302
  53 N :    0.064279
  54 C :   -0.160232
  55 N :    0.063974
  56 C :   -0.112843
  57 C :   -0.318790
  58 S :    0.749354
  59 C :   -0.316389
  60 C :   -0.132325
  61 C :   -0.254847
  62 O :    0.109278
  63 H :    0.140187
  64 H :    0.143856
  65 H :    0.174053
  66 H :    0.159517
  67 H :    0.140005
  68 H :    0.143812
  69 H :    0.130197
  70 H :    0.120753
  71 H :    0.119505
  72 H :    0.141594
  73 H :    0.142341
  74 H :    0.125678
  75 H :    0.126041
  76 H :    0.125509
  77 H :    0.137497
  78 H :    0.142421
  79 H :    0.120313
  80 H :    0.129170
  81 H :    0.126722
  82 H :    0.158217
  83 H :    0.181513
  84 H :    0.144621
  85 H :    0.139059

  Mayer bond orders larger than 0.100000
B(  0-C ,  1-O ) :   2.1611 B(  0-C ,  2-C ) :   0.9872 B(  0-C , 13-C ) :   0.9747
B(  1-O ,  2-C ) :  -0.1032 B(  1-O , 13-C ) :  -0.1131 B(  2-C ,  3-C ) :   1.6213
B(  2-C ,  6-C ) :   1.1408 B(  3-C ,  4-S ) :   1.2779 B(  3-C , 63-H ) :   0.9214
B(  4-S ,  5-C ) :   1.3045 B(  5-C ,  6-C ) :   1.5783 B(  5-C , 64-H ) :   0.9011
B(  6-C ,  7-C ) :   1.0318 B(  7-C ,  8-C ) :   1.4037 B(  7-C , 13-C ) :   1.1564
B(  8-C ,  9-C ) :   1.0507 B(  8-C , 11-C ) :   1.0581 B(  9-C , 10-N ) :   2.9835
B( 11-C , 12-N ) :   2.9794 B( 13-C , 14-C ) :   1.5088 B( 14-C , 15-C ) :   1.1280
B( 14-C , 65-H ) :   0.9262 B( 15-C , 16-S ) :   1.1911 B( 15-C , 19-C ) :   1.4059
B( 16-S , 17-C ) :   1.3506 B( 16-S , 19-C ) :   0.1089 B( 16-S , 22-C ) :  -0.1455
B( 17-C , 18-C ) :   1.3462 B( 17-C , 22-C ) :   1.0945 B( 18-C , 19-C ) :   1.2714
B( 18-C , 20-S ) :   1.1739 B( 19-C , 66-H ) :   0.9508 B( 20-S , 21-C ) :   1.3196
B( 21-C , 22-C ) :   1.2930 B( 21-C , 27-C ) :   1.1963 B( 22-C , 23-N ) :   1.1269
B( 23-N , 24-C ) :   0.8818 B( 23-N , 26-C ) :   1.2174 B( 24-C , 25-C ) :   0.9439
B( 24-C , 67-H ) :   0.9554 B( 24-C , 68-H ) :   0.9657 B( 25-C , 69-H ) :   0.9702
B( 25-C , 70-H ) :   0.9629 B( 25-C , 71-H ) :   0.9602 B( 26-C , 27-C ) :   1.2268
B( 26-C , 36-C ) :   1.3360 B( 27-C , 28-C ) :   1.1581 B( 28-C , 29-N ) :   1.5126
B( 28-C , 34-C ) :   1.2334 B( 29-N , 30-N ) :   1.1729 B( 29-N , 33-N ) :   0.1197
B( 30-N , 31-C ) :   0.8928 B( 30-N , 33-N ) :   1.1665 B( 31-C , 32-C ) :   0.9607
B( 31-C , 72-H ) :   0.9603 B( 31-C , 73-H ) :   0.9608 B( 32-C , 74-H ) :   0.9701
B( 32-C , 75-H ) :   0.9661 B( 32-C , 76-H ) :   0.9698 B( 33-N , 34-C ) :   1.5088
B( 34-C , 35-C ) :   1.1510 B( 35-C , 36-C ) :   1.2216 B( 35-C , 41-C ) :   1.2083
B( 36-C , 37-N ) :   1.2257 B( 37-N , 38-C ) :   0.8923 B( 37-N , 40-C ) :   1.1166
B( 38-C , 39-C ) :   0.9450 B( 38-C , 77-H ) :   0.9554 B( 38-C , 78-H ) :   0.9613
B( 39-C , 79-H ) :   0.9616 B( 39-C , 80-H ) :   0.9714 B( 39-C , 81-H ) :   0.9618
B( 40-C , 41-C ) :   1.2937 B( 40-C , 44-C ) :   1.0852 B( 40-C , 45-S ) :  -0.1491
B( 41-C , 42-S ) :   1.3053 B( 42-S , 43-C ) :   1.1757 B( 43-C , 44-C ) :   1.3084
B( 43-C , 47-C ) :   1.3474 B( 44-C , 45-S ) :   1.3672 B( 45-S , 46-C ) :   1.2762
B( 46-C , 47-C ) :   1.3238 B( 46-C , 48-C ) :   1.2883 B( 47-C , 82-H ) :   0.9438
B( 48-C , 49-C ) :   1.3991 B( 48-C , 83-H ) :   0.8914 B( 49-C , 50-C ) :   1.1389
B( 49-C , 61-C ) :   0.9756 B( 50-C , 51-C ) :   1.4528 B( 50-C , 56-C ) :   1.0351
B( 51-C , 52-C ) :   1.0260 B( 51-C , 54-C ) :   1.0291 B( 52-C , 53-N ) :   2.9840
B( 54-C , 55-N ) :   2.9794 B( 56-C , 57-C ) :   1.5920 B( 56-C , 60-C ) :   1.1572
B( 57-C , 58-S ) :   1.3158 B( 57-C , 84-H ) :   0.8922 B( 58-S , 59-C ) :   1.2695
B( 59-C , 60-C ) :   1.6181 B( 59-C , 85-H ) :   0.9226 B( 60-C , 61-C ) :   1.0641
B( 60-C , 62-O ) :  -0.1078 B( 61-C , 62-O ) :   2.0544

-----------------------------------------------------------------------------
  SOC CORRECTED ABSORPTION SPECTRUM VIA TRANSITION ELECTRIC DIPOLE MOMENTS*
-----------------------------------------------------------------------------
State   Energy  Wavelength   fosc         T2         TX        TY        TZ
        (cm-1)    (nm)                  (au**2)     (au)      (au)      (au)
-----------------------------------------------------------------------------
   1   10129.1    987.3   0.000000001   0.00000   0.00011   0.00015   0.00001
   2   10129.1    987.3   0.000000000   0.00000   0.00007   0.00005   0.00000
   3   10129.1    987.3   0.000000018   0.00000   0.00051   0.00058   0.00001
   4   12131.8    824.3   0.000000003   0.00000   0.00019   0.00021   0.00001
   5   12131.8    824.3   0.000000000   0.00000   0.00005   0.00006   0.00000
   6   12131.8    824.3   0.000000007   0.00000   0.00022   0.00038   0.00001
   7   14757.8    677.6   2.918412786  65.10289   6.03326   5.35680   0.08616
   8   16000.8    625.0   0.000000012   0.00000   0.00044   0.00023   0.00001
   9   16000.8    625.0   0.000000001   0.00000   0.00013   0.00011   0.00000
  10   16000.8    625.0   0.000000097   0.00000   0.00076   0.00119   0.00004
  11   17063.8    586.0   0.146862234   2.83341   1.68035   0.04079   0.09035
  12   18020.5    554.9   0.009634537   0.17601   0.29134   0.28434   0.10142

FINAL SINGLE POINT ENERGY     -4798.172971734472

DIPOLE MOMENT
-------------
                                X             Y             Z
Electronic contribution:      5.24426       6.42588      -6.91069
Nuclear contribution   :     -5.24028      -4.47981       6.58182
                        -----------------------------------------
Total Dipole Moment    :      0.00398       1.94607      -0.32888
                        -----------------------------------------
Magnitude (a.u.)       :      1.97367
Magnitude (Debye)      :      5.01666

Rotational constants in cm-1:     0.002161     0.000311     0.000276
Rotational constants in MHz :    64.784682     9.310306     8.260349

                             ****ORCA TERMINATED NORMALLY****
TOTAL RUN TIME: 0 days 1 hours 42 minutes 11 seconds 805 msec
