                         Program Version 4.2.0 -  RELEASE  -
|  1> # ORCA input file
|  2> # Y5.out: Geometry 23
|  3> ! B3LYP def2-TZVP def2/J RIJCOSX Grid4 TightSCF
|  4>
|  5> %maxcore 6000
|  6> %tddft
|  7>   maxdim 5
|  8>   nroots 3
|  9>   dosoc true
| 10>   end
| 11> %pal
| 12>   nprocs 6
| 13>   end
| 14>
| 15>
| 16> * xyz 0 1
| 17>    C        0.76977        -1.75245        -1.34083
| 18>    O        1.24595        -1.57613        -2.44432
| 19>    C        1.49621        -1.92168        -0.05351
| 20>    C        2.86792        -1.97264         0.16100
| 21>    C        3.32491        -2.13666         1.47316
| 22>    C        2.41107        -2.23529         2.53110
| 23>    C        1.02827        -2.17980         2.31484
| 24>    C        0.56390        -2.03143         1.00272
| 25>    C       -0.80636        -1.89844         0.44334
| 26>    C       -1.94894        -1.58564         1.16282
| 27>    C       -3.12015        -1.07338         0.52429
| 28>    N       -4.05023        -0.60604         0.00701
| 29>    C       -1.99392        -1.62101         2.58964
| 30>    N       -2.04122        -1.67553         3.74999
| 31>    C       -0.68161        -1.90323        -1.00289
| 32>    C       -1.55795        -2.10232        -2.04178
| 33>    C       -2.83594        -2.70316        -2.13698
| 34>    S       -3.47587        -3.83302        -0.93077
| 35>    C       -4.84484        -4.16990        -1.93568
| 36>    C       -4.79717        -3.43512        -3.14170
| 37>    C       -3.67018        -2.60445        -3.26725
| 38>    C       -3.39770        -1.66669        -4.40793
| 39>    C       -3.53516        -0.19063        -4.00416
| 40>    S       -6.12108        -3.82192        -4.24376
| 41>    C       -6.71142        -4.98732        -3.09028
| 42>    C       -5.96628        -5.02589        -1.90204
| 43>    N       -6.48290        -5.98931        -1.04945
| 44>    C       -5.57273        -6.62928        -0.09597
| 45>    C       -4.66529        -7.65709        -0.76333
| 46>    C       -7.56058        -6.59287        -1.71099
| 47>    C       -7.69353        -5.99990        -3.00361
| 48>    C       -8.58550        -6.54866        -3.98271
| 49>    N       -8.74365        -6.14535        -5.23636
| 50>    S       -9.79199        -7.20710        -5.95481
| 51>    N      -10.06346        -8.21040        -4.66521
| 52>    C       -9.34959        -7.73935        -3.65116
| 53>    C       -9.30754        -8.24090        -2.30809
| 54>    C       -8.47116        -7.63226        -1.31817
| 55>    N       -8.77181        -8.20294        -0.08188
| 56>    C       -8.37393        -7.79571         1.26165
| 57>    C       -7.42246        -8.78857         1.92576
| 58>    C       -9.73574        -9.17305        -0.28179
| 59>    C      -10.06382        -9.23153        -1.64567
| 60>    S      -11.28126       -10.42209        -2.01196
| 61>    C      -11.37233       -10.83550        -0.29699
| 62>    C      -10.51589       -10.05400         0.50385
| 63>    S      -10.72629       -10.42414         2.18073
| 64>    C      -11.91619       -11.67972         1.79242
| 65>    C      -12.15305       -11.77939         0.41236
| 66>    C      -13.17322       -12.65898        -0.25805
| 67>    C      -12.57996       -13.59221        -1.32320
| 68>    C      -12.55344       -12.31941         2.90097
| 69>    C      -13.05018       -13.58686         3.06213
| 70>    C      -12.85895       -14.84815         2.35606
| 71>    C      -11.76303       -15.20629         1.59309
| 72>    C      -11.65277       -16.47396         0.94165
| 73>    N      -11.55123       -17.48677         0.38062
| 74>    C      -10.60931       -14.37414         1.45776
| 75>    N       -9.64237       -13.73914         1.34817
| 76>    C      -13.93353       -15.77031         2.80278
| 77>    C      -14.31626       -17.04193         2.35952
| 78>    C      -15.35744       -17.69567         3.03076
| 79>    C      -16.00093       -17.11425         4.13333
| 80>    C      -15.62541       -15.84302         4.57857
| 81>    C      -14.60699       -15.18525         3.89812
| 82>    C      -14.06399       -13.82361         4.14739
| 83>    O      -14.40307       -13.04049         5.01007
| 84>    H        3.55205        -1.88090        -0.68526
| 85>    H        4.39680        -2.18628         1.67980
| 86>    H        2.78469        -2.36312         3.54966
| 87>    H        0.34629        -2.25956         3.15931
| 88>    H       -1.11937        -1.82456        -3.00896
| 89>    H       -4.08592        -1.89978        -5.23526
| 90>    H       -2.38063        -1.85129        -4.79581
| 91>    H       -4.54361         0.02031        -3.61647
| 92>    H       -3.34132         0.46653        -4.86536
| 93>    H       -2.82242         0.06948        -3.20868
| 94>    H       -6.14848        -7.08760         0.70632
| 95>    H       -4.98322        -5.82794         0.37421
| 96>    H       -4.00888        -8.13045        -0.01695
| 97>    H       -4.03153        -7.18161        -1.52679
| 98>    H       -5.26163        -8.44518        -1.24872
| 99>    H       -9.29283        -7.69553         1.86206
|100>    H       -7.94672        -6.78703         1.19749
|101>    H       -7.92705        -9.74273         2.13678
|102>    H       -7.04997        -8.38223         2.87880
|103>    H       -6.56155        -9.00864         1.27902
|104>    H      -13.91363       -11.99667        -0.74239
|105>    H      -13.72340       -13.23924         0.49375
|106>    H      -11.82577       -14.26891        -0.90163
|107>    H      -12.08814       -13.02478        -2.12714
|108>    H      -13.37217       -14.20503        -1.77875
|109>    H      -12.74419       -11.67880         3.77392
|110>    H      -13.83343       -17.52388         1.51167
|111>    H      -15.67631       -18.68015         2.68159
|112>    H      -16.79818       -17.65967         4.64325
|113>    H      -16.10895       -15.36167         5.43062
|114> *
|115>
|116>                          ****END OF INPUT****

CARTESIAN COORDINATES (ANGSTROEM)
---------------------------------
  C      0.769770   -1.752450   -1.340830
  O      1.245950   -1.576130   -2.444320
  C      1.496210   -1.921680   -0.053510
  C      2.867920   -1.972640    0.161000
  C      3.324910   -2.136660    1.473160
  C      2.411070   -2.235290    2.531100
  C      1.028270   -2.179800    2.314840
  C      0.563900   -2.031430    1.002720
  C     -0.806360   -1.898440    0.443340
  C     -1.948940   -1.585640    1.162820
  C     -3.120150   -1.073380    0.524290
  N     -4.050230   -0.606040    0.007010
  C     -1.993920   -1.621010    2.589640
  N     -2.041220   -1.675530    3.749990
  C     -0.681610   -1.903230   -1.002890
  C     -1.557950   -2.102320   -2.041780
  C     -2.835940   -2.703160   -2.136980
  S     -3.475870   -3.833020   -0.930770
  C     -4.844840   -4.169900   -1.935680
  C     -4.797170   -3.435120   -3.141700
  C     -3.670180   -2.604450   -3.267250
  C     -3.397700   -1.666690   -4.407930
  C     -3.535160   -0.190630   -4.004160
  S     -6.121080   -3.821920   -4.243760
  C     -6.711420   -4.987320   -3.090280
  C     -5.966280   -5.025890   -1.902040
  N     -6.482900   -5.989310   -1.049450
  C     -5.572730   -6.629280   -0.095970
  C     -4.665290   -7.657090   -0.763330
  C     -7.560580   -6.592870   -1.710990
  C     -7.693530   -5.999900   -3.003610
  C     -8.585500   -6.548660   -3.982710
  N     -8.743650   -6.145350   -5.236360
  S     -9.791990   -7.207100   -5.954810
  N    -10.063460   -8.210400   -4.665210
  C     -9.349590   -7.739350   -3.651160
  C     -9.307540   -8.240900   -2.308090
  C     -8.471160   -7.632260   -1.318170
  N     -8.771810   -8.202940   -0.081880
  C     -8.373930   -7.795710    1.261650
  C     -7.422460   -8.788570    1.925760
  C     -9.735740   -9.173050   -0.281790
  C    -10.063820   -9.231530   -1.645670
  S    -11.281260  -10.422090   -2.011960
  C    -11.372330  -10.835500   -0.296990
  C    -10.515890  -10.054000    0.503850
  S    -10.726290  -10.424140    2.180730
  C    -11.916190  -11.679720    1.792420
  C    -12.153050  -11.779390    0.412360
  C    -13.173220  -12.658980   -0.258050
  C    -12.579960  -13.592210   -1.323200
  C    -12.553440  -12.319410    2.900970
  C    -13.050180  -13.586860    3.062130
  C    -12.858950  -14.848150    2.356060
  C    -11.763030  -15.206290    1.593090
  C    -11.652770  -16.473960    0.941650
  N    -11.551230  -17.486770    0.380620
  C    -10.609310  -14.374140    1.457760
  N     -9.642370  -13.739140    1.348170
  C    -13.933530  -15.770310    2.802780
  C    -14.316260  -17.041930    2.359520
  C    -15.357440  -17.695670    3.030760
  C    -16.000930  -17.114250    4.133330
  C    -15.625410  -15.843020    4.578570
  C    -14.606990  -15.185250    3.898120
  C    -14.063990  -13.823610    4.147390
  O    -14.403070  -13.040490    5.010070
  H      3.552050   -1.880900   -0.685260
  H      4.396800   -2.186280    1.679800
  H      2.784690   -2.363120    3.549660
  H      0.346290   -2.259560    3.159310
  H     -1.119370   -1.824560   -3.008960
  H     -4.085920   -1.899780   -5.235260
  H     -2.380630   -1.851290   -4.795810
  H     -4.543610    0.020310   -3.616470
  H     -3.341320    0.466530   -4.865360
  H     -2.822420    0.069480   -3.208680
  H     -6.148480   -7.087600    0.706320
  H     -4.983220   -5.827940    0.374210
  H     -4.008880   -8.130450   -0.016950
  H     -4.031530   -7.181610   -1.526790
  H     -5.261630   -8.445180   -1.248720
  H     -9.292830   -7.695530    1.862060
  H     -7.946720   -6.787030    1.197490
  H     -7.927050   -9.742730    2.136780
  H     -7.049970   -8.382230    2.878800
  H     -6.561550   -9.008640    1.279020
  H    -13.913630  -11.996670   -0.742390
  H    -13.723400  -13.239240    0.493750
  H    -11.825770  -14.268910   -0.901630
  H    -12.088140  -13.024780   -2.127140
  H    -13.372170  -14.205030   -1.778750
  H    -12.744190  -11.678800    3.773920
  H    -13.833430  -17.523880    1.511670
  H    -15.676310  -18.680150    2.681590
  H    -16.798180  -17.659670    4.643250
  H    -16.108950  -15.361670    5.430620

 Total Charge           Charge          ....    0
 Multiplicity           Mult            ....    1
 Number of Electrons    NEL             ....  494
 Basis Dimension        Dim             .... 2287

ORBITAL ENERGIES
----------------

  NO   OCC          E(Eh)            E(eV)
   0   2.0000     -88.941963     -2420.2339
   1   2.0000     -88.909503     -2419.3506
   2   2.0000     -88.909382     -2419.3473
   3   2.0000     -88.907410     -2419.2936
   4   2.0000     -88.905483     -2419.2412
   5   2.0000     -19.131077      -520.5831
   6   2.0000     -19.124889      -520.4147
   7   2.0000     -14.406136      -392.0109
   8   2.0000     -14.401800      -391.8929
   9   2.0000     -14.356868      -390.6702
  10   2.0000     -14.356270      -390.6540
  11   2.0000     -14.332852      -390.0167
  12   2.0000     -14.332316      -390.0021
  13   2.0000     -14.327219      -389.8634
  14   2.0000     -14.324679      -389.7943
  15   2.0000     -10.276887      -279.6483
  16   2.0000     -10.270599      -279.4772
  17   2.0000     -10.262024      -279.2439
  18   2.0000     -10.260427      -279.2004
  19   2.0000     -10.259940      -279.1872
  20   2.0000     -10.258150      -279.1384
  21   2.0000     -10.255106      -279.0556
  22   2.0000     -10.252739      -278.9912
  23   2.0000     -10.252003      -278.9712
  24   2.0000     -10.247241      -278.8416
  25   2.0000     -10.244177      -278.7582
  26   2.0000     -10.243875      -278.7500
  27   2.0000     -10.243240      -278.7327
  28   2.0000     -10.241812      -278.6939
  29   2.0000     -10.241683      -278.6904
  30   2.0000     -10.241448      -278.6840
  31   2.0000     -10.238329      -278.5991
  32   2.0000     -10.233534      -278.4686
  33   2.0000     -10.232921      -278.4519
  34   2.0000     -10.232350      -278.4364
  35   2.0000     -10.231496      -278.4132
  36   2.0000     -10.230764      -278.3932
  37   2.0000     -10.230462      -278.3850
  38   2.0000     -10.230323      -278.3812
  39   2.0000     -10.227385      -278.3013
  40   2.0000     -10.227331      -278.2998
  41   2.0000     -10.226381      -278.2740
  42   2.0000     -10.226199      -278.2690
  43   2.0000     -10.226071      -278.2655
  44   2.0000     -10.225309      -278.2448
  45   2.0000     -10.224205      -278.2148
  46   2.0000     -10.220728      -278.1201
  47   2.0000     -10.217453      -278.0310
  48   2.0000     -10.216184      -277.9965
  49   2.0000     -10.215694      -277.9832
  50   2.0000     -10.211526      -277.8698
  51   2.0000     -10.211020      -277.8560
  52   2.0000     -10.210701      -277.8473
  53   2.0000     -10.210570      -277.8437
  54   2.0000     -10.210070      -277.8301
  55   2.0000     -10.207356      -277.7563
  56   2.0000     -10.206227      -277.7255
  57   2.0000     -10.205794      -277.7138
  58   2.0000     -10.205304      -277.7005
  59   2.0000     -10.205211      -277.6979
  60   2.0000     -10.204604      -277.6814
  61   2.0000     -10.200504      -277.5698
  62   2.0000     -10.200176      -277.5609
  63   2.0000     -10.199027      -277.5296
  64   2.0000     -10.195257      -277.4271
  65   2.0000     -10.178429      -276.9691
  66   2.0000     -10.174623      -276.8656
  67   2.0000      -8.012435      -218.0294
  68   2.0000      -7.985343      -217.2922
  69   2.0000      -7.985305      -217.2912
  70   2.0000      -7.982341      -217.2105
  71   2.0000      -7.980533      -217.1614
  72   2.0000      -5.977191      -162.6476
  73   2.0000      -5.970113      -162.4550
  74   2.0000      -5.968835      -162.4203
  75   2.0000      -5.948141      -161.8571
  76   2.0000      -5.948050      -161.8547
  77   2.0000      -5.945375      -161.7819
  78   2.0000      -5.944324      -161.7533
  79   2.0000      -5.944307      -161.7528
  80   2.0000      -5.943565      -161.7326
  81   2.0000      -5.941630      -161.6800
  82   2.0000      -5.941476      -161.6758
  83   2.0000      -5.941436      -161.6747
  84   2.0000      -5.939802      -161.6302
  85   2.0000      -5.938052      -161.5826
  86   2.0000      -5.936250      -161.5336
  87   2.0000      -1.058438       -28.8016
  88   2.0000      -1.052059       -28.6280
  89   2.0000      -1.033504       -28.1231
  90   2.0000      -1.020908       -27.7803
  91   2.0000      -1.017761       -27.6947
  92   2.0000      -0.937261       -25.5042
  93   2.0000      -0.931566       -25.3492
  94   2.0000      -0.926971       -25.2242
  95   2.0000      -0.925879       -25.1944
  96   2.0000      -0.918624       -24.9970
  97   2.0000      -0.912964       -24.8430
  98   2.0000      -0.912650       -24.8345
  99   2.0000      -0.907097       -24.6834
 100   2.0000      -0.899244       -24.4697
 101   2.0000      -0.883164       -24.0321
 102   2.0000      -0.874203       -23.7883
 103   2.0000      -0.868043       -23.6206
 104   2.0000      -0.861518       -23.4431
 105   2.0000      -0.856793       -23.3145
 106   2.0000      -0.830874       -22.6092
 107   2.0000      -0.820959       -22.3394
 108   2.0000      -0.816507       -22.2183
 109   2.0000      -0.815265       -22.1845
 110   2.0000      -0.814660       -22.1680
 111   2.0000      -0.808355       -21.9964
 112   2.0000      -0.798246       -21.7214
 113   2.0000      -0.793191       -21.5838
 114   2.0000      -0.781937       -21.2776
 115   2.0000      -0.777581       -21.1591
 116   2.0000      -0.776387       -21.1266
 117   2.0000      -0.771190       -20.9851
 118   2.0000      -0.755153       -20.5488
 119   2.0000      -0.751891       -20.4600
 120   2.0000      -0.744729       -20.2651
 121   2.0000      -0.730649       -19.8820
 122   2.0000      -0.725654       -19.7460
 123   2.0000      -0.721741       -19.6396
 124   2.0000      -0.708207       -19.2713
 125   2.0000      -0.692053       -18.8317
 126   2.0000      -0.684385       -18.6231
 127   2.0000      -0.679346       -18.4860
 128   2.0000      -0.676643       -18.4124
 129   2.0000      -0.675339       -18.3769
 130   2.0000      -0.653214       -17.7749
 131   2.0000      -0.648584       -17.6489
 132   2.0000      -0.645205       -17.5569
 133   2.0000      -0.644109       -17.5271
 134   2.0000      -0.630513       -17.1571
 135   2.0000      -0.626683       -17.0529
 136   2.0000      -0.624438       -16.9918
 137   2.0000      -0.618590       -16.8327
 138   2.0000      -0.606037       -16.4911
 139   2.0000      -0.601352       -16.3636
 140   2.0000      -0.596221       -16.2240
 141   2.0000      -0.586818       -15.9681
 142   2.0000      -0.585061       -15.9203
 143   2.0000      -0.578434       -15.7400
 144   2.0000      -0.570728       -15.5303
 145   2.0000      -0.564595       -15.3634
 146   2.0000      -0.555463       -15.1149
 147   2.0000      -0.549121       -14.9423
 148   2.0000      -0.541934       -14.7468
 149   2.0000      -0.539528       -14.6813
 150   2.0000      -0.533884       -14.5277
 151   2.0000      -0.529590       -14.4109
 152   2.0000      -0.526381       -14.3235
 153   2.0000      -0.523275       -14.2390
 154   2.0000      -0.516576       -14.0567
 155   2.0000      -0.508433       -13.8352
 156   2.0000      -0.504090       -13.7170
 157   2.0000      -0.500853       -13.6289
 158   2.0000      -0.498207       -13.5569
 159   2.0000      -0.493010       -13.4155
 160   2.0000      -0.485453       -13.2098
 161   2.0000      -0.482315       -13.1245
 162   2.0000      -0.480464       -13.0741
 163   2.0000      -0.476221       -12.9586
 164   2.0000      -0.474114       -12.9013
 165   2.0000      -0.472164       -12.8482
 166   2.0000      -0.468555       -12.7500
 167   2.0000      -0.465748       -12.6736
 168   2.0000      -0.463053       -12.6003
 169   2.0000      -0.459159       -12.4943
 170   2.0000      -0.458145       -12.4668
 171   2.0000      -0.456368       -12.4184
 172   2.0000      -0.455064       -12.3829
 173   2.0000      -0.452820       -12.3219
 174   2.0000      -0.452090       -12.3020
 175   2.0000      -0.450327       -12.2540
 176   2.0000      -0.447742       -12.1837
 177   2.0000      -0.444501       -12.0955
 178   2.0000      -0.440745       -11.9933
 179   2.0000      -0.439001       -11.9458
 180   2.0000      -0.437562       -11.9067
 181   2.0000      -0.434024       -11.8104
 182   2.0000      -0.430864       -11.7244
 183   2.0000      -0.430077       -11.7030
 184   2.0000      -0.421937       -11.4815
 185   2.0000      -0.419940       -11.4271
 186   2.0000      -0.418877       -11.3982
 187   2.0000      -0.418292       -11.3823
 188   2.0000      -0.417674       -11.3655
 189   2.0000      -0.413501       -11.2519
 190   2.0000      -0.408673       -11.1205
 191   2.0000      -0.407638       -11.0924
 192   2.0000      -0.404523       -11.0076
 193   2.0000      -0.402619       -10.9558
 194   2.0000      -0.398087       -10.8325
 195   2.0000      -0.396741       -10.7959
 196   2.0000      -0.394522       -10.7355
 197   2.0000      -0.392820       -10.6892
 198   2.0000      -0.389735       -10.6052
 199   2.0000      -0.388673       -10.5763
 200   2.0000      -0.388240       -10.5646
 201   2.0000      -0.388115       -10.5612
 202   2.0000      -0.387170       -10.5354
 203   2.0000      -0.385231       -10.4827
 204   2.0000      -0.384268       -10.4565
 205   2.0000      -0.383334       -10.4310
 206   2.0000      -0.382599       -10.4111
 207   2.0000      -0.380042       -10.3415
 208   2.0000      -0.378711       -10.3052
 209   2.0000      -0.378186       -10.2910
 210   2.0000      -0.374027       -10.1778
 211   2.0000      -0.373223       -10.1559
 212   2.0000      -0.368901       -10.0383
 213   2.0000      -0.364509        -9.9188
 214   2.0000      -0.363072        -9.8797
 215   2.0000      -0.361424        -9.8348
 216   2.0000      -0.359817        -9.7911
 217   2.0000      -0.358510        -9.7555
 218   2.0000      -0.356147        -9.6912
 219   2.0000      -0.355010        -9.6603
 220   2.0000      -0.353374        -9.6158
 221   2.0000      -0.350770        -9.5449
 222   2.0000      -0.347291        -9.4503
 223   2.0000      -0.344478        -9.3737
 224   2.0000      -0.342944        -9.3320
 225   2.0000      -0.340383        -9.2623
 226   2.0000      -0.338706        -9.2167
 227   2.0000      -0.334014        -9.0890
 228   2.0000      -0.331559        -9.0222
 229   2.0000      -0.329002        -8.9526
 230   2.0000      -0.310629        -8.4527
 231   2.0000      -0.306894        -8.3510
 232   2.0000      -0.303413        -8.2563
 233   2.0000      -0.290608        -7.9078
 234   2.0000      -0.288318        -7.8455
 235   2.0000      -0.283343        -7.7102
 236   2.0000      -0.281261        -7.6535
 237   2.0000      -0.277028        -7.5383
 238   2.0000      -0.271972        -7.4007
 239   2.0000      -0.269105        -7.3227
 240   2.0000      -0.263887        -7.1807
 241   2.0000      -0.261392        -7.1128
 242   2.0000      -0.255816        -6.9611
 243   2.0000      -0.241191        -6.5631
 244   2.0000      -0.233410        -6.3514
 245   2.0000      -0.230661        -6.2766
 246   2.0000      -0.202576        -5.5124
 247   0.0000      -0.130171        -3.5421
 248   0.0000      -0.122475        -3.3327
 249   0.0000      -0.104791        -2.8515
 250   0.0000      -0.099368        -2.7039
 251   0.0000      -0.088537        -2.4092

MULLIKEN ATOMIC CHARGES
-----------------------
   0 C :    0.229341
   1 O :   -0.301534
   2 C :   -0.018279
   3 C :   -0.201642
   4 C :   -0.076582
   5 C :   -0.099183
   6 C :   -0.180497
   7 C :    0.120975
   8 C :    0.005010
   9 C :    0.117086
  10 C :   -0.200299
  11 N :    0.000755
  12 C :   -0.220745
  13 N :    0.000101
  14 C :   -0.038073
  15 C :   -0.273430
  16 C :    0.202780
  17 S :   -0.023554
  18 C :   -0.143002
  19 C :    0.012103
  20 C :    0.040756
  21 C :   -0.241613
  22 C :   -0.323807
  23 S :    0.041217
  24 C :   -0.112460
  25 C :    0.302570
  26 N :   -0.116236
  27 C :   -0.135734
  28 C :   -0.338183
  29 C :    0.064902
  30 C :    0.052525
  31 C :   -0.015134
  32 N :   -0.250499
  33 S :    0.329172
  34 N :   -0.252057
  35 C :   -0.005697
  36 C :    0.090062
  37 C :    0.014436
  38 N :   -0.030706
  39 C :   -0.242286
  40 C :   -0.343824
  41 C :    0.358094
  42 C :   -0.141530
  43 S :    0.021964
  44 C :    0.048001
  45 C :   -0.203457
  46 S :   -0.005827
  47 C :    0.135850
  48 C :   -0.000489
  49 C :   -0.188875
  50 C :   -0.351596
  51 C :   -0.221491
  52 C :   -0.017931
  53 C :   -0.058356
  54 C :    0.078654
  55 C :   -0.182506
  56 N :    0.008526
  57 C :   -0.203936
  58 N :    0.016772
  59 C :    0.130461
  60 C :   -0.168597
  61 C :   -0.104507
  62 C :   -0.069911
  63 C :   -0.202267
  64 C :   -0.020958
  65 C :    0.237956
  66 O :   -0.290214
  67 H :    0.137175
  68 H :    0.123903
  69 H :    0.126857
  70 H :    0.159618
  71 H :    0.151515
  72 H :    0.107799
  73 H :    0.119121
  74 H :    0.123417
  75 H :    0.113487
  76 H :    0.134174
  77 H :    0.109036
  78 H :    0.130202
  79 H :    0.124009
  80 H :    0.136143
  81 H :    0.130163
  82 H :    0.137940
  83 H :    0.165274
  84 H :    0.152085
  85 H :    0.126366
  86 H :    0.127273
  87 H :    0.114392
  88 H :    0.126734
  89 H :    0.131912
  90 H :    0.125450
  91 H :    0.117971
  92 H :    0.152149
  93 H :    0.160052
  94 H :    0.128377
  95 H :    0.126324
  96 H :    0.138515
Sum of atomic charges:   -0.0000000

LOEWDIN ATOMIC CHARGES
----------------------
   0 C :   -0.248678
   1 O :    0.124023
   2 C :   -0.060590
   3 C :   -0.073037
   4 C :   -0.114473
   5 C :   -0.111681
   6 C :   -0.079135
   7 C :   -0.037817
   8 C :    0.005403
   9 C :   -0.149120
  10 C :   -0.168408
  11 N :    0.073271
  12 C :   -0.154476
  13 N :    0.064821
  14 C :   -0.093216
  15 C :   -0.063168
  16 C :   -0.304832
  17 S :    0.772938
  18 C :   -0.329885
  19 C :   -0.315056
  20 C :   -0.124909
  21 C :   -0.233299
  22 C :   -0.285675
  23 S :    0.742698
  24 C :   -0.285179
  25 C :   -0.181502
  26 N :    0.279109
  27 C :   -0.267573
  28 C :   -0.297026
  29 C :   -0.088989
  30 C :   -0.088180
  31 C :   -0.242081
  32 N :   -0.120728
  33 S :    0.638272
  34 N :   -0.121382
  35 C :   -0.241372
  36 C :   -0.089709
  37 C :   -0.089559
  38 N :    0.291510
  39 C :   -0.269336
  40 C :   -0.306110
  41 C :   -0.176735
  42 C :   -0.289410
  43 S :    0.744656
  44 C :   -0.309785
  45 C :   -0.335298
  46 S :    0.755233
  47 C :   -0.307082
  48 C :   -0.131144
  49 C :   -0.230213
  50 C :   -0.289034
  51 C :   -0.065926
  52 C :   -0.088602
  53 C :    0.002906
  54 C :   -0.143368
  55 C :   -0.156186
  56 N :    0.073069
  57 C :   -0.151132
  58 N :    0.084099
  59 C :   -0.039465
  60 C :   -0.077591
  61 C :   -0.108589
  62 C :   -0.111792
  63 C :   -0.070926
  64 C :   -0.060945
  65 C :   -0.246856
  66 O :    0.131331
  67 H :    0.156988
  68 H :    0.148153
  69 H :    0.149992
  70 H :    0.159903
  71 H :    0.178611
  72 H :    0.142452
  73 H :    0.148757
  74 H :    0.127210
  75 H :    0.121371
  76 H :    0.125638
  77 H :    0.137498
  78 H :    0.139224
  79 H :    0.128486
  80 H :    0.128017
  81 H :    0.127047
  82 H :    0.142218
  83 H :    0.141493
  84 H :    0.124475
  85 H :    0.129552
  86 H :    0.124071
  87 H :    0.151705
  88 H :    0.149995
  89 H :    0.127625
  90 H :    0.117403
  91 H :    0.124653
  92 H :    0.172827
  93 H :    0.160290
  94 H :    0.150753
  95 H :    0.148911
  96 H :    0.157599

  Mayer bond orders larger than 0.100000
B(  0-C ,  1-O ) :   2.1454 B(  0-C ,  2-C ) :   0.9740 B(  0-C , 14-C ) :   1.0002
B(  1-O ,  2-C ) :  -0.1386 B(  1-O , 14-C ) :  -0.1219 B(  2-C ,  3-C ) :   1.3878
B(  2-C ,  7-C ) :   1.3261 B(  3-C ,  4-C ) :   1.3788 B(  3-C , 67-H ) :   0.9723
B(  4-C ,  5-C ) :   1.3852 B(  4-C , 68-H ) :   0.9708 B(  5-C ,  6-C ) :   1.4203
B(  5-C , 69-H ) :   0.9640 B(  6-C ,  7-C ) :   1.3883 B(  6-C , 70-H ) :   0.9317
B(  7-C ,  8-C ) :   1.0498 B(  8-C ,  9-C ) :   1.4212 B(  8-C , 14-C ) :   1.1554
B(  9-C , 10-C ) :   1.0353 B(  9-C , 12-C ) :   1.0427 B( 10-C , 11-N ) :   2.9776
B( 12-C , 13-N ) :   2.9940 B( 14-C , 15-C ) :   1.4957 B( 15-C , 16-C ) :   1.0270
B( 15-C , 71-H ) :   0.9447 B( 16-C , 17-S ) :   1.1840 B( 16-C , 20-C ) :   1.3807
B( 17-S , 18-C ) :   1.3052 B( 17-S , 25-C ) :  -0.1120 B( 18-C , 19-C ) :   1.3611
B( 18-C , 25-C ) :   1.0981 B( 19-C , 20-C ) :   1.2890 B( 19-C , 23-S ) :   1.1845
B( 20-C , 21-C ) :   0.9418 B( 21-C , 22-C ) :   0.9745 B( 21-C , 72-H ) :   0.9757
B( 21-C , 73-H ) :   0.9649 B( 22-C , 74-H ) :   0.9673 B( 22-C , 75-H ) :   0.9694
B( 22-C , 76-H ) :   0.9691 B( 23-S , 24-C ) :   1.3337 B( 24-C , 25-C ) :   1.2734
B( 24-C , 30-C ) :   1.1928 B( 25-C , 26-N ) :   1.1419 B( 26-N , 27-C ) :   0.8961
B( 26-N , 29-C ) :   1.1689 B( 27-C , 28-C ) :   0.9619 B( 27-C , 77-H ) :   0.9642
B( 27-C , 78-H ) :   0.9595 B( 28-C , 79-H ) :   0.9683 B( 28-C , 80-H ) :   0.9673
B( 28-C , 81-H ) :   0.9672 B( 29-C , 30-C ) :   1.3019 B( 29-C , 37-C ) :   1.2458
B( 30-C , 31-C ) :   1.1139 B( 31-C , 32-N ) :   1.6078 B( 31-C , 33-S ) :   0.1149
B( 31-C , 35-C ) :   1.1587 B( 32-N , 33-S ) :   1.2550 B( 32-N , 34-N ) :   0.1085
B( 33-S , 34-N ) :   1.2545 B( 33-S , 35-C ) :   0.1128 B( 34-N , 35-C ) :   1.6083
B( 35-C , 36-C ) :   1.1037 B( 36-C , 37-C ) :   1.2416 B( 36-C , 42-C ) :   1.1856
B( 37-C , 38-N ) :   1.2312 B( 38-N , 39-C ) :   0.8708 B( 38-N , 41-C ) :   1.1253
B( 39-C , 40-C ) :   0.9268 B( 39-C , 82-H ) :   0.9562 B( 39-C , 83-H ) :   0.9718
B( 40-C , 84-H ) :   0.9580 B( 40-C , 85-H ) :   0.9686 B( 40-C , 86-H ) :   0.9771
B( 41-C , 42-C ) :   1.2737 B( 41-C , 45-C ) :   1.0626 B( 41-C , 46-S ) :  -0.1253
B( 42-C , 43-S ) :   1.3365 B( 43-S , 44-C ) :   1.1687 B( 43-S , 45-C ) :   0.1186
B( 44-C , 45-C ) :   1.4272 B( 44-C , 48-C ) :   1.2290 B( 45-C , 46-S ) :   1.3043
B( 46-S , 47-C ) :   1.1881 B( 47-C , 48-C ) :   1.4414 B( 47-C , 51-C ) :   1.0431
B( 48-C , 49-C ) :   0.9442 B( 49-C , 50-C ) :   0.9584 B( 49-C , 87-H ) :   0.9475
B( 49-C , 88-H ) :   0.9806 B( 50-C , 89-H ) :   0.9671 B( 50-C , 90-H ) :   0.9662
B( 50-C , 91-H ) :   0.9713 B( 51-C , 52-C ) :   1.5208 B( 51-C , 66-O ) :   0.1036
B( 51-C , 92-H ) :   0.9447 B( 52-C , 53-C ) :   1.1326 B( 52-C , 65-C ) :   0.9909
B( 52-C , 66-O ) :  -0.1327 B( 53-C , 54-C ) :   1.3904 B( 53-C , 59-C ) :   1.0156
B( 54-C , 55-C ) :   1.0409 B( 54-C , 57-C ) :   1.0576 B( 55-C , 56-N ) :   2.9863
B( 57-C , 58-N ) :   2.9768 B( 59-C , 60-C ) :   1.3735 B( 59-C , 64-C ) :   1.3293
B( 60-C , 61-C ) :   1.4232 B( 60-C , 93-H ) :   0.9329 B( 61-C , 62-C ) :   1.3792
B( 61-C , 94-H ) :   0.9653 B( 62-C , 63-C ) :   1.3822 B( 62-C , 95-H ) :   0.9697
B( 63-C , 64-C ) :   1.3839 B( 63-C , 96-H ) :   0.9747 B( 64-C , 65-C ) :   0.9723
B( 64-C , 66-O ) :  -0.1386 B( 65-C , 66-O ) :   2.1687

-----------------------------------------------------------------------------
  SOC CORRECTED ABSORPTION SPECTRUM VIA TRANSITION ELECTRIC DIPOLE MOMENTS*
-----------------------------------------------------------------------------
State   Energy  Wavelength   fosc         T2         TX        TY        TZ
        (cm-1)    (nm)                  (au**2)     (au)      (au)      (au)
-----------------------------------------------------------------------------
   1   10451.3    956.8   0.000000000   0.00000   0.00001   0.00007   0.00003
   2   10451.3    956.8   0.000000013   0.00000   0.00039   0.00047   0.00021
   3   10451.3    956.8   0.000000001   0.00000   0.00006   0.00005   0.00010
   4   12004.0    833.1   0.000000171   0.00000   0.00151   0.00153   0.00025
   5   12004.0    833.1   0.000000008   0.00000   0.00029   0.00035   0.00011
   6   12004.0    833.1   0.000000012   0.00000   0.00020   0.00045   0.00029
   7   14337.7    697.5   1.585311279  36.40090   3.94007   4.49230   0.83427
   8   16250.3    615.4   0.281845051   5.70984   1.89199   1.02560   1.03843
   9   16470.7    607.1   0.000000003   0.00000   0.00004   0.00020   0.00013
  10   16470.7    607.1   0.000000047   0.00000   0.00041   0.00080   0.00037
  11   16470.7    607.1   0.000005036   0.00010   0.00799   0.00419   0.00440
  12   19035.3    525.3   0.351766304   6.08372   1.72489   1.56544   0.81109

FINAL SINGLE POINT ENERGY     -4578.095357137986

DIPOLE MOMENT
-------------
                                X             Y             Z
Electronic contribution:    -12.93277       5.91846     -12.49070
Nuclear contribution   :     12.53580      -6.95489      12.70517
                        -----------------------------------------
Total Dipole Moment    :     -0.39697      -1.03642       0.21446
                        -----------------------------------------
Magnitude (a.u.)       :      1.13038
Magnitude (Debye)      :      2.87319

Rotational constants in cm-1:     0.002015     0.000338     0.000306
Rotational constants in MHz :    60.402937    10.141615     9.165439

                             ****ORCA TERMINATED NORMALLY****
TOTAL RUN TIME: 0 days 2 hours 11 minutes 52 seconds 712 msec
