                         Program Version 4.2.0 -  RELEASE  -
|  1> # ORCA input file
|  2> # Y6.out: Geometry 184
|  3> ! B3LYP def2-TZVP def2/J RIJCOSX Grid4 TightSCF
|  4>
|  5> %maxcore 6000
|  6> %tddft
|  7>   maxdim 5
|  8>   nroots 3
|  9>   dosoc true
| 10>   end
| 11> %pal
| 12>   nprocs 6
| 13>   end
| 14>
| 15>
| 16> * xyz 0 1
| 17>    C        2.66734         3.95000         1.81746
| 18>    O        2.70140         4.19135         0.62820
| 19>    C        1.96722         4.73311         2.86767
| 20>    C        1.23032         5.90147         2.71096
| 21>    C        0.66812         6.46740         3.84933
| 22>    F       -0.04883         7.58522         3.76940
| 23>    C        0.84907         5.86672         5.10953
| 24>    F        0.29260         6.45292         6.16751
| 25>    C        1.58046         4.68872         5.26353
| 26>    C        2.14479         4.10882         4.11927
| 27>    C        2.89282         2.83977         3.91260
| 28>    C        2.92844         1.77783         4.80123
| 29>    C        3.34024         0.47889         4.38339
| 30>    N        3.66087        -0.58030         4.02808
| 31>    C        2.47165         1.87998         6.15023
| 32>    N        2.12545         1.96749         7.25645
| 33>    C        3.35919         2.82347         2.53727
| 34>    C        4.24544         2.07391         1.79145
| 35>    C        5.32957         1.18553         2.03895
| 36>    S        5.82015         0.22939         0.61555
| 37>    C        7.19791        -0.38732         1.44991
| 38>    C        7.26449         0.11928         2.76613
| 39>    C        6.22834         1.01566         3.11454
| 40>    C        6.26119         1.84028         4.37329
| 41>    C        6.37122         1.04582         5.68196
| 42>    S        8.74293        -0.36263         3.60956
| 43>    C        9.27479        -1.19256         2.17212
| 44>    C        8.34048        -1.15385         1.12444
| 45>    N        8.89135        -1.71691        -0.01544
| 46>    C        8.30581        -1.43867        -1.32712
| 47>    C        8.73730        -0.09501        -1.90971
| 48>    C       10.20700        -2.07234         0.28610
| 49>    C       10.46292        -1.75281         1.65568
| 50>    C       11.79040        -1.82349         2.19290
| 51>    N       12.16355        -1.58475         3.44216
| 52>    S       13.81611        -1.69106         3.48056
| 53>    N       14.08581        -2.04072         1.88465
| 54>    C       12.90045        -2.08652         1.29294
| 55>    C       12.62512        -2.39906        -0.07855
| 56>    C       11.28557        -2.50994        -0.55079
| 57>    N       11.29888        -2.92669        -1.88893
| 58>    C       10.30744        -3.85605        -2.46167
| 59>    C        9.80341        -3.48881        -3.85246
| 60>    C       12.63723        -2.98106        -2.28038
| 61>    C       13.46124        -2.65605        -1.18857
| 62>    S       15.15812        -2.59384        -1.57738
| 63>    C       14.75991        -3.01573        -3.24639
| 64>    C       13.37702        -3.21565        -3.46146
| 65>    S       13.03243        -3.60279        -5.11144
| 66>    C       14.75549        -3.44606        -5.53540
| 67>    C       15.54854        -3.12211        -4.40032
| 68>    C       17.01807        -2.80267        -4.40546
| 69>    C       17.27746        -1.29137        -4.49402
| 70>    C       15.31533        -3.57307        -6.82656
| 71>    C       14.79600        -3.86545        -8.07614
| 72>    C       15.54332        -3.93750        -9.33480
| 73>    C       16.88234        -3.65436        -9.55260
| 74>    C       17.49679        -3.74735       -10.84000
| 75>    N       18.02180        -3.81006       -11.87500
| 76>    C       17.78380        -3.23561        -8.52390
| 77>    N       18.53807        -2.89977        -7.70456
| 78>    C       14.58867        -4.36717       -10.39284
| 79>    C       14.74844        -4.64376       -11.75863
| 80>    C       13.62918        -5.06856       -12.47349
| 81>    F       13.72869        -5.36061       -13.76697
| 82>    C       12.36784        -5.21371       -11.86934
| 83>    F       11.34878        -5.63414       -12.61165
| 84>    C       12.19633        -4.92746       -10.52235
| 85>    C       13.31594        -4.51592        -9.81172
| 86>    C       13.38319        -4.19424        -8.36982
| 87>    O       12.43402        -4.21520        -7.60301
| 88>    H        1.08945         6.36137         1.73145
| 89>    H        1.68442         4.26836         6.26290
| 90>    H        4.09880         2.28726         0.72194
| 91>    H        5.39161         2.50450         4.40808
| 92>    H        7.14106         2.50523         4.28836
| 93>    H        5.54105         0.33734         5.79978
| 94>    H        6.36489         1.73607         6.53885
| 95>    H        7.30374         0.46416         5.73327
| 96>    H        7.21423        -1.47311        -1.19484
| 97>    H        8.54970        -2.25110        -2.01308
| 98>    H        9.81456        -0.08831        -2.13564
| 99>    H        8.51679         0.72454        -1.20933
|100>    H        8.18896         0.10148        -2.84363
|101>    H        9.47691        -3.92063        -1.74756
|102>    H       10.76525        -4.85981        -2.48214
|103>    H        9.00792        -4.18874        -4.14923
|104>    H       10.59328        -3.55948        -4.61195
|105>    H        9.39567        -2.46767        -3.88537
|106>    H       17.53954        -3.30814        -5.22917
|107>    H       17.45740        -3.19869        -3.47496
|108>    H       16.88977        -0.88532        -5.44043
|109>    H       18.35657        -1.08116        -4.45267
|110>    H       16.78842        -0.75460        -3.66804
|111>    H       16.38742        -3.39213        -6.80328
|112>    H       15.69397        -4.54853       -12.28959
|113>    H       11.22402        -5.03760       -10.04041
|114> *
|115>
|116>                          ****END OF INPUT****

CARTESIAN COORDINATES (ANGSTROEM)
---------------------------------
  C      2.667340    3.950000    1.817460
  O      2.701400    4.191350    0.628200
  C      1.967220    4.733110    2.867670
  C      1.230320    5.901470    2.710960
  C      0.668120    6.467400    3.849330
  F     -0.048830    7.585220    3.769400
  C      0.849070    5.866720    5.109530
  F      0.292600    6.452920    6.167510
  C      1.580460    4.688720    5.263530
  C      2.144790    4.108820    4.119270
  C      2.892820    2.839770    3.912600
  C      2.928440    1.777830    4.801230
  C      3.340240    0.478890    4.383390
  N      3.660870   -0.580300    4.028080
  C      2.471650    1.879980    6.150230
  N      2.125450    1.967490    7.256450
  C      3.359190    2.823470    2.537270
  C      4.245440    2.073910    1.791450
  C      5.329570    1.185530    2.038950
  S      5.820150    0.229390    0.615550
  C      7.197910   -0.387320    1.449910
  C      7.264490    0.119280    2.766130
  C      6.228340    1.015660    3.114540
  C      6.261190    1.840280    4.373290
  C      6.371220    1.045820    5.681960
  S      8.742930   -0.362630    3.609560
  C      9.274790   -1.192560    2.172120
  C      8.340480   -1.153850    1.124440
  N      8.891350   -1.716910   -0.015440
  C      8.305810   -1.438670   -1.327120
  C      8.737300   -0.095010   -1.909710
  C     10.207000   -2.072340    0.286100
  C     10.462920   -1.752810    1.655680
  C     11.790400   -1.823490    2.192900
  N     12.163550   -1.584750    3.442160
  S     13.816110   -1.691060    3.480560
  N     14.085810   -2.040720    1.884650
  C     12.900450   -2.086520    1.292940
  C     12.625120   -2.399060   -0.078550
  C     11.285570   -2.509940   -0.550790
  N     11.298880   -2.926690   -1.888930
  C     10.307440   -3.856050   -2.461670
  C      9.803410   -3.488810   -3.852460
  C     12.637230   -2.981060   -2.280380
  C     13.461240   -2.656050   -1.188570
  S     15.158120   -2.593840   -1.577380
  C     14.759910   -3.015730   -3.246390
  C     13.377020   -3.215650   -3.461460
  S     13.032430   -3.602790   -5.111440
  C     14.755490   -3.446060   -5.535400
  C     15.548540   -3.122110   -4.400320
  C     17.018070   -2.802670   -4.405460
  C     17.277460   -1.291370   -4.494020
  C     15.315330   -3.573070   -6.826560
  C     14.796000   -3.865450   -8.076140
  C     15.543320   -3.937500   -9.334800
  C     16.882340   -3.654360   -9.552600
  C     17.496790   -3.747350  -10.840000
  N     18.021800   -3.810060  -11.875000
  C     17.783800   -3.235610   -8.523900
  N     18.538070   -2.899770   -7.704560
  C     14.588670   -4.367170  -10.392840
  C     14.748440   -4.643760  -11.758630
  C     13.629180   -5.068560  -12.473490
  F     13.728690   -5.360610  -13.766970
  C     12.367840   -5.213710  -11.869340
  F     11.348780   -5.634140  -12.611650
  C     12.196330   -4.927460  -10.522350
  C     13.315940   -4.515920   -9.811720
  C     13.383190   -4.194240   -8.369820
  O     12.434020   -4.215200   -7.603010
  H      1.089450    6.361370    1.731450
  H      1.684420    4.268360    6.262900
  H      4.098800    2.287260    0.721940
  H      5.391610    2.504500    4.408080
  H      7.141060    2.505230    4.288360
  H      5.541050    0.337340    5.799780
  H      6.364890    1.736070    6.538850
  H      7.303740    0.464160    5.733270
  H      7.214230   -1.473110   -1.194840
  H      8.549700   -2.251100   -2.013080
  H      9.814560   -0.088310   -2.135640
  H      8.516790    0.724540   -1.209330
  H      8.188960    0.101480   -2.843630
  H      9.476910   -3.920630   -1.747560
  H     10.765250   -4.859810   -2.482140
  H      9.007920   -4.188740   -4.149230
  H     10.593280   -3.559480   -4.611950
  H      9.395670   -2.467670   -3.885370
  H     17.539540   -3.308140   -5.229170
  H     17.457400   -3.198690   -3.474960
  H     16.889770   -0.885320   -5.440430
  H     18.356570   -1.081160   -4.452670
  H     16.788420   -0.754600   -3.668040
  H     16.387420   -3.392130   -6.803280
  H     15.693970   -4.548530  -12.289590
  H     11.224020   -5.037600  -10.040410

 Total Charge           Charge          ....    0
 Multiplicity           Mult            ....    1
 Number of Electrons    NEL             ....  526
 Basis Dimension        Dim             .... 2387

ORBITAL ENERGIES
----------------

  NO   OCC          E(Eh)            E(eV)
   0   2.0000     -88.949540     -2420.4400
   1   2.0000     -88.915807     -2419.5221
   2   2.0000     -88.913249     -2419.4525
   3   2.0000     -88.912568     -2419.4340
   4   2.0000     -88.909877     -2419.3607
   5   2.0000     -24.728977      -672.9097
   6   2.0000     -24.728814      -672.9052
   7   2.0000     -24.727942      -672.8815
   8   2.0000     -24.726552      -672.8437
   9   2.0000     -19.139492      -520.8120
  10   2.0000     -19.137075      -520.7463
  11   2.0000     -14.411662      -392.1613
  12   2.0000     -14.407017      -392.0349
  13   2.0000     -14.364251      -390.8711
  14   2.0000     -14.363916      -390.8620
  15   2.0000     -14.339195      -390.1893
  16   2.0000     -14.336851      -390.1255
  17   2.0000     -14.336165      -390.1069
  18   2.0000     -14.333574      -390.0364
  19   2.0000     -10.304083      -280.3884
  20   2.0000     -10.302747      -280.3520
  21   2.0000     -10.302167      -280.3362
  22   2.0000     -10.301642      -280.3219
  23   2.0000     -10.283250      -279.8215
  24   2.0000     -10.283076      -279.8167
  25   2.0000     -10.266566      -279.3675
  26   2.0000     -10.266147      -279.3561
  27   2.0000     -10.265493      -279.3383
  28   2.0000     -10.264646      -279.3152
  29   2.0000     -10.263856      -279.2937
  30   2.0000     -10.263531      -279.2849
  31   2.0000     -10.256182      -279.0849
  32   2.0000     -10.254725      -279.0453
  33   2.0000     -10.251897      -278.9683
  34   2.0000     -10.250542      -278.9314
  35   2.0000     -10.250518      -278.9308
  36   2.0000     -10.249374      -278.8996
  37   2.0000     -10.248906      -278.8869
  38   2.0000     -10.246759      -278.8285
  39   2.0000     -10.245106      -278.7835
  40   2.0000     -10.242970      -278.7254
  41   2.0000     -10.240175      -278.6493
  42   2.0000     -10.239284      -278.6251
  43   2.0000     -10.238652      -278.6079
  44   2.0000     -10.238208      -278.5958
  45   2.0000     -10.238168      -278.5947
  46   2.0000     -10.236303      -278.5440
  47   2.0000     -10.236225      -278.5418
  48   2.0000     -10.236173      -278.5404
  49   2.0000     -10.235895      -278.5328
  50   2.0000     -10.235279      -278.5161
  51   2.0000     -10.234551      -278.4963
  52   2.0000     -10.233908      -278.4788
  53   2.0000     -10.233787      -278.4755
  54   2.0000     -10.231887      -278.4238
  55   2.0000     -10.225657      -278.2543
  56   2.0000     -10.225182      -278.2413
  57   2.0000     -10.225066      -278.2382
  58   2.0000     -10.224194      -278.2145
  59   2.0000     -10.223919      -278.2070
  60   2.0000     -10.223606      -278.1985
  61   2.0000     -10.221452      -278.1399
  62   2.0000     -10.221429      -278.1392
  63   2.0000     -10.219482      -278.0863
  64   2.0000     -10.218768      -278.0668
  65   2.0000     -10.204887      -277.6891
  66   2.0000     -10.202044      -277.6117
  67   2.0000     -10.201583      -277.5992
  68   2.0000     -10.200859      -277.5795
  69   2.0000     -10.181054      -277.0406
  70   2.0000     -10.179544      -276.9995
  71   2.0000      -8.019964      -218.2343
  72   2.0000      -7.991718      -217.4657
  73   2.0000      -7.988324      -217.3733
  74   2.0000      -7.987560      -217.3526
  75   2.0000      -7.984707      -217.2749
  76   2.0000      -5.984706      -162.8521
  77   2.0000      -5.977632      -162.6596
  78   2.0000      -5.976385      -162.6257
  79   2.0000      -5.954450      -162.0288
  80   2.0000      -5.951360      -161.9447
  81   2.0000      -5.950697      -161.9267
  82   2.0000      -5.950596      -161.9239
  83   2.0000      -5.947880      -161.8500
  84   2.0000      -5.947602      -161.8425
  85   2.0000      -5.947600      -161.8424
  86   2.0000      -5.946853      -161.8221
  87   2.0000      -5.944046      -161.7457
  88   2.0000      -5.943654      -161.7350
  89   2.0000      -5.943237      -161.7237
  90   2.0000      -5.940705      -161.6548
  91   2.0000      -1.274691       -34.6861
  92   2.0000      -1.274351       -34.6769
  93   2.0000      -1.260156       -34.2906
  94   2.0000      -1.259957       -34.2852
  95   2.0000      -1.066724       -29.0270
  96   2.0000      -1.064581       -28.9687
  97   2.0000      -1.039254       -28.2795
  98   2.0000      -1.025859       -27.9151
  99   2.0000      -1.024104       -27.8673
 100   2.0000      -0.942194       -25.6384
 101   2.0000      -0.941869       -25.6295
 102   2.0000      -0.933378       -25.3985
 103   2.0000      -0.930918       -25.3316
 104   2.0000      -0.925248       -25.1773
 105   2.0000      -0.923280       -25.1237
 106   2.0000      -0.922613       -25.1056
 107   2.0000      -0.920951       -25.0604
 108   2.0000      -0.906885       -24.6776
 109   2.0000      -0.889172       -24.1956
 110   2.0000      -0.881614       -23.9899
 111   2.0000      -0.878487       -23.9049
 112   2.0000      -0.872989       -23.7553
 113   2.0000      -0.865884       -23.5619
 114   2.0000      -0.835959       -22.7476
 115   2.0000      -0.827323       -22.5126
 116   2.0000      -0.824475       -22.4351
 117   2.0000      -0.822375       -22.3780
 118   2.0000      -0.819664       -22.3042
 119   2.0000      -0.814377       -22.1603
 120   2.0000      -0.805671       -21.9234
 121   2.0000      -0.802603       -21.8399
 122   2.0000      -0.799344       -21.7513
 123   2.0000      -0.798571       -21.7302
 124   2.0000      -0.783387       -21.3170
 125   2.0000      -0.778379       -21.1808
 126   2.0000      -0.760843       -20.7036
 127   2.0000      -0.758806       -20.6482
 128   2.0000      -0.752842       -20.4859
 129   2.0000      -0.741515       -20.1777
 130   2.0000      -0.731621       -19.9084
 131   2.0000      -0.726984       -19.7822
 132   2.0000      -0.718513       -19.5517
 133   2.0000      -0.701355       -19.0848
 134   2.0000      -0.698790       -19.0150
 135   2.0000      -0.693872       -18.8812
 136   2.0000      -0.684554       -18.6277
 137   2.0000      -0.677878       -18.4460
 138   2.0000      -0.673489       -18.3266
 139   2.0000      -0.661339       -17.9959
 140   2.0000      -0.655735       -17.8435
 141   2.0000      -0.650196       -17.6927
 142   2.0000      -0.644805       -17.5460
 143   2.0000      -0.641332       -17.4515
 144   2.0000      -0.637947       -17.3594
 145   2.0000      -0.632091       -17.2001
 146   2.0000      -0.626601       -17.0507
 147   2.0000      -0.617827       -16.8119
 148   2.0000      -0.613132       -16.6842
 149   2.0000      -0.604346       -16.4451
 150   2.0000      -0.594085       -16.1659
 151   2.0000      -0.591962       -16.1081
 152   2.0000      -0.588403       -16.0113
 153   2.0000      -0.583296       -15.8723
 154   2.0000      -0.575747       -15.6669
 155   2.0000      -0.574705       -15.6385
 156   2.0000      -0.572742       -15.5851
 157   2.0000      -0.568109       -15.4590
 158   2.0000      -0.559173       -15.2159
 159   2.0000      -0.551669       -15.0117
 160   2.0000      -0.547486       -14.8979
 161   2.0000      -0.543178       -14.7806
 162   2.0000      -0.539825       -14.6894
 163   2.0000      -0.531723       -14.4689
 164   2.0000      -0.528502       -14.3813
 165   2.0000      -0.526721       -14.3328
 166   2.0000      -0.523808       -14.2535
 167   2.0000      -0.523676       -14.2500
 168   2.0000      -0.523475       -14.2445
 169   2.0000      -0.519255       -14.1296
 170   2.0000      -0.512578       -13.9480
 171   2.0000      -0.506999       -13.7961
 172   2.0000      -0.501459       -13.6454
 173   2.0000      -0.493943       -13.4409
 174   2.0000      -0.492116       -13.3912
 175   2.0000      -0.489093       -13.3089
 176   2.0000      -0.488753       -13.2996
 177   2.0000      -0.488415       -13.2905
 178   2.0000      -0.483613       -13.1598
 179   2.0000      -0.483531       -13.1575
 180   2.0000      -0.481557       -13.1038
 181   2.0000      -0.480301       -13.0697
 182   2.0000      -0.476594       -12.9688
 183   2.0000      -0.471799       -12.8383
 184   2.0000      -0.467458       -12.7202
 185   2.0000      -0.466489       -12.6938
 186   2.0000      -0.465066       -12.6551
 187   2.0000      -0.463882       -12.6229
 188   2.0000      -0.462926       -12.5969
 189   2.0000      -0.460743       -12.5375
 190   2.0000      -0.459882       -12.5140
 191   2.0000      -0.456110       -12.4114
 192   2.0000      -0.453597       -12.3430
 193   2.0000      -0.446691       -12.1551
 194   2.0000      -0.444961       -12.1080
 195   2.0000      -0.443440       -12.0666
 196   2.0000      -0.440167       -11.9775
 197   2.0000      -0.439317       -11.9544
 198   2.0000      -0.433374       -11.7927
 199   2.0000      -0.432799       -11.7771
 200   2.0000      -0.431153       -11.7323
 201   2.0000      -0.429858       -11.6970
 202   2.0000      -0.428650       -11.6642
 203   2.0000      -0.425783       -11.5861
 204   2.0000      -0.423098       -11.5131
 205   2.0000      -0.422061       -11.4849
 206   2.0000      -0.419431       -11.4133
 207   2.0000      -0.417659       -11.3651
 208   2.0000      -0.416049       -11.3213
 209   2.0000      -0.411886       -11.2080
 210   2.0000      -0.410572       -11.1722
 211   2.0000      -0.407679       -11.0935
 212   2.0000      -0.405566       -11.0360
 213   2.0000      -0.398977       -10.8567
 214   2.0000      -0.395884       -10.7726
 215   2.0000      -0.394997       -10.7484
 216   2.0000      -0.394980       -10.7480
 217   2.0000      -0.394105       -10.7241
 218   2.0000      -0.392862       -10.6903
 219   2.0000      -0.392302       -10.6751
 220   2.0000      -0.391412       -10.6509
 221   2.0000      -0.390072       -10.6144
 222   2.0000      -0.387810       -10.5529
 223   2.0000      -0.387500       -10.5444
 224   2.0000      -0.384773       -10.4702
 225   2.0000      -0.384261       -10.4563
 226   2.0000      -0.383898       -10.4464
 227   2.0000      -0.377011       -10.2590
 228   2.0000      -0.372444       -10.1347
 229   2.0000      -0.369161       -10.0454
 230   2.0000      -0.368415       -10.0251
 231   2.0000      -0.366164        -9.9638
 232   2.0000      -0.365466        -9.9448
 233   2.0000      -0.363686        -9.8964
 234   2.0000      -0.363123        -9.8811
 235   2.0000      -0.361042        -9.8244
 236   2.0000      -0.360056        -9.7976
 237   2.0000      -0.357688        -9.7332
 238   2.0000      -0.351988        -9.5781
 239   2.0000      -0.350561        -9.5392
 240   2.0000      -0.349729        -9.5166
 241   2.0000      -0.345566        -9.4033
 242   2.0000      -0.345069        -9.3898
 243   2.0000      -0.342004        -9.3064
 244   2.0000      -0.340331        -9.2609
 245   2.0000      -0.336147        -9.1470
 246   2.0000      -0.317965        -8.6523
 247   2.0000      -0.314805        -8.5663
 248   2.0000      -0.309558        -8.4235
 249   2.0000      -0.298363        -8.1189
 250   2.0000      -0.295972        -8.0538
 251   2.0000      -0.293446        -7.9851
 252   2.0000      -0.287645        -7.8272
 253   2.0000      -0.282798        -7.6953
 254   2.0000      -0.281854        -7.6697
 255   2.0000      -0.272400        -7.4124
 256   2.0000      -0.269755        -7.3404
 257   2.0000      -0.266701        -7.2573
 258   2.0000      -0.263423        -7.1681
 259   2.0000      -0.248038        -6.7495
 260   2.0000      -0.239959        -6.5296
 261   2.0000      -0.239080        -6.5057
 262   2.0000      -0.210717        -5.7339
 263   0.0000      -0.136917        -3.7257
 264   0.0000      -0.127307        -3.4642
 265   0.0000      -0.112414        -3.0589
 266   0.0000      -0.109117        -2.9692
 267   0.0000      -0.096231        -2.6186

MULLIKEN ATOMIC CHARGES
-----------------------
   0 C :    0.262089
   1 O :   -0.296067
   2 C :   -0.022530
   3 C :   -0.299226
   4 C :    0.279619
   5 F :   -0.175364
   6 C :    0.260906
   7 F :   -0.172053
   8 C :   -0.264090
   9 C :    0.131538
  10 C :   -0.101165
  11 C :    0.130893
  12 C :   -0.233425
  13 N :    0.026090
  14 C :   -0.187648
  15 N :    0.008548
  16 C :   -0.040665
  17 C :   -0.128341
  18 C :    0.172033
  19 S :   -0.008917
  20 C :   -0.176080
  21 C :    0.110396
  22 C :   -0.096278
  23 C :   -0.184313
  24 C :   -0.366371
  25 S :    0.025602
  26 C :   -0.119811
  27 C :    0.272493
  28 N :   -0.078830
  29 C :   -0.140172
  30 C :   -0.336081
  31 C :    0.077254
  32 C :    0.041172
  33 C :    0.004971
  34 N :   -0.250153
  35 S :    0.336115
  36 N :   -0.252033
  37 C :   -0.034418
  38 C :    0.090675
  39 C :    0.011717
  40 N :   -0.079655
  41 C :   -0.189224
  42 C :   -0.358121
  43 C :    0.268325
  44 C :   -0.101343
  45 S :    0.035453
  46 C :    0.016707
  47 C :   -0.147279
  48 S :    0.007401
  49 C :    0.006105
  50 C :    0.049865
  51 C :   -0.222743
  52 C :   -0.322076
  53 C :   -0.081076
  54 C :   -0.097899
  55 C :    0.001584
  56 C :    0.129550
  57 C :   -0.192955
  58 N :    0.011305
  59 C :   -0.147638
  60 N :   -0.018557
  61 C :    0.085488
  62 C :   -0.267883
  63 C :    0.256118
  64 F :   -0.172381
  65 C :    0.286469
  66 F :   -0.176020
  67 C :   -0.319069
  68 C :    0.098300
  69 C :    0.227340
  70 O :   -0.353012
  71 H :    0.152278
  72 H :    0.167794
  73 H :    0.148484
  74 H :    0.139581
  75 H :    0.116022
  76 H :    0.146710
  77 H :    0.121495
  78 H :    0.122298
  79 H :    0.132607
  80 H :    0.109226
  81 H :    0.129603
  82 H :    0.132859
  83 H :    0.123950
  84 H :    0.156732
  85 H :    0.137640
  86 H :    0.126698
  87 H :    0.171737
  88 H :    0.119496
  89 H :    0.138410
  90 H :    0.109172
  91 H :    0.115649
  92 H :    0.124745
  93 H :    0.116389
  94 H :    0.110781
  95 H :    0.171254
  96 H :    0.147227
Sum of atomic charges:   -0.0000000

LOEWDIN ATOMIC CHARGES
----------------------
   0 C :   -0.247636
   1 O :    0.130046
   2 C :   -0.063391
   3 C :   -0.048047
   4 C :   -0.232751
   5 F :    0.224124
   6 C :   -0.227906
   7 F :    0.225097
   8 C :   -0.055156
   9 C :   -0.038827
  10 C :   -0.002552
  11 C :   -0.146102
  12 C :   -0.153216
  13 N :    0.089019
  14 C :   -0.154007
  15 N :    0.074119
  16 C :   -0.090191
  17 C :   -0.073063
  18 C :   -0.294308
  19 S :    0.750321
  20 C :   -0.338329
  21 C :   -0.305277
  22 C :   -0.122345
  23 C :   -0.231218
  24 C :   -0.291924
  25 S :    0.745888
  26 C :   -0.286368
  27 C :   -0.177494
  28 N :    0.287536
  29 C :   -0.264631
  30 C :   -0.298344
  31 C :   -0.090261
  32 C :   -0.087785
  33 C :   -0.241430
  34 N :   -0.118169
  35 S :    0.644617
  36 N :   -0.118688
  37 C :   -0.241816
  38 C :   -0.086275
  39 C :   -0.091301
  40 N :    0.272398
  41 C :   -0.265243
  42 C :   -0.305909
  43 C :   -0.176086
  44 C :   -0.284068
  45 S :    0.744329
  46 C :   -0.317909
  47 C :   -0.333105
  48 S :    0.769983
  49 C :   -0.294589
  50 C :   -0.120833
  51 C :   -0.235624
  52 C :   -0.288796
  53 C :   -0.054576
  54 C :   -0.089903
  55 C :    0.018188
  56 C :   -0.138309
  57 C :   -0.154193
  58 N :    0.072116
  59 C :   -0.152943
  60 N :    0.064916
  61 C :   -0.038388
  62 C :   -0.052810
  63 C :   -0.230889
  64 F :    0.226645
  65 C :   -0.234697
  66 F :    0.225533
  67 C :   -0.050119
  68 C :   -0.064201
  69 C :   -0.254631
  70 O :    0.112801
  71 H :    0.167036
  72 H :    0.169190
  73 H :    0.175571
  74 H :    0.151274
  75 H :    0.155210
  76 H :    0.128643
  77 H :    0.125966
  78 H :    0.115867
  79 H :    0.140130
  80 H :    0.137946
  81 H :    0.125448
  82 H :    0.126554
  83 H :    0.129387
  84 H :    0.140749
  85 H :    0.143236
  86 H :    0.131465
  87 H :    0.118009
  88 H :    0.121684
  89 H :    0.146107
  90 H :    0.146491
  91 H :    0.123603
  92 H :    0.126758
  93 H :    0.118915
  94 H :    0.177983
  95 H :    0.170295
  96 H :    0.165439

  Mayer bond orders larger than 0.100000
B(  0-C ,  1-O ) :   2.1319 B(  0-C ,  2-C ) :   0.9671 B(  0-C , 16-C ) :   1.0076
B(  1-O ,  2-C ) :  -0.1418 B(  1-O , 16-C ) :  -0.1135 B(  2-C ,  3-C ) :   1.3058
B(  2-C ,  9-C ) :   1.3271 B(  3-C ,  4-C ) :   1.3654 B(  3-C , 71-H ) :   0.9777
B(  4-C ,  5-F ) :   1.0671 B(  4-C ,  6-C ) :   1.3285 B(  6-C ,  7-F ) :   1.0786
B(  6-C ,  8-C ) :   1.3989 B(  8-C ,  9-C ) :   1.3017 B(  8-C , 72-H ) :   0.9362
B(  9-C , 10-C ) :   1.0253 B( 10-C , 11-C ) :   1.4000 B( 10-C , 16-C ) :   1.1532
B( 11-C , 12-C ) :   1.0483 B( 11-C , 14-C ) :   1.0295 B( 12-C , 13-N ) :   2.9718
B( 14-C , 15-N ) :   2.9801 B( 16-C , 17-C ) :   1.4880 B( 17-C , 18-C ) :   1.0996
B( 17-C , 73-H ) :   0.9262 B( 18-C , 19-S ) :   1.1780 B( 18-C , 22-C ) :   1.3837
B( 19-S , 20-C ) :   1.3042 B( 19-S , 22-C ) :   0.1222 B( 20-C , 21-C ) :   1.3621
B( 20-C , 27-C ) :   1.1236 B( 21-C , 22-C ) :   1.2347 B( 21-C , 25-S ) :   1.1564
B( 22-C , 23-C ) :   0.9574 B( 23-C , 24-C ) :   0.9597 B( 23-C , 74-H ) :   0.9843
B( 23-C , 75-H ) :   0.9381 B( 24-C , 76-H ) :   0.9711 B( 24-C , 77-H ) :   0.9706
B( 24-C , 78-H ) :   0.9634 B( 25-S , 26-C ) :   1.3335 B( 26-C , 27-C ) :   1.2657
B( 26-C , 32-C ) :   1.2087 B( 27-C , 28-N ) :   1.1334 B( 28-N , 29-C ) :   0.8890
B( 28-N , 31-C ) :   1.2000 B( 29-C , 30-C ) :   0.9535 B( 29-C , 79-H ) :   0.9606
B( 29-C , 80-H ) :   0.9601 B( 30-C , 81-H ) :   0.9676 B( 30-C , 82-H ) :   0.9686
B( 30-C , 83-H ) :   0.9675 B( 31-C , 32-C ) :   1.2487 B( 31-C , 39-C ) :   1.2651
B( 32-C , 33-C ) :   1.1039 B( 33-C , 34-N ) :   1.6127 B( 33-C , 35-S ) :   0.1166
B( 33-C , 37-C ) :   1.1659 B( 34-N , 35-S ) :   1.2553 B( 34-N , 36-N ) :   0.1088
B( 35-S , 36-N ) :   1.2586 B( 35-S , 37-C ) :   0.1108 B( 36-N , 37-C ) :   1.6131
B( 37-C , 38-C ) :   1.0815 B( 38-C , 39-C ) :   1.2948 B( 38-C , 44-C ) :   1.1496
B( 39-C , 40-N ) :   1.1635 B( 40-N , 41-C ) :   0.8564 B( 40-N , 43-C ) :   1.1318
B( 41-C , 42-C ) :   0.9466 B( 41-C , 84-H ) :   0.9692 B( 41-C , 85-H ) :   0.9504
B( 42-C , 86-H ) :   0.9686 B( 42-C , 87-H ) :   0.9550 B( 42-C , 88-H ) :   0.9751
B( 43-C , 44-C ) :   1.2767 B( 43-C , 47-C ) :   1.1083 B( 44-C , 45-S ) :   1.3359
B( 45-S , 46-C ) :   1.1776 B( 45-S , 47-C ) :   0.1100 B( 46-C , 47-C ) :   1.3081
B( 46-C , 50-C ) :   1.3212 B( 47-C , 48-S ) :   1.3302 B( 48-S , 49-C ) :   1.3149
B( 49-C , 50-C ) :   1.2774 B( 49-C , 53-C ) :   1.2984 B( 50-C , 51-C ) :   0.9466
B( 51-C , 52-C ) :   0.9671 B( 51-C , 89-H ) :   0.9471 B( 51-C , 90-H ) :   0.9704
B( 52-C , 91-H ) :   0.9694 B( 52-C , 92-H ) :   0.9701 B( 52-C , 93-H ) :   0.9722
B( 53-C , 54-C ) :   1.4110 B( 53-C , 94-H ) :   0.8562 B( 54-C , 55-C ) :   1.1731
B( 54-C , 69-C ) :   1.0010 B( 55-C , 56-C ) :   1.4646 B( 55-C , 61-C ) :   1.0334
B( 56-C , 57-C ) :   1.0221 B( 56-C , 59-C ) :   1.0484 B( 57-C , 58-N ) :   2.9753
B( 59-C , 60-N ) :   2.8940 B( 61-C , 62-C ) :   1.3150 B( 61-C , 68-C ) :   1.3407
B( 62-C , 63-C ) :   1.4018 B( 62-C , 95-H ) :   0.9238 B( 63-C , 64-F ) :   1.0831
B( 63-C , 65-C ) :   1.3307 B( 65-C , 66-F ) :   1.0681 B( 65-C , 67-C ) :   1.3628
B( 67-C , 68-C ) :   1.2965 B( 67-C , 96-H ) :   0.9817 B( 68-C , 69-C ) :   1.0319
B( 68-C , 70-O ) :  -0.1540 B( 69-C , 70-O ) :   2.0188

-----------------------------------------------------------------------------
  SOC CORRECTED ABSORPTION SPECTRUM VIA TRANSITION ELECTRIC DIPOLE MOMENTS*
-----------------------------------------------------------------------------
State   Energy  Wavelength   fosc         T2         TX        TY        TZ
        (cm-1)    (nm)                  (au**2)     (au)      (au)      (au)
-----------------------------------------------------------------------------
   1   10676.4    936.6   0.000000001   0.00000   0.00016   0.00006   0.00008
   2   10676.4    936.6   0.000000001   0.00000   0.00012   0.00007   0.00014
   3   10676.4    936.6   0.000000009   0.00000   0.00043   0.00023   0.00024
   4   12609.9    793.0   0.000000007   0.00000   0.00037   0.00017   0.00015
   5   12609.9    793.0   0.000000007   0.00000   0.00029   0.00016   0.00026
   6   12609.9    793.0   0.000000009   0.00000   0.00038   0.00024   0.00014
   7   15019.5    665.8   2.416564736  52.96852   4.80514   2.60402   4.80607
   8   16489.3    606.5   0.000000102   0.00000   0.00093   0.00048   0.00097
   9   16489.3    606.5   0.000000012   0.00000   0.00020   0.00010   0.00043
  10   16489.3    606.5   0.000000002   0.00000   0.00014   0.00006   0.00016
  11   17070.3    585.8   0.156216337   3.01273   0.26320   0.12133   1.71135
  12   19114.0    523.2   0.321185922   5.53199   1.42146   1.09312   1.52202

FINAL SINGLE POINT ENERGY     -4975.085438818125

DIPOLE MOMENT
-------------
                                X             Y             Z
Electronic contribution:    -18.64807       4.91727      -7.06379
Nuclear contribution   :     18.14427      -4.89251       7.16667
                        -----------------------------------------
Total Dipole Moment    :     -0.50381       0.02476       0.10288
                        -----------------------------------------
Magnitude (a.u.)       :      0.51480
Magnitude (Debye)      :      1.30852

Rotational constants in cm-1:     0.001596     0.000261     0.000235
Rotational constants in MHz :    47.853381     7.822356     7.055460

                             ****ORCA TERMINATED NORMALLY****
TOTAL RUN TIME: 0 days 2 hours 45 minutes 59 seconds 933 msec
