                         Program Version 4.2.0 -  RELEASE  -
|  1> # ORCA input file
|  2> # ZY-4Cl.out: Geometry 10
|  3> ! B3LYP def2-TZVP def2/J RIJCOSX Grid4 TightSCF
|  4>
|  5> %maxcore 6000
|  6> %tddft
|  7>   maxdim 5
|  8>   nroots 3
|  9>   dosoc true
| 10>   end
| 11> %pal
| 12>   nprocs 6
| 13>   end
| 14>
| 15>
| 16> * xyz 0 1
| 17>    C        3.68762         2.61655         0.37708
| 18>    O        4.61166         2.51591        -0.41280
| 19>    C        2.36307         3.26785         0.09679
| 20>    C        1.89315         3.82591        -1.08482
| 21>    C        0.60169         4.36839        -1.09254
| 22>   Cl       -0.01241         5.04753        -2.56445
| 23>    C       -0.19367         4.36235         0.07848
| 24>   Cl       -1.78382         5.05345         0.06942
| 25>    C        0.29192         3.79480         1.26256
| 26>    C        1.56711         3.24666         1.25146
| 27>    C        2.30433         2.54804         2.35008
| 28>    O        1.90541         2.35173         3.48257
| 29>    C        3.61023         2.13853         1.76932
| 30>    C        4.47264         1.37699         2.50957
| 31>    C        5.75957         0.83304         2.28195
| 32>    S        6.78040         1.14521         0.85704
| 33>    C        8.04791         0.16907         1.53238
| 34>    C        7.67713        -0.37866         2.78053
| 35>    C        6.39323        -0.01630         3.21588
| 36>    C        5.75805        -0.58219         4.45665
| 37>    C        5.01367        -1.89498         4.15870
| 38>    S        8.91690        -1.40188         3.50756
| 39>    C        9.93629        -1.08690         2.13102
| 40>    C        9.34854        -0.25658         1.16453
| 41>    N       10.23728        -0.06788         0.11480
| 42>    C       10.10121         1.10871        -0.74707
| 43>    C       10.24016         2.42795         0.01058
| 44>    C       11.39653        -0.80031         0.39951
| 45>    C       11.22847        -1.41988         1.67765
| 46>    C       12.27192        -2.18373         2.28981
| 47>    N       12.23153        -2.80335         3.46092
| 48>    S       13.72019        -3.49681         3.68656
| 49>    N       14.44268        -3.01477         2.27576
| 50>    C       13.54402        -2.30456         1.60782
| 51>    C       13.67993        -1.75400         0.29409
| 52>    C       12.59989        -1.06707        -0.34988
| 53>    N       12.95959        -0.85895        -1.68352
| 54>    C       12.12351        -0.51366        -2.83118
| 55>    C       12.43932         0.86141        -3.42104
| 56>    C       14.23430        -1.36814        -1.87097
| 57>    C       14.70152        -1.90848        -0.66272
| 58>    S       16.25021        -2.69610        -0.79470
| 59>    C       16.24894        -2.33630        -2.52347
| 60>    C       15.11507        -1.61468        -2.95312
| 61>    S       15.15865        -1.30923        -4.66071
| 62>    C       16.69367        -2.20315        -4.80037
| 63>    C       17.13947        -2.68726        -3.55063
| 64>    C       18.40938        -3.45013        -3.29755
| 65>    C       19.56670        -2.53244        -2.87867
| 66>    C       17.36792        -2.47268        -6.01661
| 67>    C       17.13377        -2.13062        -7.32186
| 68>    C       17.98932        -2.68739        -8.40210
| 69>    O       18.94557        -3.42782        -8.27578
| 70>    C       17.42444        -2.16211        -9.68650
| 71>    C       17.82013        -2.41880       -10.99258
| 72>    C       17.10960        -1.80034       -12.02928
| 73>   Cl       17.56428        -2.12254       -13.67117
| 74>    C       16.03203        -0.92837       -11.74640
| 75>   Cl       15.17205        -0.16055       -13.04126
| 76>    C       15.64280        -0.67914       -10.42425
| 77>    C       16.34391        -1.31341        -9.40610
| 78>    C       16.10667        -1.26365        -7.92540
| 79>    O       15.22673        -0.62473        -7.37182
| 80>    H        2.50363         3.83868        -1.98883
| 81>    H       -0.32186         3.77908         2.16427
| 82>    H        4.06515         1.13590         3.49795
| 83>    H        5.06895         0.14400         4.91234
| 84>    H        6.54933        -0.76430         5.20162
| 85>    H        4.18861        -1.72333         3.45075
| 86>    H        4.59252        -2.32921         5.07852
| 87>    H        5.69338        -2.63394         3.70721
| 88>    H        9.12205         1.05007        -1.24965
| 89>    H       10.85956         1.05097        -1.52662
| 90>    H       11.21909         2.49162         0.51020
| 91>    H        9.45517         2.54677         0.77174
| 92>    H       10.15140         3.26781        -0.69612
| 93>    H       11.07433        -0.60447        -2.52357
| 94>    H       12.28373        -1.28912        -3.59796
| 95>    H       11.71913         1.10754        -4.21515
| 96>    H       13.44521         0.88114        -3.86566
| 97>    H       12.39875         1.65090        -2.65528
| 98>    H       18.69509        -4.03573        -4.18340
| 99>    H       18.21124        -4.18244        -2.49747
|100>    H       19.82793        -1.83566        -3.68930
|101>    H       20.46087        -3.12375        -2.62875
|102>    H       19.29338        -1.93336        -1.99635
|103>    H       18.25298        -3.11164        -5.90538
|104>    H       18.65644        -3.08384       -11.21169
|105>    H       14.80650        -0.01362       -10.20775
|106> *
|107>
|108>                          ****END OF INPUT****

CARTESIAN COORDINATES (ANGSTROEM)
---------------------------------
  C      3.687620    2.616550    0.377080
  O      4.611660    2.515910   -0.412800
  C      2.363070    3.267850    0.096790
  C      1.893150    3.825910   -1.084820
  C      0.601690    4.368390   -1.092540
  Cl    -0.012410    5.047530   -2.564450
  C     -0.193670    4.362350    0.078480
  Cl    -1.783820    5.053450    0.069420
  C      0.291920    3.794800    1.262560
  C      1.567110    3.246660    1.251460
  C      2.304330    2.548040    2.350080
  O      1.905410    2.351730    3.482570
  C      3.610230    2.138530    1.769320
  C      4.472640    1.376990    2.509570
  C      5.759570    0.833040    2.281950
  S      6.780400    1.145210    0.857040
  C      8.047910    0.169070    1.532380
  C      7.677130   -0.378660    2.780530
  C      6.393230   -0.016300    3.215880
  C      5.758050   -0.582190    4.456650
  C      5.013670   -1.894980    4.158700
  S      8.916900   -1.401880    3.507560
  C      9.936290   -1.086900    2.131020
  C      9.348540   -0.256580    1.164530
  N     10.237280   -0.067880    0.114800
  C     10.101210    1.108710   -0.747070
  C     10.240160    2.427950    0.010580
  C     11.396530   -0.800310    0.399510
  C     11.228470   -1.419880    1.677650
  C     12.271920   -2.183730    2.289810
  N     12.231530   -2.803350    3.460920
  S     13.720190   -3.496810    3.686560
  N     14.442680   -3.014770    2.275760
  C     13.544020   -2.304560    1.607820
  C     13.679930   -1.754000    0.294090
  C     12.599890   -1.067070   -0.349880
  N     12.959590   -0.858950   -1.683520
  C     12.123510   -0.513660   -2.831180
  C     12.439320    0.861410   -3.421040
  C     14.234300   -1.368140   -1.870970
  C     14.701520   -1.908480   -0.662720
  S     16.250210   -2.696100   -0.794700
  C     16.248940   -2.336300   -2.523470
  C     15.115070   -1.614680   -2.953120
  S     15.158650   -1.309230   -4.660710
  C     16.693670   -2.203150   -4.800370
  C     17.139470   -2.687260   -3.550630
  C     18.409380   -3.450130   -3.297550
  C     19.566700   -2.532440   -2.878670
  C     17.367920   -2.472680   -6.016610
  C     17.133770   -2.130620   -7.321860
  C     17.989320   -2.687390   -8.402100
  O     18.945570   -3.427820   -8.275780
  C     17.424440   -2.162110   -9.686500
  C     17.820130   -2.418800  -10.992580
  C     17.109600   -1.800340  -12.029280
  Cl    17.564280   -2.122540  -13.671170
  C     16.032030   -0.928370  -11.746400
  Cl    15.172050   -0.160550  -13.041260
  C     15.642800   -0.679140  -10.424250
  C     16.343910   -1.313410   -9.406100
  C     16.106670   -1.263650   -7.925400
  O     15.226730   -0.624730   -7.371820
  H      2.503630    3.838680   -1.988830
  H     -0.321860    3.779080    2.164270
  H      4.065150    1.135900    3.497950
  H      5.068950    0.144000    4.912340
  H      6.549330   -0.764300    5.201620
  H      4.188610   -1.723330    3.450750
  H      4.592520   -2.329210    5.078520
  H      5.693380   -2.633940    3.707210
  H      9.122050    1.050070   -1.249650
  H     10.859560    1.050970   -1.526620
  H     11.219090    2.491620    0.510200
  H      9.455170    2.546770    0.771740
  H     10.151400    3.267810   -0.696120
  H     11.074330   -0.604470   -2.523570
  H     12.283730   -1.289120   -3.597960
  H     11.719130    1.107540   -4.215150
  H     13.445210    0.881140   -3.865660
  H     12.398750    1.650900   -2.655280
  H     18.695090   -4.035730   -4.183400
  H     18.211240   -4.182440   -2.497470
  H     19.827930   -1.835660   -3.689300
  H     20.460870   -3.123750   -2.628750
  H     19.293380   -1.933360   -1.996350
  H     18.252980   -3.111640   -5.905380
  H     18.656440   -3.083840  -11.211690
  H     14.806500   -0.013620  -10.207750

 Total Charge           Charge          ....    0
 Multiplicity           Mult            ....    1
 Number of Electrons    NEL             ....  510
 Basis Dimension        Dim             .... 2163

ORBITAL ENERGIES
----------------

  NO   OCC          E(Eh)            E(eV)
   0   2.0000    -101.543310     -2763.1340
   1   2.0000    -101.542928     -2763.1235
   2   2.0000    -101.542795     -2763.1199
   3   2.0000    -101.542795     -2763.1199
   4   2.0000     -88.941535     -2420.2222
   5   2.0000     -88.905074     -2419.2301
   6   2.0000     -88.904871     -2419.2245
   7   2.0000     -88.904568     -2419.2163
   8   2.0000     -88.904561     -2419.2161
   9   2.0000     -19.125934      -520.4431
  10   2.0000     -19.125444      -520.4298
  11   2.0000     -19.121166      -520.3134
  12   2.0000     -19.120750      -520.3021
  13   2.0000     -14.405353      -391.9896
  14   2.0000     -14.402699      -391.9174
  15   2.0000     -14.356409      -390.6578
  16   2.0000     -14.356161      -390.6510
  17   2.0000     -10.273225      -279.5487
  18   2.0000     -10.272896      -279.5397
  19   2.0000     -10.269170      -279.4383
  20   2.0000     -10.268925      -279.4316
  21   2.0000     -10.268627      -279.4236
  22   2.0000     -10.268597      -279.4227
  23   2.0000     -10.268376      -279.4167
  24   2.0000     -10.267927      -279.4045
  25   2.0000     -10.261795      -279.2376
  26   2.0000     -10.260809      -279.2108
  27   2.0000     -10.251053      -278.9453
  28   2.0000     -10.246667      -278.8260
  29   2.0000     -10.242954      -278.7250
  30   2.0000     -10.242285      -278.7067
  31   2.0000     -10.240213      -278.6504
  32   2.0000     -10.239820      -278.6397
  33   2.0000     -10.238478      -278.6032
  34   2.0000     -10.238398      -278.6010
  35   2.0000     -10.233347      -278.4635
  36   2.0000     -10.232580      -278.4427
  37   2.0000     -10.227683      -278.3094
  38   2.0000     -10.227438      -278.3027
  39   2.0000     -10.227274      -278.2983
  40   2.0000     -10.227108      -278.2938
  41   2.0000     -10.223060      -278.1836
  42   2.0000     -10.222936      -278.1802
  43   2.0000     -10.222533      -278.1693
  44   2.0000     -10.221750      -278.1480
  45   2.0000     -10.215493      -277.9777
  46   2.0000     -10.215024      -277.9649
  47   2.0000     -10.214920      -277.9621
  48   2.0000     -10.214750      -277.9575
  49   2.0000     -10.214372      -277.9472
  50   2.0000     -10.214089      -277.9395
  51   2.0000     -10.209633      -277.8182
  52   2.0000     -10.209321      -277.8097
  53   2.0000     -10.208835      -277.7965
  54   2.0000     -10.208084      -277.7761
  55   2.0000     -10.200710      -277.5754
  56   2.0000     -10.200280      -277.5637
  57   2.0000     -10.198866      -277.5253
  58   2.0000     -10.193091      -277.3681
  59   2.0000     -10.192590      -277.3545
  60   2.0000     -10.192131      -277.3420
  61   2.0000     -10.180511      -277.0258
  62   2.0000     -10.180417      -277.0232
  63   2.0000      -9.475598      -257.8441
  64   2.0000      -9.475225      -257.8340
  65   2.0000      -9.475079      -257.8300
  66   2.0000      -9.475054      -257.8293
  67   2.0000      -8.012029      -218.0184
  68   2.0000      -7.980190      -217.1520
  69   2.0000      -7.979669      -217.1378
  70   2.0000      -7.979599      -217.1359
  71   2.0000      -7.979327      -217.1285
  72   2.0000      -7.237299      -196.9369
  73   2.0000      -7.236938      -196.9271
  74   2.0000      -7.236803      -196.9234
  75   2.0000      -7.236763      -196.9223
  76   2.0000      -7.228850      -196.7070
  77   2.0000      -7.228475      -196.6968
  78   2.0000      -7.228328      -196.6928
  79   2.0000      -7.228298      -196.6920
  80   2.0000      -7.228143      -196.6878
  81   2.0000      -7.227769      -196.6776
  82   2.0000      -7.227616      -196.6734
  83   2.0000      -7.227592      -196.6728
  84   2.0000      -5.976789      -162.6367
  85   2.0000      -5.969724      -162.4444
  86   2.0000      -5.968404      -162.4085
  87   2.0000      -5.943204      -161.7228
  88   2.0000      -5.942699      -161.7091
  89   2.0000      -5.942447      -161.7022
  90   2.0000      -5.942165      -161.6945
  91   2.0000      -5.939491      -161.6218
  92   2.0000      -5.938963      -161.6074
  93   2.0000      -5.938531      -161.5956
  94   2.0000      -5.938231      -161.5875
  95   2.0000      -5.935896      -161.5239
  96   2.0000      -5.935758      -161.5202
  97   2.0000      -5.935492      -161.5129
  98   2.0000      -5.935354      -161.5092
  99   2.0000      -1.052808       -28.6484
 100   2.0000      -1.051939       -28.6247
 101   2.0000      -1.046867       -28.4867
 102   2.0000      -1.046129       -28.4666
 103   2.0000      -1.031527       -28.0693
 104   2.0000      -1.018982       -27.7279
 105   2.0000      -1.017526       -27.6883
 106   2.0000      -0.932760       -25.3817
 107   2.0000      -0.932275       -25.3685
 108   2.0000      -0.924169       -25.1479
 109   2.0000      -0.922898       -25.1133
 110   2.0000      -0.899207       -24.4687
 111   2.0000      -0.882083       -24.0027
 112   2.0000      -0.879973       -23.9453
 113   2.0000      -0.878979       -23.9182
 114   2.0000      -0.873318       -23.7642
 115   2.0000      -0.873213       -23.7613
 116   2.0000      -0.869646       -23.6643
 117   2.0000      -0.860376       -23.4120
 118   2.0000      -0.833192       -22.6723
 119   2.0000      -0.823865       -22.4185
 120   2.0000      -0.817279       -22.2393
 121   2.0000      -0.814495       -22.1635
 122   2.0000      -0.813070       -22.1248
 123   2.0000      -0.806813       -21.9545
 124   2.0000      -0.783205       -21.3121
 125   2.0000      -0.781849       -21.2752
 126   2.0000      -0.775997       -21.1160
 127   2.0000      -0.774756       -21.0822
 128   2.0000      -0.774328       -21.0705
 129   2.0000      -0.765955       -20.8427
 130   2.0000      -0.754548       -20.5323
 131   2.0000      -0.749297       -20.3894
 132   2.0000      -0.737181       -20.0597
 133   2.0000      -0.722010       -19.6469
 134   2.0000      -0.720627       -19.6092
 135   2.0000      -0.717690       -19.5293
 136   2.0000      -0.696816       -18.9613
 137   2.0000      -0.678495       -18.4628
 138   2.0000      -0.674792       -18.3620
 139   2.0000      -0.672626       -18.3031
 140   2.0000      -0.655412       -17.8347
 141   2.0000      -0.654503       -17.8099
 142   2.0000      -0.652238       -17.7483
 143   2.0000      -0.648996       -17.6601
 144   2.0000      -0.645630       -17.5685
 145   2.0000      -0.643902       -17.5215
 146   2.0000      -0.630736       -17.1632
 147   2.0000      -0.624981       -17.0066
 148   2.0000      -0.611092       -16.6287
 149   2.0000      -0.598464       -16.2850
 150   2.0000      -0.584986       -15.9183
 151   2.0000      -0.580355       -15.7923
 152   2.0000      -0.578919       -15.7532
 153   2.0000      -0.577531       -15.7154
 154   2.0000      -0.566171       -15.4063
 155   2.0000      -0.560326       -15.2472
 156   2.0000      -0.550930       -14.9916
 157   2.0000      -0.542877       -14.7724
 158   2.0000      -0.538940       -14.6653
 159   2.0000      -0.533460       -14.5162
 160   2.0000      -0.528016       -14.3681
 161   2.0000      -0.521388       -14.1877
 162   2.0000      -0.517585       -14.0842
 163   2.0000      -0.512631       -13.9494
 164   2.0000      -0.512337       -13.9414
 165   2.0000      -0.503157       -13.6916
 166   2.0000      -0.501960       -13.6590
 167   2.0000      -0.498379       -13.5616
 168   2.0000      -0.489145       -13.3103
 169   2.0000      -0.488189       -13.2843
 170   2.0000      -0.483392       -13.1538
 171   2.0000      -0.481246       -13.0954
 172   2.0000      -0.478431       -13.0188
 173   2.0000      -0.475014       -12.9258
 174   2.0000      -0.473929       -12.8963
 175   2.0000      -0.469706       -12.7814
 176   2.0000      -0.467067       -12.7095
 177   2.0000      -0.466037       -12.6815
 178   2.0000      -0.460970       -12.5436
 179   2.0000      -0.459094       -12.4926
 180   2.0000      -0.457900       -12.4601
 181   2.0000      -0.456973       -12.4349
 182   2.0000      -0.456689       -12.4271
 183   2.0000      -0.453750       -12.3472
 184   2.0000      -0.453519       -12.3409
 185   2.0000      -0.449959       -12.2440
 186   2.0000      -0.444956       -12.1079
 187   2.0000      -0.444004       -12.0820
 188   2.0000      -0.441774       -12.0213
 189   2.0000      -0.440175       -11.9778
 190   2.0000      -0.436150       -11.8682
 191   2.0000      -0.431683       -11.7467
 192   2.0000      -0.430484       -11.7141
 193   2.0000      -0.426636       -11.6094
 194   2.0000      -0.423922       -11.5355
 195   2.0000      -0.423295       -11.5184
 196   2.0000      -0.418402       -11.3853
 197   2.0000      -0.417222       -11.3532
 198   2.0000      -0.416901       -11.3444
 199   2.0000      -0.413987       -11.2652
 200   2.0000      -0.412459       -11.2236
 201   2.0000      -0.410844       -11.1796
 202   2.0000      -0.409020       -11.1300
 203   2.0000      -0.406671       -11.0661
 204   2.0000      -0.403133       -10.9698
 205   2.0000      -0.401541       -10.9265
 206   2.0000      -0.398207       -10.8358
 207   2.0000      -0.397468       -10.8156
 208   2.0000      -0.394584       -10.7372
 209   2.0000      -0.393385       -10.7045
 210   2.0000      -0.393123       -10.6974
 211   2.0000      -0.392823       -10.6893
 212   2.0000      -0.390802       -10.6343
 213   2.0000      -0.389593       -10.6014
 214   2.0000      -0.385677       -10.4948
 215   2.0000      -0.384459       -10.4617
 216   2.0000      -0.378779       -10.3071
 217   2.0000      -0.365469        -9.9449
 218   2.0000      -0.364530        -9.9194
 219   2.0000      -0.364116        -9.9081
 220   2.0000      -0.363400        -9.8886
 221   2.0000      -0.362664        -9.8686
 222   2.0000      -0.362626        -9.8675
 223   2.0000      -0.357161        -9.7188
 224   2.0000      -0.351083        -9.5535
 225   2.0000      -0.350025        -9.5247
 226   2.0000      -0.349598        -9.5131
 227   2.0000      -0.344517        -9.3748
 228   2.0000      -0.343526        -9.3478
 229   2.0000      -0.342726        -9.3260
 230   2.0000      -0.342023        -9.3069
 231   2.0000      -0.340373        -9.2620
 232   2.0000      -0.333297        -9.0695
 233   2.0000      -0.332909        -9.0589
 234   2.0000      -0.320331        -8.7166
 235   2.0000      -0.319931        -8.7058
 236   2.0000      -0.314364        -8.5543
 237   2.0000      -0.310882        -8.4595
 238   2.0000      -0.308367        -8.3911
 239   2.0000      -0.291659        -7.9365
 240   2.0000      -0.282575        -7.6892
 241   2.0000      -0.282162        -7.6780
 242   2.0000      -0.280930        -7.6445
 243   2.0000      -0.280506        -7.6330
 244   2.0000      -0.279405        -7.6030
 245   2.0000      -0.272423        -7.4130
 246   2.0000      -0.269113        -7.3229
 247   2.0000      -0.260959        -7.1011
 248   2.0000      -0.259380        -7.0581
 249   2.0000      -0.257255        -7.0003
 250   2.0000      -0.256809        -6.9881
 251   2.0000      -0.239608        -6.5201
 252   2.0000      -0.232990        -6.3400
 253   2.0000      -0.229932        -6.2568
 254   2.0000      -0.202383        -5.5071
 255   0.0000      -0.120815        -3.2875
 256   0.0000      -0.108140        -2.9427
 257   0.0000      -0.088997        -2.4217
 258   0.0000      -0.088530        -2.4090
 259   0.0000      -0.087369        -2.3774

MULLIKEN ATOMIC CHARGES
-----------------------
   0 C :    0.130529
   1 O :   -0.338446
   2 C :    0.171801
   3 C :   -0.308253
   4 C :    0.169921
   5 Cl:   -0.068871
   6 C :    0.161201
   7 Cl:   -0.066437
   8 C :   -0.321260
   9 C :    0.054914
  10 C :    0.224880
  11 O :   -0.307418
  12 C :   -0.113172
  13 C :   -0.202688
  14 C :    0.154301
  15 S :    0.042260
  16 C :   -0.261312
  17 C :    0.012136
  18 C :    0.068788
  19 C :   -0.225634
  20 C :   -0.329983
  21 S :    0.028913
  22 C :   -0.134489
  23 C :    0.394950
  24 N :   -0.090523
  25 C :   -0.121959
  26 C :   -0.341179
  27 C :   -0.044704
  28 C :    0.098927
  29 C :   -0.016197
  30 N :   -0.254947
  31 S :    0.325287
  32 N :   -0.250851
  33 C :    0.003839
  34 C :    0.053961
  35 C :    0.093490
  36 N :   -0.044803
  37 C :   -0.229004
  38 C :   -0.324932
  39 C :    0.342251
  40 C :   -0.150010
  41 S :    0.028467
  42 C :    0.007267
  43 C :   -0.199995
  44 S :    0.027924
  45 C :    0.138071
  46 C :    0.067233
  47 C :   -0.225501
  48 C :   -0.327967
  49 C :   -0.186250
  50 C :   -0.112901
  51 C :    0.215596
  52 O :   -0.305933
  53 C :    0.059782
  54 C :   -0.314895
  55 C :    0.162665
  56 Cl:   -0.067491
  57 C :    0.164567
  58 Cl:   -0.067974
  59 C :   -0.304792
  60 C :    0.155997
  61 C :    0.149960
  62 O :   -0.341884
  63 H :    0.136061
  64 H :    0.140178
  65 H :    0.133153
  66 H :    0.119608
  67 H :    0.108572
  68 H :    0.121151
  69 H :    0.118727
  70 H :    0.119510
  71 H :    0.137631
  72 H :    0.083207
  73 H :    0.120034
  74 H :    0.140099
  75 H :    0.121053
  76 H :    0.166960
  77 H :    0.142271
  78 H :    0.127586
  79 H :    0.142837
  80 H :    0.120467
  81 H :    0.116394
  82 H :    0.110069
  83 H :    0.118892
  84 H :    0.118260
  85 H :    0.119150
  86 H :    0.132750
  87 H :    0.141013
  88 H :    0.137144
Sum of atomic charges:   -0.0000000

LOEWDIN ATOMIC CHARGES
----------------------
   0 C :   -0.258312
   1 O :    0.109305
   2 C :   -0.059024
   3 C :   -0.081826
   4 C :   -0.414878
   5 Cl:    0.423308
   6 C :   -0.415234
   7 Cl:    0.424080
   8 C :   -0.079383
   9 C :   -0.061936
  10 C :   -0.256704
  11 O :    0.116011
  12 C :   -0.114372
  13 C :   -0.059924
  14 C :   -0.299996
  15 S :    0.768450
  16 C :   -0.335569
  17 C :   -0.322998
  18 C :   -0.130282
  19 C :   -0.235934
  20 C :   -0.289628
  21 S :    0.738956
  22 C :   -0.288997
  23 C :   -0.178557
  24 N :    0.280672
  25 C :   -0.268710
  26 C :   -0.295501
  27 C :   -0.087872
  28 C :   -0.091710
  29 C :   -0.244516
  30 N :   -0.120251
  31 S :    0.636360
  32 N :   -0.121010
  33 C :   -0.244054
  34 C :   -0.093192
  35 C :   -0.085709
  36 N :    0.287571
  37 C :   -0.269597
  38 C :   -0.304072
  39 C :   -0.177720
  40 C :   -0.289153
  41 S :    0.737159
  42 C :   -0.321601
  43 C :   -0.334684
  44 S :    0.768569
  45 C :   -0.297764
  46 C :   -0.130155
  47 C :   -0.236716
  48 C :   -0.290874
  49 C :   -0.058637
  50 C :   -0.114827
  51 C :   -0.256807
  52 O :    0.117016
  53 C :   -0.061036
  54 C :   -0.079033
  55 C :   -0.415012
  56 Cl:    0.423821
  57 C :   -0.415462
  58 Cl:    0.423249
  59 C :   -0.080947
  60 C :   -0.059602
  61 C :   -0.259470
  62 O :    0.107359
  63 H :    0.159689
  64 H :    0.160988
  65 H :    0.176579
  66 H :    0.143994
  67 H :    0.143974
  68 H :    0.123494
  69 H :    0.122370
  70 H :    0.122758
  71 H :    0.140799
  72 H :    0.139964
  73 H :    0.125304
  74 H :    0.125335
  75 H :    0.129102
  76 H :    0.141394
  77 H :    0.143884
  78 H :    0.130535
  79 H :    0.123664
  80 H :    0.120081
  81 H :    0.143777
  82 H :    0.145704
  83 H :    0.123171
  84 H :    0.122809
  85 H :    0.122145
  86 H :    0.175480
  87 H :    0.160842
  88 H :    0.159528

  Mayer bond orders larger than 0.100000
B(  0-C ,  1-O ) :   2.0644 B(  0-C ,  2-C ) :   1.0087 B(  0-C , 12-C ) :   1.0001
B(  1-O ,  2-C ) :  -0.1438 B(  2-C ,  3-C ) :   1.3546 B(  2-C ,  9-C ) :   1.3486
B(  3-C ,  4-C ) :   1.3502 B(  3-C , 63-H ) :   0.9853 B(  4-C ,  5-Cl) :   1.0366
B(  4-C ,  6-C ) :   1.2597 B(  6-C ,  7-Cl) :   1.0426 B(  6-C ,  8-C ) :   1.3531
B(  8-C ,  9-C ) :   1.3638 B(  8-C , 64-H ) :   0.9797 B(  9-C , 10-C ) :   0.9776
B(  9-C , 11-O ) :  -0.1531 B( 10-C , 11-O ) :   2.1442 B( 10-C , 12-C ) :   1.0119
B( 11-O , 12-C ) :  -0.1092 B( 12-C , 13-C ) :   1.5030 B( 13-C , 14-C ) :   1.1020
B( 13-C , 65-H ) :   0.9338 B( 14-C , 15-S ) :   1.2693 B( 14-C , 18-C ) :   1.3377
B( 15-S , 16-C ) :   1.3660 B( 15-S , 23-C ) :  -0.1393 B( 16-C , 17-C ) :   1.3374
B( 16-C , 21-S ) :   0.1122 B( 16-C , 23-C ) :   1.0326 B( 17-C , 18-C ) :   1.3259
B( 17-C , 21-S ) :   1.1831 B( 18-C , 19-C ) :   0.9209 B( 19-C , 20-C ) :   0.9588
B( 19-C , 66-H ) :   0.9698 B( 19-C , 67-H ) :   0.9729 B( 20-C , 68-H ) :   0.9707
B( 20-C , 69-H ) :   0.9710 B( 20-C , 70-H ) :   0.9729 B( 21-S , 22-C ) :   1.3455
B( 22-C , 23-C ) :   1.2566 B( 22-C , 28-C ) :   1.1845 B( 23-C , 24-N ) :   1.1193
B( 24-N , 25-C ) :   0.8906 B( 24-N , 27-C ) :   1.2127 B( 25-C , 26-C ) :   0.9670
B( 25-C , 71-H ) :   0.9616 B( 25-C , 72-H ) :   0.9577 B( 26-C , 73-H ) :   0.9672
B( 26-C , 74-H ) :   0.9709 B( 26-C , 75-H ) :   0.9666 B( 27-C , 28-C ) :   1.2813
B( 27-C , 35-C ) :   1.2440 B( 28-C , 29-C ) :   1.0865 B( 29-C , 30-N ) :   1.6150
B( 29-C , 31-S ) :   0.1104 B( 29-C , 33-C ) :   1.1595 B( 30-N , 31-S ) :   1.2534
B( 30-N , 32-N ) :   0.1093 B( 31-S , 32-N ) :   1.2519 B( 31-S , 33-C ) :   0.1182
B( 32-N , 33-C ) :   1.6095 B( 33-C , 34-C ) :   1.1074 B( 34-C , 35-C ) :   1.2445
B( 34-C , 40-C ) :   1.2017 B( 35-C , 36-N ) :   1.2338 B( 36-N , 37-C ) :   0.8773
B( 36-N , 39-C ) :   1.1191 B( 37-C , 38-C ) :   0.9354 B( 37-C , 76-H ) :   0.9676
B( 37-C , 77-H ) :   0.9554 B( 38-C , 78-H ) :   0.9696 B( 38-C , 79-H ) :   0.9597
B( 38-C , 80-H ) :   0.9692 B( 39-C , 40-C ) :   1.2740 B( 39-C , 43-C ) :   1.0677
B( 39-C , 44-S ) :  -0.1266 B( 40-C , 41-S ) :   1.3309 B( 41-S , 42-C ) :   1.1785
B( 41-S , 43-C ) :   0.1047 B( 42-C , 43-C ) :   1.3381 B( 42-C , 46-C ) :   1.3091
B( 43-C , 44-S ) :   1.3497 B( 44-S , 45-C ) :   1.2734 B( 45-C , 46-C ) :   1.3299
B( 45-C , 49-C ) :   1.1117 B( 46-C , 47-C ) :   0.9292 B( 47-C , 48-C ) :   0.9654
B( 47-C , 81-H ) :   0.9680 B( 47-C , 82-H ) :   0.9683 B( 48-C , 83-H ) :   0.9703
B( 48-C , 84-H ) :   0.9710 B( 48-C , 85-H ) :   0.9742 B( 49-C , 50-C ) :   1.4948
B( 49-C , 86-H ) :   0.9229 B( 50-C , 51-C ) :   1.0073 B( 50-C , 52-O ) :  -0.1227
B( 50-C , 61-C ) :   1.0093 B( 51-C , 52-O ) :   2.1486 B( 51-C , 53-C ) :   0.9807
B( 52-O , 53-C ) :  -0.1528 B( 53-C , 54-C ) :   1.3573 B( 53-C , 60-C ) :   1.3529
B( 54-C , 55-C ) :   1.3578 B( 54-C , 87-H ) :   0.9786 B( 55-C , 56-Cl) :   1.0398
B( 55-C , 57-C ) :   1.2599 B( 57-C , 58-Cl) :   1.0401 B( 57-C , 59-C ) :   1.3519
B( 59-C , 60-C ) :   1.3600 B( 59-C , 88-H ) :   0.9805 B( 60-C , 61-C ) :   1.0147
B( 60-C , 62-O ) :  -0.1453 B( 61-C , 62-O ) :   2.0537

-----------------------------------------------------------------------------
  SOC CORRECTED ABSORPTION SPECTRUM VIA TRANSITION ELECTRIC DIPOLE MOMENTS*
-----------------------------------------------------------------------------
State   Energy  Wavelength   fosc         T2         TX        TY        TZ
        (cm-1)    (nm)                  (au**2)     (au)      (au)      (au)
-----------------------------------------------------------------------------
   1   11878.3    841.9   0.000000000   0.00000   0.00007   0.00004   0.00003
   2   11878.3    841.9   0.000000000   0.00000   0.00005   0.00001   0.00002
   3   11878.3    841.9   0.000000001   0.00000   0.00009   0.00002   0.00008
   4   14257.2    701.4   0.000000004   0.00000   0.00026   0.00009   0.00016
   5   14257.2    701.4   0.000000000   0.00000   0.00003   0.00002   0.00001
   6   14257.2    701.4   0.000000002   0.00000   0.00012   0.00003   0.00015
   7   16830.2    594.2   2.459258842  48.10510   5.53411   1.77297   3.78620
   8   18391.2    543.7   0.000000141   0.00000   0.00142   0.00059   0.00039
   9   18391.2    543.7   0.000000011   0.00000   0.00038   0.00014   0.00017
  10   18391.2    543.7   0.000000058   0.00000   0.00086   0.00046   0.00027
  11   19516.1    512.4   0.173278636   2.92299   0.87589   0.63287   1.32487
  12   21337.1    468.7   0.037244083   0.57464   0.29900   0.43483   0.54420

FINAL SINGLE POINT ENERGY     -6119.338796921236

DIPOLE MOMENT
-------------
                                X             Y             Z
Electronic contribution:    -28.85844      13.40225     -46.77447
Nuclear contribution   :     29.32585     -13.36527      47.32191
                        -----------------------------------------
Total Dipole Moment    :      0.46741       0.03698       0.54744
                        -----------------------------------------
Magnitude (a.u.)       :      0.72078
Magnitude (Debye)      :      1.83209

Rotational constants in cm-1:     0.001068     0.000307     0.000242
Rotational constants in MHz :    32.003003     9.198714     7.240564

                             ****ORCA TERMINATED NORMALLY****
TOTAL RUN TIME: 0 days 2 hours 3 minutes 8 seconds 728 msec
