                         Program Version 4.2.0 -  RELEASE  -
|  1> # ORCA input file
|  2> # ZY-4Cl.out
|  3> ! B3LYP def2-TZVP def2/J RIJCOSX Grid4 TightSCF
|  4>
|  5> %maxcore 2000
|  6> %tddft
|  7>   maxdim 5
|  8>   nroots 3
|  9>   dosoc true
| 10>   end
| 11>
| 12>
| 13>
| 14> * xyz 0 1
| 15>    C        3.70479         1.04375        -2.55570
| 16>    O        4.82646         1.47172        -2.76179
| 17>    C        2.61282         0.94039        -3.55852
| 18>    C        2.61823         1.29295        -4.89298
| 19>    C        1.45567         1.09072        -5.63023
| 20>   Cl        1.42649         1.51893        -7.29439
| 21>    C        0.31506         0.54424        -5.03299
| 22>   Cl       -1.10533         0.30038        -5.96884
| 23>    C        0.31613         0.19051        -3.68671
| 24>    C        1.47103         0.39499        -2.95960
| 25>    C        1.75185         0.11847        -1.52520
| 26>    O        0.99254        -0.34896        -0.70571
| 27>    C        3.15011         0.53186        -1.30957
| 28>    C        3.73401         0.41381        -0.07724
| 29>    C        5.03002         0.73145         0.34643
| 30>    S        6.27603         1.35767        -0.73365
| 31>    C        7.39931         1.40914         0.57020
| 32>    C        6.82429         0.96791         1.77478
| 33>    C        5.49466         0.58023         1.66083
| 34>    C        4.67721         0.11979         2.82286
| 35>    C        3.86039         1.27773         3.40285
| 36>    S        7.93301         0.98845         3.13273
| 37>    C        9.16743         1.57664         2.07458
| 38>    C        8.73931         1.76714         0.75319
| 39>    N        9.78599         2.19837        -0.01573
| 40>    C        9.69450         2.15865        -1.45996
| 41>    C        8.88489         3.32654        -2.02426
| 42>    C       10.89670         2.29449         0.79757
| 43>    C       10.53523         1.87394         2.11204
| 44>    C       11.50133         1.68384         3.12911
| 45>    N       11.32342         1.27325         4.37452
| 46>    S       12.77100         1.11457         5.07734
| 47>    N       13.68738         1.56446         3.81870
| 48>    C       12.88682         1.85806         2.80571
| 49>    C       13.22701         2.34718         1.52509
| 50>    C       12.24102         2.67236         0.54644
| 51>    N       12.86758         3.25131        -0.53619
| 52>    C       12.30883         4.20900        -1.46741
| 53>    C       12.55812         5.63857        -0.98885
| 54>    C       14.22388         3.24156        -0.29214
| 55>    C       14.45775         2.68506         0.96343
| 56>    S       16.11811         2.59820         1.38593
| 57>    C       16.56145         3.30431        -0.19206
| 58>    C       15.39338         3.60656        -0.99883
| 59>    S       15.43544         4.25706        -2.53303
| 60>    C       18.87421         3.13261         0.45323
| 61>    C       17.88866         3.48400        -0.49229
| 62>    C       18.35521         4.04674        -1.80169
| 63>    C       19.86457         4.14424        -1.96009
| 64>    C       20.08999         2.99548         0.90853
| 65>    C       19.02305         2.56417         1.88043
| 66>    C       18.69154         1.13174         2.15577
| 67>    O       18.97317         0.17867         1.47229
| 68>    C       17.91443         1.14933         3.41983
| 69>    C       17.21101         0.11865         4.01396
| 70>    C       16.43436         0.40933         5.12823
| 71>   Cl       15.50294        -0.83281         5.85665
| 72>    C       16.38510         1.70681         5.64853
| 73>   Cl       15.39418         2.03852         7.00854
| 74>    C       17.10972         2.73651         5.06233
| 75>    C       17.86326         2.44953         3.93983
| 76>    C       18.60123         3.38577         3.05677
| 77>    O       18.79393         4.56474         3.22312
| 78>    H        3.49761         1.71475        -5.35364
| 79>    H       -0.56339        -0.23117        -3.22629
| 80>    H        3.07838         0.00580         0.68627
| 81>    H        5.35503        -0.25967         3.59009
| 82>    H        4.00811        -0.68882         2.52527
| 83>    H        4.52048         2.08008         3.72372
| 84>    H        3.28865         0.93539         4.26116
| 85>    H        3.17111         1.67238         2.66003
| 86>    H        9.18961         1.22549        -1.73302
| 87>    H       10.70257         2.12160        -1.87470
| 88>    H        7.82921         3.19300        -1.80661
| 89>    H        9.00619         3.36699        -3.10276
| 90>    H        9.19893         4.27717        -1.59843
| 91>    H       11.24088         4.05291        -1.55166
| 92>    H       12.78406         4.05828        -2.44009
| 93>    H       12.14121         5.78502         0.00584
| 94>    H       12.08625         6.33631        -1.67492
| 95>    H       13.62203         5.85692        -0.95815
| 96>    H       17.90481         5.03745        -1.92705
| 97>    H       17.94000         3.42809        -2.60425
| 98>    H       20.29389         4.79900        -1.20651
| 99>    H       20.09367         4.55281        -2.94116
|100>    H       20.32709         3.16407        -1.87977
|101>    H       21.14509         3.06444         0.82820
|102>    H       17.24088        -0.87921         3.60515
|103>    H       17.06255         3.74001         5.45516
|104> *
|105>
|106>                          ****END OF INPUT****

CARTESIAN COORDINATES (ANGSTROEM)
---------------------------------
  C      3.704790    1.043750   -2.555700
  O      4.826460    1.471720   -2.761790
  C      2.612820    0.940390   -3.558520
  C      2.618230    1.292950   -4.892980
  C      1.455670    1.090720   -5.630230
  Cl     1.426490    1.518930   -7.294390
  C      0.315060    0.544240   -5.032990
  Cl    -1.105330    0.300380   -5.968840
  C      0.316130    0.190510   -3.686710
  C      1.471030    0.394990   -2.959600
  C      1.751850    0.118470   -1.525200
  O      0.992540   -0.348960   -0.705710
  C      3.150110    0.531860   -1.309570
  C      3.734010    0.413810   -0.077240
  C      5.030020    0.731450    0.346430
  S      6.276030    1.357670   -0.733650
  C      7.399310    1.409140    0.570200
  C      6.824290    0.967910    1.774780
  C      5.494660    0.580230    1.660830
  C      4.677210    0.119790    2.822860
  C      3.860390    1.277730    3.402850
  S      7.933010    0.988450    3.132730
  C      9.167430    1.576640    2.074580
  C      8.739310    1.767140    0.753190
  N      9.785990    2.198370   -0.015730
  C      9.694500    2.158650   -1.459960
  C      8.884890    3.326540   -2.024260
  C     10.896700    2.294490    0.797570
  C     10.535230    1.873940    2.112040
  C     11.501330    1.683840    3.129110
  N     11.323420    1.273250    4.374520
  S     12.771000    1.114570    5.077340
  N     13.687380    1.564460    3.818700
  C     12.886820    1.858060    2.805710
  C     13.227010    2.347180    1.525090
  C     12.241020    2.672360    0.546440
  N     12.867580    3.251310   -0.536190
  C     12.308830    4.209000   -1.467410
  C     12.558120    5.638570   -0.988850
  C     14.223880    3.241560   -0.292140
  C     14.457750    2.685060    0.963430
  S     16.118110    2.598200    1.385930
  C     16.561450    3.304310   -0.192060
  C     15.393380    3.606560   -0.998830
  S     15.435440    4.257060   -2.533030
  C     18.874210    3.132610    0.453230
  C     17.888660    3.484000   -0.492290
  C     18.355210    4.046740   -1.801690
  C     19.864570    4.144240   -1.960090
  C     20.089990    2.995480    0.908530
  C     19.023050    2.564170    1.880430
  C     18.691540    1.131740    2.155770
  O     18.973170    0.178670    1.472290
  C     17.914430    1.149330    3.419830
  C     17.211010    0.118650    4.013960
  C     16.434360    0.409330    5.128230
  Cl    15.502940   -0.832810    5.856650
  C     16.385100    1.706810    5.648530
  Cl    15.394180    2.038520    7.008540
  C     17.109720    2.736510    5.062330
  C     17.863260    2.449530    3.939830
  C     18.601230    3.385770    3.056770
  O     18.793930    4.564740    3.223120
  H      3.497610    1.714750   -5.353640
  H     -0.563390   -0.231170   -3.226290
  H      3.078380    0.005800    0.686270
  H      5.355030   -0.259670    3.590090
  H      4.008110   -0.688820    2.525270
  H      4.520480    2.080080    3.723720
  H      3.288650    0.935390    4.261160
  H      3.171110    1.672380    2.660030
  H      9.189610    1.225490   -1.733020
  H     10.702570    2.121600   -1.874700
  H      7.829210    3.193000   -1.806610
  H      9.006190    3.366990   -3.102760
  H      9.198930    4.277170   -1.598430
  H     11.240880    4.052910   -1.551660
  H     12.784060    4.058280   -2.440090
  H     12.141210    5.785020    0.005840
  H     12.086250    6.336310   -1.674920
  H     13.622030    5.856920   -0.958150
  H     17.904810    5.037450   -1.927050
  H     17.940000    3.428090   -2.604250
  H     20.293890    4.799000   -1.206510
  H     20.093670    4.552810   -2.941160
  H     20.327090    3.164070   -1.879770
  H     21.145090    3.064440    0.828200
  H     17.240880   -0.879210    3.605150
  H     17.062550    3.740010    5.455160

 Total Charge           Charge          ....    0
 Multiplicity           Mult            ....    1
 Number of Electrons    NEL             ....  510
 Basis Dimension        Dim             .... 2163

ORBITAL ENERGIES
----------------

  NO   OCC          E(Eh)            E(eV)
   0   2.0000    -101.546483     -2763.2203
   1   2.0000    -101.545903     -2763.2045
   2   2.0000    -101.544200     -2763.1582
   3   2.0000    -101.543739     -2763.1456
   4   2.0000     -88.940350     -2420.1900
   5   2.0000     -88.902905     -2419.1710
   6   2.0000     -88.899060     -2419.0664
   7   2.0000     -88.891440     -2418.8591
   8   2.0000     -88.820202     -2416.9206
   9   2.0000     -19.129130      -520.5301
  10   2.0000     -19.128334      -520.5084
  11   2.0000     -19.128219      -520.5053
  12   2.0000     -19.121393      -520.3195
  13   2.0000     -14.402861      -391.9218
  14   2.0000     -14.396947      -391.7608
  15   2.0000     -14.349039      -390.4572
  16   2.0000     -14.348783      -390.4502
  17   2.0000     -10.273173      -279.5472
  18   2.0000     -10.271946      -279.5139
  19   2.0000     -10.271880      -279.5121
  20   2.0000     -10.267104      -279.3821
  21   2.0000     -10.266621      -279.3689
  22   2.0000     -10.266455      -279.3644
  23   2.0000     -10.266090      -279.3545
  24   2.0000     -10.265901      -279.3494
  25   2.0000     -10.257570      -279.1227
  26   2.0000     -10.255841      -279.0756
  27   2.0000     -10.244771      -278.7744
  28   2.0000     -10.244557      -278.7686
  29   2.0000     -10.239410      -278.6285
  30   2.0000     -10.239084      -278.6196
  31   2.0000     -10.236668      -278.5539
  32   2.0000     -10.234880      -278.5053
  33   2.0000     -10.234171      -278.4860
  34   2.0000     -10.233336      -278.4632
  35   2.0000     -10.229979      -278.3719
  36   2.0000     -10.229171      -278.3499
  37   2.0000     -10.228017      -278.3185
  38   2.0000     -10.227607      -278.3073
  39   2.0000     -10.226335      -278.2727
  40   2.0000     -10.224663      -278.2272
  41   2.0000     -10.224218      -278.2151
  42   2.0000     -10.224027      -278.2099
  43   2.0000     -10.222630      -278.1719
  44   2.0000     -10.221651      -278.1453
  45   2.0000     -10.218111      -278.0489
  46   2.0000     -10.213329      -277.9188
  47   2.0000     -10.213059      -277.9115
  48   2.0000     -10.212956      -277.9087
  49   2.0000     -10.212656      -277.9005
  50   2.0000     -10.212343      -277.8920
  51   2.0000     -10.208940      -277.7994
  52   2.0000     -10.208689      -277.7926
  53   2.0000     -10.208374      -277.7840
  54   2.0000     -10.208172      -277.7785
  55   2.0000     -10.207331      -277.7556
  56   2.0000     -10.197042      -277.4756
  57   2.0000     -10.190245      -277.2907
  58   2.0000     -10.188510      -277.2435
  59   2.0000     -10.183950      -277.1194
  60   2.0000     -10.175980      -276.9025
  61   2.0000     -10.175023      -276.8764
  62   2.0000     -10.165960      -276.6298
  63   2.0000      -9.479350      -257.9462
  64   2.0000      -9.478749      -257.9299
  65   2.0000      -9.476844      -257.8780
  66   2.0000      -9.476382      -257.8655
  67   2.0000      -8.011580      -218.0062
  68   2.0000      -7.978566      -217.1078
  69   2.0000      -7.974356      -216.9932
  70   2.0000      -7.968814      -216.8425
  71   2.0000      -7.898966      -214.9418
  72   2.0000      -7.240880      -197.0344
  73   2.0000      -7.240288      -197.0183
  74   2.0000      -7.238462      -196.9686
  75   2.0000      -7.237997      -196.9559
  76   2.0000      -7.232651      -196.8104
  77   2.0000      -7.232040      -196.7938
  78   2.0000      -7.231883      -196.7895
  79   2.0000      -7.231287      -196.7733
  80   2.0000      -7.230121      -196.7416
  81   2.0000      -7.229662      -196.7291
  82   2.0000      -7.229359      -196.7209
  83   2.0000      -7.228902      -196.7084
  84   2.0000      -5.976272      -162.6226
  85   2.0000      -5.968918      -162.4225
  86   2.0000      -5.968250      -162.4043
  87   2.0000      -5.941555      -161.6779
  88   2.0000      -5.937790      -161.5755
  89   2.0000      -5.937231      -161.5603
  90   2.0000      -5.934286      -161.4801
  91   2.0000      -5.933063      -161.4469
  92   2.0000      -5.931679      -161.4092
  93   2.0000      -5.930454      -161.3759
  94   2.0000      -5.928124      -161.3125
  95   2.0000      -5.924067      -161.2021
  96   2.0000      -5.861072      -159.4879
  97   2.0000      -5.859707      -159.4507
  98   2.0000      -5.853319      -159.2769
  99   2.0000      -1.061795       -28.8929
 100   2.0000      -1.060453       -28.8564
 101   2.0000      -1.056575       -28.7509
 102   2.0000      -1.050927       -28.5972
 103   2.0000      -1.040115       -28.3030
 104   2.0000      -1.028497       -27.9868
 105   2.0000      -1.025215       -27.8975
 106   2.0000      -0.942950       -25.6590
 107   2.0000      -0.940501       -25.5923
 108   2.0000      -0.929189       -25.2845
 109   2.0000      -0.926599       -25.2140
 110   2.0000      -0.903410       -24.5830
 111   2.0000      -0.897419       -24.4200
 112   2.0000      -0.887036       -24.1375
 113   2.0000      -0.884459       -24.0673
 114   2.0000      -0.880860       -23.9694
 115   2.0000      -0.880597       -23.9623
 116   2.0000      -0.877796       -23.8860
 117   2.0000      -0.869975       -23.6732
 118   2.0000      -0.844316       -22.9750
 119   2.0000      -0.831946       -22.6384
 120   2.0000      -0.822163       -22.3722
 121   2.0000      -0.817337       -22.2409
 122   2.0000      -0.807920       -21.9846
 123   2.0000      -0.799485       -21.7551
 124   2.0000      -0.790484       -21.5102
 125   2.0000      -0.786835       -21.4109
 126   2.0000      -0.781695       -21.2710
 127   2.0000      -0.779706       -21.2169
 128   2.0000      -0.778824       -21.1929
 129   2.0000      -0.762447       -20.7472
 130   2.0000      -0.758434       -20.6380
 131   2.0000      -0.750456       -20.4209
 132   2.0000      -0.733025       -19.9466
 133   2.0000      -0.723297       -19.6819
 134   2.0000      -0.715097       -19.4588
 135   2.0000      -0.705492       -19.1974
 136   2.0000      -0.690737       -18.7959
 137   2.0000      -0.678151       -18.4534
 138   2.0000      -0.672096       -18.2887
 139   2.0000      -0.664974       -18.0949
 140   2.0000      -0.661836       -18.0095
 141   2.0000      -0.659898       -17.9567
 142   2.0000      -0.652450       -17.7541
 143   2.0000      -0.649040       -17.6613
 144   2.0000      -0.645907       -17.5760
 145   2.0000      -0.638921       -17.3859
 146   2.0000      -0.634300       -17.2602
 147   2.0000      -0.624645       -16.9975
 148   2.0000      -0.619520       -16.8580
 149   2.0000      -0.600531       -16.3413
 150   2.0000      -0.585947       -15.9444
 151   2.0000      -0.585112       -15.9217
 152   2.0000      -0.583615       -15.8810
 153   2.0000      -0.580451       -15.7949
 154   2.0000      -0.575656       -15.6644
 155   2.0000      -0.567194       -15.4341
 156   2.0000      -0.555258       -15.1094
 157   2.0000      -0.549530       -14.9535
 158   2.0000      -0.549211       -14.9448
 159   2.0000      -0.539835       -14.6897
 160   2.0000      -0.530626       -14.4391
 161   2.0000      -0.522272       -14.2117
 162   2.0000      -0.517720       -14.0879
 163   2.0000      -0.515694       -14.0328
 164   2.0000      -0.507840       -13.8190
 165   2.0000      -0.506567       -13.7844
 166   2.0000      -0.503720       -13.7069
 167   2.0000      -0.498206       -13.5569
 168   2.0000      -0.492948       -13.4138
 169   2.0000      -0.490984       -13.3604
 170   2.0000      -0.486667       -13.2429
 171   2.0000      -0.482100       -13.1186
 172   2.0000      -0.480499       -13.0750
 173   2.0000      -0.477783       -13.0011
 174   2.0000      -0.476440       -12.9646
 175   2.0000      -0.472805       -12.8657
 176   2.0000      -0.472304       -12.8520
 177   2.0000      -0.469530       -12.7766
 178   2.0000      -0.468443       -12.7470
 179   2.0000      -0.467145       -12.7117
 180   2.0000      -0.464241       -12.6326
 181   2.0000      -0.462812       -12.5938
 182   2.0000      -0.461561       -12.5597
 183   2.0000      -0.457551       -12.4506
 184   2.0000      -0.456684       -12.4270
 185   2.0000      -0.454986       -12.3808
 186   2.0000      -0.448988       -12.2176
 187   2.0000      -0.445538       -12.1237
 188   2.0000      -0.444684       -12.1005
 189   2.0000      -0.443506       -12.0684
 190   2.0000      -0.437542       -11.9061
 191   2.0000      -0.434353       -11.8193
 192   2.0000      -0.431657       -11.7460
 193   2.0000      -0.429134       -11.6773
 194   2.0000      -0.427940       -11.6448
 195   2.0000      -0.422801       -11.5050
 196   2.0000      -0.420707       -11.4480
 197   2.0000      -0.418410       -11.3855
 198   2.0000      -0.416146       -11.3239
 199   2.0000      -0.413480       -11.2514
 200   2.0000      -0.411485       -11.1971
 201   2.0000      -0.406416       -11.0591
 202   2.0000      -0.404286       -11.0012
 203   2.0000      -0.402982       -10.9657
 204   2.0000      -0.402474       -10.9519
 205   2.0000      -0.399016       -10.8578
 206   2.0000      -0.395620       -10.7654
 207   2.0000      -0.394464       -10.7339
 208   2.0000      -0.392546       -10.6817
 209   2.0000      -0.391937       -10.6651
 210   2.0000      -0.391196       -10.6450
 211   2.0000      -0.385638       -10.4938
 212   2.0000      -0.384153       -10.4533
 213   2.0000      -0.383282       -10.4296
 214   2.0000      -0.381087       -10.3699
 215   2.0000      -0.375175       -10.2090
 216   2.0000      -0.370322       -10.0770
 217   2.0000      -0.369859       -10.0644
 218   2.0000      -0.368778       -10.0349
 219   2.0000      -0.365455        -9.9445
 220   2.0000      -0.364900        -9.9294
 221   2.0000      -0.362024        -9.8512
 222   2.0000      -0.358937        -9.7672
 223   2.0000      -0.353693        -9.6245
 224   2.0000      -0.347783        -9.4636
 225   2.0000      -0.347585        -9.4583
 226   2.0000      -0.346061        -9.4168
 227   2.0000      -0.345630        -9.4051
 228   2.0000      -0.343893        -9.3578
 229   2.0000      -0.342335        -9.3154
 230   2.0000      -0.339099        -9.2274
 231   2.0000      -0.332548        -9.0491
 232   2.0000      -0.330709        -8.9990
 233   2.0000      -0.322699        -8.7811
 234   2.0000      -0.320003        -8.7077
 235   2.0000      -0.314773        -8.5654
 236   2.0000      -0.311745        -8.4830
 237   2.0000      -0.306294        -8.3347
 238   2.0000      -0.304497        -8.2858
 239   2.0000      -0.290245        -7.8980
 240   2.0000      -0.286294        -7.7905
 241   2.0000      -0.283596        -7.7170
 242   2.0000      -0.283201        -7.7063
 243   2.0000      -0.281909        -7.6711
 244   2.0000      -0.277212        -7.5433
 245   2.0000      -0.272576        -7.4172
 246   2.0000      -0.266504        -7.2520
 247   2.0000      -0.260549        -7.0899
 248   2.0000      -0.258413        -7.0318
 249   2.0000      -0.249093        -6.7782
 250   2.0000      -0.246852        -6.7172
 251   2.0000      -0.232130        -6.3166
 252   2.0000      -0.220811        -6.0086
 253   2.0000      -0.217622        -5.9218
 254   2.0000      -0.205836        -5.6011
 255   0.0000      -0.127630        -3.4730
 256   0.0000      -0.110228        -2.9995
 257   0.0000      -0.093980        -2.5573
 258   0.0000      -0.090966        -2.4753
 259   0.0000      -0.082340        -2.2406

MULLIKEN ATOMIC CHARGES
-----------------------
   0 C :    0.163331
   1 O :   -0.345726
   2 C :    0.170958
   3 C :   -0.324186
   4 C :    0.172676
   5 Cl:   -0.065191
   6 C :    0.172526
   7 Cl:   -0.064217
   8 C :   -0.326825
   9 C :    0.061583
  10 C :    0.198447
  11 O :   -0.297390
  12 C :   -0.092163
  13 C :   -0.258069
  14 C :    0.201279
  15 S :    0.026654
  16 C :   -0.224504
  17 C :    0.016808
  18 C :    0.050930
  19 C :   -0.221154
  20 C :   -0.327798
  21 S :    0.018978
  22 C :   -0.173236
  23 C :    0.394988
  24 N :   -0.047099
  25 C :   -0.225871
  26 C :   -0.323878
  27 C :    0.108812
  28 C :    0.070165
  29 C :   -0.015184
  30 N :   -0.247475
  31 S :    0.356878
  32 N :   -0.283808
  33 C :    0.028394
  34 C :    0.046204
  35 C :   -0.052362
  36 N :   -0.077183
  37 C :   -0.084069
  38 C :   -0.344492
  39 C :    0.283431
  40 C :   -0.144720
  41 S :    0.000369
  42 C :    0.250581
  43 C :   -0.225573
  44 S :   -0.293556
  45 C :    0.072881
  46 C :   -0.092400
  47 C :   -0.132030
  48 C :   -0.339371
  49 C :   -0.099294
  50 C :    0.023180
  51 C :    0.148634
  52 O :   -0.266913
  53 C :    0.088178
  54 C :   -0.323631
  55 C :    0.191402
  56 Cl:   -0.069033
  57 C :    0.195277
  58 Cl:   -0.070124
  59 C :   -0.324125
  60 C :    0.107028
  61 C :    0.139484
  62 O :   -0.268149
  63 H :    0.132247
  64 H :    0.137658
  65 H :    0.142929
  66 H :    0.108834
  67 H :    0.115462
  68 H :    0.117319
  69 H :    0.116482
  70 H :    0.122615
  71 H :    0.138858
  72 H :    0.172707
  73 H :    0.148018
  74 H :    0.124503
  75 H :    0.118179
  76 H :    0.078332
  77 H :    0.135626
  78 H :    0.111906
  79 H :    0.112458
  80 H :    0.138715
  81 H :    0.115116
  82 H :    0.117442
  83 H :    0.115909
  84 H :    0.123032
  85 H :    0.116371
  86 H :    0.175088
  87 H :    0.137601
  88 H :    0.137336
Sum of atomic charges:    0.0000000

LOEWDIN ATOMIC CHARGES
----------------------
   0 C :   -0.266539
   1 O :    0.108629
   2 C :   -0.059419
   3 C :   -0.079265
   4 C :   -0.431010
   5 Cl:    0.440749
   6 C :   -0.430497
   7 Cl:    0.441981
   8 C :   -0.076577
   9 C :   -0.059419
  10 C :   -0.265118
  11 O :    0.125298
  12 C :   -0.114297
  13 C :   -0.055120
  14 C :   -0.301941
  15 S :    0.797983
  16 C :   -0.339224
  17 C :   -0.323940
  18 C :   -0.136322
  19 C :   -0.232583
  20 C :   -0.283894
  21 S :    0.747329
  22 C :   -0.289748
  23 C :   -0.180782
  24 N :    0.299338
  25 C :   -0.265391
  26 C :   -0.299022
  27 C :   -0.090720
  28 C :   -0.087091
  29 C :   -0.243378
  30 N :   -0.125192
  31 S :    0.652316
  32 N :   -0.119177
  33 C :   -0.242702
  34 C :   -0.088773
  35 C :   -0.084108
  36 N :    0.300945
  37 C :   -0.277692
  38 C :   -0.292654
  39 C :   -0.182660
  40 C :   -0.295356
  41 S :    0.833058
  42 C :   -0.247030
  43 C :   -0.444321
  44 S :    0.285347
  45 C :   -0.006322
  46 C :   -0.102855
  47 C :   -0.247034
  48 C :   -0.287949
  49 C :    0.040129
  50 C :   -0.141852
  51 C :   -0.273384
  52 O :    0.149636
  53 C :   -0.085770
  54 C :   -0.074020
  55 C :   -0.438296
  56 Cl:    0.453702
  57 C :   -0.438531
  58 Cl:    0.454469
  59 C :   -0.073644
  60 C :   -0.084500
  61 C :   -0.270959
  62 O :    0.149191
  63 H :    0.157474
  64 H :    0.159033
  65 H :    0.173037
  66 H :    0.143283
  67 H :    0.144478
  68 H :    0.121665
  69 H :    0.120405
  70 H :    0.121280
  71 H :    0.143701
  72 H :    0.142496
  73 H :    0.117852
  74 H :    0.127377
  75 H :    0.118353
  76 H :    0.136234
  77 H :    0.134254
  78 H :    0.119827
  79 H :    0.123533
  80 H :    0.123637
  81 H :    0.151391
  82 H :    0.151289
  83 H :    0.122441
  84 H :    0.121803
  85 H :    0.122796
  86 H :    0.139723
  87 H :    0.159361
  88 H :    0.159257

  Mayer bond orders larger than 0.100000
B(  0-C ,  1-O ) :   1.9980 B(  0-C ,  2-C ) :   1.0351 B(  0-C , 12-C ) :   1.0232
B(  1-O ,  2-C ) :  -0.1385 B(  2-C ,  3-C ) :   1.3613 B(  2-C ,  9-C ) :   1.3481
B(  3-C ,  4-C ) :   1.3493 B(  3-C , 63-H ) :   0.9878 B(  4-C ,  5-Cl) :   1.0405
B(  4-C ,  6-C ) :   1.2714 B(  6-C ,  7-Cl) :   1.0413 B(  6-C ,  8-C ) :   1.3496
B(  8-C ,  9-C ) :   1.3683 B(  8-C , 64-H ) :   0.9851 B(  9-C , 10-C ) :   0.9847
B(  9-C , 11-O ) :  -0.1597 B( 10-C , 11-O ) :   2.1762 B( 10-C , 12-C ) :   0.9991
B( 11-O , 12-C ) :  -0.1333 B( 12-C , 13-C ) :   1.4878 B( 13-C , 14-C ) :   1.0960
B( 13-C , 65-H ) :   0.9376 B( 14-C , 15-S ) :   1.2724 B( 14-C , 18-C ) :   1.3338
B( 15-S , 16-C ) :   1.4149 B( 15-S , 23-C ) :  -0.1614 B( 16-C , 17-C ) :   1.3274
B( 16-C , 21-S ) :   0.1156 B( 16-C , 23-C ) :   1.0229 B( 17-C , 18-C ) :   1.3451
B( 17-C , 21-S ) :   1.1847 B( 17-C , 23-C ) :  -0.1013 B( 18-C , 19-C ) :   0.9277
B( 19-C , 20-C ) :   0.9608 B( 19-C , 66-H ) :   0.9742 B( 19-C , 67-H ) :   0.9681
B( 20-C , 68-H ) :   0.9728 B( 20-C , 69-H ) :   0.9736 B( 20-C , 70-H ) :   0.9737
B( 21-S , 22-C ) :   1.3670 B( 22-C , 23-C ) :   1.2342 B( 22-C , 28-C ) :   1.1928
B( 23-C , 24-N ) :   1.1397 B( 24-N , 25-C ) :   0.8734 B( 24-N , 27-C ) :   1.2255
B( 25-C , 26-C ) :   0.9395 B( 25-C , 71-H ) :   0.9567 B( 25-C , 72-H ) :   0.9641
B( 26-C , 73-H ) :   0.9562 B( 26-C , 74-H ) :   0.9709 B( 26-C , 75-H ) :   0.9710
B( 27-C , 28-C ) :   1.2446 B( 27-C , 35-C ) :   1.2333 B( 28-C , 29-C ) :   1.1264
B( 29-C , 30-N ) :   1.5866 B( 29-C , 31-S ) :   0.1280 B( 29-C , 33-C ) :   1.2038
B( 30-N , 31-S ) :   1.2894 B( 30-N , 32-N ) :   0.1075 B( 31-S , 32-N ) :   1.2578
B( 31-S , 33-C ) :   0.1177 B( 32-N , 33-C ) :   1.5730 B( 33-C , 34-C ) :   1.0797
B( 34-C , 35-C ) :   1.2704 B( 34-C , 40-C ) :   1.2344 B( 35-C , 36-N ) :   1.2431
B( 36-N , 37-C ) :   0.8878 B( 36-N , 39-C ) :   1.1088 B( 37-C , 38-C ) :   0.9636
B( 37-C , 76-H ) :   0.9465 B( 37-C , 77-H ) :   0.9444 B( 38-C , 78-H ) :   0.9695
B( 38-C , 79-H ) :   0.9713 B( 38-C , 80-H ) :   0.9706 B( 39-C , 40-C ) :   1.2167
B( 39-C , 43-C ) :   1.1377 B( 40-C , 41-S ) :   1.4193 B( 41-S , 42-C ) :   1.0433
B( 41-S , 46-C ) :   0.1016 B( 42-C , 43-C ) :   1.0265 B( 42-C , 46-C ) :   1.4879
B( 43-C , 44-S ) :   1.7523 B( 45-C , 46-C ) :   1.0799 B( 45-C , 49-C ) :   1.7808
B( 45-C , 50-C ) :   0.8560 B( 46-C , 47-C ) :   1.0200 B( 47-C , 48-C ) :   0.9708
B( 47-C , 81-H ) :   0.9318 B( 47-C , 82-H ) :   0.9343 B( 48-C , 83-H ) :   0.9738
B( 48-C , 84-H ) :   0.9802 B( 48-C , 85-H ) :   0.9746 B( 49-C , 50-C ) :   0.9857
B( 49-C , 86-H ) :   0.9440 B( 50-C , 51-C ) :   0.9437 B( 50-C , 52-O ) :  -0.1649
B( 50-C , 61-C ) :   0.9488 B( 50-C , 62-O ) :  -0.1659 B( 51-C , 52-O ) :   2.2869
B( 51-C , 53-C ) :   0.9335 B( 52-O , 53-C ) :  -0.1595 B( 53-C , 54-C ) :   1.3936
B( 53-C , 60-C ) :   1.2548 B( 54-C , 55-C ) :   1.3685 B( 54-C , 56-Cl) :   0.1037
B( 54-C , 87-H ) :   0.9805 B( 55-C , 56-Cl) :   1.0267 B( 55-C , 57-C ) :   1.2364
B( 57-C , 58-Cl) :   1.0247 B( 57-C , 59-C ) :   1.3713 B( 58-Cl, 59-C ) :   0.1040
B( 59-C , 60-C ) :   1.3961 B( 59-C , 88-H ) :   0.9773 B( 60-C , 61-C ) :   0.9335
B( 60-C , 62-O ) :  -0.1601 B( 61-C , 62-O ) :   2.2860

-----------------------------------------------------------------------------
  SOC CORRECTED ABSORPTION SPECTRUM VIA TRANSITION ELECTRIC DIPOLE MOMENTS*
-----------------------------------------------------------------------------
State   Energy  Wavelength   fosc         T2         TX        TY        TZ
        (cm-1)    (nm)                  (au**2)     (au)      (au)      (au)
-----------------------------------------------------------------------------
   1    9547.2   1047.4   0.000000002   0.00000   0.00002   0.00010   0.00023
   2    9547.2   1047.4   0.000000042   0.00000   0.00066   0.00055   0.00085
   3    9556.0   1046.5   0.000006387   0.00022   0.00441   0.00793   0.01173
   4   10604.1    943.0   0.000121288   0.00377   0.03517   0.02982   0.04049
   5   10615.6    942.0   0.000000004   0.00000   0.00028   0.00002   0.00018
   6   10615.6    942.0   0.000000514   0.00002   0.00211   0.00185   0.00283
   7   12649.9    790.5   0.000281424   0.00732   0.07736   0.02794   0.02363
   8   12660.9    789.8   0.000000000   0.00000   0.00004   0.00002   0.00003
   9   12660.9    789.8   0.000000018   0.00000   0.00066   0.00021   0.00004
  10   12732.5    785.4   0.001888512   0.04883   0.19953   0.07226   0.06161
  11   16730.7    597.7   1.049521273  20.65153   4.40945   1.08833   0.15444
  12   18085.4    552.9   0.332364248   6.05010   2.32929   0.07724   0.78648

FINAL SINGLE POINT ENERGY     -6119.225684556367

DIPOLE MOMENT
-------------
                                X             Y             Z
Electronic contribution:    -23.69588     -29.23794      17.34488
Nuclear contribution   :     23.72080      29.71955     -17.51870
                        -----------------------------------------
Total Dipole Moment    :      0.02492       0.48161      -0.17382
                        -----------------------------------------
Magnitude (a.u.)       :      0.51262
Magnitude (Debye)      :      1.30299

Rotational constants in cm-1:     0.001973     0.000363     0.000316
Rotational constants in MHz :    59.163979    10.881261     9.487095

                             ****ORCA TERMINATED NORMALLY****
TOTAL RUN TIME: 0 days 15 hours 29 minutes 58 seconds 264 msec
