                         Program Version 4.2.0 -  RELEASE  -
|  1> # ORCA input file
|  2> # AQx-2.out: Geometry 262
|  3> ! CAM-B3LYP def2-SVP def2/J RIJCOSX Grid4 TightSCF
|  4> %maxcore 5000
|  5> %tddft
|  6>     Mode sTDDFT
|  7>     Ethresh 5.0
|  8>     maxcore 5000
|  9> end
| 10> * xyz 0 1
| 11>    C        4.53080         2.45302        -1.40038
| 12>    O        5.51954         2.12565        -2.03512
| 13>    C        3.56765         3.52064        -1.77848
| 14>    C        3.55420         4.28554        -2.93960
| 15>    C        2.52682         5.21230        -3.08599
| 16>    F        2.43228         5.95854        -4.18326
| 17>    C        1.56084         5.37394        -2.07630
| 18>    F        0.60950         6.28775        -2.25275
| 19>    C        1.57828         4.60792        -0.91354
| 20>    C        2.59631         3.65618        -0.76703
| 21>    C        2.87883         2.66575         0.30323
| 22>    C        2.16261         2.56436         1.48693
| 23>    C        2.43296         1.59246         2.50003
| 24>    N        2.63097         0.80440         3.33228
| 25>    C        1.09377         3.45048         1.82647
| 26>    N        0.22942         4.16636         2.12883
| 27>    C        4.04196         1.88729        -0.12167
| 28>    C        4.57903         0.80135         0.54656
| 29>    C        5.69760        -0.03754         0.35492
| 30>    S        6.94032         0.09107        -0.91969
| 31>    C        7.82171        -1.22511        -0.21469
| 32>    C        7.17917        -1.73704         0.93641
| 33>    C        5.98221        -1.09288         1.26512
| 34>    C        5.10078        -1.55135         2.39457
| 35>    C        4.02468        -2.53457         1.90630
| 36>    S        8.08038        -3.02595         1.74264
| 37>    C        9.32846        -2.84874         0.54595
| 38>    C        9.04404        -1.89647        -0.44458
| 39>    N       10.10857        -1.81485        -1.33370
| 40>    C       10.29065        -0.59562        -2.12213
| 41>    C       10.70090         0.60330        -1.27125
| 42>    C       11.09395        -2.70326        -0.88915
| 43>    C       10.62887        -3.33810         0.30570
| 44>    C       11.43221        -4.21213         1.10380
| 45>    N       10.93077        -4.77006         2.22233
| 46>    C       11.75736        -5.52816         2.92672
| 47>    C       13.09879        -5.74382         2.53417
| 48>    N       13.60873        -5.20541         1.43674
| 49>    C       12.78028        -4.43491         0.70481
| 50>    C       13.21561        -3.87712        -0.53857
| 51>    C       12.37935        -3.08505        -1.38790
| 52>    N       13.03813        -2.90149        -2.60630
| 53>    C       12.48871        -2.46686        -3.88845
| 54>    C       13.05154        -1.12932        -4.36734
| 55>    C       14.26862        -3.53774        -2.52214
| 56>    C       14.40772        -4.11611        -1.25096
| 57>    S       15.85786        -5.05100        -1.04801
| 58>    C       16.27286        -4.71496        -2.72997
| 59>    C       15.32184        -3.90912        -3.39199
| 60>    S       15.71113        -3.75687        -5.07074
| 61>    C       17.15364        -4.78530        -4.87532
| 62>    C       17.31359        -5.21215        -3.54164
| 63>    C       18.29479        -6.21906        -3.00385
| 64>    C       19.20714        -5.66924        -1.89651
| 65>    C       17.78042        -5.20739        -6.08249
| 66>    C       19.00250        -5.77230        -6.36823
| 67>    C       20.28503        -5.84043        -5.68953
| 68>    C       20.78929        -4.90650        -4.80410
| 69>    C       22.07061        -5.03876        -4.18800
| 70>    N       23.09975        -5.15001        -3.65938
| 71>    C       20.07351        -3.71180        -4.49205
| 72>    N       19.49639        -2.73468        -4.24163
| 73>    C       21.03725        -6.97391        -6.28355
| 74>    C       22.23769        -7.59097        -5.90944
| 75>    C       22.67733        -8.66951        -6.67485
| 76>    F       23.80144        -9.30350        -6.35358
| 77>    C       21.96202        -9.12892        -7.79568
| 78>    F       22.43371       -10.18068        -8.45918
| 79>    C       20.78580        -8.50158        -8.19163
| 80>    C       20.34024        -7.43235        -7.42137
| 81>    C       19.09656        -6.63228        -7.59676
| 82>    O       18.30078        -6.70026        -8.50946
| 83>    H        4.31144         4.15759        -3.71540
| 84>    H        0.79825         4.78211        -0.17470
| 85>    H        4.03575         0.50485         1.44044
| 86>    H        4.62063        -0.70381         2.90490
| 87>    H        5.73611        -2.04629         3.14744
| 88>    H        3.33149        -2.04050         1.20897
| 89>    H        3.43904        -2.91973         2.75409
| 90>    H        4.48184        -3.38837         1.38239
| 91>    H        9.34084        -0.39595        -2.64326
| 92>    H       11.03283        -0.78392        -2.89749
| 93>    H        9.92904         0.84405        -0.52613
| 94>    H       10.83976         1.48711        -1.91247
| 95>    H       11.64536         0.40408        -0.74069
| 96>    H       11.36788        -5.99217         3.83925
| 97>    H       13.75678        -6.37231         3.14405
| 98>    H       11.39554        -2.44464        -3.79408
| 99>    H       12.71113        -3.25359        -4.62815
|100>    H       12.51707        -0.79290        -5.26910
|101>    H       14.11930        -1.21445        -4.61945
|102>    H       12.95280        -0.35364        -3.59351
|103>    H       18.88818        -6.65194        -3.81594
|104>    H       17.69894        -7.04891        -2.58237
|105>    H       19.83532        -4.84272        -2.24970
|106>    H       19.86606        -6.46308        -1.51505
|107>    H       18.61792        -5.28294        -1.05125
|108>    H       17.12641        -5.19156        -6.96597
|109>    H       22.83326        -7.28257        -5.05121
|110>    H       20.23192        -8.85027        -9.06458
|111> *
|112>
|113>                          ****END OF INPUT****

CARTESIAN COORDINATES (ANGSTROEM)
---------------------------------
  C      4.530800    2.453020   -1.400380
  O      5.519540    2.125650   -2.035120
  C      3.567650    3.520640   -1.778480
  C      3.554200    4.285540   -2.939600
  C      2.526820    5.212300   -3.085990
  F      2.432280    5.958540   -4.183260
  C      1.560840    5.373940   -2.076300
  F      0.609500    6.287750   -2.252750
  C      1.578280    4.607920   -0.913540
  C      2.596310    3.656180   -0.767030
  C      2.878830    2.665750    0.303230
  C      2.162610    2.564360    1.486930
  C      2.432960    1.592460    2.500030
  N      2.630970    0.804400    3.332280
  C      1.093770    3.450480    1.826470
  N      0.229420    4.166360    2.128830
  C      4.041960    1.887290   -0.121670
  C      4.579030    0.801350    0.546560
  C      5.697600   -0.037540    0.354920
  S      6.940320    0.091070   -0.919690
  C      7.821710   -1.225110   -0.214690
  C      7.179170   -1.737040    0.936410
  C      5.982210   -1.092880    1.265120
  C      5.100780   -1.551350    2.394570
  C      4.024680   -2.534570    1.906300
  S      8.080380   -3.025950    1.742640
  C      9.328460   -2.848740    0.545950
  C      9.044040   -1.896470   -0.444580
  N     10.108570   -1.814850   -1.333700
  C     10.290650   -0.595620   -2.122130
  C     10.700900    0.603300   -1.271250
  C     11.093950   -2.703260   -0.889150
  C     10.628870   -3.338100    0.305700
  C     11.432210   -4.212130    1.103800
  N     10.930770   -4.770060    2.222330
  C     11.757360   -5.528160    2.926720
  C     13.098790   -5.743820    2.534170
  N     13.608730   -5.205410    1.436740
  C     12.780280   -4.434910    0.704810
  C     13.215610   -3.877120   -0.538570
  C     12.379350   -3.085050   -1.387900
  N     13.038130   -2.901490   -2.606300
  C     12.488710   -2.466860   -3.888450
  C     13.051540   -1.129320   -4.367340
  C     14.268620   -3.537740   -2.522140
  C     14.407720   -4.116110   -1.250960
  S     15.857860   -5.051000   -1.048010
  C     16.272860   -4.714960   -2.729970
  C     15.321840   -3.909120   -3.391990
  S     15.711130   -3.756870   -5.070740
  C     17.153640   -4.785300   -4.875320
  C     17.313590   -5.212150   -3.541640
  C     18.294790   -6.219060   -3.003850
  C     19.207140   -5.669240   -1.896510
  C     17.780420   -5.207390   -6.082490
  C     19.002500   -5.772300   -6.368230
  C     20.285030   -5.840430   -5.689530
  C     20.789290   -4.906500   -4.804100
  C     22.070610   -5.038760   -4.188000
  N     23.099750   -5.150010   -3.659380
  C     20.073510   -3.711800   -4.492050
  N     19.496390   -2.734680   -4.241630
  C     21.037250   -6.973910   -6.283550
  C     22.237690   -7.590970   -5.909440
  C     22.677330   -8.669510   -6.674850
  F     23.801440   -9.303500   -6.353580
  C     21.962020   -9.128920   -7.795680
  F     22.433710  -10.180680   -8.459180
  C     20.785800   -8.501580   -8.191630
  C     20.340240   -7.432350   -7.421370
  C     19.096560   -6.632280   -7.596760
  O     18.300780   -6.700260   -8.509460
  H      4.311440    4.157590   -3.715400
  H      0.798250    4.782110   -0.174700
  H      4.035750    0.504850    1.440440
  H      4.620630   -0.703810    2.904900
  H      5.736110   -2.046290    3.147440
  H      3.331490   -2.040500    1.208970
  H      3.439040   -2.919730    2.754090
  H      4.481840   -3.388370    1.382390
  H      9.340840   -0.395950   -2.643260
  H     11.032830   -0.783920   -2.897490
  H      9.929040    0.844050   -0.526130
  H     10.839760    1.487110   -1.912470
  H     11.645360    0.404080   -0.740690
  H     11.367880   -5.992170    3.839250
  H     13.756780   -6.372310    3.144050
  H     11.395540   -2.444640   -3.794080
  H     12.711130   -3.253590   -4.628150
  H     12.517070   -0.792900   -5.269100
  H     14.119300   -1.214450   -4.619450
  H     12.952800   -0.353640   -3.593510
  H     18.888180   -6.651940   -3.815940
  H     17.698940   -7.048910   -2.582370
  H     19.835320   -4.842720   -2.249700
  H     19.866060   -6.463080   -1.515050
  H     18.617920   -5.282940   -1.051250
  H     17.126410   -5.191560   -6.965970
  H     22.833260   -7.282570   -5.051210
  H     20.231920   -8.850270   -9.064580

 Total Charge           Charge          ....    0
 Multiplicity           Mult            ....    1
 Number of Electrons    NEL             ....  524
 Basis Dimension        Dim             .... 1164

ORBITAL ENERGIES
----------------

  NO   OCC          E(Eh)            E(eV)
   0   2.0000     -88.977791     -2421.2088
   1   2.0000     -88.973986     -2421.1053
   2   2.0000     -88.969119     -2420.9728
   3   2.0000     -88.968429     -2420.9540
   4   2.0000     -24.806258      -675.0126
   5   2.0000     -24.805299      -674.9865
   6   2.0000     -24.804191      -674.9564
   7   2.0000     -24.801729      -674.8893
   8   2.0000     -19.223346      -523.0938
   9   2.0000     -19.223269      -523.0917
  10   2.0000     -14.491012      -394.3205
  11   2.0000     -14.487110      -394.2143
  12   2.0000     -14.430540      -392.6750
  13   2.0000     -14.430409      -392.6714
  14   2.0000     -14.427213      -392.5844
  15   2.0000     -14.425410      -392.5354
  16   2.0000     -14.422556      -392.4577
  17   2.0000     -14.420095      -392.3907
  18   2.0000     -10.390845      -282.7493
  19   2.0000     -10.390181      -282.7312
  20   2.0000     -10.387911      -282.6694
  21   2.0000     -10.386740      -282.6376
  22   2.0000     -10.376254      -282.3522
  23   2.0000     -10.374122      -282.2942
  24   2.0000     -10.353541      -281.7342
  25   2.0000     -10.352653      -281.7100
  26   2.0000     -10.351434      -281.6768
  27   2.0000     -10.349575      -281.6263
  28   2.0000     -10.347889      -281.5804
  29   2.0000     -10.347605      -281.5727
  30   2.0000     -10.343990      -281.4743
  31   2.0000     -10.337571      -281.2996
  32   2.0000     -10.332570      -281.1635
  33   2.0000     -10.332136      -281.1517
  34   2.0000     -10.331952      -281.1467
  35   2.0000     -10.331013      -281.1212
  36   2.0000     -10.329483      -281.0795
  37   2.0000     -10.328678      -281.0576
  38   2.0000     -10.328171      -281.0438
  39   2.0000     -10.327177      -281.0168
  40   2.0000     -10.326597      -281.0010
  41   2.0000     -10.326192      -280.9900
  42   2.0000     -10.326178      -280.9896
  43   2.0000     -10.325196      -280.9629
  44   2.0000     -10.324536      -280.9449
  45   2.0000     -10.324165      -280.9348
  46   2.0000     -10.322699      -280.8949
  47   2.0000     -10.321142      -280.8525
  48   2.0000     -10.320760      -280.8422
  49   2.0000     -10.320539      -280.8362
  50   2.0000     -10.319068      -280.7961
  51   2.0000     -10.316685      -280.7313
  52   2.0000     -10.315168      -280.6900
  53   2.0000     -10.314906      -280.6829
  54   2.0000     -10.314874      -280.6820
  55   2.0000     -10.313034      -280.6319
  56   2.0000     -10.312671      -280.6221
  57   2.0000     -10.311860      -280.6000
  58   2.0000     -10.310983      -280.5761
  59   2.0000     -10.310717      -280.5689
  60   2.0000     -10.308866      -280.5185
  61   2.0000     -10.305177      -280.4181
  62   2.0000     -10.304745      -280.4064
  63   2.0000     -10.300508      -280.2911
  64   2.0000     -10.296974      -280.1949
  65   2.0000     -10.296399      -280.1793
  66   2.0000     -10.293524      -280.1010
  67   2.0000     -10.292206      -280.0652
  68   2.0000     -10.286635      -279.9136
  69   2.0000     -10.284715      -279.8613
  70   2.0000     -10.271486      -279.5013
  71   2.0000     -10.270263      -279.4681
  72   2.0000      -8.071992      -219.6501
  73   2.0000      -8.066478      -219.5000
  74   2.0000      -8.062619      -219.3950
  75   2.0000      -8.061965      -219.3772
  76   2.0000      -6.041699      -164.4030
  77   2.0000      -6.037588      -164.2911
  78   2.0000      -6.036305      -164.2562
  79   2.0000      -6.033422      -164.1778
  80   2.0000      -6.032569      -164.1545
  81   2.0000      -6.031921      -164.1369
  82   2.0000      -6.031904      -164.1365
  83   2.0000      -6.028484      -164.0434
  84   2.0000      -6.028007      -164.0304
  85   2.0000      -6.027913      -164.0278
  86   2.0000      -6.023584      -163.9101
  87   2.0000      -6.022876      -163.8908
  88   2.0000      -1.332993       -36.2726
  89   2.0000      -1.329697       -36.1829
  90   2.0000      -1.316466       -35.8229
  91   2.0000      -1.313484       -35.7417
  92   2.0000      -1.135804       -30.9068
  93   2.0000      -1.134022       -30.8583
  94   2.0000      -1.109567       -30.1929
  95   2.0000      -1.096932       -29.8490
  96   2.0000      -1.076202       -29.2850
  97   2.0000      -1.019527       -27.7428
  98   2.0000      -1.017201       -27.6794
  99   2.0000      -1.012109       -27.5409
 100   2.0000      -1.009229       -27.4625
 101   2.0000      -1.001969       -27.2650
 102   2.0000      -1.000080       -27.2135
 103   2.0000      -1.000070       -27.2133
 104   2.0000      -0.993119       -27.0241
 105   2.0000      -0.992657       -27.0116
 106   2.0000      -0.964526       -26.2461
 107   2.0000      -0.959287       -26.1035
 108   2.0000      -0.955004       -25.9870
 109   2.0000      -0.949855       -25.8469
 110   2.0000      -0.941936       -25.6314
 111   2.0000      -0.910977       -24.7890
 112   2.0000      -0.902988       -24.5715
 113   2.0000      -0.900046       -24.4915
 114   2.0000      -0.898812       -24.4579
 115   2.0000      -0.896197       -24.3868
 116   2.0000      -0.889823       -24.2133
 117   2.0000      -0.881004       -23.9733
 118   2.0000      -0.876561       -23.8524
 119   2.0000      -0.874676       -23.8011
 120   2.0000      -0.870985       -23.7007
 121   2.0000      -0.857881       -23.3441
 122   2.0000      -0.850031       -23.1305
 123   2.0000      -0.832462       -22.6524
 124   2.0000      -0.830594       -22.6016
 125   2.0000      -0.825510       -22.4633
 126   2.0000      -0.813153       -22.1270
 127   2.0000      -0.804925       -21.9031
 128   2.0000      -0.800256       -21.7761
 129   2.0000      -0.790847       -21.5200
 130   2.0000      -0.773675       -21.0528
 131   2.0000      -0.769786       -20.9469
 132   2.0000      -0.769013       -20.9259
 133   2.0000      -0.763869       -20.7859
 134   2.0000      -0.760690       -20.6994
 135   2.0000      -0.745042       -20.2736
 136   2.0000      -0.734893       -19.9975
 137   2.0000      -0.731750       -19.9119
 138   2.0000      -0.722607       -19.6631
 139   2.0000      -0.719644       -19.5825
 140   2.0000      -0.714997       -19.4561
 141   2.0000      -0.709033       -19.2938
 142   2.0000      -0.705555       -19.1991
 143   2.0000      -0.697182       -18.9713
 144   2.0000      -0.689228       -18.7548
 145   2.0000      -0.683478       -18.5984
 146   2.0000      -0.678753       -18.4698
 147   2.0000      -0.673740       -18.3334
 148   2.0000      -0.661560       -18.0020
 149   2.0000      -0.660767       -17.9804
 150   2.0000      -0.655233       -17.8298
 151   2.0000      -0.648333       -17.6420
 152   2.0000      -0.644580       -17.5399
 153   2.0000      -0.642385       -17.4802
 154   2.0000      -0.639468       -17.4008
 155   2.0000      -0.632076       -17.1997
 156   2.0000      -0.620599       -16.8874
 157   2.0000      -0.619590       -16.8599
 158   2.0000      -0.613074       -16.6826
 159   2.0000      -0.611122       -16.6295
 160   2.0000      -0.607162       -16.5217
 161   2.0000      -0.600647       -16.3444
 162   2.0000      -0.599391       -16.3102
 163   2.0000      -0.594570       -16.1791
 164   2.0000      -0.593394       -16.1471
 165   2.0000      -0.591681       -16.1004
 166   2.0000      -0.589827       -16.0500
 167   2.0000      -0.585965       -15.9449
 168   2.0000      -0.584032       -15.8923
 169   2.0000      -0.574648       -15.6370
 170   2.0000      -0.566702       -15.4207
 171   2.0000      -0.563948       -15.3458
 172   2.0000      -0.562255       -15.2997
 173   2.0000      -0.555709       -15.1216
 174   2.0000      -0.555177       -15.1071
 175   2.0000      -0.553461       -15.0604
 176   2.0000      -0.552432       -15.0324
 177   2.0000      -0.552252       -15.0275
 178   2.0000      -0.550522       -14.9805
 179   2.0000      -0.549972       -14.9655
 180   2.0000      -0.545852       -14.8534
 181   2.0000      -0.540701       -14.7132
 182   2.0000      -0.536735       -14.6053
 183   2.0000      -0.534841       -14.5538
 184   2.0000      -0.531538       -14.4639
 185   2.0000      -0.531287       -14.4571
 186   2.0000      -0.530252       -14.4289
 187   2.0000      -0.528786       -14.3890
 188   2.0000      -0.526078       -14.3153
 189   2.0000      -0.523984       -14.2583
 190   2.0000      -0.520902       -14.1745
 191   2.0000      -0.518880       -14.1195
 192   2.0000      -0.514067       -13.9885
 193   2.0000      -0.510336       -13.8869
 194   2.0000      -0.507944       -13.8219
 195   2.0000      -0.505761       -13.7625
 196   2.0000      -0.499258       -13.5855
 197   2.0000      -0.498818       -13.5735
 198   2.0000      -0.496773       -13.5179
 199   2.0000      -0.496164       -13.5013
 200   2.0000      -0.494209       -13.4481
 201   2.0000      -0.492141       -13.3918
 202   2.0000      -0.491152       -13.3649
 203   2.0000      -0.488148       -13.2832
 204   2.0000      -0.485924       -13.2227
 205   2.0000      -0.484478       -13.1833
 206   2.0000      -0.481828       -13.1112
 207   2.0000      -0.477159       -12.9842
 208   2.0000      -0.475475       -12.9383
 209   2.0000      -0.473418       -12.8824
 210   2.0000      -0.469141       -12.7660
 211   2.0000      -0.465461       -12.6658
 212   2.0000      -0.464296       -12.6341
 213   2.0000      -0.460032       -12.5181
 214   2.0000      -0.459789       -12.5115
 215   2.0000      -0.459053       -12.4915
 216   2.0000      -0.456500       -12.4220
 217   2.0000      -0.455601       -12.3975
 218   2.0000      -0.454919       -12.3790
 219   2.0000      -0.454485       -12.3672
 220   2.0000      -0.453568       -12.3422
 221   2.0000      -0.451272       -12.2797
 222   2.0000      -0.449702       -12.2370
 223   2.0000      -0.447869       -12.1871
 224   2.0000      -0.447265       -12.1707
 225   2.0000      -0.442122       -12.0307
 226   2.0000      -0.440494       -11.9865
 227   2.0000      -0.433254       -11.7894
 228   2.0000      -0.431302       -11.7363
 229   2.0000      -0.430090       -11.7033
 230   2.0000      -0.429243       -11.6803
 231   2.0000      -0.427219       -11.6252
 232   2.0000      -0.425644       -11.5824
 233   2.0000      -0.424430       -11.5493
 234   2.0000      -0.421686       -11.4747
 235   2.0000      -0.420647       -11.4464
 236   2.0000      -0.419991       -11.4285
 237   2.0000      -0.416218       -11.3259
 238   2.0000      -0.414232       -11.2718
 239   2.0000      -0.409547       -11.1443
 240   2.0000      -0.407156       -11.0793
 241   2.0000      -0.404171       -10.9981
 242   2.0000      -0.400383       -10.8950
 243   2.0000      -0.395441       -10.7605
 244   2.0000      -0.391947       -10.6654
 245   2.0000      -0.371416       -10.1067
 246   2.0000      -0.366234        -9.9657
 247   2.0000      -0.352464        -9.5910
 248   2.0000      -0.350877        -9.5479
 249   2.0000      -0.347362        -9.4522
 250   2.0000      -0.343062        -9.3352
 251   2.0000      -0.342324        -9.3151
 252   2.0000      -0.341653        -9.2969
 253   2.0000      -0.328768        -8.9462
 254   2.0000      -0.321804        -8.7567
 255   2.0000      -0.318532        -8.6677
 256   2.0000      -0.315989        -8.5985
 257   2.0000      -0.310539        -8.4502
 258   2.0000      -0.293697        -7.9919
 259   2.0000      -0.280629        -7.6363
 260   2.0000      -0.278174        -7.5695
 261   2.0000      -0.246004        -6.6941
 262   0.0000      -0.099843        -2.7169
 263   0.0000      -0.090474        -2.4619
 264   0.0000      -0.068108        -1.8533
 265   0.0000      -0.064584        -1.7574
 266   0.0000      -0.041133        -1.1193

MULLIKEN ATOMIC CHARGES
-----------------------
   0 C :    0.137960
   1 O :   -0.168114
   2 C :   -0.017720
   3 C :   -0.103797
   4 C :    0.228944
   5 F :   -0.162270
   6 C :    0.225092
   7 F :   -0.159896
   8 C :   -0.087610
   9 C :    0.037688
  10 C :    0.280863
  11 C :   -0.331078
  12 C :   -0.145694
  13 N :    0.109732
  14 C :   -0.164892
  15 N :    0.124403
  16 C :   -0.083613
  17 C :   -0.032621
  18 C :   -0.100200
  19 S :    0.196628
  20 C :   -0.056624
  21 C :   -0.088570
  22 C :   -0.054702
  23 C :    0.036626
  24 C :    0.016665
  25 S :    0.200259
  26 C :   -0.099064
  27 C :    0.052692
  28 N :   -0.195727
  29 C :    0.101441
  30 C :   -0.008712
  31 C :    0.066307
  32 C :   -0.030124
  33 C :   -0.057907
  34 N :   -0.029242
  35 C :    0.024037
  36 C :    0.021503
  37 N :   -0.031290
  38 C :   -0.065906
  39 C :   -0.023234
  40 C :    0.058815
  41 N :   -0.196386
  42 C :    0.066199
  43 C :   -0.005395
  44 C :    0.075884
  45 C :   -0.111376
  46 S :    0.196486
  47 C :   -0.119997
  48 C :   -0.051267
  49 S :    0.151962
  50 C :   -0.150649
  51 C :    0.009751
  52 C :    0.048332
  53 C :   -0.011551
  54 C :    0.051453
  55 C :   -0.151172
  56 C :    0.224514
  57 C :   -0.333872
  58 C :   -0.157782
  59 N :    0.137311
  60 C :   -0.184255
  61 N :    0.157403
  62 C :    0.033060
  63 C :   -0.092489
  64 C :    0.227737
  65 F :   -0.158315
  66 C :    0.227023
  67 F :   -0.161068
  68 C :   -0.099822
  69 C :    0.006048
  70 C :    0.132948
  71 O :   -0.147285
  72 H :    0.018450
  73 H :    0.024444
  74 H :   -0.018283
  75 H :    0.045469
  76 H :    0.016690
  77 H :    0.017509
  78 H :    0.037333
  79 H :    0.020891
  80 H :    0.037738
  81 H :   -0.009886
  82 H :    0.042053
  83 H :    0.035258
  84 H :    0.035860
  85 H :    0.018435
  86 H :    0.019375
  87 H :    0.044367
  88 H :    0.038648
  89 H :    0.036964
  90 H :    0.037511
  91 H :    0.039885
  92 H :    0.014489
  93 H :    0.031118
  94 H :    0.035881
  95 H :    0.030045
  96 H :    0.029711
  97 H :    0.039196
  98 H :    0.024910
  99 H :    0.021463
Sum of atomic charges:   -0.0000000

LOEWDIN ATOMIC CHARGES
----------------------
   0 C :    0.084279
   1 O :   -0.165855
   2 C :   -0.045708
   3 C :   -0.013633
   4 C :    0.066264
   5 F :   -0.039235
   6 C :    0.068565
   7 F :   -0.038453
   8 C :   -0.022924
   9 C :   -0.015130
  10 C :    0.083283
  11 C :   -0.149964
  12 C :   -0.007297
  13 N :   -0.064405
  14 C :   -0.015332
  15 N :   -0.059406
  16 C :   -0.124287
  17 C :    0.054428
  18 C :   -0.188153
  19 S :    0.453537
  20 C :   -0.188337
  21 C :   -0.195919
  22 C :   -0.003018
  23 C :   -0.036324
  24 C :   -0.046950
  25 S :    0.424160
  26 C :   -0.162723
  27 C :   -0.038481
  28 N :    0.021117
  29 C :    0.036954
  30 C :   -0.065036
  31 C :    0.016511
  32 C :   -0.068520
  33 C :   -0.011148
  34 N :   -0.054527
  35 C :   -0.001655
  36 C :   -0.001224
  37 N :   -0.055445
  38 C :   -0.009963
  39 C :   -0.068868
  40 C :    0.015309
  41 N :    0.026808
  42 C :    0.036271
  43 C :   -0.069603
  44 C :   -0.033247
  45 C :   -0.169567
  46 S :    0.433473
  47 C :   -0.187157
  48 C :   -0.190243
  49 S :    0.423460
  50 C :   -0.177883
  51 C :   -0.012612
  52 C :   -0.034309
  53 C :   -0.052837
  54 C :    0.046116
  55 C :   -0.109364
  56 C :    0.063113
  57 C :   -0.140150
  58 C :   -0.017988
  59 N :   -0.054482
  60 C :   -0.020193
  61 N :   -0.046958
  62 C :   -0.012860
  63 C :   -0.026405
  64 C :    0.070161
  65 F :   -0.036795
  66 C :    0.065506
  67 F :   -0.038066
  68 C :   -0.010224
  69 C :   -0.048134
  70 C :    0.088624
  71 O :   -0.143693
  72 H :    0.053730
  73 H :    0.053702
  74 H :    0.049188
  75 H :    0.038064
  76 H :    0.032974
  77 H :    0.026147
  78 H :    0.034596
  79 H :    0.027182
  80 H :    0.031517
  81 H :    0.026809
  82 H :    0.030751
  83 H :    0.037367
  84 H :    0.033038
  85 H :    0.029402
  86 H :    0.029462
  87 H :    0.031677
  88 H :    0.031868
  89 H :    0.038578
  90 H :    0.031362
  91 H :    0.030107
  92 H :    0.031025
  93 H :    0.040625
  94 H :    0.030444
  95 H :    0.033362
  96 H :    0.022319
  97 H :    0.048557
  98 H :    0.053591
  99 H :    0.055307

  Mayer bond orders larger than 0.100000
B(  0-C ,  1-O ) :   2.1979 B(  0-C ,  2-C ) :   0.9550 B(  0-C , 16-C ) :   0.9655
B(  2-C ,  3-C ) :   1.3191 B(  2-C ,  9-C ) :   1.3566 B(  3-C ,  4-C ) :   1.3241
B(  3-C ,  8-C ) :   0.1034 B(  3-C , 72-H ) :   1.0115 B(  4-C ,  5-F ) :   1.1362
B(  4-C ,  6-C ) :   1.2813 B(  6-C ,  7-F ) :   1.1485 B(  6-C ,  8-C ) :   1.3502
B(  8-C ,  9-C ) :   1.3094 B(  8-C , 73-H ) :   0.9839 B(  9-C , 10-C ) :   1.0019
B( 10-C , 11-C ) :   1.6087 B( 10-C , 16-C ) :   1.1108 B( 11-C , 12-C ) :   1.1425
B( 11-C , 14-C ) :   1.1256 B( 12-C , 13-N ) :   2.9396 B( 14-C , 15-N ) :   2.9682
B( 16-C , 17-C ) :   1.4837 B( 17-C , 18-C ) :   1.3161 B( 17-C , 74-H ) :   0.9191
B( 18-C , 19-S ) :   1.0344 B( 18-C , 22-C ) :   1.3669 B( 19-S , 20-C ) :   1.0398
B( 20-C , 21-C ) :   1.4032 B( 20-C , 27-C ) :   1.2918 B( 21-C , 22-C ) :   1.4105
B( 21-C , 25-S ) :   1.0175 B( 22-C , 23-C ) :   1.0701 B( 23-C , 24-C ) :   1.0977
B( 23-C , 75-H ) :   0.8998 B( 23-C , 76-H ) :   0.9219 B( 24-C , 77-H ) :   0.9697
B( 24-C , 78-H ) :   0.9687 B( 24-C , 79-H ) :   0.9688 B( 25-S , 26-C ) :   1.0387
B( 26-C , 27-C ) :   1.4199 B( 26-C , 32-C ) :   1.3188 B( 27-C , 28-N ) :   1.1312
B( 28-N , 29-C ) :   0.9505 B( 28-N , 31-C ) :   1.1565 B( 29-C , 30-C ) :   1.1061
B( 29-C , 80-H ) :   0.9401 B( 29-C , 81-H ) :   0.9465 B( 30-C , 82-H ) :   0.9614
B( 30-C , 83-H ) :   0.9639 B( 30-C , 84-H ) :   0.9662 B( 31-C , 32-C ) :   1.3696
B( 31-C , 40-C ) :   1.1461 B( 32-C , 33-C ) :   1.1188 B( 33-C , 34-N ) :   1.5633
B( 33-C , 38-C ) :   1.2258 B( 34-N , 35-C ) :   1.5812 B( 35-C , 36-C ) :   1.2989
B( 35-C , 85-H ) :   0.9713 B( 36-C , 37-N ) :   1.5825 B( 36-C , 86-H ) :   0.9713
B( 37-N , 38-C ) :   1.5558 B( 38-C , 39-C ) :   1.1249 B( 39-C , 40-C ) :   1.3571
B( 39-C , 45-C ) :   1.3232 B( 40-C , 41-N ) :   1.1757 B( 41-N , 42-C ) :   0.9402
B( 41-N , 44-C ) :   1.1265 B( 42-C , 43-C ) :   1.0954 B( 42-C , 87-H ) :   0.9523
B( 42-C , 88-H ) :   0.9451 B( 43-C , 89-H ) :   0.9660 B( 43-C , 90-H ) :   0.9561
B( 43-C , 91-H ) :   0.9611 B( 44-C , 45-C ) :   1.4178 B( 44-C , 48-C ) :   1.2656
B( 45-C , 46-S ) :   1.0428 B( 46-S , 47-C ) :   1.0347 B( 47-C , 48-C ) :   1.4405
B( 47-C , 51-C ) :   1.3469 B( 48-C , 49-S ) :   1.0746 B( 49-S , 50-C ) :   1.0510
B( 50-C , 51-C ) :   1.4590 B( 50-C , 54-C ) :   1.1603 B( 51-C , 52-C ) :   1.0714
B( 52-C , 53-C ) :   1.0843 B( 52-C , 92-H ) :   0.9225 B( 52-C , 93-H ) :   0.9212
B( 53-C , 94-H ) :   0.9648 B( 53-C , 95-H ) :   0.9643 B( 53-C , 96-H ) :   0.9636
B( 54-C , 55-C ) :   1.6502 B( 54-C , 97-H ) :   0.9129 B( 55-C , 56-C ) :   1.0588
B( 55-C , 70-C ) :   0.9451 B( 56-C , 57-C ) :   1.6529 B( 56-C , 62-C ) :   1.0127
B( 57-C , 58-C ) :   1.1086 B( 57-C , 60-C ) :   1.1619 B( 58-C , 59-N ) :   2.9812
B( 60-C , 61-N ) :   2.9820 B( 62-C , 63-C ) :   1.3130 B( 62-C , 69-C ) :   1.3547
B( 63-C , 64-C ) :   1.3478 B( 63-C , 68-C ) :   0.1033 B( 63-C , 98-H ) :   0.9898
B( 64-C , 65-F ) :   1.1466 B( 64-C , 66-C ) :   1.2796 B( 66-C , 67-F ) :   1.1387
B( 66-C , 68-C ) :   1.3286 B( 68-C , 69-C ) :   1.3202 B( 68-C , 99-H ) :   1.0123
B( 69-C , 70-C ) :   0.9316 B( 70-C , 71-O ) :   2.2469

-----------------------------------------------------------------------------
         ABSORPTION SPECTRUM VIA TRANSITION ELECTRIC DIPOLE MOMENTS
-----------------------------------------------------------------------------
State   Energy  Wavelength   fosc         T2         TX        TY        TZ
        (cm-1)    (nm)                  (au**2)     (au)      (au)      (au)
-----------------------------------------------------------------------------
   0   17214.4    580.9   2.455137959  46.95246   5.86999  -2.93280  -1.97342
   1   20148.2    496.3   0.254670140   4.16120   0.60213  -1.60821   1.10104
   2   24288.5    411.7   0.055573366   0.75325   0.02158  -0.39623   0.77187
   3   24536.6    407.6   0.098566498   1.32249  -0.81756   0.80873   0.00677
   4   25404.6    393.6   0.073968021   0.95853   0.92881  -0.30810   0.03037
   5   25457.3    392.8   0.236656170   3.06042  -0.43625  -0.22910   1.67858
   6   26818.3    372.9   0.068614094   0.84228  -0.14901  -0.68711   0.58988
   7   28017.6    356.9   0.007869519   0.09247   0.10994   0.28091  -0.03837
   8   29024.3    344.5   0.084907160   0.96307  -0.88158   0.39876   0.16393
   9   29650.6    337.3   0.035846204   0.39800   0.29329  -0.47950   0.28646
  10   30180.7    331.3   0.079542326   0.86765   0.27362  -0.66444  -0.59270
  11   30499.7    327.9   0.068993223   0.74471  -0.13688   0.54899   0.65160
  12   31191.6    320.6   0.074755469   0.78901   0.18333  -0.48196   0.72327
  13   31397.7    318.5   0.133476766   1.39953  -0.08164   0.67184  -0.97031
  14   32334.6    309.3   0.093475433   0.95171  -0.27773   0.79527   0.49207
  15   32560.6    307.1   0.012376416   0.12513  -0.11439   0.12895  -0.30890
  16   32693.7    305.9   0.070354960   0.70845  -0.05184   0.47478   0.69306
  17   32862.9    304.3   0.014777581   0.14804   0.07622   0.30081   0.22746
  18   32986.5    303.2   0.002307785   0.02303  -0.14635   0.00693   0.03956
  19   33116.0    302.0   0.153132215   1.52231  -0.47627   0.66516  -0.92360
  20   33405.1    299.4   0.047896804   0.47203  -0.16426  -0.05960   0.66445
  21   33945.3    294.6   0.051245857   0.49700  -0.10801   0.20197   0.66674
  22   34141.7    292.9   0.052621825   0.50741   0.32265   0.51433  -0.37252
  23   34576.9    289.2   0.100788744   0.95963  -0.00704   0.51064  -0.83596
  24   34846.0    287.0   0.044472985   0.42016   0.19307  -0.56230   0.25826
  25   35138.9    284.6   0.076132277   0.71327  -0.67317   0.16903   0.48119
  26   35741.1    279.8   0.330589233   3.04506   0.10793  -0.29563   1.71640
  27   35931.9    278.3   0.233365264   2.13812   0.86352  -1.17943   0.03743
  28   36503.0    274.0   0.155111266   1.39891  -0.71705   0.31635   0.88582
  29   36822.5    271.6   0.297026026   2.65557   0.42109   1.57402  -0.02685
  30   37088.4    269.6   0.455969067   4.04737  -0.73463   0.36019   1.83792
  31   37511.2    266.6   0.035527836   0.31181  -0.46122  -0.22018   0.22495
  32   37803.1    264.5   0.152599113   1.32892  -0.37735  -0.82075  -0.71617
  33   37854.0    264.2   0.026924186   0.23416  -0.32297   0.06299   0.35480
  34   38197.9    261.8   0.109833240   0.94661   0.87956  -0.18208  -0.37394
  35   38433.0    260.2   0.041093393   0.35200   0.52278  -0.17276   0.22104
  36   38521.4    259.6   0.051689823   0.44175   0.06632   0.39968  -0.52689
  37   38823.3    257.6   0.022833158   0.19362   0.03911   0.14084   0.41503
  38   38935.3    256.8   0.013143883   0.11114   0.12333  -0.17626  -0.25467
  39   39546.8    252.9   0.003292269   0.02741   0.16080   0.00460   0.03910
  40   39709.6    251.8   0.030152849   0.24998  -0.34537  -0.10504   0.34593
  41   39934.3    250.4   0.072380938   0.59670   0.20861  -0.35213   0.65512

FINAL SINGLE POINT ENERGY     -4650.898343541586

DIPOLE MOMENT
-------------
                                X             Y             Z
Electronic contribution:      4.17796       4.87855     -24.20624
Nuclear contribution   :     -4.03869      -6.33089      23.13117
                        -----------------------------------------
Total Dipole Moment    :      0.13927      -1.45234      -1.07507
                        -----------------------------------------
Magnitude (a.u.)       :      1.81231
Magnitude (Debye)      :      4.60652

Rotational constants in cm-1:     0.002166     0.000240     0.000223
Rotational constants in MHz :    64.931651     7.197326     6.689771

                             ****ORCA TERMINATED NORMALLY****
TOTAL RUN TIME: 0 days 1 hours 3 minutes 54 seconds 642 msec
