                         Program Version 4.2.0 -  RELEASE  -
|  1> # ORCA input file
|  2> # AQx-2.out
|  3> ! CAM-B3LYP def2-SVP def2/J RIJCOSX Grid4 TightSCF
|  4> %maxcore 5000
|  5> %tddft
|  6>     Mode sTDDFT
|  7>     Ethresh 5.0
|  8>     maxcore 5000
|  9> end
| 10> * xyz 0 1
| 11>    C        4.92510         2.24815        -1.47993
| 12>    O        5.92084         1.77685        -2.00086
| 13>    C        4.04849         3.28400        -2.06674
| 14>    C        4.16400         3.91317        -3.29009
| 15>    C        3.20815         4.86178        -3.61648
| 16>    F        3.27963         5.49723        -4.79264
| 17>    C        2.17310         5.16060        -2.73060
| 18>    F        1.26434         6.08145        -3.07084
| 19>    C        2.05832         4.52717        -1.50139
| 20>    C        3.00957         3.57628        -1.16755
| 21>    C        3.17153         2.74183         0.02534
| 22>    C        2.33468         2.75600         1.11202
| 23>    C        2.46642         1.95874         2.26835
| 24>    N        2.49907         1.34649         3.24012
| 25>    C        1.20179         3.58974         1.22615
| 26>    N        0.26925         4.24039         1.38307
| 27>    C        4.35218         1.92780        -0.17388
| 28>    C        4.84568         1.01252         0.72927
| 29>    C        5.95722         0.17201         0.67051
| 30>    S        7.09011         0.08229        -0.68206
| 31>    C        7.99634        -1.12729         0.14255
| 32>    C        7.44379        -1.43742         1.40008
| 33>    C        6.30217        -0.71417         1.71014
| 34>    C        5.53180        -0.92320         2.97212
| 35>    C        4.38269        -1.91084         2.74941
| 36>    S        8.34443        -2.65815         2.28148
| 37>    C        9.45591        -2.74146         0.96279
| 38>    C        9.14286        -1.88629        -0.10066
| 39>    N       10.06978        -2.02117        -1.10368
| 40>    C       10.20867        -0.93585        -2.05174
| 41>    C       11.15940         0.13288        -1.51668
| 42>    C       10.99950        -2.95622        -0.68468
| 43>    C       10.64342        -3.40373         0.62075
| 44>    C       11.44106        -4.27930         1.40352
| 45>    N       11.05215        -4.65113         2.62805
| 46>    C       11.88054        -5.41637         3.30519
| 47>    C       13.11397        -5.82346         2.78257
| 48>    N       13.51086        -5.47947         1.57651
| 49>    C       12.67949        -4.70824         0.86697
| 50>    C       12.98818        -4.34023        -0.46868
| 51>    C       12.13939        -3.54053        -1.28812
| 52>    N       12.65867        -3.51847        -2.56615
| 53>    C       12.07481        -3.11870        -3.82569
| 54>    C       12.72114        -1.85015        -4.37895
| 55>    C       13.82175        -4.23985        -2.55889
| 56>    C       14.06105        -4.74447        -1.27596
| 57>    S       15.49679        -5.69492        -1.15849
| 58>    C       15.78924        -5.42777        -2.86294
| 59>    C       14.79370        -4.65032        -3.47438
| 60>    S       15.07685        -4.49109        -5.16230
| 61>    C       16.58155        -5.39821        -5.02424
| 62>    C       16.81123        -5.84361        -3.72561
| 63>    C       17.89187        -6.78784        -3.30054
| 64>    C       18.71817        -6.25527        -2.12888
| 65>    C       17.27238        -5.63288        -6.23447
| 66>    C       18.60349        -5.81190        -6.47493
| 67>    C       19.78356        -5.50264        -5.70173
| 68>    C       19.89575        -4.51652        -4.75718
| 69>    C       21.10150        -4.18542        -4.10583
| 70>    N       22.05108        -3.89134        -3.53252
| 71>    C       18.82974        -3.67110        -4.38847
| 72>    N       18.00350        -2.93554        -4.08231
| 73>    C       20.90247        -6.22324        -6.30949
| 74>    C       22.20940        -6.39777        -5.88553
| 75>    C       23.06446        -7.12233        -6.70291
| 76>    F       24.32721        -7.31740        -6.30872
| 77>    C       22.63733        -7.65436        -7.92031
| 78>    F       23.49888        -8.34096        -8.67962
| 79>    C       21.33050        -7.48349        -8.34940
| 80>    C       20.47518        -6.77233        -7.53141
| 81>    C       19.03771        -6.47185        -7.73180
| 82>    O       18.35132        -6.74132        -8.68937
| 83>    H        4.96684         3.67926        -3.97090
| 84>    H        1.23942         4.79609        -0.85475
| 85>    H        4.28672         0.91526         1.64979
| 86>    H        5.13145         0.01817         3.35087
| 87>    H        6.21176        -1.33273         3.72166
| 88>    H        3.68558        -1.53057         2.00654
| 89>    H        3.84391        -2.06216         3.68013
| 90>    H        4.76817        -2.86857         2.40782
| 91>    H        9.21270        -0.50696        -2.18795
| 92>    H       10.55308        -1.29674        -3.01537
| 93>    H       10.78373         0.53594        -0.57923
| 94>    H       11.24255         0.94554        -2.23274
| 95>    H       12.14808        -0.28600        -1.33867
| 96>    H       11.55811        -5.71421         4.29316
| 97>    H       13.79250        -6.44424         3.35091
| 98>    H       10.99608        -3.01661        -3.70066
| 99>    H       12.24529        -3.93482        -4.53691
|100>    H       12.23074        -1.56109        -5.30410
|101>    H       13.77122        -2.03252        -4.59042
|102>    H       12.65633        -1.02765        -3.67255
|103>    H       18.53892        -7.01998        -4.14683
|104>    H       17.41164        -7.71968        -2.98520
|105>    H       19.11925        -5.26764        -2.34070
|106>    H       19.54693        -6.92906        -1.92664
|107>    H       18.10660        -6.18289        -1.23390
|108>    H       16.64309        -5.72598        -7.11614
|109>    H       22.58139        -6.00685        -4.95234
|110>    H       20.99973        -7.89444        -9.28987
|111> *
|112>
|113>                          ****END OF INPUT****

CARTESIAN COORDINATES (ANGSTROEM)
---------------------------------
  C      4.925100    2.248150   -1.479930
  O      5.920840    1.776850   -2.000860
  C      4.048490    3.284000   -2.066740
  C      4.164000    3.913170   -3.290090
  C      3.208150    4.861780   -3.616480
  F      3.279630    5.497230   -4.792640
  C      2.173100    5.160600   -2.730600
  F      1.264340    6.081450   -3.070840
  C      2.058320    4.527170   -1.501390
  C      3.009570    3.576280   -1.167550
  C      3.171530    2.741830    0.025340
  C      2.334680    2.756000    1.112020
  C      2.466420    1.958740    2.268350
  N      2.499070    1.346490    3.240120
  C      1.201790    3.589740    1.226150
  N      0.269250    4.240390    1.383070
  C      4.352180    1.927800   -0.173880
  C      4.845680    1.012520    0.729270
  C      5.957220    0.172010    0.670510
  S      7.090110    0.082290   -0.682060
  C      7.996340   -1.127290    0.142550
  C      7.443790   -1.437420    1.400080
  C      6.302170   -0.714170    1.710140
  C      5.531800   -0.923200    2.972120
  C      4.382690   -1.910840    2.749410
  S      8.344430   -2.658150    2.281480
  C      9.455910   -2.741460    0.962790
  C      9.142860   -1.886290   -0.100660
  N     10.069780   -2.021170   -1.103680
  C     10.208670   -0.935850   -2.051740
  C     11.159400    0.132880   -1.516680
  C     10.999500   -2.956220   -0.684680
  C     10.643420   -3.403730    0.620750
  C     11.441060   -4.279300    1.403520
  N     11.052150   -4.651130    2.628050
  C     11.880540   -5.416370    3.305190
  C     13.113970   -5.823460    2.782570
  N     13.510860   -5.479470    1.576510
  C     12.679490   -4.708240    0.866970
  C     12.988180   -4.340230   -0.468680
  C     12.139390   -3.540530   -1.288120
  N     12.658670   -3.518470   -2.566150
  C     12.074810   -3.118700   -3.825690
  C     12.721140   -1.850150   -4.378950
  C     13.821750   -4.239850   -2.558890
  C     14.061050   -4.744470   -1.275960
  S     15.496790   -5.694920   -1.158490
  C     15.789240   -5.427770   -2.862940
  C     14.793700   -4.650320   -3.474380
  S     15.076850   -4.491090   -5.162300
  C     16.581550   -5.398210   -5.024240
  C     16.811230   -5.843610   -3.725610
  C     17.891870   -6.787840   -3.300540
  C     18.718170   -6.255270   -2.128880
  C     17.272380   -5.632880   -6.234470
  C     18.603490   -5.811900   -6.474930
  C     19.783560   -5.502640   -5.701730
  C     19.895750   -4.516520   -4.757180
  C     21.101500   -4.185420   -4.105830
  N     22.051080   -3.891340   -3.532520
  C     18.829740   -3.671100   -4.388470
  N     18.003500   -2.935540   -4.082310
  C     20.902470   -6.223240   -6.309490
  C     22.209400   -6.397770   -5.885530
  C     23.064460   -7.122330   -6.702910
  F     24.327210   -7.317400   -6.308720
  C     22.637330   -7.654360   -7.920310
  F     23.498880   -8.340960   -8.679620
  C     21.330500   -7.483490   -8.349400
  C     20.475180   -6.772330   -7.531410
  C     19.037710   -6.471850   -7.731800
  O     18.351320   -6.741320   -8.689370
  H      4.966840    3.679260   -3.970900
  H      1.239420    4.796090   -0.854750
  H      4.286720    0.915260    1.649790
  H      5.131450    0.018170    3.350870
  H      6.211760   -1.332730    3.721660
  H      3.685580   -1.530570    2.006540
  H      3.843910   -2.062160    3.680130
  H      4.768170   -2.868570    2.407820
  H      9.212700   -0.506960   -2.187950
  H     10.553080   -1.296740   -3.015370
  H     10.783730    0.535940   -0.579230
  H     11.242550    0.945540   -2.232740
  H     12.148080   -0.286000   -1.338670
  H     11.558110   -5.714210    4.293160
  H     13.792500   -6.444240    3.350910
  H     10.996080   -3.016610   -3.700660
  H     12.245290   -3.934820   -4.536910
  H     12.230740   -1.561090   -5.304100
  H     13.771220   -2.032520   -4.590420
  H     12.656330   -1.027650   -3.672550
  H     18.538920   -7.019980   -4.146830
  H     17.411640   -7.719680   -2.985200
  H     19.119250   -5.267640   -2.340700
  H     19.546930   -6.929060   -1.926640
  H     18.106600   -6.182890   -1.233900
  H     16.643090   -5.725980   -7.116140
  H     22.581390   -6.006850   -4.952340
  H     20.999730   -7.894440   -9.289870

 Total Charge           Charge          ....    0
 Multiplicity           Mult            ....    1
 Number of Electrons    NEL             ....  524
 Basis Dimension        Dim             .... 1164

ORBITAL ENERGIES
----------------

  NO   OCC          E(Eh)            E(eV)
   0   2.0000     -88.974512     -2421.1196
   1   2.0000     -88.967608     -2420.9317
   2   2.0000     -88.966740     -2420.9081
   3   2.0000     -88.964840     -2420.8564
   4   2.0000     -24.804946      -674.9769
   5   2.0000     -24.804637      -674.9685
   6   2.0000     -24.802075      -674.8988
   7   2.0000     -24.800080      -674.8445
   8   2.0000     -19.224169      -523.1162
   9   2.0000     -19.222777      -523.0784
  10   2.0000     -14.487102      -394.2141
  11   2.0000     -14.484123      -394.1330
  12   2.0000     -14.425396      -392.5350
  13   2.0000     -14.425202      -392.5297
  14   2.0000     -14.422203      -392.4481
  15   2.0000     -14.421210      -392.4211
  16   2.0000     -14.420618      -392.4050
  17   2.0000     -14.414571      -392.2404
  18   2.0000     -10.390901      -282.7508
  19   2.0000     -10.390177      -282.7311
  20   2.0000     -10.386453      -282.6297
  21   2.0000     -10.385802      -282.6120
  22   2.0000     -10.374570      -282.3064
  23   2.0000     -10.373214      -282.2695
  24   2.0000     -10.349998      -281.6378
  25   2.0000     -10.349105      -281.6135
  26   2.0000     -10.344482      -281.4877
  27   2.0000     -10.342660      -281.4381
  28   2.0000     -10.342179      -281.4250
  29   2.0000     -10.341675      -281.4113
  30   2.0000     -10.339554      -281.3536
  31   2.0000     -10.334340      -281.2117
  32   2.0000     -10.327177      -281.0168
  33   2.0000     -10.324934      -280.9557
  34   2.0000     -10.324541      -280.9450
  35   2.0000     -10.324493      -280.9437
  36   2.0000     -10.324360      -280.9401
  37   2.0000     -10.323046      -280.9044
  38   2.0000     -10.322560      -280.8911
  39   2.0000     -10.321851      -280.8718
  40   2.0000     -10.321783      -280.8700
  41   2.0000     -10.320355      -280.8311
  42   2.0000     -10.319961      -280.8204
  43   2.0000     -10.319857      -280.8176
  44   2.0000     -10.317989      -280.7668
  45   2.0000     -10.317886      -280.7639
  46   2.0000     -10.316215      -280.7185
  47   2.0000     -10.315618      -280.7022
  48   2.0000     -10.314791      -280.6797
  49   2.0000     -10.314402      -280.6691
  50   2.0000     -10.313481      -280.6441
  51   2.0000     -10.313353      -280.6406
  52   2.0000     -10.312571      -280.6193
  53   2.0000     -10.310561      -280.5646
  54   2.0000     -10.310036      -280.5504
  55   2.0000     -10.309559      -280.5374
  56   2.0000     -10.308132      -280.4985
  57   2.0000     -10.307771      -280.4887
  58   2.0000     -10.307216      -280.4736
  59   2.0000     -10.306851      -280.4637
  60   2.0000     -10.305333      -280.4224
  61   2.0000     -10.302305      -280.3400
  62   2.0000     -10.301953      -280.3304
  63   2.0000     -10.294907      -280.1387
  64   2.0000     -10.291236      -280.0388
  65   2.0000     -10.290683      -280.0237
  66   2.0000     -10.288864      -279.9742
  67   2.0000     -10.284734      -279.8618
  68   2.0000     -10.283705      -279.8338
  69   2.0000     -10.281144      -279.7642
  70   2.0000     -10.268966      -279.4328
  71   2.0000     -10.263876      -279.2943
  72   2.0000      -8.069217      -219.5746
  73   2.0000      -8.060545      -219.3386
  74   2.0000      -8.060123      -219.3271
  75   2.0000      -8.058817      -219.2916
  76   2.0000      -6.038871      -164.3260
  77   2.0000      -6.034737      -164.2136
  78   2.0000      -6.030680      -164.1031
  79   2.0000      -6.030441      -164.0967
  80   2.0000      -6.030011      -164.0849
  81   2.0000      -6.028682      -164.0488
  82   2.0000      -6.026328      -163.9847
  83   2.0000      -6.025379      -163.9589
  84   2.0000      -6.024681      -163.9399
  85   2.0000      -6.021627      -163.8568
  86   2.0000      -6.021586      -163.8557
  87   2.0000      -6.019811      -163.8074
  88   2.0000      -1.328733       -36.1567
  89   2.0000      -1.324716       -36.0474
  90   2.0000      -1.313467       -35.7413
  91   2.0000      -1.309488       -35.6330
  92   2.0000      -1.139725       -31.0135
  93   2.0000      -1.138444       -30.9786
  94   2.0000      -1.117523       -30.4094
  95   2.0000      -1.104927       -30.0666
  96   2.0000      -1.079620       -29.3780
  97   2.0000      -1.028047       -27.9746
  98   2.0000      -1.022887       -27.8342
  99   2.0000      -1.016693       -27.6656
 100   2.0000      -1.012748       -27.5583
 101   2.0000      -1.007598       -27.4181
 102   2.0000      -1.005170       -27.3521
 103   2.0000      -1.003175       -27.2978
 104   2.0000      -0.999401       -27.1951
 105   2.0000      -0.995904       -27.0999
 106   2.0000      -0.968842       -26.3635
 107   2.0000      -0.964514       -26.2458
 108   2.0000      -0.960382       -26.1333
 109   2.0000      -0.954445       -25.9718
 110   2.0000      -0.945983       -25.7415
 111   2.0000      -0.915276       -24.9059
 112   2.0000      -0.908880       -24.7319
 113   2.0000      -0.904229       -24.6053
 114   2.0000      -0.903011       -24.5722
 115   2.0000      -0.898624       -24.4528
 116   2.0000      -0.892902       -24.2971
 117   2.0000      -0.885245       -24.0887
 118   2.0000      -0.880619       -23.9629
 119   2.0000      -0.879396       -23.9296
 120   2.0000      -0.874686       -23.8014
 121   2.0000      -0.860864       -23.4253
 122   2.0000      -0.850999       -23.1569
 123   2.0000      -0.834660       -22.7123
 124   2.0000      -0.831990       -22.6396
 125   2.0000      -0.827409       -22.5150
 126   2.0000      -0.816019       -22.2050
 127   2.0000      -0.806873       -21.9561
 128   2.0000      -0.800484       -21.7823
 129   2.0000      -0.793574       -21.5943
 130   2.0000      -0.778610       -21.1871
 131   2.0000      -0.775294       -21.0968
 132   2.0000      -0.772263       -21.0143
 133   2.0000      -0.767021       -20.8717
 134   2.0000      -0.763922       -20.7874
 135   2.0000      -0.746485       -20.3129
 136   2.0000      -0.735755       -20.0209
 137   2.0000      -0.733296       -19.9540
 138   2.0000      -0.722890       -19.6709
 139   2.0000      -0.720891       -19.6164
 140   2.0000      -0.717517       -19.5246
 141   2.0000      -0.711009       -19.3475
 142   2.0000      -0.708615       -19.2824
 143   2.0000      -0.699892       -19.0450
 144   2.0000      -0.692518       -18.8444
 145   2.0000      -0.686298       -18.6751
 146   2.0000      -0.681966       -18.5572
 147   2.0000      -0.674907       -18.3651
 148   2.0000      -0.662849       -18.0370
 149   2.0000      -0.661594       -18.0029
 150   2.0000      -0.656890       -17.8749
 151   2.0000      -0.648368       -17.6430
 152   2.0000      -0.647162       -17.6102
 153   2.0000      -0.644848       -17.5472
 154   2.0000      -0.640673       -17.4336
 155   2.0000      -0.633105       -17.2277
 156   2.0000      -0.624055       -16.9814
 157   2.0000      -0.621441       -16.9103
 158   2.0000      -0.614931       -16.7331
 159   2.0000      -0.612492       -16.6667
 160   2.0000      -0.609512       -16.5857
 161   2.0000      -0.603961       -16.4346
 162   2.0000      -0.602139       -16.3850
 163   2.0000      -0.595627       -16.2078
 164   2.0000      -0.593581       -16.1522
 165   2.0000      -0.592415       -16.1204
 166   2.0000      -0.589763       -16.0483
 167   2.0000      -0.586806       -15.9678
 168   2.0000      -0.585354       -15.9283
 169   2.0000      -0.575873       -15.6703
 170   2.0000      -0.570651       -15.5282
 171   2.0000      -0.567627       -15.4459
 172   2.0000      -0.564886       -15.3713
 173   2.0000      -0.558071       -15.1859
 174   2.0000      -0.556861       -15.1530
 175   2.0000      -0.556520       -15.1437
 176   2.0000      -0.555500       -15.1159
 177   2.0000      -0.553461       -15.0604
 178   2.0000      -0.551414       -15.0047
 179   2.0000      -0.549704       -14.9582
 180   2.0000      -0.548831       -14.9344
 181   2.0000      -0.541595       -14.7375
 182   2.0000      -0.540642       -14.7116
 183   2.0000      -0.537565       -14.6279
 184   2.0000      -0.534488       -14.5442
 185   2.0000      -0.532800       -14.4982
 186   2.0000      -0.532243       -14.4831
 187   2.0000      -0.531550       -14.4642
 188   2.0000      -0.527379       -14.3507
 189   2.0000      -0.523629       -14.2487
 190   2.0000      -0.521593       -14.1933
 191   2.0000      -0.519763       -14.1435
 192   2.0000      -0.517427       -14.0799
 193   2.0000      -0.513316       -13.9680
 194   2.0000      -0.509696       -13.8695
 195   2.0000      -0.506748       -13.7893
 196   2.0000      -0.501856       -13.6562
 197   2.0000      -0.500093       -13.6082
 198   2.0000      -0.499389       -13.5891
 199   2.0000      -0.498729       -13.5711
 200   2.0000      -0.497490       -13.5374
 201   2.0000      -0.494798       -13.4641
 202   2.0000      -0.491466       -13.3735
 203   2.0000      -0.490324       -13.3424
 204   2.0000      -0.486698       -13.2437
 205   2.0000      -0.485546       -13.2124
 206   2.0000      -0.483083       -13.1454
 207   2.0000      -0.477745       -13.0001
 208   2.0000      -0.476815       -12.9748
 209   2.0000      -0.474519       -12.9123
 210   2.0000      -0.470657       -12.8072
 211   2.0000      -0.466225       -12.6866
 212   2.0000      -0.464314       -12.6346
 213   2.0000      -0.463825       -12.6213
 214   2.0000      -0.461384       -12.5549
 215   2.0000      -0.458900       -12.4873
 216   2.0000      -0.458266       -12.4701
 217   2.0000      -0.457676       -12.4540
 218   2.0000      -0.455947       -12.4070
 219   2.0000      -0.453908       -12.3515
 220   2.0000      -0.453319       -12.3354
 221   2.0000      -0.452124       -12.3029
 222   2.0000      -0.449389       -12.2285
 223   2.0000      -0.447934       -12.1889
 224   2.0000      -0.444559       -12.0971
 225   2.0000      -0.443986       -12.0815
 226   2.0000      -0.441162       -12.0046
 227   2.0000      -0.436649       -11.8818
 228   2.0000      -0.434126       -11.8132
 229   2.0000      -0.432381       -11.7657
 230   2.0000      -0.431660       -11.7461
 231   2.0000      -0.428886       -11.6706
 232   2.0000      -0.427365       -11.6292
 233   2.0000      -0.425566       -11.5802
 234   2.0000      -0.423621       -11.5273
 235   2.0000      -0.421682       -11.4746
 236   2.0000      -0.418887       -11.3985
 237   2.0000      -0.416597       -11.3362
 238   2.0000      -0.412646       -11.2287
 239   2.0000      -0.410431       -11.1684
 240   2.0000      -0.406035       -11.0488
 241   2.0000      -0.404112       -10.9964
 242   2.0000      -0.400779       -10.9057
 243   2.0000      -0.395787       -10.7699
 244   2.0000      -0.388950       -10.5839
 245   2.0000      -0.372182       -10.1276
 246   2.0000      -0.366747        -9.9797
 247   2.0000      -0.354571        -9.6484
 248   2.0000      -0.352166        -9.5829
 249   2.0000      -0.348341        -9.4788
 250   2.0000      -0.342938        -9.3318
 251   2.0000      -0.340749        -9.2723
 252   2.0000      -0.338933        -9.2228
 253   2.0000      -0.325424        -8.8552
 254   2.0000      -0.323211        -8.7950
 255   2.0000      -0.318999        -8.6804
 256   2.0000      -0.315303        -8.5798
 257   2.0000      -0.310921        -8.4606
 258   2.0000      -0.290593        -7.9074
 259   2.0000      -0.279163        -7.5964
 260   2.0000      -0.275076        -7.4852
 261   2.0000      -0.242496        -6.5987
 262   0.0000      -0.098203        -2.6722
 263   0.0000      -0.089440        -2.4338
 264   0.0000      -0.067942        -1.8488
 265   0.0000      -0.064694        -1.7604
 266   0.0000      -0.038579        -1.0498

MULLIKEN ATOMIC CHARGES
-----------------------
   0 C :    0.155838
   1 O :   -0.180447
   2 C :   -0.001916
   3 C :   -0.108541
   4 C :    0.234595
   5 F :   -0.170005
   6 C :    0.235976
   7 F :   -0.165819
   8 C :   -0.090341
   9 C :    0.036799
  10 C :    0.320837
  11 C :   -0.360273
  12 C :   -0.179665
  13 N :    0.141342
  14 C :   -0.192790
  15 N :    0.153452
  16 C :   -0.107747
  17 C :   -0.029652
  18 C :   -0.080637
  19 S :    0.166270
  20 C :   -0.030013
  21 C :   -0.083459
  22 C :   -0.070569
  23 C :    0.053845
  24 C :    0.036946
  25 S :    0.193475
  26 C :   -0.093213
  27 C :    0.029969
  28 N :   -0.159240
  29 C :    0.095122
  30 C :   -0.001037
  31 C :    0.056863
  32 C :   -0.036457
  33 C :   -0.065565
  34 N :   -0.014829
  35 C :    0.030367
  36 C :    0.026195
  37 N :   -0.018609
  38 C :   -0.080851
  39 C :   -0.033156
  40 C :    0.054530
  41 N :   -0.167150
  42 C :    0.070890
  43 C :    0.008975
  44 C :    0.057089
  45 C :   -0.093978
  46 S :    0.190973
  47 C :   -0.105380
  48 C :   -0.044375
  49 S :    0.154494
  50 C :   -0.172847
  51 C :   -0.014039
  52 C :    0.069515
  53 C :   -0.008843
  54 C :    0.053150
  55 C :   -0.145833
  56 C :    0.247895
  57 C :   -0.350092
  58 C :   -0.182971
  59 N :    0.166418
  60 C :   -0.198762
  61 N :    0.180436
  62 C :    0.025990
  63 C :   -0.089696
  64 C :    0.236118
  65 F :   -0.164691
  66 C :    0.233806
  67 F :   -0.168387
  68 C :   -0.104584
  69 C :    0.017489
  70 C :    0.133003
  71 O :   -0.138470
  72 H :    0.007621
  73 H :    0.015407
  74 H :   -0.017652
  75 H :    0.035703
  76 H :    0.012702
  77 H :    0.014004
  78 H :    0.032698
  79 H :    0.014152
  80 H :    0.039738
  81 H :    0.005922
  82 H :    0.034236
  83 H :    0.033380
  84 H :    0.038857
  85 H :    0.008472
  86 H :    0.009910
  87 H :    0.039525
  88 H :    0.034368
  89 H :    0.029008
  90 H :    0.037983
  91 H :    0.022746
  92 H :    0.009590
  93 H :    0.031131
  94 H :    0.034004
  95 H :    0.024184
  96 H :    0.029154
  97 H :    0.030625
  98 H :    0.016654
  99 H :    0.012144
Sum of atomic charges:    0.0000000

LOEWDIN ATOMIC CHARGES
----------------------
   0 C :    0.082828
   1 O :   -0.170636
   2 C :   -0.043760
   3 C :   -0.008384
   4 C :    0.069061
   5 F :   -0.046964
   6 C :    0.072211
   7 F :   -0.044369
   8 C :   -0.017993
   9 C :   -0.014370
  10 C :    0.078714
  11 C :   -0.148355
  12 C :   -0.017978
  13 N :   -0.058097
  14 C :   -0.020691
  15 N :   -0.053770
  16 C :   -0.127138
  17 C :    0.056603
  18 C :   -0.189761
  19 S :    0.472522
  20 C :   -0.193886
  21 C :   -0.198204
  22 C :   -0.007386
  23 C :   -0.030408
  24 C :   -0.040923
  25 S :    0.427071
  26 C :   -0.164620
  27 C :   -0.044437
  28 N :    0.035520
  29 C :    0.040876
  30 C :   -0.059571
  31 C :    0.013282
  32 C :   -0.068858
  33 C :   -0.014255
  34 N :   -0.049257
  35 C :   -0.002339
  36 C :   -0.002031
  37 N :   -0.049950
  38 C :   -0.013462
  39 C :   -0.068598
  40 C :    0.011263
  41 N :    0.040764
  42 C :    0.038666
  43 C :   -0.064727
  44 C :   -0.037626
  45 C :   -0.172027
  46 S :    0.442905
  47 C :   -0.188075
  48 C :   -0.190744
  49 S :    0.437038
  50 C :   -0.185336
  51 C :   -0.021630
  52 C :   -0.029398
  53 C :   -0.050445
  54 C :    0.049312
  55 C :   -0.107403
  56 C :    0.061910
  57 C :   -0.138282
  58 C :   -0.023771
  59 N :   -0.046890
  60 C :   -0.019932
  61 N :   -0.043157
  62 C :   -0.013877
  63 C :   -0.020865
  64 C :    0.074229
  65 F :   -0.042821
  66 C :    0.069514
  67 F :   -0.045037
  68 C :   -0.004539
  69 C :   -0.046789
  70 C :    0.082492
  71 O :   -0.139627
  72 H :    0.050311
  73 H :    0.051478
  74 H :    0.047412
  75 H :    0.037134
  76 H :    0.031425
  77 H :    0.024185
  78 H :    0.032848
  79 H :    0.025021
  80 H :    0.028667
  81 H :    0.022999
  82 H :    0.033520
  83 H :    0.034229
  84 H :    0.028853
  85 H :    0.025885
  86 H :    0.026057
  87 H :    0.028719
  88 H :    0.029842
  89 H :    0.034470
  90 H :    0.027535
  91 H :    0.027955
  92 H :    0.029308
  93 H :    0.040922
  94 H :    0.028545
  95 H :    0.031115
  96 H :    0.018330
  97 H :    0.046242
  98 H :    0.051196
  99 H :    0.052467

  Mayer bond orders larger than 0.100000
B(  0-C ,  1-O ) :   2.1362 B(  0-C ,  2-C ) :   0.9662 B(  0-C , 16-C ) :   0.9831
B(  2-C ,  3-C ) :   1.3195 B(  2-C ,  9-C ) :   1.3454 B(  3-C ,  4-C ) :   1.3106
B(  3-C ,  8-C ) :   0.1050 B(  3-C , 72-H ) :   1.0211 B(  4-C ,  5-F ) :   1.1304
B(  4-C ,  6-C ) :   1.2954 B(  6-C ,  7-F ) :   1.1456 B(  6-C ,  8-C ) :   1.3297
B(  8-C ,  9-C ) :   1.3203 B(  8-C , 73-H ) :   0.9917 B(  9-C , 10-C ) :   0.9951
B( 10-C , 11-C ) :   1.6118 B( 10-C , 16-C ) :   1.1057 B( 11-C , 12-C ) :   1.1520
B( 11-C , 14-C ) :   1.1427 B( 12-C , 13-N ) :   2.9583 B( 14-C , 15-N ) :   2.9766
B( 16-C , 17-C ) :   1.4603 B( 17-C , 18-C ) :   1.3257 B( 17-C , 74-H ) :   0.9279
B( 18-C , 19-S ) :   1.0296 B( 18-C , 22-C ) :   1.3552 B( 19-S , 20-C ) :   1.0312
B( 20-C , 21-C ) :   1.3892 B( 20-C , 27-C ) :   1.2947 B( 21-C , 22-C ) :   1.4297
B( 21-C , 25-S ) :   1.0129 B( 22-C , 23-C ) :   1.0786 B( 23-C , 24-C ) :   1.1037
B( 23-C , 75-H ) :   0.9045 B( 23-C , 76-H ) :   0.9215 B( 24-C , 77-H ) :   0.9693
B( 24-C , 78-H ) :   0.9665 B( 24-C , 79-H ) :   0.9662 B( 25-S , 26-C ) :   1.0316
B( 26-C , 27-C ) :   1.4176 B( 26-C , 32-C ) :   1.3254 B( 27-C , 28-N ) :   1.1355
B( 27-C , 31-C ) :   0.1003 B( 28-N , 29-C ) :   0.9612 B( 28-N , 31-C ) :   1.1701
B( 29-C , 30-C ) :   1.1091 B( 29-C , 80-H ) :   0.9380 B( 29-C , 81-H ) :   0.9428
B( 30-C , 82-H ) :   0.9611 B( 30-C , 83-H ) :   0.9650 B( 30-C , 84-H ) :   0.9620
B( 31-C , 32-C ) :   1.3655 B( 31-C , 40-C ) :   1.1521 B( 32-C , 33-C ) :   1.1171
B( 32-C , 39-C ) :   0.1115 B( 33-C , 34-N ) :   1.5793 B( 33-C , 38-C ) :   1.2222
B( 34-N , 35-C ) :   1.5871 B( 35-C , 36-C ) :   1.2957 B( 35-C , 85-H ) :   0.9756
B( 36-C , 37-N ) :   1.5857 B( 36-C , 86-H ) :   0.9755 B( 37-N , 38-C ) :   1.5808
B( 38-C , 39-C ) :   1.1203 B( 39-C , 40-C ) :   1.3513 B( 39-C , 45-C ) :   1.3266
B( 40-C , 41-N ) :   1.1777 B( 40-C , 44-C ) :   0.1032 B( 41-N , 42-C ) :   0.9450
B( 41-N , 44-C ) :   1.1415 B( 42-C , 43-C ) :   1.1023 B( 42-C , 87-H ) :   0.9519
B( 42-C , 88-H ) :   0.9422 B( 43-C , 89-H ) :   0.9632 B( 43-C , 90-H ) :   0.9545
B( 43-C , 91-H ) :   0.9629 B( 44-C , 45-C ) :   1.4193 B( 44-C , 48-C ) :   1.2757
B( 45-C , 46-S ) :   1.0330 B( 46-S , 47-C ) :   1.0356 B( 47-C , 48-C ) :   1.4445
B( 47-C , 51-C ) :   1.3390 B( 48-C , 49-S ) :   1.0679 B( 49-S , 50-C ) :   1.0486
B( 50-C , 51-C ) :   1.4743 B( 50-C , 54-C ) :   1.1260 B( 51-C , 52-C ) :   1.0840
B( 52-C , 53-C ) :   1.0831 B( 52-C , 92-H ) :   0.9174 B( 52-C , 93-H ) :   0.9215
B( 53-C , 94-H ) :   0.9674 B( 53-C , 95-H ) :   0.9631 B( 53-C , 96-H ) :   0.9621
B( 54-C , 55-C ) :   1.6471 B( 54-C , 97-H ) :   0.9268 B( 55-C , 56-C ) :   1.0589
B( 55-C , 70-C ) :   0.9494 B( 56-C , 57-C ) :   1.6535 B( 56-C , 62-C ) :   1.0088
B( 57-C , 58-C ) :   1.1237 B( 57-C , 60-C ) :   1.1715 B( 58-C , 59-N ) :   2.9925
B( 60-C , 61-N ) :   3.0000 B( 62-C , 63-C ) :   1.3193 B( 62-C , 69-C ) :   1.3463
B( 63-C , 64-C ) :   1.3325 B( 63-C , 68-C ) :   0.1050 B( 63-C , 98-H ) :   0.9968
B( 64-C , 65-F ) :   1.1418 B( 64-C , 66-C ) :   1.2927 B( 66-C , 67-F ) :   1.1309
B( 66-C , 68-C ) :   1.3178 B( 68-C , 69-C ) :   1.3198 B( 68-C , 99-H ) :   1.0210
B( 69-C , 70-C ) :   0.9273 B( 70-C , 71-O ) :   2.2749

-----------------------------------------------------------------------------
         ABSORPTION SPECTRUM VIA TRANSITION ELECTRIC DIPOLE MOMENTS
-----------------------------------------------------------------------------
State   Energy  Wavelength   fosc         T2         TX        TY        TZ
        (cm-1)    (nm)                  (au**2)     (au)      (au)      (au)
-----------------------------------------------------------------------------
   0   16754.2    596.9   2.023929936  39.76924   5.46134  -2.56513  -1.83388
   1   19498.5    512.9   0.458057748   7.73385  -1.28270   2.25572  -1.00012
   2   23714.7    421.7   0.059046152   0.81969   0.57192  -0.65459  -0.25320
   3   23860.7    419.1   0.071921536   0.99232   0.50302  -0.58277   0.63219
   4   24825.1    402.8   0.092145684   1.22197   0.99425  -0.23312  -0.42318
   5   24898.0    401.6   0.308531849   4.07954  -0.65179  -0.08563   1.90981
   6   26619.6    375.7   0.100837434   1.24709   0.15690   0.82922  -0.73134
   7   27879.5    358.7   0.009045461   0.10681  -0.15232   0.06093   0.28266
   8   28723.9    348.1   0.066249314   0.75930  -0.85066   0.15379  -0.10964
   9   29307.2    341.2   0.054670372   0.61412   0.38700  -0.50087   0.46205
  10   29968.6    333.7   0.021452600   0.23566   0.15217  -0.29862  -0.35118
  11   30689.9    325.8   0.001583712   0.01699  -0.01898  -0.10912  -0.06871
  12   30710.1    325.6   0.085141033   0.91271   0.39276  -0.54619  -0.67832
  13   31345.5    319.0   0.056437007   0.59274   0.26940   0.20018  -0.69289
  14   32198.8    310.6   0.138912063   1.42028   0.56700  -0.90844   0.52299
  15   32358.4    309.0   0.081508607   0.82926  -0.31575   0.17580   0.83586
  16   32528.9    307.4   0.110026883   1.11354   0.65388  -0.72039  -0.40867
  17   32759.6    305.3   0.001775234   0.01784   0.01627  -0.09251   0.09496
  18   32950.0    303.5   0.038176912   0.38144   0.05515  -0.32841   0.52014
  19   32956.4    303.4   0.080420265   0.80334   0.24213   0.10210   0.85691
  20   33145.2    301.7   0.154564016   1.53519   0.16732   0.31022  -1.18784
  21   33612.5    297.5   0.088276978   0.86461  -0.50286   0.18698   0.75946
  22   33922.6    294.8   0.026288450   0.25512  -0.08896  -0.47616   0.14311
  23   34420.1    290.5   0.076431356   0.73103  -0.00947  -0.33328   0.78732
  24   34657.2    288.5   0.055900227   0.53100   0.61355  -0.30645  -0.24626
  25   34964.1    286.0   0.085247725   0.80267   0.21463  -0.16282  -0.85445
  26   35469.6    281.9   0.255394327   2.37045  -0.95808   0.67221   1.00033
  27   35688.0    280.2   0.356919827   3.29249  -0.57335   0.82289  -1.51216
  28   36571.3    273.4   0.225581882   2.03067   0.84514  -0.31831  -1.10231
  29   37090.4    269.6   0.194214180   1.72383   0.42179   1.12535  -0.52869
  30   37240.6    268.5   0.542542980   4.79615  -1.01442   0.79596   1.77018
  31   37308.9    268.0   0.035249840   0.31104   0.18412   0.33756  -0.40398
  32   37544.6    266.3   0.008410200   0.07375   0.11984   0.18634  -0.15704
  33   37708.2    265.2   0.019923304   0.17394  -0.23506   0.31819  -0.13207
  34   38246.9    261.5   0.063937305   0.55034   0.08118  -0.40509  -0.61616
  35   38454.3    260.0   0.072105026   0.61730  -0.17636   0.72417   0.24854
  36   38536.5    259.5   0.031421750   0.26843   0.00825  -0.11855  -0.50429
  37   38575.4    259.2   0.038932169   0.33226   0.03420   0.17973   0.54661
  38   38788.1    257.8   0.129624061   1.10018  -0.90881   0.35182   0.38791
  39   39027.3    256.2   0.050947049   0.42976  -0.31189  -0.06180  -0.57329
  40   39667.7    252.1   0.028980436   0.24052  -0.43833  -0.02229   0.21883
  41   39970.6    250.2   0.083827952   0.69044  -0.04416   0.22745  -0.79797

FINAL SINGLE POINT ENERGY     -4650.887272692968

DIPOLE MOMENT
-------------
                                X             Y             Z
Electronic contribution:      6.94001      11.34503     -27.38951
Nuclear contribution   :     -6.06639     -13.19634      26.33251
                        -----------------------------------------
Total Dipole Moment    :      0.87362      -1.85131      -1.05700
                        -----------------------------------------
Magnitude (a.u.)       :      2.30387
Magnitude (Debye)      :      5.85597

Rotational constants in cm-1:     0.001998     0.000259     0.000235
Rotational constants in MHz :    59.892351     7.752177     7.034430

                             ****ORCA TERMINATED NORMALLY****
TOTAL RUN TIME: 0 days 1 hours 9 minutes 47 seconds 559 msec
