                         Program Version 4.2.0 -  RELEASE  -
|  1> # ORCA input file
|  2> # AQx.out
|  3> ! CAM-B3LYP def2-SVP def2/J RIJCOSX Grid4 TightSCF
|  4> %maxcore 5000
|  5> %tddft
|  6>     Mode sTDDFT
|  7>     Ethresh 5.0
|  8>     maxcore 5000
|  9> end
| 10> * xyz 0 1
| 11>    C        8.85689         2.86215         1.35253
| 12>    O        9.48754         1.82917         1.20864
| 13>    C        9.37919         4.12391         1.91845
| 14>    C       10.64834         4.39208         2.38985
| 15>    C       10.89516         5.66453         2.88014
| 16>    F       12.11180         5.96997         3.34821
| 17>    C        9.88796         6.62904         2.89062
| 18>    F       10.15350         7.84958         3.36992
| 19>    C        8.61254         6.35793         2.41622
| 20>    C        8.35741         5.08786         1.92416
| 21>    C        7.14375         4.48948         1.36313
| 22>    C        5.94378         5.13873         1.21856
| 23>    C        4.76296         4.58385         0.68292
| 24>    N        3.76293         4.20986         0.25758
| 25>    C        5.72000         6.47976         1.59632
| 26>    N        5.46915         7.56266         1.88238
| 27>    C        7.45879         3.12040         1.01409
| 28>    C        6.57594         2.22042         0.45829
| 29>    C        6.73383         0.88225         0.10002
| 30>    S        8.21676        -0.05410         0.30831
| 31>    C        7.43994        -1.44811        -0.33788
| 32>    C        6.10411        -1.18984        -0.70233
| 33>    C        5.69451         0.11176        -0.45989
| 34>    C        4.33357         0.61267        -0.81562
| 35>    C        4.35087         1.30958        -2.17919
| 36>    S        5.27473        -2.58746        -1.36506
| 37>    C        6.72038        -3.50759        -1.14522
| 38>    C        7.78210        -2.77546        -0.60139
| 39>    N        8.87384        -3.58448        -0.44475
| 40>    C       10.05125        -3.03974         0.19012
| 41>    C       10.92401        -2.27087        -0.80167
| 42>    C        8.54358        -4.84498        -0.90414
| 43>    C        7.17837        -4.81711        -1.32645
| 44>    C        6.45712        -5.95067        -1.78208
| 45>    N        5.17475        -5.85000        -2.15185
| 46>    C        4.55782        -6.94909        -2.53187
| 47>    C        3.12896        -6.81719        -2.94123
| 48>    C        5.22580        -8.20047        -2.54769
| 49>    C        4.53316        -9.45417        -2.96607
| 50>    N        6.48957        -8.30492        -2.19378
| 51>    C        7.12335        -7.19040        -1.80965
| 52>    C        8.49381        -7.21769        -1.44365
| 53>    C        9.24090        -6.07425        -1.02694
| 54>    N       10.55552        -6.46584        -0.84678
| 55>    C       11.75990        -5.76596        -0.46599
| 56>    C       12.06602        -5.94473         1.02135
| 57>    C       10.63572        -7.80686        -1.09846
| 58>    C        9.37864        -8.30265        -1.46339
| 59>    S        9.36516        -9.99615        -1.79864
| 60>    C       11.08047       -10.05181        -1.45345
| 61>    C       11.61333        -8.80032        -1.10520
| 62>    S       13.30249        -8.90207        -0.78733
| 63>    C       13.27949       -10.64145        -1.08709
| 64>    C       12.01269       -11.08959        -1.46066
| 65>    C       11.66537       -12.51557        -1.71998
| 66>    C       11.49862       -13.27082        -0.39855
| 67>    C       14.45664       -11.40689        -1.03915
| 68>    C       15.65610       -11.10040        -0.45743
| 69>    C       16.01643       -10.12002         0.53821
| 70>    C       15.21799        -9.67386         1.56034
| 71>    C       15.62324        -8.73648         2.52922
| 72>    N       15.88905        -7.94566         3.31821
| 73>    C       13.91828       -10.17350         1.78690
| 74>    N       12.88088       -10.60060         2.03044
| 75>    C       17.46205        -9.92033         0.44467
| 76>    C       18.29436        -8.99501         1.05159
| 77>    C       19.65424        -9.07774         0.79091
| 78>    F       20.47757        -8.18461         1.35206
| 79>    C       20.18028       -10.06441        -0.04328
| 80>    F       21.50025       -10.10956        -0.26273
| 81>    C       19.35237       -10.99591        -0.65034
| 82>    C       17.99730       -10.90776        -0.40164
| 83>    C       16.89798       -11.74526        -0.94197
| 84>    O       16.99054       -12.71224        -1.66255
| 85>    H       11.42350         3.64260         2.38024
| 86>    H        7.87140         7.13935         2.44771
| 87>    H        5.58214         2.59937         0.26411
| 88>    H        3.95839         1.30505        -0.06068
| 89>    H        3.65745        -0.24315        -0.86179
| 90>    H        5.01922         2.16720        -2.16588
| 91>    H        3.35182         1.65636        -2.42684
| 92>    H        4.68418         0.62063        -2.95181
| 93>    H       10.60065        -3.83274         0.68977
| 94>    H        9.70679        -2.34158         0.95972
| 95>    H       11.16476        -2.87563        -1.67417
| 96>    H       11.84610        -1.96109        -0.31843
| 97>    H       10.40165        -1.38058        -1.14138
| 98>    H        2.82827        -5.77703        -2.85551
| 99>    H        2.49294        -7.43084        -2.30495
|100>    H        2.99537        -7.14905        -3.96978
|101>    H        3.67815        -9.64930        -2.32045
|102>    H        5.23005       -10.28488        -2.90234
|103>    H        4.16868        -9.36514        -3.98840
|104>    H       11.68512        -4.71867        -0.74352
|105>    H       12.57940        -6.20217        -1.04716
|106>    H       11.22743        -5.63187         1.64023
|107>    H       12.94227        -5.36335         1.29357
|108>    H       12.26742        -6.99063         1.23943
|109>    H       12.44641       -12.99225        -2.31573
|110>    H       10.72891       -12.54985        -2.27979
|111>    H       12.42260       -13.24629         0.17403
|112>    H       11.23177       -14.30610        -0.59272
|113>    H       10.71491       -12.81374         0.19987
|114>    H       14.45083       -12.32446        -1.61973
|115>    H       17.92977        -8.21612         1.70143
|116>    H       19.75961       -11.75952        -1.29367
|117> *
|118>
|119>                          ****END OF INPUT****

CARTESIAN COORDINATES (ANGSTROEM)
---------------------------------
  C      8.856890    2.862150    1.352530
  O      9.487540    1.829170    1.208640
  C      9.379190    4.123910    1.918450
  C     10.648340    4.392080    2.389850
  C     10.895160    5.664530    2.880140
  F     12.111800    5.969970    3.348210
  C      9.887960    6.629040    2.890620
  F     10.153500    7.849580    3.369920
  C      8.612540    6.357930    2.416220
  C      8.357410    5.087860    1.924160
  C      7.143750    4.489480    1.363130
  C      5.943780    5.138730    1.218560
  C      4.762960    4.583850    0.682920
  N      3.762930    4.209860    0.257580
  C      5.720000    6.479760    1.596320
  N      5.469150    7.562660    1.882380
  C      7.458790    3.120400    1.014090
  C      6.575940    2.220420    0.458290
  C      6.733830    0.882250    0.100020
  S      8.216760   -0.054100    0.308310
  C      7.439940   -1.448110   -0.337880
  C      6.104110   -1.189840   -0.702330
  C      5.694510    0.111760   -0.459890
  C      4.333570    0.612670   -0.815620
  C      4.350870    1.309580   -2.179190
  S      5.274730   -2.587460   -1.365060
  C      6.720380   -3.507590   -1.145220
  C      7.782100   -2.775460   -0.601390
  N      8.873840   -3.584480   -0.444750
  C     10.051250   -3.039740    0.190120
  C     10.924010   -2.270870   -0.801670
  C      8.543580   -4.844980   -0.904140
  C      7.178370   -4.817110   -1.326450
  C      6.457120   -5.950670   -1.782080
  N      5.174750   -5.850000   -2.151850
  C      4.557820   -6.949090   -2.531870
  C      3.128960   -6.817190   -2.941230
  C      5.225800   -8.200470   -2.547690
  C      4.533160   -9.454170   -2.966070
  N      6.489570   -8.304920   -2.193780
  C      7.123350   -7.190400   -1.809650
  C      8.493810   -7.217690   -1.443650
  C      9.240900   -6.074250   -1.026940
  N     10.555520   -6.465840   -0.846780
  C     11.759900   -5.765960   -0.465990
  C     12.066020   -5.944730    1.021350
  C     10.635720   -7.806860   -1.098460
  C      9.378640   -8.302650   -1.463390
  S      9.365160   -9.996150   -1.798640
  C     11.080470  -10.051810   -1.453450
  C     11.613330   -8.800320   -1.105200
  S     13.302490   -8.902070   -0.787330
  C     13.279490  -10.641450   -1.087090
  C     12.012690  -11.089590   -1.460660
  C     11.665370  -12.515570   -1.719980
  C     11.498620  -13.270820   -0.398550
  C     14.456640  -11.406890   -1.039150
  C     15.656100  -11.100400   -0.457430
  C     16.016430  -10.120020    0.538210
  C     15.217990   -9.673860    1.560340
  C     15.623240   -8.736480    2.529220
  N     15.889050   -7.945660    3.318210
  C     13.918280  -10.173500    1.786900
  N     12.880880  -10.600600    2.030440
  C     17.462050   -9.920330    0.444670
  C     18.294360   -8.995010    1.051590
  C     19.654240   -9.077740    0.790910
  F     20.477570   -8.184610    1.352060
  C     20.180280  -10.064410   -0.043280
  F     21.500250  -10.109560   -0.262730
  C     19.352370  -10.995910   -0.650340
  C     17.997300  -10.907760   -0.401640
  C     16.897980  -11.745260   -0.941970
  O     16.990540  -12.712240   -1.662550
  H     11.423500    3.642600    2.380240
  H      7.871400    7.139350    2.447710
  H      5.582140    2.599370    0.264110
  H      3.958390    1.305050   -0.060680
  H      3.657450   -0.243150   -0.861790
  H      5.019220    2.167200   -2.165880
  H      3.351820    1.656360   -2.426840
  H      4.684180    0.620630   -2.951810
  H     10.600650   -3.832740    0.689770
  H      9.706790   -2.341580    0.959720
  H     11.164760   -2.875630   -1.674170
  H     11.846100   -1.961090   -0.318430
  H     10.401650   -1.380580   -1.141380
  H      2.828270   -5.777030   -2.855510
  H      2.492940   -7.430840   -2.304950
  H      2.995370   -7.149050   -3.969780
  H      3.678150   -9.649300   -2.320450
  H      5.230050  -10.284880   -2.902340
  H      4.168680   -9.365140   -3.988400
  H     11.685120   -4.718670   -0.743520
  H     12.579400   -6.202170   -1.047160
  H     11.227430   -5.631870    1.640230
  H     12.942270   -5.363350    1.293570
  H     12.267420   -6.990630    1.239430
  H     12.446410  -12.992250   -2.315730
  H     10.728910  -12.549850   -2.279790
  H     12.422600  -13.246290    0.174030
  H     11.231770  -14.306100   -0.592720
  H     10.714910  -12.813740    0.199870
  H     14.450830  -12.324460   -1.619730
  H     17.929770   -8.216120    1.701430
  H     19.759610  -11.759520   -1.293670

 Total Charge           Charge          ....    0
 Multiplicity           Mult            ....    1
 Number of Electrons    NEL             ....  540
 Basis Dimension        Dim             .... 1212

ORBITAL ENERGIES
----------------

  NO   OCC          E(Eh)            E(eV)
   0   2.0000     -88.974764     -2421.1264
   1   2.0000     -88.968274     -2420.9498
   2   2.0000     -88.967137     -2420.9189
   3   2.0000     -88.963710     -2420.8256
   4   2.0000     -24.801681      -674.8881
   5   2.0000     -24.801539      -674.8842
   6   2.0000     -24.801330      -674.8785
   7   2.0000     -24.799447      -674.8273
   8   2.0000     -19.223744      -523.1047
   9   2.0000     -19.217276      -522.9287
  10   2.0000     -14.486420      -394.1955
  11   2.0000     -14.485370      -394.1670
  12   2.0000     -14.420873      -392.4119
  13   2.0000     -14.419346      -392.3704
  14   2.0000     -14.418377      -392.3440
  15   2.0000     -14.418134      -392.3374
  16   2.0000     -14.415077      -392.2542
  17   2.0000     -14.414050      -392.2262
  18   2.0000     -10.387296      -282.6527
  19   2.0000     -10.386330      -282.6264
  20   2.0000     -10.385820      -282.6125
  21   2.0000     -10.385157      -282.5945
  22   2.0000     -10.372882      -282.2605
  23   2.0000     -10.369625      -282.1718
  24   2.0000     -10.344977      -281.5011
  25   2.0000     -10.344353      -281.4842
  26   2.0000     -10.344158      -281.4788
  27   2.0000     -10.342755      -281.4407
  28   2.0000     -10.342250      -281.4269
  29   2.0000     -10.342177      -281.4250
  30   2.0000     -10.337676      -281.3025
  31   2.0000     -10.335382      -281.2400
  32   2.0000     -10.326642      -281.0022
  33   2.0000     -10.324244      -280.9370
  34   2.0000     -10.324230      -280.9366
  35   2.0000     -10.323369      -280.9131
  36   2.0000     -10.322709      -280.8952
  37   2.0000     -10.322151      -280.8800
  38   2.0000     -10.321580      -280.8645
  39   2.0000     -10.318005      -280.7672
  40   2.0000     -10.317957      -280.7659
  41   2.0000     -10.317604      -280.7563
  42   2.0000     -10.317525      -280.7541
  43   2.0000     -10.317489      -280.7531
  44   2.0000     -10.317212      -280.7456
  45   2.0000     -10.316449      -280.7249
  46   2.0000     -10.315704      -280.7046
  47   2.0000     -10.315478      -280.6984
  48   2.0000     -10.313546      -280.6459
  49   2.0000     -10.313236      -280.6374
  50   2.0000     -10.312856      -280.6271
  51   2.0000     -10.310601      -280.5657
  52   2.0000     -10.309996      -280.5493
  53   2.0000     -10.309752      -280.5426
  54   2.0000     -10.309521      -280.5363
  55   2.0000     -10.309116      -280.5253
  56   2.0000     -10.307693      -280.4866
  57   2.0000     -10.306638      -280.4579
  58   2.0000     -10.306289      -280.4484
  59   2.0000     -10.305383      -280.4237
  60   2.0000     -10.303079      -280.3610
  61   2.0000     -10.301832      -280.3271
  62   2.0000     -10.294647      -280.1316
  63   2.0000     -10.294488      -280.1273
  64   2.0000     -10.289078      -279.9800
  65   2.0000     -10.288638      -279.9681
  66   2.0000     -10.288407      -279.9618
  67   2.0000     -10.283781      -279.8359
  68   2.0000     -10.283691      -279.8335
  69   2.0000     -10.283142      -279.8185
  70   2.0000     -10.269309      -279.4421
  71   2.0000     -10.269026      -279.4344
  72   2.0000     -10.264658      -279.3156
  73   2.0000     -10.264574      -279.3133
  74   2.0000      -8.068706      -219.5607
  75   2.0000      -8.061017      -219.3514
  76   2.0000      -8.060704      -219.3429
  77   2.0000      -8.057652      -219.2599
  78   2.0000      -6.038420      -164.3138
  79   2.0000      -6.034327      -164.2024
  80   2.0000      -6.030882      -164.1086
  81   2.0000      -6.030567      -164.1001
  82   2.0000      -6.030129      -164.0882
  83   2.0000      -6.027555      -164.0181
  84   2.0000      -6.026861      -163.9992
  85   2.0000      -6.025917      -163.9735
  86   2.0000      -6.023530      -163.9086
  87   2.0000      -6.022290      -163.8748
  88   2.0000      -6.022047      -163.8682
  89   2.0000      -6.018596      -163.7743
  90   2.0000      -1.325206       -36.0607
  91   2.0000      -1.323967       -36.0270
  92   2.0000      -1.309981       -35.6464
  93   2.0000      -1.308758       -35.6131
  94   2.0000      -1.139341       -31.0030
  95   2.0000      -1.132669       -30.8215
  96   2.0000      -1.116511       -30.3818
  97   2.0000      -1.104760       -30.0620
  98   2.0000      -1.076511       -29.2933
  99   2.0000      -1.024846       -27.8875
 100   2.0000      -1.022510       -27.8239
 101   2.0000      -1.016067       -27.6486
 102   2.0000      -1.012542       -27.5527
 103   2.0000      -1.004783       -27.3415
 104   2.0000      -1.003682       -27.3116
 105   2.0000      -1.000640       -27.2288
 106   2.0000      -0.995592       -27.0914
 107   2.0000      -0.995486       -27.0886
 108   2.0000      -0.968870       -26.3643
 109   2.0000      -0.963443       -26.2166
 110   2.0000      -0.959079       -26.0979
 111   2.0000      -0.953260       -25.9395
 112   2.0000      -0.945769       -25.7357
 113   2.0000      -0.915381       -24.9088
 114   2.0000      -0.906096       -24.6561
 115   2.0000      -0.903382       -24.5823
 116   2.0000      -0.902736       -24.5647
 117   2.0000      -0.902057       -24.5462
 118   2.0000      -0.898532       -24.4503
 119   2.0000      -0.884389       -24.0654
 120   2.0000      -0.880000       -23.9460
 121   2.0000      -0.875522       -23.8242
 122   2.0000      -0.874323       -23.7915
 123   2.0000      -0.869664       -23.6648
 124   2.0000      -0.852207       -23.1897
 125   2.0000      -0.844614       -22.9831
 126   2.0000      -0.835360       -22.7313
 127   2.0000      -0.826718       -22.4961
 128   2.0000      -0.819753       -22.3066
 129   2.0000      -0.810829       -22.0638
 130   2.0000      -0.808788       -22.0082
 131   2.0000      -0.800882       -21.7931
 132   2.0000      -0.796317       -21.6689
 133   2.0000      -0.792506       -21.5652
 134   2.0000      -0.775081       -21.0910
 135   2.0000      -0.773779       -21.0556
 136   2.0000      -0.763736       -20.7823
 137   2.0000      -0.758230       -20.6325
 138   2.0000      -0.746565       -20.3151
 139   2.0000      -0.736142       -20.0314
 140   2.0000      -0.731138       -19.8953
 141   2.0000      -0.723202       -19.6793
 142   2.0000      -0.718408       -19.5489
 143   2.0000      -0.717472       -19.5234
 144   2.0000      -0.712369       -19.3845
 145   2.0000      -0.708954       -19.2916
 146   2.0000      -0.706192       -19.2165
 147   2.0000      -0.698647       -19.0111
 148   2.0000      -0.691116       -18.8062
 149   2.0000      -0.685127       -18.6432
 150   2.0000      -0.680755       -18.5243
 151   2.0000      -0.673226       -18.3194
 152   2.0000      -0.659650       -17.9500
 153   2.0000      -0.656085       -17.8530
 154   2.0000      -0.651348       -17.7241
 155   2.0000      -0.644181       -17.5290
 156   2.0000      -0.643260       -17.5040
 157   2.0000      -0.641326       -17.4514
 158   2.0000      -0.635860       -17.3026
 159   2.0000      -0.631709       -17.1897
 160   2.0000      -0.622744       -16.9457
 161   2.0000      -0.622190       -16.9307
 162   2.0000      -0.619965       -16.8701
 163   2.0000      -0.612155       -16.6576
 164   2.0000      -0.608067       -16.5463
 165   2.0000      -0.601103       -16.3568
 166   2.0000      -0.594267       -16.1708
 167   2.0000      -0.592451       -16.1214
 168   2.0000      -0.591643       -16.0994
 169   2.0000      -0.590177       -16.0595
 170   2.0000      -0.589148       -16.0315
 171   2.0000      -0.586613       -15.9626
 172   2.0000      -0.584999       -15.9186
 173   2.0000      -0.574501       -15.6330
 174   2.0000      -0.568616       -15.4728
 175   2.0000      -0.565114       -15.3775
 176   2.0000      -0.557967       -15.1831
 177   2.0000      -0.556063       -15.1312
 178   2.0000      -0.553254       -15.0548
 179   2.0000      -0.551949       -15.0193
 180   2.0000      -0.550269       -14.9736
 181   2.0000      -0.550073       -14.9683
 182   2.0000      -0.549031       -14.9399
 183   2.0000      -0.547338       -14.8938
 184   2.0000      -0.546023       -14.8580
 185   2.0000      -0.541510       -14.7352
 186   2.0000      -0.540673       -14.7125
 187   2.0000      -0.536751       -14.6057
 188   2.0000      -0.536305       -14.5936
 189   2.0000      -0.534014       -14.5313
 190   2.0000      -0.530867       -14.4456
 191   2.0000      -0.528313       -14.3761
 192   2.0000      -0.526834       -14.3359
 193   2.0000      -0.524310       -14.2672
 194   2.0000      -0.520116       -14.1531
 195   2.0000      -0.517186       -14.0733
 196   2.0000      -0.512222       -13.9383
 197   2.0000      -0.510277       -13.8853
 198   2.0000      -0.509040       -13.8517
 199   2.0000      -0.505944       -13.7674
 200   2.0000      -0.501549       -13.6479
 201   2.0000      -0.500318       -13.6143
 202   2.0000      -0.498125       -13.5547
 203   2.0000      -0.496918       -13.5218
 204   2.0000      -0.496037       -13.4978
 205   2.0000      -0.495840       -13.4925
 206   2.0000      -0.491875       -13.3846
 207   2.0000      -0.490989       -13.3605
 208   2.0000      -0.489978       -13.3330
 209   2.0000      -0.485756       -13.2181
 210   2.0000      -0.482489       -13.1292
 211   2.0000      -0.481022       -13.0893
 212   2.0000      -0.480853       -13.0847
 213   2.0000      -0.477679       -12.9983
 214   2.0000      -0.476822       -12.9750
 215   2.0000      -0.474999       -12.9254
 216   2.0000      -0.472145       -12.8477
 217   2.0000      -0.468923       -12.7600
 218   2.0000      -0.468108       -12.7379
 219   2.0000      -0.463484       -12.6120
 220   2.0000      -0.460489       -12.5305
 221   2.0000      -0.459013       -12.4904
 222   2.0000      -0.458341       -12.4721
 223   2.0000      -0.457619       -12.4524
 224   2.0000      -0.457156       -12.4399
 225   2.0000      -0.455185       -12.3862
 226   2.0000      -0.453989       -12.3537
 227   2.0000      -0.453110       -12.3298
 228   2.0000      -0.452171       -12.3042
 229   2.0000      -0.450302       -12.2533
 230   2.0000      -0.447202       -12.1690
 231   2.0000      -0.444867       -12.1054
 232   2.0000      -0.444266       -12.0891
 233   2.0000      -0.444106       -12.0847
 234   2.0000      -0.438484       -11.9318
 235   2.0000      -0.432343       -11.7647
 236   2.0000      -0.431152       -11.7322
 237   2.0000      -0.430387       -11.7114
 238   2.0000      -0.430172       -11.7056
 239   2.0000      -0.427477       -11.6322
 240   2.0000      -0.426110       -11.5950
 241   2.0000      -0.425427       -11.5765
 242   2.0000      -0.422066       -11.4850
 243   2.0000      -0.421367       -11.4660
 244   2.0000      -0.420610       -11.4454
 245   2.0000      -0.412484       -11.2243
 246   2.0000      -0.410663       -11.1747
 247   2.0000      -0.410175       -11.1614
 248   2.0000      -0.404761       -11.0141
 249   2.0000      -0.403426       -10.9778
 250   2.0000      -0.395418       -10.7599
 251   2.0000      -0.387927       -10.5560
 252   2.0000      -0.379993       -10.3401
 253   2.0000      -0.371525       -10.1097
 254   2.0000      -0.363399        -9.8886
 255   2.0000      -0.352144        -9.5823
 256   2.0000      -0.350469        -9.5367
 257   2.0000      -0.346653        -9.4329
 258   2.0000      -0.340042        -9.2530
 259   2.0000      -0.339384        -9.2351
 260   2.0000      -0.338340        -9.2067
 261   2.0000      -0.322006        -8.7622
 262   2.0000      -0.321458        -8.7473
 263   2.0000      -0.316202        -8.6043
 264   2.0000      -0.311639        -8.4801
 265   2.0000      -0.306796        -8.3483
 266   2.0000      -0.289487        -7.8774
 267   2.0000      -0.277106        -7.5404
 268   2.0000      -0.269149        -7.3239
 269   2.0000      -0.241188        -6.5631
 270   0.0000      -0.099940        -2.7195
 271   0.0000      -0.088597        -2.4108
 272   0.0000      -0.066076        -1.7980
 273   0.0000      -0.061398        -1.6707
 274   0.0000      -0.031982        -0.8703

MULLIKEN ATOMIC CHARGES
-----------------------
   0 C :    0.153742
   1 O :   -0.181317
   2 C :   -0.001096
   3 C :   -0.109692
   4 C :    0.234807
   5 F :   -0.170119
   6 C :    0.235729
   7 F :   -0.165566
   8 C :   -0.094703
   9 C :    0.040190
  10 C :    0.321600
  11 C :   -0.367190
  12 C :   -0.178092
  13 N :    0.140835
  14 C :   -0.193817
  15 N :    0.156761
  16 C :   -0.105779
  17 C :   -0.033690
  18 C :   -0.089470
  19 S :    0.174838
  20 C :   -0.028282
  21 C :   -0.083629
  22 C :   -0.062708
  23 C :    0.052584
  24 C :    0.032992
  25 S :    0.187930
  26 C :   -0.095828
  27 C :    0.034144
  28 N :   -0.158024
  29 C :    0.083360
  30 C :    0.013772
  31 C :    0.055999
  32 C :   -0.040743
  33 C :   -0.067138
  34 N :    0.012133
  35 C :   -0.175184
  36 C :    0.131961
  37 C :   -0.172169
  38 C :    0.131854
  39 N :    0.010175
  40 C :   -0.073805
  41 C :   -0.040360
  42 C :    0.062174
  43 N :   -0.159807
  44 C :    0.086193
  45 C :    0.008364
  46 C :    0.036527
  47 C :   -0.094137
  48 S :    0.195628
  49 C :   -0.100340
  50 C :   -0.035052
  51 S :    0.137330
  52 C :   -0.142392
  53 C :   -0.015117
  54 C :    0.059298
  55 C :    0.027752
  56 C :    0.024459
  57 C :   -0.143978
  58 C :    0.244472
  59 C :   -0.328453
  60 C :   -0.179566
  61 N :    0.148400
  62 C :   -0.198901
  63 N :    0.165477
  64 C :    0.028878
  65 C :   -0.090772
  66 C :    0.236675
  67 F :   -0.167390
  68 C :    0.233566
  69 F :   -0.170515
  70 C :   -0.104503
  71 C :    0.007069
  72 C :    0.138746
  73 O :   -0.144253
  74 H :    0.008730
  75 H :    0.016998
  76 H :   -0.016956
  77 H :    0.037909
  78 H :    0.013239
  79 H :    0.014734
  80 H :    0.033065
  81 H :    0.014068
  82 H :    0.009607
  83 H :    0.040468
  84 H :    0.033802
  85 H :    0.031478
  86 H :    0.031427
  87 H :    0.024432
  88 H :    0.024466
  89 H :    0.023087
  90 H :    0.024668
  91 H :    0.024267
  92 H :    0.022678
  93 H :    0.007267
  94 H :    0.030780
  95 H :    0.039528
  96 H :    0.035122
  97 H :    0.035028
  98 H :    0.022584
  99 H :    0.011737
 100 H :    0.027198
 101 H :    0.022160
 102 H :    0.028546
 103 H :    0.018781
 104 H :    0.014155
 105 H :    0.012102
Sum of atomic charges:   -0.0000000

LOEWDIN ATOMIC CHARGES
----------------------
   0 C :    0.082684
   1 O :   -0.171365
   2 C :   -0.043866
   3 C :   -0.008262
   4 C :    0.069278
   5 F :   -0.046923
   6 C :    0.072162
   7 F :   -0.044458
   8 C :   -0.018106
   9 C :   -0.014376
  10 C :    0.078841
  11 C :   -0.148976
  12 C :   -0.017566
  13 N :   -0.058987
  14 C :   -0.020881
  15 N :   -0.053825
  16 C :   -0.127273
  17 C :    0.056036
  18 C :   -0.190677
  19 S :    0.476601
  20 C :   -0.192766
  21 C :   -0.197283
  22 C :   -0.007357
  23 C :   -0.030509
  24 C :   -0.041512
  25 S :    0.422830
  26 C :   -0.164535
  27 C :   -0.044341
  28 N :    0.042596
  29 C :    0.036521
  30 C :   -0.062692
  31 C :    0.012972
  32 C :   -0.068596
  33 C :   -0.018653
  34 N :   -0.055183
  35 C :   -0.007604
  36 C :   -0.052496
  37 C :   -0.007455
  38 C :   -0.052659
  39 N :   -0.055861
  40 C :   -0.019000
  41 C :   -0.067629
  42 C :    0.013165
  43 N :    0.041272
  44 C :    0.035777
  45 C :   -0.062082
  46 C :   -0.040069
  47 C :   -0.166517
  48 S :    0.434793
  49 C :   -0.196376
  50 C :   -0.182945
  51 S :    0.444605
  52 C :   -0.189661
  53 C :   -0.002505
  54 C :   -0.028161
  55 C :   -0.040902
  56 C :    0.054221
  57 C :   -0.118238
  58 C :    0.059769
  59 C :   -0.150885
  60 C :   -0.022642
  61 N :   -0.055844
  62 C :   -0.035310
  63 N :   -0.054003
  64 C :   -0.012087
  65 C :   -0.022824
  66 C :    0.072996
  67 F :   -0.045163
  68 C :    0.068368
  69 F :   -0.047064
  70 C :   -0.005847
  71 C :   -0.045857
  72 C :    0.082030
  73 O :   -0.145466
  74 H :    0.050461
  75 H :    0.051560
  76 H :    0.047376
  77 H :    0.037833
  78 H :    0.031339
  79 H :    0.024200
  80 H :    0.032735
  81 H :    0.025205
  82 H :    0.027660
  83 H :    0.032132
  84 H :    0.025286
  85 H :    0.035127
  86 H :    0.027980
  87 H :    0.037636
  88 H :    0.037076
  89 H :    0.036594
  90 H :    0.037154
  91 H :    0.037499
  92 H :    0.036553
  93 H :    0.027948
  94 H :    0.028485
  95 H :    0.027849
  96 H :    0.035997
  97 H :    0.029705
  98 H :    0.035163
  99 H :    0.030005
 100 H :    0.028427
 101 H :    0.027287
 102 H :    0.031700
 103 H :    0.048344
 104 H :    0.050202
 105 H :    0.052085

  Mayer bond orders larger than 0.100000
B(  0-C ,  1-O ) :   2.1350 B(  0-C ,  2-C ) :   0.9668 B(  0-C , 16-C ) :   0.9846
B(  2-C ,  3-C ) :   1.3208 B(  2-C ,  9-C ) :   1.3450 B(  3-C ,  4-C ) :   1.3098
B(  3-C ,  8-C ) :   0.1049 B(  3-C , 74-H ) :   1.0211 B(  4-C ,  5-F ) :   1.1296
B(  4-C ,  6-C ) :   1.2962 B(  6-C ,  7-F ) :   1.1454 B(  6-C ,  8-C ) :   1.3293
B(  8-C ,  9-C ) :   1.3179 B(  8-C , 75-H ) :   0.9921 B(  9-C , 10-C ) :   0.9961
B( 10-C , 11-C ) :   1.6082 B( 10-C , 16-C ) :   1.1069 B( 11-C , 12-C ) :   1.1539
B( 11-C , 14-C ) :   1.1477 B( 12-C , 13-N ) :   2.9570 B( 14-C , 15-N ) :   2.9761
B( 16-C , 17-C ) :   1.4588 B( 17-C , 18-C ) :   1.3280 B( 17-C , 76-H ) :   0.9268
B( 18-C , 19-S ) :   1.0332 B( 18-C , 22-C ) :   1.3500 B( 19-S , 20-C ) :   1.0278
B( 20-C , 21-C ) :   1.3872 B( 20-C , 27-C ) :   1.2908 B( 21-C , 22-C ) :   1.4358
B( 21-C , 25-S ) :   1.0099 B( 22-C , 23-C ) :   1.0761 B( 23-C , 24-C ) :   1.1040
B( 23-C , 77-H ) :   0.9047 B( 23-C , 78-H ) :   0.9220 B( 24-C , 79-H ) :   0.9697
B( 24-C , 80-H ) :   0.9666 B( 24-C , 81-H ) :   0.9663 B( 25-S , 26-C ) :   1.0271
B( 26-C , 27-C ) :   1.4058 B( 26-C , 32-C ) :   1.3461 B( 27-C , 28-N ) :   1.1411
B( 27-C , 31-C ) :   0.1053 B( 28-N , 29-C ) :   0.9491 B( 28-N , 31-C ) :   1.1813
B( 29-C , 30-C ) :   1.1054 B( 29-C , 82-H ) :   0.9459 B( 29-C , 83-H ) :   0.9371
B( 30-C , 84-H ) :   0.9575 B( 30-C , 85-H ) :   0.9665 B( 30-C , 86-H ) :   0.9521
B( 31-C , 32-C ) :   1.3557 B( 31-C , 42-C ) :   1.1564 B( 32-C , 33-C ) :   1.1053
B( 32-C , 41-C ) :   0.1285 B( 33-C , 34-N ) :   1.5523 B( 33-C , 40-C ) :   1.2506
B( 34-N , 35-C ) :   1.6339 B( 35-C , 36-C ) :   1.0959 B( 35-C , 37-C ) :   1.2298
B( 36-C , 87-H ) :   0.9412 B( 36-C , 88-H ) :   0.9412 B( 36-C , 89-H ) :   0.9418
B( 37-C , 38-C ) :   1.0964 B( 37-C , 39-N ) :   1.6333 B( 38-C , 90-H ) :   0.9416
B( 38-C , 91-H ) :   0.9410 B( 38-C , 92-H ) :   0.9411 B( 39-N , 40-C ) :   1.5518
B( 40-C , 41-C ) :   1.1066 B( 41-C , 42-C ) :   1.3622 B( 41-C , 47-C ) :   1.3386
B( 42-C , 43-N ) :   1.1722 B( 42-C , 46-C ) :   0.1051 B( 43-N , 44-C ) :   0.9515
B( 43-N , 46-C ) :   1.1443 B( 44-C , 45-C ) :   1.1012 B( 44-C , 93-H ) :   0.9448
B( 44-C , 94-H ) :   0.9379 B( 45-C , 95-H ) :   0.9568 B( 45-C , 96-H ) :   0.9669
B( 45-C , 97-H ) :   0.9538 B( 46-C , 47-C ) :   1.4030 B( 46-C , 50-C ) :   1.3005
B( 47-C , 48-S ) :   1.0348 B( 48-S , 49-C ) :   1.0195 B( 49-C , 50-C ) :   1.4248
B( 49-C , 53-C ) :   1.3841 B( 50-C , 51-S ) :   1.0619 B( 51-S , 52-C ) :   1.0450
B( 52-C , 53-C ) :   1.4120 B( 52-C , 56-C ) :   1.2095 B( 53-C , 54-C ) :   1.0905
B( 54-C , 55-C ) :   1.1011 B( 54-C , 98-H ) :   0.9077 B( 54-C , 99-H ) :   0.9210
B( 55-C ,100-H ) :   0.9689 B( 55-C ,101-H ) :   0.9665 B( 55-C ,102-H ) :   0.9670
B( 56-C , 57-C ) :   1.5816 B( 56-C ,103-H ) :   0.9382 B( 57-C , 58-C ) :   1.0599
B( 57-C , 72-C ) :   0.9593 B( 58-C , 59-C ) :   1.6343 B( 58-C , 64-C ) :   1.0198
B( 59-C , 60-C ) :   1.1329 B( 59-C , 62-C ) :   1.1610 B( 60-C , 61-N ) :   2.9906
B( 62-C , 63-N ) :   2.9954 B( 64-C , 65-C ) :   1.3222 B( 64-C , 71-C ) :   1.3451
B( 65-C , 66-C ) :   1.3306 B( 65-C , 70-C ) :   0.1049 B( 65-C ,104-H ) :   0.9959
B( 66-C , 67-F ) :   1.1403 B( 66-C , 68-C ) :   1.2942 B( 68-C , 69-F ) :   1.1296
B( 68-C , 70-C ) :   1.3185 B( 70-C , 71-C ) :   1.3260 B( 70-C ,105-H ) :   1.0198
B( 71-C , 72-C ) :   0.9263 B( 72-C , 73-O ) :   2.2624

-----------------------------------------------------------------------------
         ABSORPTION SPECTRUM VIA TRANSITION ELECTRIC DIPOLE MOMENTS
-----------------------------------------------------------------------------
State   Energy  Wavelength   fosc         T2         TX        TY        TZ
        (cm-1)    (nm)                  (au**2)     (au)      (au)      (au)
-----------------------------------------------------------------------------
   0   15991.8    625.3   1.555504182  32.02201  -3.30351   4.59389  -0.07094
   1   19421.3    514.9   0.950339615  16.10928   1.40181   3.31973   1.76736
   2   22249.4    449.4   0.071303651   1.05504  -0.96048  -0.29376  -0.21498
   3   23711.6    421.7   0.131519297   1.82602   0.33446   1.19327   0.53876
   4   23981.1    417.0   0.053825921   0.73892   0.68177  -0.46136   0.24748
   5   25057.4    399.1   0.254660010   3.34580  -1.72986   0.59379  -0.02814
   6   25613.3    390.4   0.261718606   3.36391  -0.99534  -1.20832  -0.95560
   7   27983.4    357.4   0.029708867   0.34951   0.57467  -0.13565  -0.02931
   8   28338.6    352.9   0.004702167   0.05463   0.02273  -0.02230   0.23154
   9   28991.3    344.9   0.023723630   0.26939   0.34175   0.38979   0.02576
  10   29516.8    338.8   0.055298475   0.61676  -0.50895   0.58899   0.10405
  11   29871.6    334.8   0.165977323   1.82922  -1.32570   0.02419   0.26675
  12   30352.5    329.5   0.001081791   0.01173   0.07939   0.05758  -0.04599
  13   31107.5    321.5   0.042140539   0.44597  -0.61875   0.21888  -0.12334
  14   31818.6    314.3   0.027543763   0.28498  -0.46502   0.03872   0.25930
  15   31888.7    313.6   0.145238912   1.49942   0.92293   0.71822   0.36300
  16   32228.9    310.3   0.000576084   0.00588   0.00847  -0.03669  -0.06683
  17   32364.5    309.0   0.146298810   1.48815   1.04474  -0.53470  -0.33282
  18   32608.9    306.7   0.048569371   0.49034  -0.61955  -0.31811   0.07282
  19   33060.9    302.5   0.383146257   3.81527  -1.77845  -0.59189  -0.54958
  20   33229.3    300.9   0.040676830   0.40300   0.38769  -0.43705  -0.24834
  21   33582.2    297.8   0.005026104   0.04927  -0.13349  -0.01384   0.17681
  22   33692.5    296.8   0.012141914   0.11864   0.18388   0.29108   0.01009
  23   33976.7    294.3   0.020858597   0.20211  -0.01325   0.33261   0.30216
  24   34258.9    291.9   0.048925435   0.47015  -0.65046  -0.21671  -0.00958
  25   34762.6    287.7   0.045586590   0.43172  -0.38515   0.49910  -0.18513
  26   35774.4    279.5   0.166965002   1.53648  -0.13698  -1.10226  -0.55022
  27   35926.0    278.3   0.350815310   3.21473  -1.67827   0.58350   0.24013
  28   36715.2    272.4   0.077948646   0.69894   0.73569   0.30220   0.25763
  29   36747.3    272.1   0.122381785   1.09640   0.61742  -0.83539  -0.13156
  30   36993.3    270.3   0.527184370   4.69154  -2.12771   0.19506  -0.35542
  31   37038.5    270.0   0.066214768   0.58854  -0.14062  -0.24425   0.71352
  32   37197.3    268.8   0.001820642   0.01611   0.05309  -0.02003   0.11355
  33   37552.2    266.3   0.002444030   0.02143  -0.11787  -0.04262  -0.07560
  34   37852.7    264.2   0.001836240   0.01597   0.09326  -0.01372  -0.08417
  35   38131.9    262.2   0.226221082   1.95308   0.84890  -0.73923  -0.82824
  36   38327.3    260.9   0.143211687   1.23012  -0.71472   0.67950   0.50752
  37   38765.1    258.0   0.120265610   1.02135   0.45118  -0.90222  -0.06152
  38   39031.1    256.2   0.038367729   0.32362  -0.12628   0.01791  -0.55439
  39   39404.4    253.8   0.005401914   0.04513  -0.05430  -0.20515   0.00984
  40   39829.1    251.1   0.051449342   0.42526  -0.60516   0.24204  -0.02130

FINAL SINGLE POINT ENERGY     -4729.428678882609

DIPOLE MOMENT
-------------
                                X             Y             Z
Electronic contribution:     60.17131      40.96944      28.44883
Nuclear contribution   :    -60.31050     -43.16268     -30.49310
                        -----------------------------------------
Total Dipole Moment    :     -0.13919      -2.19323      -2.04428
                        -----------------------------------------
Magnitude (a.u.)       :      3.00145
Magnitude (Debye)      :      7.62908

Rotational constants in cm-1:     0.001089     0.000336     0.000262
Rotational constants in MHz :    32.661377    10.062791     7.849287

                             ****ORCA TERMINATED NORMALLY****
TOTAL RUN TIME: 0 days 1 hours 20 minutes 19 seconds 171 msec
