                         Program Version 4.2.0 -  RELEASE  -
|  1> # ORCA input file
|  2> # AQx.out: Geometry 24
|  3> ! CAM-B3LYP def2-SVP def2/J RIJCOSX Grid4 TightSCF
|  4> %maxcore 5000
|  5> %tddft
|  6>     Mode sTDDFT
|  7>     Ethresh 5.0
|  8>     maxcore 5000
|  9> end
| 10> * xyz 0 1
| 11>    C        8.63700         2.72312         1.86103
| 12>    O        9.11167         1.60930         2.01041
| 13>    C        9.06700         3.93391         2.59534
| 14>    C       10.04815         4.01662         3.57467
| 15>    C       10.29866         5.26681         4.12638
| 16>    F       11.22362         5.41378         5.07138
| 17>    C        9.57537         6.39234         3.69130
| 18>    F        9.84642         7.57182         4.24341
| 19>    C        8.59093         6.30287         2.70914
| 20>    C        8.32617         5.04457         2.15226
| 21>    C        7.36196         4.58632         1.11554
| 22>    C        6.50374         5.42304         0.42002
| 23>    C        5.61264         4.97520        -0.60442
| 24>    N        4.87650         4.64506        -1.44218
| 25>    C        6.44219         6.83074         0.66004
| 26>    N        6.38485         7.97640         0.84849
| 27>    C        7.53278         3.14114         0.96641
| 28>    C        6.73785         2.28840         0.21618
| 29>    C        6.80881         0.90623        -0.06951
| 30>    S        8.18291        -0.15746         0.30992
| 31>    C        7.40394        -1.47215        -0.48466
| 32>    C        6.11374        -1.13977        -0.95563
| 33>    C        5.77836         0.21094        -0.76599
| 34>    C        4.53725         0.84900        -1.32886
| 35>    C        4.76245         1.35888        -2.76434
| 36>    S        5.25854        -2.53376        -1.64726
| 37>    C        6.65471        -3.53478        -1.31084
| 38>    C        7.71216        -2.82339        -0.72684
| 39>    N        8.78508        -3.66319        -0.49536
| 40>    C        9.89353        -3.21631         0.34600
| 41>    C       10.89790        -2.32461        -0.37917
| 42>    C        8.42847        -4.93537        -0.94158
| 43>    C        7.07220        -4.88302        -1.41367
| 44>    C        6.33480        -6.05592        -1.77691
| 45>    N        5.03250        -5.96789        -2.11008
| 46>    C        4.37149        -7.09270        -2.34084
| 47>    C        2.91086        -6.99376        -2.67598
| 48>    C        5.02698        -8.36689        -2.26334
| 49>    C        4.27452        -9.64391        -2.51249
| 50>    N        6.31277        -8.45536        -1.95706
| 51>    C        6.98259        -7.31520        -1.70237
| 52>    C        8.37281        -7.35452        -1.36490
| 53>    C        9.12486        -6.18266        -1.01748
| 54>    N       10.46006        -6.55682        -0.85513
| 55>    C       11.65896        -5.78315        -0.56182
| 56>    C       12.12466        -5.91850         0.88821
| 57>    C       10.54423        -7.91779        -1.06007
| 58>    C        9.27503        -8.44210        -1.34870
| 59>    S        9.28694       -10.17114        -1.59135
| 60>    C       11.03760       -10.17927        -1.32266
| 61>    C       11.55812        -8.89257        -1.07331
| 62>    S       13.26999        -8.92140        -0.84796
| 63>    C       13.29018       -10.68773        -1.01810
| 64>    C       12.00540       -11.20464        -1.29015
| 65>    C       11.67063       -12.66496        -1.36652
| 66>    C       11.11695       -13.16706        -0.02110
| 67>    C       14.51082       -11.40904        -0.98521
| 68>    C       15.75004       -11.03192        -0.51307
| 69>    C       16.17567        -9.97462         0.38885
| 70>    C       15.44679        -9.45400         1.44698
| 71>    C       15.89898        -8.33741         2.21190
| 72>    N       16.25610        -7.40050         2.80093
| 73>    C       14.21139       -10.03508         1.86897
| 74>    N       13.23198       -10.53656         2.24353
| 75>    C       17.61217        -9.72072         0.12364
| 76>    C       18.49073        -8.74557         0.61289
| 77>    C       19.81955        -8.79868         0.19869
| 78>    F       20.68616        -7.88363         0.62817
| 79>    C       20.28496        -9.80257        -0.67110
| 80>    F       21.56642        -9.78959        -1.02794
| 81>    C       19.42326       -10.78688        -1.14538
| 82>    C       18.09386       -10.72762        -0.74036
| 83>    C       16.97792       -11.64671        -1.11073
| 84>    O       17.04890       -12.64558        -1.79616
| 85>    H       10.60451         3.13768         3.90358
| 86>    H        8.07070         7.21474         2.42579
| 87>    H        5.86748         2.74971        -0.24723
| 88>    H        4.19661         1.67986        -0.69326
| 89>    H        3.72632         0.10186        -1.31460
| 90>    H        5.52131         2.15510        -2.78118
| 91>    H        3.83428         1.78078        -3.17782
| 92>    H        5.10317         0.54401        -3.42170
| 93>    H       10.36720        -4.09397         0.79199
| 94>    H        9.45239        -2.66007         1.18829
| 95>    H       11.37223        -2.83927        -1.22841
| 96>    H       11.68762        -2.00527         0.31737
| 97>    H       10.41158        -1.41981        -0.77048
| 98>    H        2.59442        -5.94532        -2.60895
| 99>    H        2.29706        -7.59627        -1.98815
|100>    H        2.70323        -7.36711        -3.69329
|101>    H        3.46021        -9.77883        -1.78145
|102>    H        4.96715       -10.49129        -2.42997
|103>    H        3.80425        -9.65357        -3.50975
|104>    H       11.47767        -4.74388        -0.84417
|105>    H       12.44797        -6.13974        -1.24292
|106>    H       11.32202        -5.66357         1.59628
|107>    H       12.98152        -5.25547         1.07856
|108>    H       12.44189        -6.94764         1.11011
|109>    H       12.56079       -13.24749        -1.64984
|110>    H       10.92287       -12.82227        -2.16188
|111>    H       11.85521       -13.01911         0.78059
|112>    H       10.85473       -14.23461        -0.07796
|113>    H       10.21182       -12.60753         0.26017
|114>    H       14.51480       -12.36891        -1.51611
|115>    H       18.18871        -7.94739         1.28881
|116>    H       19.78374       -11.57588        -1.80780
|117> *
|118>
|119>                          ****END OF INPUT****

CARTESIAN COORDINATES (ANGSTROEM)
---------------------------------
  C      8.637000    2.723120    1.861030
  O      9.111670    1.609300    2.010410
  C      9.067000    3.933910    2.595340
  C     10.048150    4.016620    3.574670
  C     10.298660    5.266810    4.126380
  F     11.223620    5.413780    5.071380
  C      9.575370    6.392340    3.691300
  F      9.846420    7.571820    4.243410
  C      8.590930    6.302870    2.709140
  C      8.326170    5.044570    2.152260
  C      7.361960    4.586320    1.115540
  C      6.503740    5.423040    0.420020
  C      5.612640    4.975200   -0.604420
  N      4.876500    4.645060   -1.442180
  C      6.442190    6.830740    0.660040
  N      6.384850    7.976400    0.848490
  C      7.532780    3.141140    0.966410
  C      6.737850    2.288400    0.216180
  C      6.808810    0.906230   -0.069510
  S      8.182910   -0.157460    0.309920
  C      7.403940   -1.472150   -0.484660
  C      6.113740   -1.139770   -0.955630
  C      5.778360    0.210940   -0.765990
  C      4.537250    0.849000   -1.328860
  C      4.762450    1.358880   -2.764340
  S      5.258540   -2.533760   -1.647260
  C      6.654710   -3.534780   -1.310840
  C      7.712160   -2.823390   -0.726840
  N      8.785080   -3.663190   -0.495360
  C      9.893530   -3.216310    0.346000
  C     10.897900   -2.324610   -0.379170
  C      8.428470   -4.935370   -0.941580
  C      7.072200   -4.883020   -1.413670
  C      6.334800   -6.055920   -1.776910
  N      5.032500   -5.967890   -2.110080
  C      4.371490   -7.092700   -2.340840
  C      2.910860   -6.993760   -2.675980
  C      5.026980   -8.366890   -2.263340
  C      4.274520   -9.643910   -2.512490
  N      6.312770   -8.455360   -1.957060
  C      6.982590   -7.315200   -1.702370
  C      8.372810   -7.354520   -1.364900
  C      9.124860   -6.182660   -1.017480
  N     10.460060   -6.556820   -0.855130
  C     11.658960   -5.783150   -0.561820
  C     12.124660   -5.918500    0.888210
  C     10.544230   -7.917790   -1.060070
  C      9.275030   -8.442100   -1.348700
  S      9.286940  -10.171140   -1.591350
  C     11.037600  -10.179270   -1.322660
  C     11.558120   -8.892570   -1.073310
  S     13.269990   -8.921400   -0.847960
  C     13.290180  -10.687730   -1.018100
  C     12.005400  -11.204640   -1.290150
  C     11.670630  -12.664960   -1.366520
  C     11.116950  -13.167060   -0.021100
  C     14.510820  -11.409040   -0.985210
  C     15.750040  -11.031920   -0.513070
  C     16.175670   -9.974620    0.388850
  C     15.446790   -9.454000    1.446980
  C     15.898980   -8.337410    2.211900
  N     16.256100   -7.400500    2.800930
  C     14.211390  -10.035080    1.868970
  N     13.231980  -10.536560    2.243530
  C     17.612170   -9.720720    0.123640
  C     18.490730   -8.745570    0.612890
  C     19.819550   -8.798680    0.198690
  F     20.686160   -7.883630    0.628170
  C     20.284960   -9.802570   -0.671100
  F     21.566420   -9.789590   -1.027940
  C     19.423260  -10.786880   -1.145380
  C     18.093860  -10.727620   -0.740360
  C     16.977920  -11.646710   -1.110730
  O     17.048900  -12.645580   -1.796160
  H     10.604510    3.137680    3.903580
  H      8.070700    7.214740    2.425790
  H      5.867480    2.749710   -0.247230
  H      4.196610    1.679860   -0.693260
  H      3.726320    0.101860   -1.314600
  H      5.521310    2.155100   -2.781180
  H      3.834280    1.780780   -3.177820
  H      5.103170    0.544010   -3.421700
  H     10.367200   -4.093970    0.791990
  H      9.452390   -2.660070    1.188290
  H     11.372230   -2.839270   -1.228410
  H     11.687620   -2.005270    0.317370
  H     10.411580   -1.419810   -0.770480
  H      2.594420   -5.945320   -2.608950
  H      2.297060   -7.596270   -1.988150
  H      2.703230   -7.367110   -3.693290
  H      3.460210   -9.778830   -1.781450
  H      4.967150  -10.491290   -2.429970
  H      3.804250   -9.653570   -3.509750
  H     11.477670   -4.743880   -0.844170
  H     12.447970   -6.139740   -1.242920
  H     11.322020   -5.663570    1.596280
  H     12.981520   -5.255470    1.078560
  H     12.441890   -6.947640    1.110110
  H     12.560790  -13.247490   -1.649840
  H     10.922870  -12.822270   -2.161880
  H     11.855210  -13.019110    0.780590
  H     10.854730  -14.234610   -0.077960
  H     10.211820  -12.607530    0.260170
  H     14.514800  -12.368910   -1.516110
  H     18.188710   -7.947390    1.288810
  H     19.783740  -11.575880   -1.807800

 Total Charge           Charge          ....    0
 Multiplicity           Mult            ....    1
 Number of Electrons    NEL             ....  540
 Basis Dimension        Dim             .... 1212

ORBITAL ENERGIES
----------------

  NO   OCC          E(Eh)            E(eV)
   0   2.0000     -88.977497     -2421.2008
   1   2.0000     -88.971699     -2421.0430
   2   2.0000     -88.969530     -2420.9840
   3   2.0000     -88.966563     -2420.9032
   4   2.0000     -24.804114      -674.9543
   5   2.0000     -24.803332      -674.9330
   6   2.0000     -24.803158      -674.9282
   7   2.0000     -24.800713      -674.8617
   8   2.0000     -19.222272      -523.0646
   9   2.0000     -19.219291      -522.9835
  10   2.0000     -14.487279      -394.2189
  11   2.0000     -14.485650      -394.1746
  12   2.0000     -14.425358      -392.5339
  13   2.0000     -14.424487      -392.5102
  14   2.0000     -14.419914      -392.3858
  15   2.0000     -14.419803      -392.3828
  16   2.0000     -14.419658      -392.3789
  17   2.0000     -14.419655      -392.3788
  18   2.0000     -10.388411      -282.6830
  19   2.0000     -10.388053      -282.6733
  20   2.0000     -10.386577      -282.6331
  21   2.0000     -10.385794      -282.6118
  22   2.0000     -10.373016      -282.2641
  23   2.0000     -10.372967      -282.2628
  24   2.0000     -10.350801      -281.6596
  25   2.0000     -10.350642      -281.6553
  26   2.0000     -10.350256      -281.6448
  27   2.0000     -10.348887      -281.6075
  28   2.0000     -10.344723      -281.4942
  29   2.0000     -10.344344      -281.4839
  30   2.0000     -10.339004      -281.3386
  31   2.0000     -10.337429      -281.2957
  32   2.0000     -10.330274      -281.1010
  33   2.0000     -10.329608      -281.0829
  34   2.0000     -10.328829      -281.0617
  35   2.0000     -10.328483      -281.0523
  36   2.0000     -10.327774      -281.0330
  37   2.0000     -10.327236      -281.0184
  38   2.0000     -10.325250      -280.9643
  39   2.0000     -10.324024      -280.9310
  40   2.0000     -10.323932      -280.9285
  41   2.0000     -10.323262      -280.9102
  42   2.0000     -10.322938      -280.9014
  43   2.0000     -10.322017      -280.8764
  44   2.0000     -10.321054      -280.8502
  45   2.0000     -10.320892      -280.8457
  46   2.0000     -10.320671      -280.8397
  47   2.0000     -10.319949      -280.8201
  48   2.0000     -10.319624      -280.8112
  49   2.0000     -10.317700      -280.7589
  50   2.0000     -10.317510      -280.7537
  51   2.0000     -10.317201      -280.7453
  52   2.0000     -10.315136      -280.6891
  53   2.0000     -10.312893      -280.6281
  54   2.0000     -10.312191      -280.6090
  55   2.0000     -10.312046      -280.6050
  56   2.0000     -10.311102      -280.5794
  57   2.0000     -10.310932      -280.5747
  58   2.0000     -10.309814      -280.5443
  59   2.0000     -10.309409      -280.5333
  60   2.0000     -10.306154      -280.4447
  61   2.0000     -10.302369      -280.3417
  62   2.0000     -10.300349      -280.2867
  63   2.0000     -10.299924      -280.2752
  64   2.0000     -10.294393      -280.1247
  65   2.0000     -10.293892      -280.1111
  66   2.0000     -10.292463      -280.0722
  67   2.0000     -10.288594      -279.9669
  68   2.0000     -10.288098      -279.9534
  69   2.0000     -10.287520      -279.9376
  70   2.0000     -10.273964      -279.5688
  71   2.0000     -10.273486      -279.5558
  72   2.0000     -10.268925      -279.4317
  73   2.0000     -10.265971      -279.3513
  74   2.0000      -8.071103      -219.6259
  75   2.0000      -8.064361      -219.4424
  76   2.0000      -8.062642      -219.3956
  77   2.0000      -8.059755      -219.3171
  78   2.0000      -6.040850      -164.3799
  79   2.0000      -6.036754      -164.2684
  80   2.0000      -6.034108      -164.1964
  81   2.0000      -6.032661      -164.1571
  82   2.0000      -6.032545      -164.1539
  83   2.0000      -6.029825      -164.0799
  84   2.0000      -6.029679      -164.0759
  85   2.0000      -6.028621      -164.0471
  86   2.0000      -6.026022      -163.9764
  87   2.0000      -6.025783      -163.9699
  88   2.0000      -6.023535      -163.9087
  89   2.0000      -6.020524      -163.8268
  90   2.0000      -1.330307       -36.1995
  91   2.0000      -1.328542       -36.1515
  92   2.0000      -1.314211       -35.7615
  93   2.0000      -1.312792       -35.7229
  94   2.0000      -1.134436       -30.8696
  95   2.0000      -1.131400       -30.7870
  96   2.0000      -1.108085       -30.1525
  97   2.0000      -1.095894       -29.8208
  98   2.0000      -1.069978       -29.1156
  99   2.0000      -1.018064       -27.7029
 100   2.0000      -1.015835       -27.6423
 101   2.0000      -1.010834       -27.5062
 102   2.0000      -1.007547       -27.4168
 103   2.0000      -0.998563       -27.1723
 104   2.0000      -0.997841       -27.1526
 105   2.0000      -0.995969       -27.1017
 106   2.0000      -0.991779       -26.9877
 107   2.0000      -0.991261       -26.9736
 108   2.0000      -0.962944       -26.2030
 109   2.0000      -0.957593       -26.0574
 110   2.0000      -0.953289       -25.9403
 111   2.0000      -0.947815       -25.7914
 112   2.0000      -0.940343       -25.5880
 113   2.0000      -0.909954       -24.7611
 114   2.0000      -0.901034       -24.5184
 115   2.0000      -0.899075       -24.4651
 116   2.0000      -0.897715       -24.4281
 117   2.0000      -0.896769       -24.4023
 118   2.0000      -0.894331       -24.3360
 119   2.0000      -0.880153       -23.9502
 120   2.0000      -0.875734       -23.8299
 121   2.0000      -0.871669       -23.7193
 122   2.0000      -0.870040       -23.6750
 123   2.0000      -0.865789       -23.5593
 124   2.0000      -0.848841       -23.0981
 125   2.0000      -0.840787       -22.8790
 126   2.0000      -0.831219       -22.6186
 127   2.0000      -0.823697       -22.4139
 128   2.0000      -0.816113       -22.2076
 129   2.0000      -0.806959       -21.9585
 130   2.0000      -0.805607       -21.9217
 131   2.0000      -0.798432       -21.7264
 132   2.0000      -0.792933       -21.5768
 133   2.0000      -0.788527       -21.4569
 134   2.0000      -0.769632       -20.9428
 135   2.0000      -0.768192       -20.9036
 136   2.0000      -0.761819       -20.7301
 137   2.0000      -0.753597       -20.5064
 138   2.0000      -0.743819       -20.2403
 139   2.0000      -0.733142       -19.9498
 140   2.0000      -0.728508       -19.8237
 141   2.0000      -0.719262       -19.5721
 142   2.0000      -0.715457       -19.4686
 143   2.0000      -0.714716       -19.4484
 144   2.0000      -0.710673       -19.3384
 145   2.0000      -0.706311       -19.2197
 146   2.0000      -0.703323       -19.1384
 147   2.0000      -0.695435       -18.9237
 148   2.0000      -0.688156       -18.7257
 149   2.0000      -0.681055       -18.5324
 150   2.0000      -0.677765       -18.4429
 151   2.0000      -0.672083       -18.2883
 152   2.0000      -0.658676       -17.9235
 153   2.0000      -0.654689       -17.8150
 154   2.0000      -0.647087       -17.6081
 155   2.0000      -0.641880       -17.4664
 156   2.0000      -0.641644       -17.4600
 157   2.0000      -0.640689       -17.4340
 158   2.0000      -0.633778       -17.2460
 159   2.0000      -0.630002       -17.1432
 160   2.0000      -0.619673       -16.8622
 161   2.0000      -0.618732       -16.8366
 162   2.0000      -0.616297       -16.7703
 163   2.0000      -0.610236       -16.6054
 164   2.0000      -0.607007       -16.5175
 165   2.0000      -0.599620       -16.3165
 166   2.0000      -0.592157       -16.1134
 167   2.0000      -0.592141       -16.1130
 168   2.0000      -0.590564       -16.0701
 169   2.0000      -0.590314       -16.0633
 170   2.0000      -0.588699       -16.0193
 171   2.0000      -0.584803       -15.9133
 172   2.0000      -0.582813       -15.8592
 173   2.0000      -0.570108       -15.5134
 174   2.0000      -0.567756       -15.4494
 175   2.0000      -0.561852       -15.2888
 176   2.0000      -0.555941       -15.1279
 177   2.0000      -0.553147       -15.0519
 178   2.0000      -0.551601       -15.0098
 179   2.0000      -0.550940       -14.9918
 180   2.0000      -0.550255       -14.9732
 181   2.0000      -0.548427       -14.9235
 182   2.0000      -0.545961       -14.8563
 183   2.0000      -0.544232       -14.8093
 184   2.0000      -0.540442       -14.7062
 185   2.0000      -0.539344       -14.6763
 186   2.0000      -0.535469       -14.5709
 187   2.0000      -0.534786       -14.5523
 188   2.0000      -0.532424       -14.4880
 189   2.0000      -0.530300       -14.4302
 190   2.0000      -0.528305       -14.3759
 191   2.0000      -0.526021       -14.3138
 192   2.0000      -0.524571       -14.2743
 193   2.0000      -0.520640       -14.1673
 194   2.0000      -0.518204       -14.1010
 195   2.0000      -0.515487       -14.0271
 196   2.0000      -0.508427       -13.8350
 197   2.0000      -0.506717       -13.7885
 198   2.0000      -0.505333       -13.7508
 199   2.0000      -0.503776       -13.7084
 200   2.0000      -0.500290       -13.6136
 201   2.0000      -0.497357       -13.5338
 202   2.0000      -0.496304       -13.5051
 203   2.0000      -0.495452       -13.4819
 204   2.0000      -0.494172       -13.4471
 205   2.0000      -0.493033       -13.4161
 206   2.0000      -0.490059       -13.3352
 207   2.0000      -0.489164       -13.3108
 208   2.0000      -0.486168       -13.2293
 209   2.0000      -0.484845       -13.1933
 210   2.0000      -0.481502       -13.1023
 211   2.0000      -0.480438       -13.0734
 212   2.0000      -0.478214       -13.0129
 213   2.0000      -0.476805       -12.9745
 214   2.0000      -0.473561       -12.8862
 215   2.0000      -0.472818       -12.8660
 216   2.0000      -0.471327       -12.8255
 217   2.0000      -0.467453       -12.7200
 218   2.0000      -0.464754       -12.6466
 219   2.0000      -0.462096       -12.5743
 220   2.0000      -0.459072       -12.4920
 221   2.0000      -0.457703       -12.4547
 222   2.0000      -0.456481       -12.4215
 223   2.0000      -0.455330       -12.3902
 224   2.0000      -0.454969       -12.3803
 225   2.0000      -0.453812       -12.3489
 226   2.0000      -0.453736       -12.3468
 227   2.0000      -0.452388       -12.3101
 228   2.0000      -0.451446       -12.2845
 229   2.0000      -0.449802       -12.2397
 230   2.0000      -0.446786       -12.1577
 231   2.0000      -0.446338       -12.1455
 232   2.0000      -0.443530       -12.0691
 233   2.0000      -0.441362       -12.0101
 234   2.0000      -0.435572       -11.8525
 235   2.0000      -0.430510       -11.7148
 236   2.0000      -0.428269       -11.6538
 237   2.0000      -0.427795       -11.6409
 238   2.0000      -0.427684       -11.6379
 239   2.0000      -0.424594       -11.5538
 240   2.0000      -0.423435       -11.5222
 241   2.0000      -0.423108       -11.5133
 242   2.0000      -0.420535       -11.4433
 243   2.0000      -0.419385       -11.4120
 244   2.0000      -0.418371       -11.3844
 245   2.0000      -0.412554       -11.2262
 246   2.0000      -0.409891       -11.1537
 247   2.0000      -0.407889       -11.0992
 248   2.0000      -0.406868       -11.0714
 249   2.0000      -0.401408       -10.9229
 250   2.0000      -0.394873       -10.7450
 251   2.0000      -0.385488       -10.4897
 252   2.0000      -0.379776       -10.3342
 253   2.0000      -0.369709       -10.0603
 254   2.0000      -0.362003        -9.8506
 255   2.0000      -0.350146        -9.5280
 256   2.0000      -0.348375        -9.4798
 257   2.0000      -0.345131        -9.3915
 258   2.0000      -0.342544        -9.3211
 259   2.0000      -0.339312        -9.2332
 260   2.0000      -0.337919        -9.1953
 261   2.0000      -0.321758        -8.7555
 262   2.0000      -0.320081        -8.7098
 263   2.0000      -0.315343        -8.5809
 264   2.0000      -0.310782        -8.4568
 265   2.0000      -0.306452        -8.3390
 266   2.0000      -0.290617        -7.9081
 267   2.0000      -0.278428        -7.5764
 268   2.0000      -0.269967        -7.3462
 269   2.0000      -0.243420        -6.6238
 270   0.0000      -0.101175        -2.7531
 271   0.0000      -0.090552        -2.4641
 272   0.0000      -0.066004        -1.7961
 273   0.0000      -0.062271        -1.6945
 274   0.0000      -0.032755        -0.8913

MULLIKEN ATOMIC CHARGES
-----------------------
   0 C :    0.139917
   1 O :   -0.173742
   2 C :   -0.020095
   3 C :   -0.099934
   4 C :    0.227175
   5 F :   -0.162489
   6 C :    0.224386
   7 F :   -0.158951
   8 C :   -0.088941
   9 C :    0.050167
  10 C :    0.268718
  11 C :   -0.324578
  12 C :   -0.164966
  13 N :    0.116342
  14 C :   -0.165142
  15 N :    0.127695
  16 C :   -0.094014
  17 C :   -0.030913
  18 C :   -0.096497
  19 S :    0.192854
  20 C :   -0.046177
  21 C :   -0.085985
  22 C :   -0.062730
  23 C :    0.036898
  24 C :    0.019627
  25 S :    0.194398
  26 C :   -0.102017
  27 C :    0.057003
  28 N :   -0.189832
  29 C :    0.089113
  30 C :   -0.003068
  31 C :    0.048532
  32 C :   -0.034695
  33 C :   -0.059703
  34 N :   -0.006973
  35 C :   -0.155499
  36 C :    0.102115
  37 C :   -0.154036
  38 C :    0.102662
  39 N :   -0.007593
  40 C :   -0.060794
  41 C :   -0.037117
  42 C :    0.075943
  43 N :   -0.186615
  44 C :    0.089147
  45 C :   -0.008145
  46 C :    0.053342
  47 C :   -0.101143
  48 S :    0.201521
  49 C :   -0.102318
  50 C :   -0.036724
  51 S :    0.148633
  52 C :   -0.136970
  53 C :   -0.018460
  54 C :    0.051380
  55 C :   -0.000004
  56 C :    0.026126
  57 C :   -0.147294
  58 C :    0.220573
  59 C :   -0.318503
  60 C :   -0.156236
  61 N :    0.116545
  62 C :   -0.173677
  63 N :    0.144891
  64 C :    0.040969
  65 C :   -0.097052
  66 C :    0.229551
  67 F :   -0.160845
  68 C :    0.229245
  69 F :   -0.162177
  70 C :   -0.101922
  71 C :   -0.007721
  72 C :    0.141631
  73 O :   -0.149650
  74 H :    0.016767
  75 H :    0.021850
  76 H :    0.002275
  77 H :    0.031105
  78 H :    0.019642
  79 H :    0.025961
  80 H :    0.036877
  81 H :    0.018135
  82 H :    0.006612
  83 H :    0.042503
  84 H :    0.036136
  85 H :    0.041163
  86 H :    0.034402
  87 H :    0.030366
  88 H :    0.026827
  89 H :    0.030670
  90 H :    0.031047
  91 H :    0.030031
  92 H :    0.026456
  93 H :    0.004690
  94 H :    0.033726
  95 H :    0.045590
  96 H :    0.043026
  97 H :    0.038448
  98 H :    0.016042
  99 H :    0.022651
 100 H :    0.039884
 101 H :    0.029138
 102 H :    0.026625
 103 H :    0.032978
 104 H :    0.021864
 105 H :    0.021349
Sum of atomic charges:   -0.0000000

LOEWDIN ATOMIC CHARGES
----------------------
   0 C :    0.083301
   1 O :   -0.168038
   2 C :   -0.046401
   3 C :   -0.012235
   4 C :    0.066057
   5 F :   -0.039205
   6 C :    0.068029
   7 F :   -0.038059
   8 C :   -0.022979
   9 C :   -0.014337
  10 C :    0.082322
  11 C :   -0.148503
  12 C :   -0.012586
  13 N :   -0.062785
  14 C :   -0.013984
  15 N :   -0.059294
  16 C :   -0.124778
  17 C :    0.054687
  18 C :   -0.190385
  19 S :    0.471111
  20 C :   -0.190056
  21 C :   -0.194027
  22 C :   -0.004044
  23 C :   -0.034384
  24 C :   -0.047565
  25 S :    0.409635
  26 C :   -0.161715
  27 C :   -0.040310
  28 N :    0.027668
  29 C :    0.036229
  30 C :   -0.067059
  31 C :    0.015191
  32 C :   -0.066238
  33 C :   -0.015595
  34 N :   -0.060709
  35 C :   -0.004959
  36 C :   -0.058726
  37 C :   -0.005059
  38 C :   -0.058877
  39 N :   -0.061285
  40 C :   -0.016047
  41 C :   -0.066540
  42 C :    0.015652
  43 N :    0.031453
  44 C :    0.034050
  45 C :   -0.067279
  46 C :   -0.036791
  47 C :   -0.164443
  48 S :    0.421497
  49 C :   -0.191500
  50 C :   -0.182213
  51 S :    0.438019
  52 C :   -0.187822
  53 C :   -0.000602
  54 C :   -0.031616
  55 C :   -0.049292
  56 C :    0.054124
  57 C :   -0.119256
  58 C :    0.064668
  59 C :   -0.151213
  60 C :   -0.015660
  61 N :   -0.063880
  62 C :   -0.028485
  63 N :   -0.058045
  64 C :   -0.012461
  65 C :   -0.027167
  66 C :    0.069485
  67 F :   -0.039276
  68 C :    0.065555
  69 F :   -0.039136
  70 C :   -0.011750
  71 C :   -0.047074
  72 C :    0.087475
  73 O :   -0.147405
  74 H :    0.053560
  75 H :    0.052827
  76 H :    0.048842
  77 H :    0.035717
  78 H :    0.034862
  79 H :    0.028364
  80 H :    0.034967
  81 H :    0.025699
  82 H :    0.029529
  83 H :    0.034065
  84 H :    0.026056
  85 H :    0.040316
  86 H :    0.026264
  87 H :    0.039541
  88 H :    0.037706
  89 H :    0.039495
  90 H :    0.039388
  91 H :    0.039345
  92 H :    0.037822
  93 H :    0.028484
  94 H :    0.030637
  95 H :    0.029865
  96 H :    0.040136
  97 H :    0.029725
  98 H :    0.033537
  99 H :    0.035139
 100 H :    0.035100
 101 H :    0.029903
 102 H :    0.027295
 103 H :    0.051137
 104 H :    0.052415
 105 H :    0.055184

  Mayer bond orders larger than 0.100000
B(  0-C ,  1-O ) :   2.1762 B(  0-C ,  2-C ) :   0.9644 B(  0-C , 16-C ) :   0.9726
B(  2-C ,  3-C ) :   1.3186 B(  2-C ,  9-C ) :   1.3565 B(  3-C ,  4-C ) :   1.3226
B(  3-C ,  8-C ) :   0.1033 B(  3-C , 74-H ) :   1.0124 B(  4-C ,  5-F ) :   1.1359
B(  4-C ,  6-C ) :   1.2804 B(  6-C ,  7-F ) :   1.1486 B(  6-C ,  8-C ) :   1.3480
B(  8-C ,  9-C ) :   1.3065 B(  8-C , 75-H ) :   0.9857 B(  9-C , 10-C ) :   0.9992
B( 10-C , 11-C ) :   1.6218 B( 10-C , 16-C ) :   1.1046 B( 11-C , 12-C ) :   1.1340
B( 11-C , 14-C ) :   1.1252 B( 12-C , 13-N ) :   2.9578 B( 14-C , 15-N ) :   2.9694
B( 16-C , 17-C ) :   1.4846 B( 17-C , 18-C ) :   1.3078 B( 17-C , 76-H ) :   0.9277
B( 18-C , 19-S ) :   1.0402 B( 18-C , 22-C ) :   1.3639 B( 19-S , 20-C ) :   1.0571
B( 20-C , 21-C ) :   1.3912 B( 20-C , 27-C ) :   1.2814 B( 21-C , 22-C ) :   1.4133
B( 21-C , 25-S ) :   1.0165 B( 22-C , 23-C ) :   1.0755 B( 23-C , 24-C ) :   1.0994
B( 23-C , 77-H ) :   0.9109 B( 23-C , 78-H ) :   0.9241 B( 24-C , 79-H ) :   0.9663
B( 24-C , 80-H ) :   0.9676 B( 24-C , 81-H ) :   0.9680 B( 25-S , 26-C ) :   1.0244
B( 26-C , 27-C ) :   1.4185 B( 26-C , 32-C ) :   1.3327 B( 27-C , 28-N ) :   1.1346
B( 28-N , 29-C ) :   0.9345 B( 28-N , 31-C ) :   1.1691 B( 29-C , 30-C ) :   1.0992
B( 29-C , 82-H ) :   0.9461 B( 29-C , 83-H ) :   0.9412 B( 30-C , 84-H ) :   0.9552
B( 30-C , 85-H ) :   0.9640 B( 30-C , 86-H ) :   0.9514 B( 31-C , 32-C ) :   1.3653
B( 31-C , 42-C ) :   1.1491 B( 32-C , 33-C ) :   1.1089 B( 32-C , 41-C ) :   0.1030
B( 33-C , 34-N ) :   1.5372 B( 33-C , 40-C ) :   1.2479 B( 34-N , 35-C ) :   1.6325
B( 35-C , 36-C ) :   1.0974 B( 35-C , 37-C ) :   1.2217 B( 36-C , 87-H ) :   0.9446
B( 36-C , 88-H ) :   0.9438 B( 36-C , 89-H ) :   0.9442 B( 37-C , 38-C ) :   1.0975
B( 37-C , 39-N ) :   1.6310 B( 38-C , 90-H ) :   0.9446 B( 38-C , 91-H ) :   0.9444
B( 38-C , 92-H ) :   0.9429 B( 39-N , 40-C ) :   1.5376 B( 40-C , 41-C ) :   1.1089
B( 41-C , 42-C ) :   1.3587 B( 41-C , 47-C ) :   1.3359 B( 42-C , 43-N ) :   1.1653
B( 43-N , 44-C ) :   0.9433 B( 43-N , 46-C ) :   1.1391 B( 44-C , 45-C ) :   1.0931
B( 44-C , 93-H ) :   0.9454 B( 44-C , 94-H ) :   0.9405 B( 45-C , 95-H ) :   0.9551
B( 45-C , 96-H ) :   0.9658 B( 45-C , 97-H ) :   0.9531 B( 46-C , 47-C ) :   1.4090
B( 46-C , 50-C ) :   1.2886 B( 47-C , 48-S ) :   1.0316 B( 48-S , 49-C ) :   1.0246
B( 49-C , 50-C ) :   1.4239 B( 49-C , 53-C ) :   1.3644 B( 50-C , 51-S ) :   1.0685
B( 51-S , 52-C ) :   1.0477 B( 52-C , 53-C ) :   1.4200 B( 52-C , 56-C ) :   1.2093
B( 53-C , 54-C ) :   1.0896 B( 54-C , 55-C ) :   1.0939 B( 54-C , 98-H ) :   0.9160
B( 54-C , 99-H ) :   0.9212 B( 55-C ,100-H ) :   0.9660 B( 55-C ,101-H ) :   0.9679
B( 55-C ,102-H ) :   0.9705 B( 56-C , 57-C ) :   1.5926 B( 56-C ,103-H ) :   0.9334
B( 57-C , 58-C ) :   1.0636 B( 57-C , 72-C ) :   0.9528 B( 58-C , 59-C ) :   1.6331
B( 58-C , 64-C ) :   1.0268 B( 59-C , 60-C ) :   1.1135 B( 59-C , 62-C ) :   1.1481
B( 60-C , 61-N ) :   2.9733 B( 62-C , 63-N ) :   2.9986 B( 64-C , 65-C ) :   1.3111
B( 64-C , 71-C ) :   1.3509 B( 65-C , 66-C ) :   1.3469 B( 65-C , 70-C ) :   0.1044
B( 65-C ,104-H ) :   0.9884 B( 66-C , 67-F ) :   1.1451 B( 66-C , 68-C ) :   1.2811
B( 68-C , 69-F ) :   1.1358 B( 68-C , 70-C ) :   1.3291 B( 70-C , 71-C ) :   1.3234
B( 70-C ,105-H ) :   1.0117 B( 71-C , 72-C ) :   0.9327 B( 72-C , 73-O ) :   2.2444

-----------------------------------------------------------------------------
         ABSORPTION SPECTRUM VIA TRANSITION ELECTRIC DIPOLE MOMENTS
-----------------------------------------------------------------------------
State   Energy  Wavelength   fosc         T2         TX        TY        TZ
        (cm-1)    (nm)                  (au**2)     (au)      (au)      (au)
-----------------------------------------------------------------------------
   0   16177.7    618.1   1.435128519  29.20442   3.32036  -4.26270   0.09505
   1   19485.1    513.2   1.053071459  17.79226  -1.55170  -3.58891  -1.58248
   2   22250.0    449.4   0.070813024   1.04775   0.91187   0.43862   0.15449
   3   24027.1    416.2   0.055944445   0.76653  -0.60004   0.60384  -0.20459
   4   24312.5    411.3   0.134436967   1.82039  -0.02062  -1.10869  -0.76862
   5   25271.4    395.7   0.195902092   2.55202   1.44430  -0.68054   0.05363
   6   25599.7    390.6   0.293386663   3.77294  -1.30335  -1.14865  -0.86881
   7   27819.8    359.5   0.060786719   0.71933   0.84483  -0.06678  -0.03376
   8   28195.0    354.7   0.015804285   0.18453  -0.33960  -0.10982   0.23906
   9   28742.5    347.9   0.003652538   0.04184  -0.14461  -0.12614   0.07081
  10   29443.6    339.6   0.233189486   2.60732   1.52804  -0.36547  -0.37262
  11   29820.0    335.3   0.038367576   0.42358   0.33223   0.54523  -0.12620
  12   30494.8    327.9   0.041722564   0.45042   0.46365   0.30528   0.37717
  13   31346.3    319.0   0.086069687   0.90394   0.73999  -0.28450   0.52480
  14   31445.5    318.0   0.019609012   0.20529   0.29716   0.19235  -0.28282
  15   31561.3    316.8   0.131878338   1.37561   0.64675   0.59746   0.77483
  16   32218.1    310.4   0.160220502   1.63717   1.17166  -0.36310  -0.36407
  17   32509.8    307.6   0.030430371   0.30815   0.39829   0.38647   0.01274
  18   32830.0    304.6   0.126424141   1.26775   0.94823   0.30446   0.52528
  19   33149.7    301.7   0.061975606   0.61548  -0.49420   0.55371   0.25427
  20   33276.7    300.5   0.143209640   1.41680   1.06992   0.35092   0.38591
  21   33546.0    298.1   0.004232973   0.04154   0.07723   0.07286   0.17398
  22   33657.1    297.1   0.023252979   0.22745  -0.33353  -0.30428  -0.15369
  23   33863.3    295.3   0.029278272   0.28464  -0.01853  -0.45329   0.28075
  24   34236.1    292.1   0.036439065   0.35040   0.46601   0.28190  -0.23187
  25   34763.7    287.7   0.064037913   0.60644  -0.47392   0.48799  -0.37908
  26   35639.3    280.6   0.176215473   1.62776  -1.26504   0.13972   0.08900
  27   35891.1    278.6   0.293307339   2.69037   0.71537  -1.04359  -1.04380
  28   36297.8    275.5   0.051754758   0.46940   0.17175   0.43604  -0.49977
  29   36671.5    272.7   0.240649562   2.16039  -1.28179  -0.70178  -0.15783
  30   36743.5    272.2   0.451977519   4.04959   1.55366  -0.64146   1.10646
  31   36840.3    271.4   0.002585274   0.02310  -0.07924   0.01703   0.12858
  32   37061.3    269.8   0.007581136   0.06734  -0.23701  -0.09039   0.05476
  33   37266.0    268.3   0.043553891   0.38476  -0.02973  -0.17087  -0.59555
  34   37590.8    266.0   0.000628308   0.00550   0.07043  -0.01870   0.01388
  35   37811.7    264.5   0.066854412   0.58208   0.29173  -0.57056  -0.41404
  36   37834.6    264.3   0.264138191   2.29836   0.86064  -1.12837  -0.53332
  37   38188.1    261.9   0.217410659   1.87425   0.40177  -0.94130   0.90928
  38   38651.3    258.7   0.046619731   0.39708   0.00578  -0.41974  -0.46996
  39   39532.7    253.0   0.005743029   0.04783   0.13300   0.15926   0.06908
  40   39815.7    251.2   0.090804551   0.75081  -0.79686   0.33949   0.02376
  41   40203.4    248.7   0.058248415   0.47698  -0.67484   0.09509  -0.11191

FINAL SINGLE POINT ENERGY     -4729.439885361892

DIPOLE MOMENT
-------------
                                X             Y             Z
Electronic contribution:     60.33311      41.37618      27.10613
Nuclear contribution   :    -61.03389     -43.78333     -28.37273
                        -----------------------------------------
Total Dipole Moment    :     -0.70078      -2.40715      -1.26661
                        -----------------------------------------
Magnitude (a.u.)       :      2.80887
Magnitude (Debye)      :      7.13958

Rotational constants in cm-1:     0.001035     0.000336     0.000263
Rotational constants in MHz :    31.030860    10.064146     7.879789

                             ****ORCA TERMINATED NORMALLY****
TOTAL RUN TIME: 0 days 1 hours 14 minutes 11 seconds 173 msec
