                         Program Version 4.2.0 -  RELEASE  -
|  1> # ORCA input file
|  2> # BCDT-4F.out
|  3> ! CAM-B3LYP def2-SVP def2/J RIJCOSX Grid4 TightSCF
|  4> %maxcore 5000
|  5> %tddft
|  6>     Mode sTDDFT
|  7>     Ethresh 5.0
|  8>     maxcore 5000
|  9> end
| 10> * xyz 0 1
| 11>    C        2.16853        -1.00581        -3.20400
| 12>    O        1.29800        -1.60117        -2.61176
| 13>    C        2.44873        -1.02692        -4.65940
| 14>    C        1.83193        -1.76842        -5.64674
| 15>    C        2.30402        -1.63288        -6.94307
| 16>    C        3.36563        -0.77467        -7.22801
| 17>    C        3.97853        -0.02055        -6.23768
| 18>    C        3.51084        -0.15054        -4.94067
| 19>    C        3.91303         0.51526        -3.69822
| 20>    C        4.61477         1.69462        -3.64067
| 21>    C        4.75340         2.47706        -2.47802
| 22>    N        4.87460         3.17320        -1.57294
| 23>    C        5.22152         2.30709        -4.75522
| 24>    N        5.76460         2.83498        -5.61802
| 25>    C        3.21795        -0.13767        -2.61913
| 26>    F        3.81116        -0.67535        -8.48602
| 27>    C        3.38626        -0.14006        -1.25735
| 28>    F        1.73792        -2.33643        -7.93161
| 29>    C       13.17198         4.42827        18.93658
| 30>    O       12.30804         5.19231        19.30202
| 31>    C       14.45298         4.12071        19.61835
| 32>    C       14.97205         4.67148        20.77242
| 33>    C       16.21802         4.23125        21.19190
| 34>    C       16.91360         3.26466        20.46662
| 35>    C       16.38716         2.70150        19.31297
| 36>    C       15.14334         3.13758        18.88881
| 37>    C       14.31247         2.72710        17.75423
| 38>    C       14.44931         1.54175        17.07267
| 39>    C       13.46416         1.02861        16.20874
| 40>    N       12.66931         0.55147        15.53082
| 41>    C       15.54315         0.66715        17.21739
| 42>    N       16.42820        -0.06297        17.26771
| 43>    C       13.19969         3.63665        17.68522
| 44>    F       18.12120         2.86918        20.88745
| 45>    C       12.27805         3.91295        16.70507
| 46>    F       16.76137         4.74249        22.30413
| 47>    C       12.32399         3.64341        15.33228
| 48>    S       10.85359         3.83965        14.38285
| 49>    C       11.69788         3.41703        12.96349
| 50>    C       13.06698         3.18316        13.19145
| 51>    C       13.40871         3.29326        14.52081
| 52>    C       11.41119         3.19671        11.60287
| 53>    C       12.58990         2.82288        10.95068
| 54>    C       13.76493         2.82658        11.90071
| 55>    S       10.04999         3.20592        10.55476
| 56>    C       11.07176         2.72183         9.21769
| 57>    C       12.39605         2.55777         9.60580
| 58>    C       10.48617         2.53048         7.92590
| 59>    C       11.21142         2.28787         6.74851
| 60>    C       10.56739         2.02315         5.51200
| 61>    C        9.18163         2.07924         5.34907
| 62>    C        8.43579         2.37222         6.51837
| 63>    C        9.07691         2.57900         7.78126
| 64>    N        7.11290         2.47090         6.60756
| 65>    S        6.70956         2.79561         8.12965
| 66>    N        8.19502         2.82293         8.74720
| 67>    C        8.50397         1.82021         4.11424
| 68>    S        6.78321         1.50709         4.12979
| 69>    C        6.81648         1.25272         2.43269
| 70>    C        8.08586         1.44855         1.87682
| 71>    C        9.03788         1.76183         2.83397
| 72>    C        5.92553         0.86656         1.41200
| 73>    C        6.62602         0.79942         0.19648
| 74>    C        8.06654         1.21395         0.38601
| 75>    S        4.27810         0.45840         1.24611
| 76>    C        4.49180         0.24626        -0.48948
| 77>    C        5.82086         0.45833        -0.86748
| 78>    O       12.56627         2.25749         6.83254
| 79>    O       11.35926         1.64499         4.44566
| 80>    C       13.35050         2.89630         5.82487
| 81>    C       14.46178         3.67383         6.51739
| 82>    C       11.64273         0.24697         4.42724
| 83>    C       12.39058        -0.07499         3.14545
| 84>    C        9.05535         0.11691        -0.03741
| 85>    C        8.82707        -1.19792         0.69924
| 86>    C        8.28311         2.51819        -0.41580
| 87>    C        9.58599         3.24636        -0.11632
| 88>    C       14.45098         1.45312        11.97308
| 89>    C       13.47398         0.32094        12.26651
| 90>    C       14.74200         3.93384        11.44527
| 91>    C       15.89913         4.20377        12.39747
| 92>    H        1.01110        -2.43127        -5.42423
| 93>    H        4.79628         0.62792        -6.50687
| 94>    H        2.55442        -0.57224        -0.70878
| 95>    H       14.43281         5.41807        21.33315
| 96>    H       16.96134         1.95737        18.78533
| 97>    H       11.42888         4.49777        17.04589
| 98>    H       14.40134         3.16784        14.91393
| 99>    H       13.15987         2.23609         8.92604
|100>    H       10.07683         1.94925         2.64092
|101>    H        6.16587         0.31159        -1.87518
|102>    H       12.72827         3.56882         5.22844
|103>    H       13.77970         2.13592         5.16358
|104>    H       14.03973         4.42011         7.18606
|105>    H       15.07680         4.17060         5.77253
|106>    H       15.08646         2.99899         7.09668
|107>    H       10.70077        -0.31708         4.47387
|108>    H       12.24662        -0.01944         5.30564
|109>    H       11.76147         0.12334         2.28223
|110>    H       12.67253        -1.12387         3.14314
|111>    H       13.28670         0.53529         3.07035
|112>    H       10.07027         0.46516         0.15775
|113>    H        8.95499        -0.04472        -1.11245
|114>    H        8.94493        -1.06405         1.77220
|115>    H        9.54517        -1.94295         0.36500
|116>    H        7.82567        -1.57787         0.51004
|117>    H        7.44521         3.18704        -0.20767
|118>    H        8.24241         2.26624        -1.47762
|119>    H        9.62088         3.56675         0.92119
|120>    H        9.65427         4.12972        -0.74655
|121>    H       10.45009         2.61959        -0.32128
|122>    H       15.20976         1.47713        12.75606
|123>    H       14.95039         1.26820        11.01946
|124>    H       12.98993         0.46616        13.22953
|125>    H       14.00620        -0.62672        12.29561
|126>    H       12.70733         0.26128        11.49754
|127>    H       14.17017         4.85606        11.31394
|128>    H       15.13601         3.64626        10.46825
|129>    H       15.53527         4.55664        13.35855
|130>    H       16.54101         4.97447        11.97662
|131>    H       16.50060         3.31260        12.55341
|132> *
|133>
|134>                          ****END OF INPUT****

CARTESIAN COORDINATES (ANGSTROEM)
---------------------------------
  C      2.168530   -1.005810   -3.204000
  O      1.298000   -1.601170   -2.611760
  C      2.448730   -1.026920   -4.659400
  C      1.831930   -1.768420   -5.646740
  C      2.304020   -1.632880   -6.943070
  C      3.365630   -0.774670   -7.228010
  C      3.978530   -0.020550   -6.237680
  C      3.510840   -0.150540   -4.940670
  C      3.913030    0.515260   -3.698220
  C      4.614770    1.694620   -3.640670
  C      4.753400    2.477060   -2.478020
  N      4.874600    3.173200   -1.572940
  C      5.221520    2.307090   -4.755220
  N      5.764600    2.834980   -5.618020
  C      3.217950   -0.137670   -2.619130
  F      3.811160   -0.675350   -8.486020
  C      3.386260   -0.140060   -1.257350
  F      1.737920   -2.336430   -7.931610
  C     13.171980    4.428270   18.936580
  O     12.308040    5.192310   19.302020
  C     14.452980    4.120710   19.618350
  C     14.972050    4.671480   20.772420
  C     16.218020    4.231250   21.191900
  C     16.913600    3.264660   20.466620
  C     16.387160    2.701500   19.312970
  C     15.143340    3.137580   18.888810
  C     14.312470    2.727100   17.754230
  C     14.449310    1.541750   17.072670
  C     13.464160    1.028610   16.208740
  N     12.669310    0.551470   15.530820
  C     15.543150    0.667150   17.217390
  N     16.428200   -0.062970   17.267710
  C     13.199690    3.636650   17.685220
  F     18.121200    2.869180   20.887450
  C     12.278050    3.912950   16.705070
  F     16.761370    4.742490   22.304130
  C     12.323990    3.643410   15.332280
  S     10.853590    3.839650   14.382850
  C     11.697880    3.417030   12.963490
  C     13.066980    3.183160   13.191450
  C     13.408710    3.293260   14.520810
  C     11.411190    3.196710   11.602870
  C     12.589900    2.822880   10.950680
  C     13.764930    2.826580   11.900710
  S     10.049990    3.205920   10.554760
  C     11.071760    2.721830    9.217690
  C     12.396050    2.557770    9.605800
  C     10.486170    2.530480    7.925900
  C     11.211420    2.287870    6.748510
  C     10.567390    2.023150    5.512000
  C      9.181630    2.079240    5.349070
  C      8.435790    2.372220    6.518370
  C      9.076910    2.579000    7.781260
  N      7.112900    2.470900    6.607560
  S      6.709560    2.795610    8.129650
  N      8.195020    2.822930    8.747200
  C      8.503970    1.820210    4.114240
  S      6.783210    1.507090    4.129790
  C      6.816480    1.252720    2.432690
  C      8.085860    1.448550    1.876820
  C      9.037880    1.761830    2.833970
  C      5.925530    0.866560    1.412000
  C      6.626020    0.799420    0.196480
  C      8.066540    1.213950    0.386010
  S      4.278100    0.458400    1.246110
  C      4.491800    0.246260   -0.489480
  C      5.820860    0.458330   -0.867480
  O     12.566270    2.257490    6.832540
  O     11.359260    1.644990    4.445660
  C     13.350500    2.896300    5.824870
  C     14.461780    3.673830    6.517390
  C     11.642730    0.246970    4.427240
  C     12.390580   -0.074990    3.145450
  C      9.055350    0.116910   -0.037410
  C      8.827070   -1.197920    0.699240
  C      8.283110    2.518190   -0.415800
  C      9.585990    3.246360   -0.116320
  C     14.450980    1.453120   11.973080
  C     13.473980    0.320940   12.266510
  C     14.742000    3.933840   11.445270
  C     15.899130    4.203770   12.397470
  H      1.011100   -2.431270   -5.424230
  H      4.796280    0.627920   -6.506870
  H      2.554420   -0.572240   -0.708780
  H     14.432810    5.418070   21.333150
  H     16.961340    1.957370   18.785330
  H     11.428880    4.497770   17.045890
  H     14.401340    3.167840   14.913930
  H     13.159870    2.236090    8.926040
  H     10.076830    1.949250    2.640920
  H      6.165870    0.311590   -1.875180
  H     12.728270    3.568820    5.228440
  H     13.779700    2.135920    5.163580
  H     14.039730    4.420110    7.186060
  H     15.076800    4.170600    5.772530
  H     15.086460    2.998990    7.096680
  H     10.700770   -0.317080    4.473870
  H     12.246620   -0.019440    5.305640
  H     11.761470    0.123340    2.282230
  H     12.672530   -1.123870    3.143140
  H     13.286700    0.535290    3.070350
  H     10.070270    0.465160    0.157750
  H      8.954990   -0.044720   -1.112450
  H      8.944930   -1.064050    1.772200
  H      9.545170   -1.942950    0.365000
  H      7.825670   -1.577870    0.510040
  H      7.445210    3.187040   -0.207670
  H      8.242410    2.266240   -1.477620
  H      9.620880    3.566750    0.921190
  H      9.654270    4.129720   -0.746550
  H     10.450090    2.619590   -0.321280
  H     15.209760    1.477130   12.756060
  H     14.950390    1.268200   11.019460
  H     12.989930    0.466160   13.229530
  H     14.006200   -0.626720   12.295610
  H     12.707330    0.261280   11.497540
  H     14.170170    4.856060   11.313940
  H     15.136010    3.646260   10.468250
  H     15.535270    4.556640   13.358550
  H     16.541010    4.974470   11.976620
  H     16.500600    3.312600   12.553410

 Total Charge           Charge          ....    0
 Multiplicity           Mult            ....    1
 Number of Electrons    NEL             ....  602
 Basis Dimension        Dim             .... 1354

ORBITAL ENERGIES
----------------

  NO   OCC          E(Eh)            E(eV)
   0   2.0000     -89.036097     -2422.7954
   1   2.0000     -88.977127     -2421.1907
   2   2.0000     -88.973648     -2421.0960
   3   2.0000     -88.970052     -2420.9982
   4   2.0000     -88.963365     -2420.8162
   5   2.0000     -24.799576      -674.8308
   6   2.0000     -24.799104      -674.8179
   7   2.0000     -24.796767      -674.7543
   8   2.0000     -24.796306      -674.7418
   9   2.0000     -19.265021      -524.2279
  10   2.0000     -19.258447      -524.0490
  11   2.0000     -19.214748      -522.8599
  12   2.0000     -19.210925      -522.7559
  13   2.0000     -14.452349      -393.2684
  14   2.0000     -14.449809      -393.1993
  15   2.0000     -14.416772      -392.3003
  16   2.0000     -14.415852      -392.2753
  17   2.0000     -14.414175      -392.2296
  18   2.0000     -14.412546      -392.1853
  19   2.0000     -10.384632      -282.5802
  20   2.0000     -10.384034      -282.5639
  21   2.0000     -10.381638      -282.4987
  22   2.0000     -10.380956      -282.4802
  23   2.0000     -10.366475      -282.0861
  24   2.0000     -10.365292      -282.0539
  25   2.0000     -10.362946      -281.9901
  26   2.0000     -10.359781      -281.9040
  27   2.0000     -10.344011      -281.4749
  28   2.0000     -10.342021      -281.4207
  29   2.0000     -10.339942      -281.3641
  30   2.0000     -10.339921      -281.3636
  31   2.0000     -10.338428      -281.3229
  32   2.0000     -10.337615      -281.3008
  33   2.0000     -10.337374      -281.2942
  34   2.0000     -10.337022      -281.2847
  35   2.0000     -10.324702      -280.9494
  36   2.0000     -10.322684      -280.8945
  37   2.0000     -10.321344      -280.8581
  38   2.0000     -10.320946      -280.8472
  39   2.0000     -10.319085      -280.7966
  40   2.0000     -10.318357      -280.7768
  41   2.0000     -10.317622      -280.7568
  42   2.0000     -10.316791      -280.7342
  43   2.0000     -10.316540      -280.7273
  44   2.0000     -10.316423      -280.7242
  45   2.0000     -10.316276      -280.7201
  46   2.0000     -10.315990      -280.7124
  47   2.0000     -10.315147      -280.6894
  48   2.0000     -10.312373      -280.6139
  49   2.0000     -10.311739      -280.5967
  50   2.0000     -10.310406      -280.5604
  51   2.0000     -10.307940      -280.4933
  52   2.0000     -10.307286      -280.4755
  53   2.0000     -10.307109      -280.4707
  54   2.0000     -10.304311      -280.3945
  55   2.0000     -10.304190      -280.3913
  56   2.0000     -10.300777      -280.2984
  57   2.0000     -10.300320      -280.2859
  58   2.0000     -10.300302      -280.2855
  59   2.0000     -10.298677      -280.2413
  60   2.0000     -10.297478      -280.2086
  61   2.0000     -10.297160      -280.2000
  62   2.0000     -10.294366      -280.1239
  63   2.0000     -10.292632      -280.0768
  64   2.0000     -10.287801      -279.9453
  65   2.0000     -10.286921      -279.9214
  66   2.0000     -10.285975      -279.8956
  67   2.0000     -10.284655      -279.8597
  68   2.0000     -10.284163      -279.8463
  69   2.0000     -10.280286      -279.7408
  70   2.0000     -10.279363      -279.7157
  71   2.0000     -10.278184      -279.6836
  72   2.0000     -10.277342      -279.6607
  73   2.0000     -10.274425      -279.5813
  74   2.0000     -10.274285      -279.5775
  75   2.0000     -10.270344      -279.4703
  76   2.0000     -10.267057      -279.3808
  77   2.0000     -10.261719      -279.2356
  78   2.0000     -10.260860      -279.2122
  79   2.0000     -10.258371      -279.1445
  80   2.0000     -10.239648      -278.6350
  81   2.0000      -8.127496      -221.1604
  82   2.0000      -8.072223      -219.6563
  83   2.0000      -8.068781      -219.5627
  84   2.0000      -8.063866      -219.4290
  85   2.0000      -8.057001      -219.2421
  86   2.0000      -6.098806      -165.9569
  87   2.0000      -6.091158      -165.7488
  88   2.0000      -6.089631      -165.7073
  89   2.0000      -6.041466      -164.3966
  90   2.0000      -6.038018      -164.3028
  91   2.0000      -6.037426      -164.2867
  92   2.0000      -6.034372      -164.2036
  93   2.0000      -6.033960      -164.1924
  94   2.0000      -6.033354      -164.1759
  95   2.0000      -6.030958      -164.1107
  96   2.0000      -6.028905      -164.0549
  97   2.0000      -6.026586      -163.9917
  98   2.0000      -6.025975      -163.9751
  99   2.0000      -6.022046      -163.8682
 100   2.0000      -6.019007      -163.7855
 101   2.0000      -1.322897       -35.9979
 102   2.0000      -1.319985       -35.9186
 103   2.0000      -1.307728       -35.5851
 104   2.0000      -1.304816       -35.5059
 105   2.0000      -1.179725       -32.1019
 106   2.0000      -1.152114       -31.3506
 107   2.0000      -1.138396       -30.9773
 108   2.0000      -1.130360       -30.7587
 109   2.0000      -1.126515       -30.6540
 110   2.0000      -1.026466       -27.9316
 111   2.0000      -1.022266       -27.8173
 112   2.0000      -1.020160       -27.7600
 113   2.0000      -1.016732       -27.6667
 114   2.0000      -1.002061       -27.2675
 115   2.0000      -1.001027       -27.2393
 116   2.0000      -0.998980       -27.1836
 117   2.0000      -0.995278       -27.0829
 118   2.0000      -0.992624       -27.0107
 119   2.0000      -0.990032       -26.9401
 120   2.0000      -0.979451       -26.6522
 121   2.0000      -0.968786       -26.3620
 122   2.0000      -0.955917       -26.0118
 123   2.0000      -0.952621       -25.9221
 124   2.0000      -0.938542       -25.5390
 125   2.0000      -0.932288       -25.3688
 126   2.0000      -0.905335       -24.6354
 127   2.0000      -0.901671       -24.5357
 128   2.0000      -0.899172       -24.4677
 129   2.0000      -0.892376       -24.2828
 130   2.0000      -0.888090       -24.1662
 131   2.0000      -0.886033       -24.1102
 132   2.0000      -0.873275       -23.7630
 133   2.0000      -0.870339       -23.6831
 134   2.0000      -0.866169       -23.5697
 135   2.0000      -0.862704       -23.4754
 136   2.0000      -0.849218       -23.1084
 137   2.0000      -0.846851       -23.0440
 138   2.0000      -0.846064       -23.0226
 139   2.0000      -0.844329       -22.9754
 140   2.0000      -0.842434       -22.9238
 141   2.0000      -0.839919       -22.8554
 142   2.0000      -0.836920       -22.7737
 143   2.0000      -0.831678       -22.6311
 144   2.0000      -0.815129       -22.1808
 145   2.0000      -0.805964       -21.9314
 146   2.0000      -0.789701       -21.4889
 147   2.0000      -0.772500       -21.0208
 148   2.0000      -0.769725       -20.9453
 149   2.0000      -0.768338       -20.9075
 150   2.0000      -0.763980       -20.7890
 151   2.0000      -0.757643       -20.6165
 152   2.0000      -0.749885       -20.4054
 153   2.0000      -0.745526       -20.2868
 154   2.0000      -0.736799       -20.0493
 155   2.0000      -0.727121       -19.7860
 156   2.0000      -0.717127       -19.5140
 157   2.0000      -0.709181       -19.2978
 158   2.0000      -0.707049       -19.2398
 159   2.0000      -0.703944       -19.1553
 160   2.0000      -0.699630       -19.0379
 161   2.0000      -0.695838       -18.9347
 162   2.0000      -0.693296       -18.8655
 163   2.0000      -0.689201       -18.7541
 164   2.0000      -0.688574       -18.7371
 165   2.0000      -0.684371       -18.6227
 166   2.0000      -0.680894       -18.5281
 167   2.0000      -0.675559       -18.3829
 168   2.0000      -0.664675       -18.0867
 169   2.0000      -0.651689       -17.7334
 170   2.0000      -0.645784       -17.5727
 171   2.0000      -0.645222       -17.5574
 172   2.0000      -0.641464       -17.4551
 173   2.0000      -0.639925       -17.4132
 174   2.0000      -0.638362       -17.3707
 175   2.0000      -0.636573       -17.3220
 176   2.0000      -0.634612       -17.2687
 177   2.0000      -0.630255       -17.1501
 178   2.0000      -0.628673       -17.1071
 179   2.0000      -0.626082       -17.0365
 180   2.0000      -0.621474       -16.9112
 181   2.0000      -0.612783       -16.6747
 182   2.0000      -0.607407       -16.5284
 183   2.0000      -0.604252       -16.4425
 184   2.0000      -0.600155       -16.3311
 185   2.0000      -0.594704       -16.1827
 186   2.0000      -0.590470       -16.0675
 187   2.0000      -0.587913       -15.9979
 188   2.0000      -0.585409       -15.9298
 189   2.0000      -0.584736       -15.9115
 190   2.0000      -0.577790       -15.7225
 191   2.0000      -0.573249       -15.5989
 192   2.0000      -0.571234       -15.5441
 193   2.0000      -0.564988       -15.3741
 194   2.0000      -0.560896       -15.2628
 195   2.0000      -0.559459       -15.2237
 196   2.0000      -0.554457       -15.0875
 197   2.0000      -0.552931       -15.0460
 198   2.0000      -0.550881       -14.9902
 199   2.0000      -0.548121       -14.9151
 200   2.0000      -0.547978       -14.9112
 201   2.0000      -0.547466       -14.8973
 202   2.0000      -0.546583       -14.8733
 203   2.0000      -0.545279       -14.8378
 204   2.0000      -0.545091       -14.8327
 205   2.0000      -0.541661       -14.7393
 206   2.0000      -0.537733       -14.6325
 207   2.0000      -0.535108       -14.5610
 208   2.0000      -0.533280       -14.5113
 209   2.0000      -0.530467       -14.4348
 210   2.0000      -0.530117       -14.4252
 211   2.0000      -0.528673       -14.3859
 212   2.0000      -0.525281       -14.2936
 213   2.0000      -0.523290       -14.2394
 214   2.0000      -0.522384       -14.2148
 215   2.0000      -0.521400       -14.1880
 216   2.0000      -0.518682       -14.1141
 217   2.0000      -0.509876       -13.8744
 218   2.0000      -0.503287       -13.6951
 219   2.0000      -0.501881       -13.6569
 220   2.0000      -0.500551       -13.6207
 221   2.0000      -0.499292       -13.5864
 222   2.0000      -0.497991       -13.5510
 223   2.0000      -0.495699       -13.4887
 224   2.0000      -0.495305       -13.4779
 225   2.0000      -0.494137       -13.4462
 226   2.0000      -0.491939       -13.3863
 227   2.0000      -0.490284       -13.3413
 228   2.0000      -0.488292       -13.2871
 229   2.0000      -0.487198       -13.2573
 230   2.0000      -0.483757       -13.1637
 231   2.0000      -0.481715       -13.1081
 232   2.0000      -0.480294       -13.0695
 233   2.0000      -0.479620       -13.0511
 234   2.0000      -0.478694       -13.0259
 235   2.0000      -0.477297       -12.9879
 236   2.0000      -0.474164       -12.9027
 237   2.0000      -0.472104       -12.8466
 238   2.0000      -0.470726       -12.8091
 239   2.0000      -0.466575       -12.6961
 240   2.0000      -0.463461       -12.6114
 241   2.0000      -0.462373       -12.5818
 242   2.0000      -0.459037       -12.4910
 243   2.0000      -0.457636       -12.4529
 244   2.0000      -0.455729       -12.4010
 245   2.0000      -0.455183       -12.3862
 246   2.0000      -0.453761       -12.3475
 247   2.0000      -0.452363       -12.3094
 248   2.0000      -0.451415       -12.2836
 249   2.0000      -0.451138       -12.2761
 250   2.0000      -0.448626       -12.2077
 251   2.0000      -0.447037       -12.1645
 252   2.0000      -0.446262       -12.1434
 253   2.0000      -0.444822       -12.1042
 254   2.0000      -0.443421       -12.0661
 255   2.0000      -0.443043       -12.0558
 256   2.0000      -0.441295       -12.0083
 257   2.0000      -0.439825       -11.9682
 258   2.0000      -0.437933       -11.9168
 259   2.0000      -0.435196       -11.8423
 260   2.0000      -0.433676       -11.8009
 261   2.0000      -0.433094       -11.7851
 262   2.0000      -0.428909       -11.6712
 263   2.0000      -0.427419       -11.6307
 264   2.0000      -0.426108       -11.5950
 265   2.0000      -0.424476       -11.5506
 266   2.0000      -0.423838       -11.5332
 267   2.0000      -0.420000       -11.4288
 268   2.0000      -0.415494       -11.3062
 269   2.0000      -0.414513       -11.2795
 270   2.0000      -0.411805       -11.2058
 271   2.0000      -0.410341       -11.1659
 272   2.0000      -0.409462       -11.1420
 273   2.0000      -0.406536       -11.0624
 274   2.0000      -0.403882       -10.9902
 275   2.0000      -0.403502       -10.9799
 276   2.0000      -0.399165       -10.8618
 277   2.0000      -0.397678       -10.8214
 278   2.0000      -0.396423       -10.7872
 279   2.0000      -0.393659       -10.7120
 280   2.0000      -0.389155       -10.5895
 281   2.0000      -0.378766       -10.3068
 282   2.0000      -0.373436       -10.1617
 283   2.0000      -0.368601       -10.0301
 284   2.0000      -0.361885        -9.8474
 285   2.0000      -0.353302        -9.6138
 286   2.0000      -0.348106        -9.4724
 287   2.0000      -0.345291        -9.3958
 288   2.0000      -0.339298        -9.2328
 289   2.0000      -0.336260        -9.1501
 290   2.0000      -0.335047        -9.1171
 291   2.0000      -0.332954        -9.0601
 292   2.0000      -0.331594        -9.0231
 293   2.0000      -0.325643        -8.8612
 294   2.0000      -0.323192        -8.7945
 295   2.0000      -0.320278        -8.7152
 296   2.0000      -0.313633        -8.5344
 297   2.0000      -0.309777        -8.4295
 298   2.0000      -0.295705        -8.0465
 299   2.0000      -0.259597        -7.0640
 300   2.0000      -0.235173        -6.3994
 301   0.0000      -0.104176        -2.8348
 302   0.0000      -0.088954        -2.4206
 303   0.0000      -0.074281        -2.0213
 304   0.0000      -0.060106        -1.6356
 305   0.0000      -0.055985        -1.5234

MULLIKEN ATOMIC CHARGES
-----------------------
   0 C :    0.129965
   1 O :   -0.144336
   2 C :    0.012918
   3 C :   -0.105419
   4 C :    0.233762
   5 C :    0.235172
   6 C :   -0.093593
   7 C :    0.023216
   8 C :    0.270213
   9 C :   -0.354448
  10 C :   -0.199805
  11 N :    0.171341
  12 C :   -0.181942
  13 N :    0.155518
  14 C :   -0.147456
  15 F :   -0.167629
  16 C :    0.080462
  17 F :   -0.170782
  18 C :    0.134266
  19 O :   -0.146940
  20 C :    0.011836
  21 C :   -0.107114
  22 C :    0.232986
  23 C :    0.233724
  24 C :   -0.094092
  25 C :    0.023572
  26 C :    0.268654
  27 C :   -0.354732
  28 C :   -0.176703
  29 N :    0.157908
  30 C :   -0.180846
  31 N :    0.153223
  32 C :   -0.154201
  33 F :   -0.167970
  34 C :    0.083418
  35 F :   -0.171509
  36 C :   -0.123726
  37 S :    0.179291
  38 C :   -0.054294
  39 C :   -0.011251
  40 C :    0.002030
  41 C :   -0.068757
  42 C :    0.032734
  43 C :   -0.086840
  44 S :    0.176815
  45 C :   -0.149345
  46 C :   -0.060377
  47 C :    0.142925
  48 C :    0.097023
  49 C :    0.006681
  50 C :    0.194931
  51 C :   -0.029064
  52 C :   -0.007063
  53 N :   -0.308210
  54 S :    0.530653
  55 N :   -0.325686
  56 C :   -0.171084
  57 S :    0.190696
  58 C :   -0.069155
  59 C :    0.027224
  60 C :   -0.070498
  61 C :   -0.057663
  62 C :   -0.004373
  63 C :   -0.095635
  64 S :    0.178865
  65 C :   -0.119309
  66 C :    0.003760
  67 O :   -0.331759
  68 O :   -0.365447
  69 C :    0.174811
  70 C :   -0.001131
  71 C :    0.171364
  72 C :    0.012500
  73 C :    0.057990
  74 C :    0.020462
  75 C :    0.068518
  76 C :    0.026716
  77 C :    0.054735
  78 C :    0.016085
  79 C :    0.072774
  80 C :    0.029080
  81 H :    0.010945
  82 H :    0.015787
  83 H :    0.021219
  84 H :    0.010696
  85 H :    0.015191
  86 H :    0.019394
  87 H :    0.002965
  88 H :   -0.018677
  89 H :   -0.006905
  90 H :   -0.002083
  91 H :    0.027271
  92 H :    0.015715
  93 H :    0.029038
  94 H :    0.022253
  95 H :    0.029379
  96 H :    0.020771
  97 H :    0.020222
  98 H :    0.023331
  99 H :    0.026501
 100 H :    0.024303
 101 H :    0.005782
 102 H :    0.002149
 103 H :    0.018942
 104 H :    0.013233
 105 H :    0.021307
 106 H :    0.028902
 107 H :    0.001228
 108 H :    0.019922
 109 H :    0.020855
 110 H :    0.001843
 111 H :    0.010266
 112 H :   -0.004731
 113 H :    0.034094
 114 H :    0.008730
 115 H :    0.013987
 116 H :    0.005732
 117 H :   -0.002095
 118 H :    0.013870
 119 H :    0.015598
 120 H :    0.012437
Sum of atomic charges:    0.0000000

LOEWDIN ATOMIC CHARGES
----------------------
   0 C :    0.081135
   1 O :   -0.145541
   2 C :   -0.046010
   3 C :   -0.006289
   4 C :    0.068176
   5 C :    0.072381
   6 C :   -0.022667
   7 C :   -0.013053
   8 C :    0.066928
   9 C :   -0.151586
  10 C :   -0.014926
  11 N :   -0.045868
  12 C :   -0.023908
  13 N :   -0.055825
  14 C :   -0.116594
  15 F :   -0.045531
  16 C :    0.050163
  17 F :   -0.047396
  18 C :    0.081074
  19 O :   -0.147578
  20 C :   -0.045521
  21 C :   -0.007009
  22 C :    0.067408
  23 C :    0.071577
  24 C :   -0.023094
  25 C :   -0.013051
  26 C :    0.067265
  27 C :   -0.155423
  28 C :   -0.008110
  29 N :   -0.043769
  30 C :   -0.024442
  31 N :   -0.058140
  32 C :   -0.120169
  33 F :   -0.046321
  34 C :    0.050032
  35 F :   -0.048369
  36 C :   -0.187807
  37 S :    0.466105
  38 C :   -0.153718
  39 C :   -0.035531
  40 C :   -0.006526
  41 C :   -0.212740
  42 C :   -0.018559
  43 C :   -0.032484
  44 S :    0.480452
  45 C :   -0.147328
  46 C :   -0.053765
  47 C :   -0.071651
  48 C :    0.049735
  49 C :    0.028944
  50 C :   -0.057739
  51 C :   -0.052928
  52 C :   -0.046327
  53 N :   -0.295308
  54 S :    0.648342
  55 N :   -0.301632
  56 C :   -0.155836
  57 S :    0.485415
  58 C :   -0.205585
  59 C :   -0.024127
  60 C :   -0.052976
  61 C :   -0.160488
  62 C :   -0.032414
  63 C :   -0.032194
  64 S :    0.465939
  65 C :   -0.185603
  66 C :   -0.004942
  67 O :   -0.096682
  68 O :   -0.125650
  69 C :    0.090214
  70 C :   -0.065161
  71 C :    0.087621
  72 C :   -0.060683
  73 C :   -0.013358
  74 C :   -0.057178
  75 C :   -0.007121
  76 C :   -0.058366
  77 C :   -0.012923
  78 C :   -0.060438
  79 C :   -0.008707
  80 C :   -0.058219
  81 H :    0.051764
  82 H :    0.050437
  83 H :    0.045474
  84 H :    0.051432
  85 H :    0.050294
  86 H :    0.044947
  87 H :    0.034203
  88 H :    0.027276
  89 H :    0.028310
  90 H :    0.035134
  91 H :    0.020199
  92 H :    0.015244
  93 H :    0.029717
  94 H :    0.032897
  95 H :    0.027636
  96 H :    0.016610
  97 H :    0.014280
  98 H :    0.027470
  99 H :    0.036087
 100 H :    0.028253
 101 H :    0.019725
 102 H :    0.023201
 103 H :    0.023256
 104 H :    0.025478
 105 H :    0.025678
 106 H :    0.033303
 107 H :    0.021820
 108 H :    0.024395
 109 H :    0.031591
 110 H :    0.018297
 111 H :    0.021514
 112 H :    0.019320
 113 H :    0.025616
 114 H :    0.025471
 115 H :    0.022201
 116 H :    0.026163
 117 H :    0.020472
 118 H :    0.022817
 119 H :    0.029067
 120 H :    0.022928

  Mayer bond orders larger than 0.100000
B(  0-C ,  1-O ) :   2.2638 B(  0-C ,  2-C ) :   0.9266 B(  0-C , 14-C ) :   0.9635
B(  2-C ,  3-C ) :   1.3248 B(  2-C ,  7-C ) :   1.3461 B(  3-C ,  4-C ) :   1.3158
B(  3-C ,  6-C ) :   0.1047 B(  3-C , 81-H ) :   1.0213 B(  4-C ,  5-C ) :   1.2954
B(  4-C , 17-F ) :   1.1291 B(  5-C ,  6-C ) :   1.3299 B(  5-C , 15-F ) :   1.1402
B(  6-C ,  7-C ) :   1.3217 B(  6-C , 82-H ) :   0.9951 B(  7-C ,  8-C ) :   1.0111
B(  8-C ,  9-C ) :   1.6176 B(  8-C , 14-C ) :   1.0781 B(  9-C , 10-C ) :   1.1793
B(  9-C , 12-C ) :   1.1261 B( 10-C , 11-N ) :   2.9721 B( 12-C , 13-N ) :   2.9927
B( 14-C , 16-C ) :   1.5757 B( 16-C , 65-C ) :   1.2086 B( 16-C , 83-H ) :   0.9282
B( 18-C , 19-O ) :   2.2625 B( 18-C , 20-C ) :   0.9224 B( 18-C , 32-C ) :   0.9674
B( 20-C , 21-C ) :   1.3290 B( 20-C , 25-C ) :   1.3475 B( 21-C , 22-C ) :   1.3135
B( 21-C , 24-C ) :   0.1049 B( 21-C , 84-H ) :   1.0203 B( 22-C , 23-C ) :   1.2977
B( 22-C , 35-F ) :   1.1284 B( 23-C , 24-C ) :   1.3289 B( 23-C , 33-F ) :   1.1400
B( 24-C , 25-C ) :   1.3225 B( 24-C , 85-H ) :   0.9950 B( 25-C , 26-C ) :   1.0123
B( 26-C , 27-C ) :   1.6081 B( 26-C , 32-C ) :   1.0864 B( 27-C , 28-C ) :   1.1842
B( 27-C , 30-C ) :   1.1268 B( 28-C , 29-N ) :   2.9151 B( 30-C , 31-N ) :   2.9921
B( 32-C , 34-C ) :   1.5602 B( 34-C , 36-C ) :   1.2230 B( 34-C , 86-H ) :   0.9293
B( 36-C , 37-S ) :   1.0729 B( 36-C , 40-C ) :   1.3262 B( 37-S , 38-C ) :   1.1333
B( 38-C , 39-C ) :   1.4419 B( 38-C , 41-C ) :   1.2048 B( 39-C , 40-C ) :   1.4389
B( 39-C , 43-C ) :   0.9158 B( 40-C , 87-H ) :   0.9822 B( 41-C , 42-C ) :   1.4815
B( 41-C , 44-S ) :   1.0417 B( 42-C , 43-C ) :   0.9302 B( 42-C , 46-C ) :   1.2978
B( 43-C , 77-C ) :   1.0337 B( 43-C , 79-C ) :   1.0180 B( 44-S , 45-C ) :   1.1304
B( 45-C , 46-C ) :   1.4243 B( 45-C , 47-C ) :   1.1294 B( 46-C , 88-H ) :   1.0080
B( 47-C , 48-C ) :   1.3980 B( 47-C , 50-C ) :   0.1124 B( 47-C , 52-C ) :   1.1656
B( 48-C , 49-C ) :   1.1576 B( 48-C , 67-O ) :   1.1810 B( 49-C , 50-C ) :   1.4335
B( 49-C , 68-O ) :   1.0990 B( 50-C , 51-C ) :   1.1392 B( 50-C , 56-C ) :   1.1118
B( 51-C , 52-C ) :   1.1547 B( 51-C , 53-N ) :   1.5209 B( 52-C , 55-N ) :   1.5071
B( 53-N , 54-S ) :   1.2555 B( 53-N , 55-N ) :   0.1440 B( 54-S , 55-N ) :   1.2469
B( 56-C , 57-S ) :   1.1318 B( 56-C , 60-C ) :   1.4258 B( 57-S , 58-C ) :   1.0591
B( 58-C , 59-C ) :   1.4888 B( 58-C , 61-C ) :   1.1985 B( 59-C , 60-C ) :   1.2995
B( 59-C , 63-C ) :   0.9226 B( 60-C , 89-H ) :   1.0028 B( 61-C , 62-C ) :   1.4492
B( 61-C , 64-S ) :   1.1281 B( 62-C , 63-C ) :   0.9263 B( 62-C , 66-C ) :   1.4222
B( 63-C , 73-C ) :   1.0319 B( 63-C , 75-C ) :   1.0245 B( 64-S , 65-C ) :   1.0763
B( 65-C , 66-C ) :   1.3375 B( 66-C , 90-H ) :   0.9894 B( 67-O , 69-C ) :   0.8991
B( 68-O , 71-C ) :   0.8932 B( 69-C , 70-C ) :   1.1052 B( 69-C , 91-H ) :   0.9532
B( 69-C , 92-H ) :   0.9567 B( 70-C , 93-H ) :   0.9672 B( 70-C , 94-H ) :   0.9608
B( 70-C , 95-H ) :   0.9663 B( 71-C , 72-C ) :   1.1107 B( 71-C , 96-H ) :   0.9443
B( 71-C , 97-H ) :   0.9501 B( 72-C , 98-H ) :   0.9684 B( 72-C , 99-H ) :   0.9583
B( 72-C ,100-H ) :   0.9655 B( 73-C , 74-C ) :   1.0994 B( 73-C ,101-H ) :   0.9409
B( 73-C ,102-H ) :   0.9387 B( 74-C ,103-H ) :   0.9648 B( 74-C ,104-H ) :   0.9646
B( 74-C ,105-H ) :   0.9646 B( 75-C , 76-C ) :   1.1145 B( 75-C ,106-H ) :   0.9376
B( 75-C ,107-H ) :   0.9361 B( 76-C ,108-H ) :   0.9625 B( 76-C ,109-H ) :   0.9593
B( 76-C ,110-H ) :   0.9628 B( 77-C , 78-C ) :   1.0979 B( 77-C ,111-H ) :   0.9399
B( 77-C ,112-H ) :   0.9397 B( 78-C ,113-H ) :   0.9541 B( 78-C ,114-H ) :   0.9607
B( 78-C ,115-H ) :   0.9587 B( 79-C , 80-C ) :   1.1122 B( 79-C ,116-H ) :   0.9403
B( 79-C ,117-H ) :   0.9383 B( 80-C ,118-H ) :   0.9630 B( 80-C ,119-H ) :   0.9602
B( 80-C ,120-H ) :   0.9639

-----------------------------------------------------------------------------
         ABSORPTION SPECTRUM VIA TRANSITION ELECTRIC DIPOLE MOMENTS
-----------------------------------------------------------------------------
State   Energy  Wavelength   fosc         T2         TX        TY        TZ
        (cm-1)    (nm)                  (au**2)     (au)      (au)      (au)
-----------------------------------------------------------------------------
   0   14027.7    712.9   2.504194452  58.77019  -3.25858  -0.60591  -6.91265
   1   17646.5    566.7   0.019440914   0.36269   0.33046   0.48523   0.13432
   2   20124.1    496.9   0.055941798   0.91516   0.24615  -0.78827   0.48290
   3   21785.6    459.0   0.015287281   0.23101   0.34006   0.23623   0.24406
   4   24381.8    410.1   0.262537486   3.54487   0.22128   0.48901   1.80465
   5   24584.5    406.8   0.223637321   2.99473   1.22336   0.74044   0.97462
   6   26296.0    380.3   0.076747482   0.96084  -0.38684   0.51681  -0.73763
   7   28165.1    355.0   0.042918899   0.50166   0.35722  -0.45919  -0.40398
   8   29150.5    343.0   0.075635318   0.85419   0.35093   0.68592   0.51043
   9   29988.9    333.5   0.022851951   0.25086   0.42652   0.14054  -0.22181
  10   30398.2    329.0   0.309027994   3.34677  -0.85608  -0.86850  -1.36367
  11   31221.8    320.3   0.052144426   0.54983   0.50609   0.05500   0.53914
  12   31604.1    316.4   0.077697577   0.80936   0.21127  -0.34436  -0.80383
  13   31916.7    313.3   0.028813611   0.29720  -0.10161   0.03896  -0.53419
  14   31962.1    312.9   0.002101981   0.02165  -0.08228  -0.12174   0.00775
  15   32002.1    312.5   0.084157220   0.86574   0.70937   0.37461   0.47139
  16   32278.9    309.8   0.142688282   1.45528   1.06704   0.53853   0.16335
  17   32343.8    309.2   0.065071759   0.66233  -0.05836   0.47801   0.65608
  18   32631.4    306.5   0.045318919   0.45721   0.06759  -0.58261  -0.33647
  19   33217.4    301.0   0.148316047   1.46994  -0.28950   0.58915   1.01932
  20   33518.2    298.3   0.043831689   0.43051   0.07915   0.36940   0.53646
  21   33691.0    296.8   0.029072129   0.28408  -0.48384  -0.20516  -0.08882
  22   33957.0    294.5   0.147986880   1.43473  -0.91451  -0.62891  -0.45041
  23   34025.6    293.9   0.020934731   0.20255  -0.40202  -0.05851  -0.19368
  24   34598.4    289.0   0.081148228   0.77214   0.60718  -0.33209  -0.54148
  25   35477.7    281.9   0.038575103   0.35795   0.06734  -0.29902   0.51382
  26   35645.9    280.5   0.026447376   0.24426   0.43742  -0.04728  -0.22514
  27   36165.6    276.5   0.000375095   0.00341   0.03977   0.04281  -0.00086
  28   36420.3    274.6   0.018249624   0.16496   0.02719  -0.40274  -0.04503
  29   36974.1    270.5   0.368344008   3.27968   0.61206   1.24145   1.16784
  30   37128.5    269.3   0.035212171   0.31222   0.08134  -0.22642  -0.50432
  31   37309.9    268.0   0.013069472   0.11532  -0.12207   0.02513   0.31590
  32   37526.1    266.5   0.388442912   3.40776   0.62350   1.46123   0.94011
  33   38099.3    262.5   0.081041685   0.70027   0.68065  -0.03354  -0.48566
  34   38811.8    257.7   0.209236698   1.77480  -0.69037  -0.96968  -0.59826
  35   38973.8    256.6   0.042543857   0.35937   0.29394   0.37783   0.36085
  36   39278.6    254.6   0.122679818   1.02824   0.16908  -0.66346  -0.74798
  37   39403.8    253.8   0.022528360   0.18822   0.03350   0.42824  -0.06090
  38   39603.2    252.5   0.031125569   0.25874  -0.41829  -0.24310  -0.15708
  39   39801.1    251.2   0.004838711   0.04002  -0.04526   0.10103  -0.16664
  40   39980.9    250.1   0.002380718   0.01960   0.13213  -0.03877  -0.02536
  41   40165.4    249.0   0.005715159   0.04684   0.14360   0.04400  -0.15584

FINAL SINGLE POINT ENERGY     -5401.442267000620

DIPOLE MOMENT
-------------
                                X             Y             Z
Electronic contribution:    -72.36877       2.25745      30.72483
Nuclear contribution   :     73.80578      -2.22317     -32.01280
                        -----------------------------------------
Total Dipole Moment    :      1.43701       0.03428      -1.28796
                        -----------------------------------------
Magnitude (a.u.)       :      1.93003
Magnitude (Debye)      :      4.90574

Rotational constants in cm-1:     0.002936     0.000156     0.000153
Rotational constants in MHz :    88.032623     4.670359     4.579373

                             ****ORCA TERMINATED NORMALLY****
TOTAL RUN TIME: 0 days 1 hours 37 minutes 4 seconds 180 msec
