                         Program Version 4.2.0 -  RELEASE  -
|  1> # ORCA input file
|  2> # BCDT-4F.out: Geometry 166
|  3> ! CAM-B3LYP def2-SVP def2/J RIJCOSX Grid4 TightSCF
|  4> %maxcore 5000
|  5> %tddft
|  6>     Mode sTDDFT
|  7>     Ethresh 5.0
|  8>     maxcore 5000
|  9> end
| 10> * xyz 0 1
| 11>    C        2.33218        -1.21393        -3.61652
| 12>    O        1.55547        -1.99376        -3.10448
| 13>    C        2.52990        -0.98580        -5.07127
| 14>    C        1.89208        -1.62675        -6.12760
| 15>    C        2.25614        -1.25652        -7.41778
| 16>    C        3.23565        -0.26647        -7.62464
| 17>    C        3.86285         0.38448        -6.56385
| 18>    C        3.50203         0.01645        -5.26169
| 19>    C        3.91671         0.53963        -3.93161
| 20>    C        4.56136         1.75472        -3.74132
| 21>    C        4.63272         2.41648        -2.47976
| 22>    N        4.69689         2.99631        -1.47422
| 23>    C        5.12931         2.50496        -4.81711
| 24>    N        5.62184         3.11807        -5.67345
| 25>    C        3.32285        -0.32555        -2.92446
| 26>    F        3.56482         0.05241        -8.87397
| 27>    C        3.52612        -0.52822        -1.57259
| 28>    F        1.68675        -1.83292        -8.47403
| 29>    C       13.79329         5.08857        18.79255
| 30>    O       13.07972         6.05439        18.97068
| 31>    C       14.96814         4.67910        19.61030
| 32>    C       15.52718         5.33676        20.70093
| 33>    C       16.63528         4.75426        21.31029
| 34>    C       17.14558         3.53101        20.83856
| 35>    C       16.58100         2.87290        19.74685
| 36>    C       15.47800         3.46206        19.11600
| 37>    C       14.62306         3.00994        17.98280
| 38>    C       14.60105         1.71289        17.48590
| 39>    C       13.53725         1.21824        16.67660
| 40>    N       12.66382         0.78843        16.04119
| 41>    C       15.56643         0.72729        17.85680
| 42>    N       16.35412        -0.07958        18.13978
| 43>    C       13.69397         4.08202        17.68503
| 44>    F       18.19349         2.99314        21.46073
| 45>    C       12.83475         4.38097        16.64169
| 46>    F       17.22972         5.34411        22.34626
| 47>    C       12.74578         3.92735        15.30729
| 48>    S       11.29656         4.36188        14.37686
| 49>    C       11.93061         3.60453        12.97855
| 50>    C       13.22110         3.06722        13.18372
| 51>    C       13.66280         3.22784        14.49451
| 52>    C       11.51049         3.32608        11.64070
| 53>    C       12.53843         2.64121        10.98795
| 54>    C       13.73110         2.40588        11.90306
| 55>    S       10.10854         3.51968        10.65192
| 56>    C       10.92849         2.71319         9.30352
| 57>    C       12.21720         2.30608         9.66815
| 58>    C       10.28167         2.51880         8.01839
| 59>    C       10.98966         2.24821         6.84193
| 60>    C       10.34816         1.94618         5.58905
| 61>    C        8.96303         1.92807         5.41675
| 62>    C        8.20380         2.25639         6.59553
| 63>    C        8.84877         2.55418         7.86570
| 64>    N        6.87642         2.32552         6.65619
| 65>    S        6.46960         2.75212         8.18925
| 66>    N        7.97933         2.85542         8.82777
| 67>    C        8.32693         1.59362         4.15437
| 68>    S        6.66020         1.00081         4.08838
| 69>    C        6.77713         0.81284         2.37811
| 70>    C        8.01188         1.23536         1.86936
| 71>    C        8.89166         1.65817         2.87529
| 72>    C        5.95563         0.37663         1.29012
| 73>    C        6.67618         0.52273         0.08874
| 74>    C        8.05851         1.11602         0.35085
| 75>    S        4.35023        -0.17597         1.03431
| 76>    C        4.59621        -0.15903        -0.72411
| 77>    C        5.91150         0.23005        -1.03631
| 78>    O       12.34577         2.18567         6.85492
| 79>    O       11.17527         1.65840         4.54570
| 80>    C       13.08797         3.18099         6.12149
| 81>    C       13.69003         4.20130         7.06801
| 82>    C       11.67059         0.30763         4.48806
| 83>    C       12.30832         0.10055         3.13036
| 84>    C        9.21701         0.20413        -0.11913
| 85>    C        9.18454        -1.21807         0.43439
| 86>    C        8.11217         2.51345        -0.33400
| 87>    C        9.40216         3.30714        -0.13984
| 88>    C       13.98492         0.88975        12.09516
| 89>    C       12.75957         0.08842        12.52791
| 90>    C       14.96811         3.13255        11.30802
| 91>    C       16.27864         2.97459        12.07183
| 92>    H        1.13186        -2.39042        -5.95485
| 93>    H        4.60640         1.14501        -6.79552
| 94>    H        2.73386        -1.13897        -1.11870
| 95>    H       15.11289         6.27407        21.07521
| 96>    H       17.02456         1.93114        19.43134
| 97>    H       12.14796         5.19661        16.90618
| 98>    H       14.62208         2.88072        14.87404
| 99>    H       12.86516         1.77173         8.98091
|100>    H        9.90216         2.01921         2.71561
|101>    H        6.27057         0.27722        -2.06343
|102>    H       12.43215         3.65903         5.37965
|103>    H       13.87045         2.63727         5.57060
|104>    H       12.90707         4.75432         7.60824
|105>    H       14.29801         4.92433         6.49992
|106>    H       14.33610         3.71375         7.81347
|107>    H       10.82721        -0.38753         4.64449
|108>    H       12.39572         0.15528         5.30535
|109>    H       11.55818         0.17983         2.32940
|110>    H       12.77264        -0.89605         3.07476
|111>    H       13.08943         0.85457         2.95025
|112>    H       10.16455         0.68742         0.16892
|113>    H        9.20873         0.18058        -1.22221
|114>    H        9.25822        -1.22389         1.53362
|115>    H       10.02337        -1.80994         0.03721
|116>    H        8.25285        -1.73710         0.15975
|117>    H        7.25051         3.09811         0.02348
|118>    H        7.93539         2.36062        -1.41189
|119>    H        9.61210         3.50257         0.92252
|120>    H        9.31918         4.28245        -0.64217
|121>    H       10.27411         2.79310        -0.57127
|122>    H       14.78673         0.75775        12.83930
|123>    H       14.38041         0.49601        11.14267
|124>    H       12.39160         0.41837        13.51110
|125>    H       13.01671        -0.97859        12.61349
|126>    H       11.93741         0.18017        11.80181
|127>    H       14.71443         4.20148        11.21608
|128>    H       15.10274         2.75796        10.27876
|129>    H       16.19302         3.33118        13.10992
|130>    H       17.07150         3.56717        11.59091
|131>    H       16.61835         1.92854        12.09589
|132> *
|133>
|134>                          ****END OF INPUT****

CARTESIAN COORDINATES (ANGSTROEM)
---------------------------------
  C      2.332180   -1.213930   -3.616520
  O      1.555470   -1.993760   -3.104480
  C      2.529900   -0.985800   -5.071270
  C      1.892080   -1.626750   -6.127600
  C      2.256140   -1.256520   -7.417780
  C      3.235650   -0.266470   -7.624640
  C      3.862850    0.384480   -6.563850
  C      3.502030    0.016450   -5.261690
  C      3.916710    0.539630   -3.931610
  C      4.561360    1.754720   -3.741320
  C      4.632720    2.416480   -2.479760
  N      4.696890    2.996310   -1.474220
  C      5.129310    2.504960   -4.817110
  N      5.621840    3.118070   -5.673450
  C      3.322850   -0.325550   -2.924460
  F      3.564820    0.052410   -8.873970
  C      3.526120   -0.528220   -1.572590
  F      1.686750   -1.832920   -8.474030
  C     13.793290    5.088570   18.792550
  O     13.079720    6.054390   18.970680
  C     14.968140    4.679100   19.610300
  C     15.527180    5.336760   20.700930
  C     16.635280    4.754260   21.310290
  C     17.145580    3.531010   20.838560
  C     16.581000    2.872900   19.746850
  C     15.478000    3.462060   19.116000
  C     14.623060    3.009940   17.982800
  C     14.601050    1.712890   17.485900
  C     13.537250    1.218240   16.676600
  N     12.663820    0.788430   16.041190
  C     15.566430    0.727290   17.856800
  N     16.354120   -0.079580   18.139780
  C     13.693970    4.082020   17.685030
  F     18.193490    2.993140   21.460730
  C     12.834750    4.380970   16.641690
  F     17.229720    5.344110   22.346260
  C     12.745780    3.927350   15.307290
  S     11.296560    4.361880   14.376860
  C     11.930610    3.604530   12.978550
  C     13.221100    3.067220   13.183720
  C     13.662800    3.227840   14.494510
  C     11.510490    3.326080   11.640700
  C     12.538430    2.641210   10.987950
  C     13.731100    2.405880   11.903060
  S     10.108540    3.519680   10.651920
  C     10.928490    2.713190    9.303520
  C     12.217200    2.306080    9.668150
  C     10.281670    2.518800    8.018390
  C     10.989660    2.248210    6.841930
  C     10.348160    1.946180    5.589050
  C      8.963030    1.928070    5.416750
  C      8.203800    2.256390    6.595530
  C      8.848770    2.554180    7.865700
  N      6.876420    2.325520    6.656190
  S      6.469600    2.752120    8.189250
  N      7.979330    2.855420    8.827770
  C      8.326930    1.593620    4.154370
  S      6.660200    1.000810    4.088380
  C      6.777130    0.812840    2.378110
  C      8.011880    1.235360    1.869360
  C      8.891660    1.658170    2.875290
  C      5.955630    0.376630    1.290120
  C      6.676180    0.522730    0.088740
  C      8.058510    1.116020    0.350850
  S      4.350230   -0.175970    1.034310
  C      4.596210   -0.159030   -0.724110
  C      5.911500    0.230050   -1.036310
  O     12.345770    2.185670    6.854920
  O     11.175270    1.658400    4.545700
  C     13.087970    3.180990    6.121490
  C     13.690030    4.201300    7.068010
  C     11.670590    0.307630    4.488060
  C     12.308320    0.100550    3.130360
  C      9.217010    0.204130   -0.119130
  C      9.184540   -1.218070    0.434390
  C      8.112170    2.513450   -0.334000
  C      9.402160    3.307140   -0.139840
  C     13.984920    0.889750   12.095160
  C     12.759570    0.088420   12.527910
  C     14.968110    3.132550   11.308020
  C     16.278640    2.974590   12.071830
  H      1.131860   -2.390420   -5.954850
  H      4.606400    1.145010   -6.795520
  H      2.733860   -1.138970   -1.118700
  H     15.112890    6.274070   21.075210
  H     17.024560    1.931140   19.431340
  H     12.147960    5.196610   16.906180
  H     14.622080    2.880720   14.874040
  H     12.865160    1.771730    8.980910
  H      9.902160    2.019210    2.715610
  H      6.270570    0.277220   -2.063430
  H     12.432150    3.659030    5.379650
  H     13.870450    2.637270    5.570600
  H     12.907070    4.754320    7.608240
  H     14.298010    4.924330    6.499920
  H     14.336100    3.713750    7.813470
  H     10.827210   -0.387530    4.644490
  H     12.395720    0.155280    5.305350
  H     11.558180    0.179830    2.329400
  H     12.772640   -0.896050    3.074760
  H     13.089430    0.854570    2.950250
  H     10.164550    0.687420    0.168920
  H      9.208730    0.180580   -1.222210
  H      9.258220   -1.223890    1.533620
  H     10.023370   -1.809940    0.037210
  H      8.252850   -1.737100    0.159750
  H      7.250510    3.098110    0.023480
  H      7.935390    2.360620   -1.411890
  H      9.612100    3.502570    0.922520
  H      9.319180    4.282450   -0.642170
  H     10.274110    2.793100   -0.571270
  H     14.786730    0.757750   12.839300
  H     14.380410    0.496010   11.142670
  H     12.391600    0.418370   13.511100
  H     13.016710   -0.978590   12.613490
  H     11.937410    0.180170   11.801810
  H     14.714430    4.201480   11.216080
  H     15.102740    2.757960   10.278760
  H     16.193020    3.331180   13.109920
  H     17.071500    3.567170   11.590910
  H     16.618350    1.928540   12.095890

 Total Charge           Charge          ....    0
 Multiplicity           Mult            ....    1
 Number of Electrons    NEL             ....  602
 Basis Dimension        Dim             .... 1354

ORBITAL ENERGIES
----------------

  NO   OCC          E(Eh)            E(eV)
   0   2.0000     -89.027275     -2422.5553
   1   2.0000     -88.977781     -2421.2085
   2   2.0000     -88.976297     -2421.1681
   3   2.0000     -88.970888     -2421.0209
   4   2.0000     -88.969313     -2420.9781
   5   2.0000     -24.802283      -674.9044
   6   2.0000     -24.800894      -674.8666
   7   2.0000     -24.800249      -674.8491
   8   2.0000     -24.798962      -674.8141
   9   2.0000     -19.255928      -523.9804
  10   2.0000     -19.254730      -523.9478
  11   2.0000     -19.217039      -522.9222
  12   2.0000     -19.215061      -522.8684
  13   2.0000     -14.453461      -393.2987
  14   2.0000     -14.452741      -393.2791
  15   2.0000     -14.421511      -392.4293
  16   2.0000     -14.421382      -392.4258
  17   2.0000     -14.419764      -392.3817
  18   2.0000     -14.418709      -392.3530
  19   2.0000     -10.386360      -282.6272
  20   2.0000     -10.386030      -282.6183
  21   2.0000     -10.384272      -282.5704
  22   2.0000     -10.383932      -282.5612
  23   2.0000     -10.369513      -282.1688
  24   2.0000     -10.367624      -282.1174
  25   2.0000     -10.361083      -281.9394
  26   2.0000     -10.358507      -281.8693
  27   2.0000     -10.351159      -281.6694
  28   2.0000     -10.349453      -281.6229
  29   2.0000     -10.348027      -281.5841
  30   2.0000     -10.346287      -281.5368
  31   2.0000     -10.341033      -281.3938
  32   2.0000     -10.340694      -281.3846
  33   2.0000     -10.339151      -281.3426
  34   2.0000     -10.338826      -281.3337
  35   2.0000     -10.328936      -281.0646
  36   2.0000     -10.328691      -281.0580
  37   2.0000     -10.327075      -281.0140
  38   2.0000     -10.325652      -280.9753
  39   2.0000     -10.324443      -280.9424
  40   2.0000     -10.324209      -280.9360
  41   2.0000     -10.323684      -280.9217
  42   2.0000     -10.323295      -280.9111
  43   2.0000     -10.323045      -280.9043
  44   2.0000     -10.322241      -280.8825
  45   2.0000     -10.321000      -280.8487
  46   2.0000     -10.319972      -280.8207
  47   2.0000     -10.319626      -280.8113
  48   2.0000     -10.317690      -280.7586
  49   2.0000     -10.317456      -280.7523
  50   2.0000     -10.315765      -280.7062
  51   2.0000     -10.312590      -280.6199
  52   2.0000     -10.309878      -280.5460
  53   2.0000     -10.309864      -280.5457
  54   2.0000     -10.309586      -280.5381
  55   2.0000     -10.308234      -280.5013
  56   2.0000     -10.307501      -280.4814
  57   2.0000     -10.305079      -280.4155
  58   2.0000     -10.305013      -280.4137
  59   2.0000     -10.303605      -280.3753
  60   2.0000     -10.302868      -280.3553
  61   2.0000     -10.302150      -280.3358
  62   2.0000     -10.301175      -280.3092
  63   2.0000     -10.299444      -280.2621
  64   2.0000     -10.296001      -280.1684
  65   2.0000     -10.290544      -280.0199
  66   2.0000     -10.290445      -280.0173
  67   2.0000     -10.288379      -279.9610
  68   2.0000     -10.287303      -279.9317
  69   2.0000     -10.286054      -279.8978
  70   2.0000     -10.284518      -279.8560
  71   2.0000     -10.280874      -279.7568
  72   2.0000     -10.280562      -279.7483
  73   2.0000     -10.280241      -279.7396
  74   2.0000     -10.276188      -279.6293
  75   2.0000     -10.273691      -279.5613
  76   2.0000     -10.272980      -279.5420
  77   2.0000     -10.267926      -279.4045
  78   2.0000     -10.266147      -279.3561
  79   2.0000     -10.263261      -279.2775
  80   2.0000     -10.247784      -278.8564
  81   2.0000      -8.118521      -220.9162
  82   2.0000      -8.072378      -219.6606
  83   2.0000      -8.071031      -219.6239
  84   2.0000      -8.064473      -219.4455
  85   2.0000      -8.062696      -219.3971
  86   2.0000      -6.089939      -165.7157
  87   2.0000      -6.082504      -165.5133
  88   2.0000      -6.080223      -165.4513
  89   2.0000      -6.041748      -164.4043
  90   2.0000      -6.040311      -164.3652
  91   2.0000      -6.037624      -164.2921
  92   2.0000      -6.036264      -164.2551
  93   2.0000      -6.034463      -164.2061
  94   2.0000      -6.034004      -164.1936
  95   2.0000      -6.033183      -164.1713
  96   2.0000      -6.032284      -164.1468
  97   2.0000      -6.029674      -164.0758
  98   2.0000      -6.027898      -164.0274
  99   2.0000      -6.026507      -163.9896
 100   2.0000      -6.024702      -163.9405
 101   2.0000      -1.327934       -36.1349
 102   2.0000      -1.325499       -36.0687
 103   2.0000      -1.312344       -35.7107
 104   2.0000      -1.309852       -35.6429
 105   2.0000      -1.174659       -31.9641
 106   2.0000      -1.145268       -31.1643
 107   2.0000      -1.129519       -30.7358
 108   2.0000      -1.127514       -30.6812
 109   2.0000      -1.122094       -30.5337
 110   2.0000      -1.018883       -27.7252
 111   2.0000      -1.017605       -27.6904
 112   2.0000      -1.013733       -27.5851
 113   2.0000      -1.011651       -27.5284
 114   2.0000      -0.996320       -27.1112
 115   2.0000      -0.994004       -27.0482
 116   2.0000      -0.993650       -27.0386
 117   2.0000      -0.990925       -26.9644
 118   2.0000      -0.989086       -26.9144
 119   2.0000      -0.982885       -26.7457
 120   2.0000      -0.975852       -26.5543
 121   2.0000      -0.960405       -26.1339
 122   2.0000      -0.950574       -25.8664
 123   2.0000      -0.948234       -25.8028
 124   2.0000      -0.932530       -25.3754
 125   2.0000      -0.927597       -25.2412
 126   2.0000      -0.900627       -24.5073
 127   2.0000      -0.898317       -24.4445
 128   2.0000      -0.893959       -24.3259
 129   2.0000      -0.888047       -24.1650
 130   2.0000      -0.882950       -24.0263
 131   2.0000      -0.879150       -23.9229
 132   2.0000      -0.869754       -23.6672
 133   2.0000      -0.867262       -23.5994
 134   2.0000      -0.861462       -23.4416
 135   2.0000      -0.860262       -23.4089
 136   2.0000      -0.845480       -23.0067
 137   2.0000      -0.844339       -22.9756
 138   2.0000      -0.841662       -22.9028
 139   2.0000      -0.840525       -22.8718
 140   2.0000      -0.838445       -22.8152
 141   2.0000      -0.836233       -22.7551
 142   2.0000      -0.832326       -22.6487
 143   2.0000      -0.829005       -22.5584
 144   2.0000      -0.812226       -22.1018
 145   2.0000      -0.803709       -21.8700
 146   2.0000      -0.784706       -21.3529
 147   2.0000      -0.768485       -20.9115
 148   2.0000      -0.766437       -20.8558
 149   2.0000      -0.765103       -20.8195
 150   2.0000      -0.762715       -20.7545
 151   2.0000      -0.756801       -20.5936
 152   2.0000      -0.747262       -20.3340
 153   2.0000      -0.740469       -20.1492
 154   2.0000      -0.734238       -19.9796
 155   2.0000      -0.725971       -19.7547
 156   2.0000      -0.715145       -19.4601
 157   2.0000      -0.705631       -19.2012
 158   2.0000      -0.702774       -19.1234
 159   2.0000      -0.700951       -19.0738
 160   2.0000      -0.696109       -18.9421
 161   2.0000      -0.691890       -18.8273
 162   2.0000      -0.691823       -18.8255
 163   2.0000      -0.686466       -18.6797
 164   2.0000      -0.685847       -18.6628
 165   2.0000      -0.680583       -18.5196
 166   2.0000      -0.678508       -18.4631
 167   2.0000      -0.674506       -18.3542
 168   2.0000      -0.664545       -18.0832
 169   2.0000      -0.651219       -17.7206
 170   2.0000      -0.644174       -17.5289
 171   2.0000      -0.641843       -17.4654
 172   2.0000      -0.639584       -17.4040
 173   2.0000      -0.637987       -17.3605
 174   2.0000      -0.636251       -17.3133
 175   2.0000      -0.634478       -17.2650
 176   2.0000      -0.631641       -17.1878
 177   2.0000      -0.627860       -17.0849
 178   2.0000      -0.624463       -16.9925
 179   2.0000      -0.622664       -16.9436
 180   2.0000      -0.617686       -16.8081
 181   2.0000      -0.607299       -16.5255
 182   2.0000      -0.606666       -16.5082
 183   2.0000      -0.604300       -16.4438
 184   2.0000      -0.598298       -16.2805
 185   2.0000      -0.593454       -16.1487
 186   2.0000      -0.589865       -16.0510
 187   2.0000      -0.587702       -15.9922
 188   2.0000      -0.585304       -15.9269
 189   2.0000      -0.581028       -15.8106
 190   2.0000      -0.576811       -15.6958
 191   2.0000      -0.570513       -15.5245
 192   2.0000      -0.568084       -15.4584
 193   2.0000      -0.562466       -15.3055
 194   2.0000      -0.555979       -15.1289
 195   2.0000      -0.553509       -15.0617
 196   2.0000      -0.551105       -14.9963
 197   2.0000      -0.549724       -14.9587
 198   2.0000      -0.549098       -14.9417
 199   2.0000      -0.548979       -14.9385
 200   2.0000      -0.547768       -14.9055
 201   2.0000      -0.545654       -14.8480
 202   2.0000      -0.545261       -14.8373
 203   2.0000      -0.543776       -14.7969
 204   2.0000      -0.541830       -14.7439
 205   2.0000      -0.540139       -14.6979
 206   2.0000      -0.531993       -14.4763
 207   2.0000      -0.530451       -14.4343
 208   2.0000      -0.529669       -14.4130
 209   2.0000      -0.529381       -14.4052
 210   2.0000      -0.527970       -14.3668
 211   2.0000      -0.525862       -14.3094
 212   2.0000      -0.524436       -14.2706
 213   2.0000      -0.523574       -14.2472
 214   2.0000      -0.520431       -14.1616
 215   2.0000      -0.518876       -14.1193
 216   2.0000      -0.518014       -14.0959
 217   2.0000      -0.508126       -13.8268
 218   2.0000      -0.504622       -13.7315
 219   2.0000      -0.499981       -13.6052
 220   2.0000      -0.499342       -13.5878
 221   2.0000      -0.497980       -13.5507
 222   2.0000      -0.495363       -13.4795
 223   2.0000      -0.493566       -13.4306
 224   2.0000      -0.493041       -13.4163
 225   2.0000      -0.492490       -13.4013
 226   2.0000      -0.491214       -13.3666
 227   2.0000      -0.489318       -13.3150
 228   2.0000      -0.485873       -13.2213
 229   2.0000      -0.483681       -13.1616
 230   2.0000      -0.481959       -13.1148
 231   2.0000      -0.478907       -13.0317
 232   2.0000      -0.477661       -12.9978
 233   2.0000      -0.476169       -12.9572
 234   2.0000      -0.472937       -12.8693
 235   2.0000      -0.471963       -12.8428
 236   2.0000      -0.470678       -12.8078
 237   2.0000      -0.469151       -12.7663
 238   2.0000      -0.465746       -12.6736
 239   2.0000      -0.464078       -12.6282
 240   2.0000      -0.461345       -12.5538
 241   2.0000      -0.460953       -12.5432
 242   2.0000      -0.457484       -12.4488
 243   2.0000      -0.455706       -12.4004
 244   2.0000      -0.454494       -12.3674
 245   2.0000      -0.453925       -12.3519
 246   2.0000      -0.453159       -12.3311
 247   2.0000      -0.452667       -12.3177
 248   2.0000      -0.450017       -12.2456
 249   2.0000      -0.449211       -12.2237
 250   2.0000      -0.447447       -12.1757
 251   2.0000      -0.446587       -12.1523
 252   2.0000      -0.446000       -12.1363
 253   2.0000      -0.445554       -12.1241
 254   2.0000      -0.442525       -12.0417
 255   2.0000      -0.440365       -11.9829
 256   2.0000      -0.439330       -11.9548
 257   2.0000      -0.437557       -11.9065
 258   2.0000      -0.435449       -11.8492
 259   2.0000      -0.433682       -11.8011
 260   2.0000      -0.431799       -11.7498
 261   2.0000      -0.429850       -11.6968
 262   2.0000      -0.426560       -11.6073
 263   2.0000      -0.424991       -11.5646
 264   2.0000      -0.423667       -11.5286
 265   2.0000      -0.421899       -11.4805
 266   2.0000      -0.419743       -11.4218
 267   2.0000      -0.416720       -11.3395
 268   2.0000      -0.415405       -11.3037
 269   2.0000      -0.412534       -11.2256
 270   2.0000      -0.410280       -11.1643
 271   2.0000      -0.408820       -11.1245
 272   2.0000      -0.406965       -11.0741
 273   2.0000      -0.406064       -11.0496
 274   2.0000      -0.404579       -11.0092
 275   2.0000      -0.403041       -10.9673
 276   2.0000      -0.400094       -10.8871
 277   2.0000      -0.396762       -10.7964
 278   2.0000      -0.394947       -10.7470
 279   2.0000      -0.392159       -10.6712
 280   2.0000      -0.387278       -10.5384
 281   2.0000      -0.376995       -10.2586
 282   2.0000      -0.375179       -10.2092
 283   2.0000      -0.371719       -10.1150
 284   2.0000      -0.364445        -9.9170
 285   2.0000      -0.351145        -9.5551
 286   2.0000      -0.346590        -9.4312
 287   2.0000      -0.344456        -9.3731
 288   2.0000      -0.340476        -9.2648
 289   2.0000      -0.337405        -9.1812
 290   2.0000      -0.334395        -9.0993
 291   2.0000      -0.334140        -9.0924
 292   2.0000      -0.331388        -9.0175
 293   2.0000      -0.323972        -8.8157
 294   2.0000      -0.322348        -8.7715
 295   2.0000      -0.321093        -8.7374
 296   2.0000      -0.313676        -8.5355
 297   2.0000      -0.310055        -8.4370
 298   2.0000      -0.297143        -8.0857
 299   2.0000      -0.261714        -7.1216
 300   2.0000      -0.240733        -6.5507
 301   0.0000      -0.102084        -2.7778
 302   0.0000      -0.091594        -2.4924
 303   0.0000      -0.074169        -2.0182
 304   0.0000      -0.061597        -1.6761
 305   0.0000      -0.057903        -1.5756

MULLIKEN ATOMIC CHARGES
-----------------------
   0 C :    0.128401
   1 O :   -0.150450
   2 C :    0.000948
   3 C :   -0.098032
   4 C :    0.227537
   5 C :    0.224636
   6 C :   -0.094034
   7 C :    0.028248
   8 C :    0.251986
   9 C :   -0.337928
  10 C :   -0.177755
  11 N :    0.148928
  12 C :   -0.158539
  13 N :    0.125110
  14 C :   -0.145698
  15 F :   -0.160016
  16 C :    0.076332
  17 F :   -0.163244
  18 C :    0.130205
  19 O :   -0.152079
  20 C :    0.000326
  21 C :   -0.094414
  22 C :    0.223266
  23 C :    0.224537
  24 C :   -0.091083
  25 C :    0.029855
  26 C :    0.255221
  27 C :   -0.329819
  28 C :   -0.175850
  29 N :    0.146832
  30 C :   -0.160643
  31 N :    0.121537
  32 C :   -0.151768
  33 F :   -0.161563
  34 C :    0.075620
  35 F :   -0.164284
  36 C :   -0.128876
  37 S :    0.176440
  38 C :   -0.063240
  39 C :   -0.017160
  40 C :    0.023266
  41 C :   -0.074008
  42 C :    0.010420
  43 C :   -0.084959
  44 S :    0.193390
  45 C :   -0.176685
  46 C :   -0.036574
  47 C :    0.139947
  48 C :    0.062279
  49 C :    0.050602
  50 C :    0.166569
  51 C :   -0.040348
  52 C :   -0.015065
  53 N :   -0.286351
  54 S :    0.494661
  55 N :   -0.296829
  56 C :   -0.181061
  57 S :    0.199912
  58 C :   -0.084026
  59 C :    0.015512
  60 C :   -0.044909
  61 C :   -0.057840
  62 C :   -0.009552
  63 C :   -0.093103
  64 S :    0.178639
  65 C :   -0.130802
  66 C :    0.016674
  67 O :   -0.348299
  68 O :   -0.355982
  69 C :    0.181778
  70 C :   -0.017421
  71 C :    0.181811
  72 C :   -0.016635
  73 C :    0.038352
  74 C :    0.006342
  75 C :    0.057873
  76 C :    0.010511
  77 C :    0.036828
  78 C :   -0.001302
  79 C :    0.051139
  80 C :    0.016378
  81 H :    0.021012
  82 H :    0.024830
  83 H :    0.033659
  84 H :    0.018785
  85 H :    0.021918
  86 H :    0.032441
  87 H :    0.009436
  88 H :    0.000821
  89 H :    0.006083
  90 H :    0.005507
  91 H :    0.027868
  92 H :    0.022069
  93 H :    0.034146
  94 H :    0.025346
  95 H :    0.029521
  96 H :    0.020864
  97 H :    0.026973
  98 H :    0.029876
  99 H :    0.028847
 100 H :    0.029146
 101 H :    0.012776
 102 H :    0.006037
 103 H :    0.024839
 104 H :    0.017617
 105 H :    0.024513
 106 H :    0.031860
 107 H :    0.006007
 108 H :    0.016170
 109 H :    0.024692
 110 H :    0.013943
 111 H :    0.016431
 112 H :    0.001251
 113 H :    0.044116
 114 H :    0.015906
 115 H :    0.021215
 116 H :    0.011258
 117 H :    0.007881
 118 H :    0.010407
 119 H :    0.020635
 120 H :    0.022675
Sum of atomic charges:   -0.0000000

LOEWDIN ATOMIC CHARGES
----------------------
   0 C :    0.085745
   1 O :   -0.147922
   2 C :   -0.048188
   3 C :   -0.010776
   4 C :    0.065287
   5 C :    0.069055
   6 C :   -0.027367
   7 C :   -0.012738
   8 C :    0.071139
   9 C :   -0.150445
  10 C :   -0.013940
  11 N :   -0.049963
  12 C :   -0.017161
  13 N :   -0.060931
  14 C :   -0.115823
  15 F :   -0.038690
  16 C :    0.050412
  17 F :   -0.040085
  18 C :    0.086599
  19 O :   -0.148567
  20 C :   -0.048016
  21 C :   -0.011259
  22 C :    0.064989
  23 C :    0.069034
  24 C :   -0.026682
  25 C :   -0.012569
  26 C :    0.071080
  27 C :   -0.153653
  28 C :   -0.010756
  29 N :   -0.050023
  30 C :   -0.017041
  31 N :   -0.062313
  32 C :   -0.119219
  33 F :   -0.040241
  34 C :    0.047602
  35 F :   -0.041374
  36 C :   -0.184190
  37 S :    0.458787
  38 C :   -0.154288
  39 C :   -0.038162
  40 C :   -0.004779
  41 C :   -0.207553
  42 C :   -0.023782
  43 C :   -0.027919
  44 S :    0.464020
  45 C :   -0.148793
  46 C :   -0.049175
  47 C :   -0.067320
  48 C :    0.040386
  49 C :    0.032512
  50 C :   -0.060982
  51 C :   -0.049752
  52 C :   -0.046574
  53 N :   -0.283058
  54 S :    0.616580
  55 N :   -0.286720
  56 C :   -0.152432
  57 S :    0.467270
  58 C :   -0.203989
  59 C :   -0.026009
  60 C :   -0.053528
  61 C :   -0.157037
  62 C :   -0.035632
  63 C :   -0.027228
  64 S :    0.455807
  65 C :   -0.185094
  66 C :   -0.006409
  67 O :   -0.114378
  68 O :   -0.124076
  69 C :    0.093961
  70 C :   -0.072888
  71 C :    0.093948
  72 C :   -0.068126
  73 C :   -0.019432
  74 C :   -0.062807
  75 C :   -0.011346
  76 C :   -0.063934
  77 C :   -0.016797
  78 C :   -0.064439
  79 C :   -0.015507
  80 C :   -0.062717
  81 H :    0.055072
  82 H :    0.052740
  83 H :    0.049498
  84 H :    0.054314
  85 H :    0.052061
  86 H :    0.048523
  87 H :    0.036742
  88 H :    0.031085
  89 H :    0.030743
  90 H :    0.037777
  91 H :    0.020706
  92 H :    0.021482
  93 H :    0.033215
  94 H :    0.034736
  95 H :    0.029224
  96 H :    0.018230
  97 H :    0.015614
  98 H :    0.029795
  99 H :    0.037411
 100 H :    0.031767
 101 H :    0.021904
 102 H :    0.024927
 103 H :    0.025166
 104 H :    0.028158
 105 H :    0.027454
 106 H :    0.035141
 107 H :    0.023344
 108 H :    0.024642
 109 H :    0.033925
 110 H :    0.021988
 111 H :    0.024561
 112 H :    0.021324
 113 H :    0.030599
 114 H :    0.029072
 115 H :    0.024488
 116 H :    0.027931
 117 H :    0.021771
 118 H :    0.023780
 119 H :    0.031250
 120 H :    0.026225

  Mayer bond orders larger than 0.100000
B(  0-C ,  1-O ) :   2.2438 B(  0-C ,  2-C ) :   0.9359 B(  0-C , 14-C ) :   0.9588
B(  2-C ,  3-C ) :   1.3226 B(  2-C ,  7-C ) :   1.3562 B(  3-C ,  4-C ) :   1.3261
B(  3-C ,  6-C ) :   0.1031 B(  3-C , 81-H ) :   1.0123 B(  4-C ,  5-C ) :   1.2788
B(  4-C , 17-F ) :   1.1354 B(  5-C ,  6-C ) :   1.3489 B(  5-C , 15-F ) :   1.1452
B(  6-C ,  7-C ) :   1.3116 B(  6-C , 82-H ) :   0.9862 B(  7-C ,  8-C ) :   1.0167
B(  8-C ,  9-C ) :   1.6138 B(  8-C , 14-C ) :   1.0737 B(  9-C , 10-C ) :   1.1682
B(  9-C , 12-C ) :   1.1098 B( 10-C , 11-N ) :   2.9732 B( 12-C , 13-N ) :   2.9778
B( 14-C , 16-C ) :   1.5982 B( 16-C , 65-C ) :   1.1974 B( 16-C , 83-H ) :   0.9203
B( 18-C , 19-O ) :   2.2386 B( 18-C , 20-C ) :   0.9309 B( 18-C , 32-C ) :   0.9605
B( 20-C , 21-C ) :   1.3268 B( 20-C , 25-C ) :   1.3571 B( 21-C , 22-C ) :   1.3263
B( 21-C , 24-C ) :   0.1031 B( 21-C , 84-H ) :   1.0104 B( 22-C , 23-C ) :   1.2833
B( 22-C , 35-F ) :   1.1340 B( 23-C , 24-C ) :   1.3483 B( 23-C , 33-F ) :   1.1446
B( 24-C , 25-C ) :   1.3139 B( 24-C , 85-H ) :   0.9847 B( 25-C , 26-C ) :   1.0121
B( 26-C , 27-C ) :   1.6028 B( 26-C , 32-C ) :   1.0893 B( 27-C , 28-C ) :   1.1640
B( 27-C , 30-C ) :   1.1129 B( 28-C , 29-N ) :   2.9554 B( 30-C , 31-N ) :   2.9754
B( 32-C , 34-C ) :   1.5793 B( 34-C , 36-C ) :   1.2165 B( 34-C , 86-H ) :   0.9159
B( 36-C , 37-S ) :   1.0769 B( 36-C , 40-C ) :   1.3392 B( 37-S , 38-C ) :   1.1386
B( 38-C , 39-C ) :   1.4531 B( 38-C , 41-C ) :   1.1844 B( 39-C , 40-C ) :   1.4231
B( 39-C , 43-C ) :   0.9180 B( 40-C , 87-H ) :   0.9787 B( 41-C , 42-C ) :   1.4954
B( 41-C , 44-S ) :   1.0609 B( 42-C , 43-C ) :   0.9321 B( 42-C , 46-C ) :   1.2962
B( 43-C , 77-C ) :   1.0242 B( 43-C , 79-C ) :   1.0226 B( 44-S , 45-C ) :   1.1290
B( 45-C , 46-C ) :   1.4547 B( 45-C , 47-C ) :   1.0828 B( 46-C , 88-H ) :   0.9994
B( 47-C , 48-C ) :   1.4569 B( 47-C , 50-C ) :   0.1022 B( 47-C , 52-C ) :   1.1381
B( 48-C , 49-C ) :   1.1376 B( 48-C , 67-O ) :   1.1389 B( 49-C , 50-C ) :   1.4741
B( 49-C , 68-O ) :   1.1203 B( 50-C , 51-C ) :   1.1284 B( 50-C , 56-C ) :   1.0773
B( 51-C , 52-C ) :   1.1227 B( 51-C , 53-N ) :   1.5772 B( 52-C , 55-N ) :   1.5673
B( 53-N , 54-S ) :   1.2259 B( 53-N , 55-N ) :   0.1440 B( 54-S , 55-N ) :   1.2226
B( 56-C , 57-S ) :   1.1303 B( 56-C , 60-C ) :   1.4564 B( 57-S , 58-C ) :   1.0723
B( 58-C , 59-C ) :   1.5002 B( 58-C , 61-C ) :   1.1804 B( 59-C , 60-C ) :   1.2981
B( 59-C , 63-C ) :   0.9278 B( 60-C , 89-H ) :   0.9910 B( 61-C , 62-C ) :   1.4626
B( 61-C , 64-S ) :   1.1310 B( 62-C , 63-C ) :   0.9281 B( 62-C , 66-C ) :   1.4028
B( 63-C , 73-C ) :   1.0229 B( 63-C , 75-C ) :   1.0245 B( 64-S , 65-C ) :   1.0771
B( 65-C , 66-C ) :   1.3582 B( 66-C , 90-H ) :   0.9864 B( 67-O , 69-C ) :   0.8833
B( 68-O , 71-C ) :   0.8849 B( 69-C , 70-C ) :   1.1166 B( 69-C , 91-H ) :   0.9477
B( 69-C , 92-H ) :   0.9605 B( 70-C , 93-H ) :   0.9648 B( 70-C , 94-H ) :   0.9590
B( 70-C , 95-H ) :   0.9633 B( 71-C , 72-C ) :   1.1111 B( 71-C , 96-H ) :   0.9440
B( 71-C , 97-H ) :   0.9506 B( 72-C , 98-H ) :   0.9689 B( 72-C , 99-H ) :   0.9593
B( 72-C ,100-H ) :   0.9652 B( 73-C , 74-C ) :   1.0994 B( 73-C ,101-H ) :   0.9401
B( 73-C ,102-H ) :   0.9408 B( 74-C ,103-H ) :   0.9647 B( 74-C ,104-H ) :   0.9662
B( 74-C ,105-H ) :   0.9645 B( 75-C , 76-C ) :   1.1072 B( 75-C ,106-H ) :   0.9405
B( 75-C ,107-H ) :   0.9372 B( 76-C ,108-H ) :   0.9651 B( 76-C ,109-H ) :   0.9606
B( 76-C ,110-H ) :   0.9616 B( 77-C , 78-C ) :   1.0993 B( 77-C ,111-H ) :   0.9397
B( 77-C ,112-H ) :   0.9424 B( 78-C ,113-H ) :   0.9576 B( 78-C ,114-H ) :   0.9628
B( 78-C ,115-H ) :   0.9621 B( 79-C , 80-C ) :   1.1062 B( 79-C ,116-H ) :   0.9432
B( 79-C ,117-H ) :   0.9373 B( 80-C ,118-H ) :   0.9663 B( 80-C ,119-H ) :   0.9619
B( 80-C ,120-H ) :   0.9624

-----------------------------------------------------------------------------
         ABSORPTION SPECTRUM VIA TRANSITION ELECTRIC DIPOLE MOMENTS
-----------------------------------------------------------------------------
State   Energy  Wavelength   fosc         T2         TX        TY        TZ
        (cm-1)    (nm)                  (au**2)     (au)      (au)      (au)
-----------------------------------------------------------------------------
   0   15494.5    645.4   2.647327116  56.24777   3.23570   0.56582   6.74225
   1   18207.9    549.2   0.012649140   0.22871  -0.07146   0.12389  -0.45634
   2   21300.1    469.5   0.078962987   1.22044   0.20206   1.07683   0.14163
   3   23146.5    432.0   0.004384372   0.06236  -0.21669  -0.08347  -0.09186
   4   25098.5    398.4   0.052254907   0.68542   0.76644   0.27358   0.15210
   5   25190.3    397.0   0.343747216   4.49243  -0.78154  -0.83537  -1.78432
   6   26669.9    375.0   0.103585506   1.27866  -0.34626   0.60277  -0.89186
   7   28647.3    349.1   0.013180623   0.15147  -0.32258   0.17642   0.12762
   8   29621.7    337.6   0.303674067   3.37499   0.74476   1.26804   1.10109
   9   30108.2    332.1   0.017161113   0.18764  -0.16554   0.24807   0.31417
  10   30886.2    323.8   0.237127961   2.52752  -0.71499  -0.57081  -1.30019
  11   31749.1    315.0   0.039025064   0.40466  -0.03906  -0.22776  -0.59267
  12   31994.7    312.6   0.058622018   0.60320   0.45168   0.30454   0.55356
  13   32101.6    311.5   0.044308461   0.45440  -0.10185  -0.24914  -0.61802
  14   32320.4    309.4   0.042081794   0.42864  -0.46038   0.13562   0.44530
  15   32390.5    308.7   0.058191383   0.59145  -0.68478  -0.34472  -0.06075
  16   32475.9    307.9   0.082697577   0.83832  -0.24656  -0.85635  -0.21019
  17   32595.6    306.8   0.063397964   0.64031   0.78547  -0.15173   0.01810
  18   32658.7    306.2   0.064553083   0.65072   0.26142   0.34005   0.68319
  19   33470.8    298.8   0.044606999   0.43875  -0.34222   0.32045   0.46791
  20   33670.4    297.0   0.022002743   0.21513  -0.42267   0.11957   0.14896
  21   33957.0    294.5   0.070109157   0.67971  -0.36280   0.27354   0.68794
  22   34243.0    292.0   0.262069997   2.51954  -1.04137  -0.85171  -0.84243
  23   34346.1    291.2   0.025106954   0.24065   0.12491   0.38861   0.27209
  24   34830.7    287.1   0.062222334   0.58811   0.53953  -0.27102  -0.47283
  25   35778.9    279.5   0.039628708   0.36463  -0.08824   0.49146  -0.33958
  26   36233.1    276.0   0.064343627   0.58462  -0.18361  -0.49843  -0.54998
  27   36345.3    275.1   0.025875954   0.23438   0.33580   0.21907   0.27135
  28   36453.0    274.3   0.297456024   2.68637   0.63094   0.99740   1.13731
  29   36787.8    271.8   0.013655475   0.12220   0.09200  -0.00999   0.33710
  30   37136.9    269.3   0.009928337   0.08801   0.26218  -0.06950  -0.12018
  31   37513.5    266.6   0.468753680   4.11370  -0.68134  -1.72654  -0.81764
  32   38012.3    263.1   0.068160577   0.59032   0.56978  -0.30895  -0.41257
  33   38755.5    258.0   0.058812622   0.49959   0.45439   0.42647   0.33354
  34   39108.3    255.7   0.101014923   0.85034   0.35313   0.71928   0.45638
  35   39407.3    253.8   0.103978239   0.86864   0.07419   0.73259   0.57136
  36   39714.0    251.8   0.000785403   0.00651   0.02477   0.04916   0.05900
  37   39876.4    250.8   0.009250270   0.07637  -0.14145   0.16385  -0.17179
  38   40000.4    250.0   0.004866933   0.04006  -0.10750  -0.13436   0.10220
  39   40265.1    248.4   0.034885182   0.28523  -0.50491  -0.13145   0.11409

FINAL SINGLE POINT ENERGY     -5401.462832606189

DIPOLE MOMENT
-------------
                                X             Y             Z
Electronic contribution:    -68.55499       8.07417      29.91623
Nuclear contribution   :     70.30561      -8.16145     -31.30123
                        -----------------------------------------
Total Dipole Moment    :      1.75063      -0.08728      -1.38501
                        -----------------------------------------
Magnitude (a.u.)       :      2.23395
Magnitude (Debye)      :      5.67826

Rotational constants in cm-1:     0.003057     0.000149     0.000147
Rotational constants in MHz :    91.660637     4.460095     4.404462

                             ****ORCA TERMINATED NORMALLY****
TOTAL RUN TIME: 0 days 1 hours 16 minutes 5 seconds 851 msec
