                         Program Version 4.2.0 -  RELEASE  -
|  1> # ORCA input file
|  2> # BDTN-BF.out
|  3> ! CAM-B3LYP def2-SVP def2/J RIJCOSX Grid4 TightSCF
|  4> %maxcore 5000
|  5> %tddft
|  6>     Mode sTDDFT
|  7>     Ethresh 5.0
|  8>     maxcore 5000
|  9> end
| 10> * xyz 0 1
| 11>    C        4.20765         2.22270        -1.24381
| 12>    O        4.12158         1.11940        -1.74872
| 13>    C        3.28610         3.35637        -1.47093
| 14>    C        2.17610         3.40671        -2.28988
| 15>    C        1.46967         4.59764        -2.34039
| 16>    C        1.87691         5.69712        -1.58474
| 17>    C        2.99199         5.64449        -0.76105
| 18>    C        3.70476         4.45702        -0.70518
| 19>    C        4.90570         4.08059         0.04392
| 20>    C        5.58523         4.90541         0.90339
| 21>    C        6.74258         4.56533         1.63447
| 22>    N        7.68568         4.37355         2.26219
| 23>    C        5.21149         6.23735         1.18259
| 24>    N        4.96380         7.32448         1.45492
| 25>    C        5.21740         2.70837        -0.29969
| 26>    F        1.17712         6.83529        -1.65365
| 27>    C        6.29110         1.99009         0.17040
| 28>    F        0.38740         4.69459        -3.12226
| 29>    C       13.15198       -15.99610         0.52972
| 30>    O       12.31345       -16.82019         0.81264
| 31>    C       14.61564       -16.07663         0.75438
| 32>    C       15.33814       -17.06552         1.39222
| 33>    C       16.70909       -16.89314         1.50020
| 34>    C       17.32934       -15.75689         0.97955
| 35>    C       16.60700       -14.76822         0.32797
| 36>    C       15.23673       -14.93496         0.21679
| 37>    C       14.21801       -14.11116        -0.43260
| 38>    C       14.45385       -13.20239        -1.43102
| 39>    C       13.43247       -12.68000        -2.25244
| 40>    N       12.63456       -12.28945        -2.97959
| 41>    C       15.73925       -12.77329        -1.81647
| 42>    N       16.76367       -12.38185        -2.15497
| 43>    C       12.93111       -14.65627        -0.06459
| 44>    F       18.65275       -15.61283         1.11279
| 45>    C       11.67495       -14.12403        -0.11315
| 46>    F       17.44733       -17.82644         2.11412
| 47>    C        6.71346         0.68590        -0.10982
| 48>    C        7.88595         0.16957         0.45604
| 49>    C        8.15997        -1.11360         0.02140
| 50>    C        7.15475        -1.60885        -0.85144
| 51>    S        5.91330        -0.46782        -1.17823
| 52>    N        9.12404        -2.07470         0.22976
| 53>    C        8.73032        -3.18805        -0.47634
| 54>    C        7.51235        -2.92243        -1.12863
| 55>    C        9.14427        -4.54329        -0.62619
| 56>    C        8.13739        -5.31012        -1.28943
| 57>    S        6.80693        -4.30502        -1.87761
| 58>    C       10.33448        -5.19030        -0.26125
| 59>    C       10.35957        -6.57216        -0.31393
| 60>    C        9.29679        -7.36227        -0.82422
| 61>    C        8.20738        -6.69256        -1.42651
| 62>    S       11.75455        -7.47753         0.22613
| 63>    C       10.93005        -8.93845        -0.18696
| 64>    C        9.62875        -8.74508        -0.70736
| 65>    C       11.16606       -10.30530        -0.15000
| 66>    C        9.98366       -10.92331        -0.62128
| 67>    N        9.06233        -9.96756        -0.95763
| 68>    S       12.37927       -11.45502         0.24949
| 69>    C       11.29659       -12.77076        -0.22446
| 70>    C       10.05143       -12.31185        -0.62702
| 71>    O       11.48281        -4.51814         0.08786
| 72>    O        7.31347        -7.47924        -2.07681
| 73>    C       12.21070        -4.03866        -1.04400
| 74>    C       12.67304        -5.11957        -2.01260
| 75>    C        6.46553        -6.96838        -3.09655
| 76>    C        5.98020        -8.14700        -3.92750
| 77>    C        7.70470       -10.31265        -1.28947
| 78>    C        6.88280       -10.72275        -0.05367
| 79>    C        6.85421        -9.59462         0.99122
| 80>    C        7.87877        -9.78002         2.10581
| 81>    C        5.46989       -11.10612        -0.51314
| 82>    C        4.71592       -11.92335         0.52933
| 83>    C       10.09284        -2.00574         1.30235
| 84>    C       11.44858        -1.34506         0.99052
| 85>    C       11.34540         0.08130         0.43961
| 86>    C       11.11646         0.13585        -1.06723
| 87>    C       12.27505        -1.37341         2.28694
| 88>    C       13.77449        -1.26420         2.03754
| 89>    H        1.86686         2.55348        -2.87221
| 90>    H        3.26266         6.52307        -0.19914
| 91>    H        6.94476         2.50386         0.86463
| 92>    H       14.85922       -17.94406         1.79414
| 93>    H       17.12548       -13.90532        -0.05748
| 94>    H       10.86493       -14.83335         0.02778
| 95>    H        8.47157         0.74704         1.14724
| 96>    H        9.27195       -12.97832        -0.94830
| 97>    H       13.08289        -3.54459        -0.61095
| 98>    H       11.59882        -3.30233        -1.58514
| 99>    H       13.29245        -5.85088        -1.50086
|100>    H       13.25756        -4.65442        -2.80188
|101>    H       11.82505        -5.62991        -2.46473
|102>    H        7.02098        -6.26752        -3.72817
|103>    H        5.60901        -6.44915        -2.65188
|104>    H        6.82543        -8.68362        -4.35044
|105>    H        5.35296        -7.78149        -4.73478
|106>    H        5.40026        -8.83124        -3.31395
|107>    H        7.73921       -11.14377        -2.00072
|108>    H        7.23599        -9.45612        -1.76536
|109>    H        7.34988       -11.60585         0.39559
|110>    H        5.86387        -9.54926         1.44644
|111>    H        7.02240        -8.63691         0.49502
|112>    H        7.69321       -10.70931         2.64062
|113>    H        7.81220        -8.95961         2.81700
|114>    H        8.89404        -9.80774         1.71926
|115>    H        5.53824       -11.69413        -1.43161
|116>    H        4.91111       -10.19666        -0.74414
|117>    H        5.23801       -12.85603         0.73119
|118>    H        3.71727       -12.16129         0.17143
|119>    H        4.61994       -11.37816         1.46476
|120>    H       10.28878        -3.02971         1.62890
|121>    H        9.62134        -1.46105         2.12741
|122>    H       11.96302        -1.95521         0.25090
|123>    H       12.28061         0.60150         0.65263
|124>    H       10.55757         0.62506         0.96004
|125>    H       11.94268        -0.34230        -1.59008
|126>    H       11.05817         1.16992        -1.39930
|127>    H       10.19543        -0.36233        -1.35582
|128>    H       12.08598        -2.31278         2.81018
|129>    H       11.94966        -0.55914         2.93817
|130>    H       14.12259        -2.11132         1.45094
|131>    H       14.31137        -1.26205         2.98287
|132>    H       14.02617        -0.35075         1.50469
|133> *
|134>
|135>                          ****END OF INPUT****

CARTESIAN COORDINATES (ANGSTROEM)
---------------------------------
  C      4.207650    2.222700   -1.243810
  O      4.121580    1.119400   -1.748720
  C      3.286100    3.356370   -1.470930
  C      2.176100    3.406710   -2.289880
  C      1.469670    4.597640   -2.340390
  C      1.876910    5.697120   -1.584740
  C      2.991990    5.644490   -0.761050
  C      3.704760    4.457020   -0.705180
  C      4.905700    4.080590    0.043920
  C      5.585230    4.905410    0.903390
  C      6.742580    4.565330    1.634470
  N      7.685680    4.373550    2.262190
  C      5.211490    6.237350    1.182590
  N      4.963800    7.324480    1.454920
  C      5.217400    2.708370   -0.299690
  F      1.177120    6.835290   -1.653650
  C      6.291100    1.990090    0.170400
  F      0.387400    4.694590   -3.122260
  C     13.151980  -15.996100    0.529720
  O     12.313450  -16.820190    0.812640
  C     14.615640  -16.076630    0.754380
  C     15.338140  -17.065520    1.392220
  C     16.709090  -16.893140    1.500200
  C     17.329340  -15.756890    0.979550
  C     16.607000  -14.768220    0.327970
  C     15.236730  -14.934960    0.216790
  C     14.218010  -14.111160   -0.432600
  C     14.453850  -13.202390   -1.431020
  C     13.432470  -12.680000   -2.252440
  N     12.634560  -12.289450   -2.979590
  C     15.739250  -12.773290   -1.816470
  N     16.763670  -12.381850   -2.154970
  C     12.931110  -14.656270   -0.064590
  F     18.652750  -15.612830    1.112790
  C     11.674950  -14.124030   -0.113150
  F     17.447330  -17.826440    2.114120
  C      6.713460    0.685900   -0.109820
  C      7.885950    0.169570    0.456040
  C      8.159970   -1.113600    0.021400
  C      7.154750   -1.608850   -0.851440
  S      5.913300   -0.467820   -1.178230
  N      9.124040   -2.074700    0.229760
  C      8.730320   -3.188050   -0.476340
  C      7.512350   -2.922430   -1.128630
  C      9.144270   -4.543290   -0.626190
  C      8.137390   -5.310120   -1.289430
  S      6.806930   -4.305020   -1.877610
  C     10.334480   -5.190300   -0.261250
  C     10.359570   -6.572160   -0.313930
  C      9.296790   -7.362270   -0.824220
  C      8.207380   -6.692560   -1.426510
  S     11.754550   -7.477530    0.226130
  C     10.930050   -8.938450   -0.186960
  C      9.628750   -8.745080   -0.707360
  C     11.166060  -10.305300   -0.150000
  C      9.983660  -10.923310   -0.621280
  N      9.062330   -9.967560   -0.957630
  S     12.379270  -11.455020    0.249490
  C     11.296590  -12.770760   -0.224460
  C     10.051430  -12.311850   -0.627020
  O     11.482810   -4.518140    0.087860
  O      7.313470   -7.479240   -2.076810
  C     12.210700   -4.038660   -1.044000
  C     12.673040   -5.119570   -2.012600
  C      6.465530   -6.968380   -3.096550
  C      5.980200   -8.147000   -3.927500
  C      7.704700  -10.312650   -1.289470
  C      6.882800  -10.722750   -0.053670
  C      6.854210   -9.594620    0.991220
  C      7.878770   -9.780020    2.105810
  C      5.469890  -11.106120   -0.513140
  C      4.715920  -11.923350    0.529330
  C     10.092840   -2.005740    1.302350
  C     11.448580   -1.345060    0.990520
  C     11.345400    0.081300    0.439610
  C     11.116460    0.135850   -1.067230
  C     12.275050   -1.373410    2.286940
  C     13.774490   -1.264200    2.037540
  H      1.866860    2.553480   -2.872210
  H      3.262660    6.523070   -0.199140
  H      6.944760    2.503860    0.864630
  H     14.859220  -17.944060    1.794140
  H     17.125480  -13.905320   -0.057480
  H     10.864930  -14.833350    0.027780
  H      8.471570    0.747040    1.147240
  H      9.271950  -12.978320   -0.948300
  H     13.082890   -3.544590   -0.610950
  H     11.598820   -3.302330   -1.585140
  H     13.292450   -5.850880   -1.500860
  H     13.257560   -4.654420   -2.801880
  H     11.825050   -5.629910   -2.464730
  H      7.020980   -6.267520   -3.728170
  H      5.609010   -6.449150   -2.651880
  H      6.825430   -8.683620   -4.350440
  H      5.352960   -7.781490   -4.734780
  H      5.400260   -8.831240   -3.313950
  H      7.739210  -11.143770   -2.000720
  H      7.235990   -9.456120   -1.765360
  H      7.349880  -11.605850    0.395590
  H      5.863870   -9.549260    1.446440
  H      7.022400   -8.636910    0.495020
  H      7.693210  -10.709310    2.640620
  H      7.812200   -8.959610    2.817000
  H      8.894040   -9.807740    1.719260
  H      5.538240  -11.694130   -1.431610
  H      4.911110  -10.196660   -0.744140
  H      5.238010  -12.856030    0.731190
  H      3.717270  -12.161290    0.171430
  H      4.619940  -11.378160    1.464760
  H     10.288780   -3.029710    1.628900
  H      9.621340   -1.461050    2.127410
  H     11.963020   -1.955210    0.250900
  H     12.280610    0.601500    0.652630
  H     10.557570    0.625060    0.960040
  H     11.942680   -0.342300   -1.590080
  H     11.058170    1.169920   -1.399300
  H     10.195430   -0.362330   -1.355820
  H     12.085980   -2.312780    2.810180
  H     11.949660   -0.559140    2.938170
  H     14.122590   -2.111320    1.450940
  H     14.311370   -1.262050    2.982870
  H     14.026170   -0.350750    1.504690

 Total Charge           Charge          ....    0
 Multiplicity           Mult            ....    1
 Number of Electrons    NEL             ....  578
 Basis Dimension        Dim             .... 1328

ORBITAL ENERGIES
----------------

  NO   OCC          E(Eh)            E(eV)
   0   2.0000     -88.966574     -2420.9035
   1   2.0000     -88.964750     -2420.8539
   2   2.0000     -88.964671     -2420.8518
   3   2.0000     -88.960150     -2420.7287
   4   2.0000     -24.801408      -674.8806
   5   2.0000     -24.799612      -674.8317
   6   2.0000     -24.798970      -674.8143
   7   2.0000     -24.798788      -674.8093
   8   2.0000     -19.270172      -524.3680
   9   2.0000     -19.252427      -523.8852
  10   2.0000     -19.223506      -523.0982
  11   2.0000     -19.215182      -522.8717
  12   2.0000     -14.479418      -394.0050
  13   2.0000     -14.477331      -393.9482
  14   2.0000     -14.419729      -392.3808
  15   2.0000     -14.414928      -392.2501
  16   2.0000     -14.414691      -392.2437
  17   2.0000     -14.410498      -392.1296
  18   2.0000     -10.386087      -282.6198
  19   2.0000     -10.385392      -282.6009
  20   2.0000     -10.384568      -282.5785
  21   2.0000     -10.383575      -282.5514
  22   2.0000     -10.372590      -282.2525
  23   2.0000     -10.367665      -282.1185
  24   2.0000     -10.363820      -282.0139
  25   2.0000     -10.345413      -281.5130
  26   2.0000     -10.344604      -281.4910
  27   2.0000     -10.343934      -281.4727
  28   2.0000     -10.343146      -281.4513
  29   2.0000     -10.342039      -281.4212
  30   2.0000     -10.341186      -281.3980
  31   2.0000     -10.333460      -281.1877
  32   2.0000     -10.332709      -281.1673
  33   2.0000     -10.329842      -281.0893
  34   2.0000     -10.323868      -280.9267
  35   2.0000     -10.323702      -280.9222
  36   2.0000     -10.322948      -280.9017
  37   2.0000     -10.320621      -280.8384
  38   2.0000     -10.320346      -280.8309
  39   2.0000     -10.318397      -280.7779
  40   2.0000     -10.318204      -280.7726
  41   2.0000     -10.317100      -280.7426
  42   2.0000     -10.316941      -280.7382
  43   2.0000     -10.316731      -280.7325
  44   2.0000     -10.316664      -280.7307
  45   2.0000     -10.316033      -280.7135
  46   2.0000     -10.315908      -280.7101
  47   2.0000     -10.314830      -280.6808
  48   2.0000     -10.313291      -280.6389
  49   2.0000     -10.312043      -280.6050
  50   2.0000     -10.308986      -280.5218
  51   2.0000     -10.308882      -280.5189
  52   2.0000     -10.308706      -280.5141
  53   2.0000     -10.308249      -280.5017
  54   2.0000     -10.307766      -280.4886
  55   2.0000     -10.307069      -280.4696
  56   2.0000     -10.306819      -280.4628
  57   2.0000     -10.306657      -280.4584
  58   2.0000     -10.306366      -280.4505
  59   2.0000     -10.305479      -280.4263
  60   2.0000     -10.305138      -280.4170
  61   2.0000     -10.304254      -280.3930
  62   2.0000     -10.301881      -280.3284
  63   2.0000     -10.300447      -280.2894
  64   2.0000     -10.295784      -280.1625
  65   2.0000     -10.293428      -280.0984
  66   2.0000     -10.280118      -279.7362
  67   2.0000     -10.274961      -279.5959
  68   2.0000     -10.272895      -279.5397
  69   2.0000     -10.269854      -279.4569
  70   2.0000     -10.265822      -279.3472
  71   2.0000     -10.265734      -279.3448
  72   2.0000     -10.265635      -279.3421
  73   2.0000     -10.263382      -279.2808
  74   2.0000     -10.260986      -279.2156
  75   2.0000     -10.258632      -279.1516
  76   2.0000     -10.256137      -279.0837
  77   2.0000     -10.253655      -279.0161
  78   2.0000      -8.060939      -219.3493
  79   2.0000      -8.059290      -219.3044
  80   2.0000      -8.057554      -219.2572
  81   2.0000      -8.054795      -219.1821
  82   2.0000      -6.030722      -164.1043
  83   2.0000      -6.029443      -164.0695
  84   2.0000      -6.027432      -164.0148
  85   2.0000      -6.026616      -163.9926
  86   2.0000      -6.025212      -163.9543
  87   2.0000      -6.024760      -163.9421
  88   2.0000      -6.022829      -163.8895
  89   2.0000      -6.022153      -163.8711
  90   2.0000      -6.020762      -163.8333
  91   2.0000      -6.019804      -163.8072
  92   2.0000      -6.018981      -163.7848
  93   2.0000      -6.015453      -163.6888
  94   2.0000      -1.324204       -36.0334
  95   2.0000      -1.322520       -35.9876
  96   2.0000      -1.308955       -35.6185
  97   2.0000      -1.307264       -35.5725
  98   2.0000      -1.174664       -31.9642
  99   2.0000      -1.155820       -31.4515
 100   2.0000      -1.139714       -31.0132
 101   2.0000      -1.130710       -30.7682
 102   2.0000      -1.105100       -30.0713
 103   2.0000      -1.104898       -30.0658
 104   2.0000      -1.022351       -27.8196
 105   2.0000      -1.019891       -27.7526
 106   2.0000      -1.004411       -27.3314
 107   2.0000      -1.003428       -27.3047
 108   2.0000      -0.999890       -27.2084
 109   2.0000      -0.995750       -27.0957
 110   2.0000      -0.993388       -27.0315
 111   2.0000      -0.987811       -26.8797
 112   2.0000      -0.985238       -26.8097
 113   2.0000      -0.980083       -26.6694
 114   2.0000      -0.957251       -26.0481
 115   2.0000      -0.954914       -25.9845
 116   2.0000      -0.934616       -25.4322
 117   2.0000      -0.922292       -25.0968
 118   2.0000      -0.911013       -24.7899
 119   2.0000      -0.906533       -24.6680
 120   2.0000      -0.903121       -24.5752
 121   2.0000      -0.897498       -24.4222
 122   2.0000      -0.891999       -24.2725
 123   2.0000      -0.887040       -24.1376
 124   2.0000      -0.874738       -23.8028
 125   2.0000      -0.872824       -23.7507
 126   2.0000      -0.869669       -23.6649
 127   2.0000      -0.864870       -23.5343
 128   2.0000      -0.855817       -23.2880
 129   2.0000      -0.848999       -23.1024
 130   2.0000      -0.847151       -23.0521
 131   2.0000      -0.846014       -23.0212
 132   2.0000      -0.840207       -22.8632
 133   2.0000      -0.839581       -22.8462
 134   2.0000      -0.832273       -22.6473
 135   2.0000      -0.814209       -22.1558
 136   2.0000      -0.810516       -22.0553
 137   2.0000      -0.801536       -21.8109
 138   2.0000      -0.790343       -21.5063
 139   2.0000      -0.781946       -21.2778
 140   2.0000      -0.775325       -21.0977
 141   2.0000      -0.772523       -21.0214
 142   2.0000      -0.767359       -20.8809
 143   2.0000      -0.751150       -20.4398
 144   2.0000      -0.748051       -20.3555
 145   2.0000      -0.735373       -20.0105
 146   2.0000      -0.734081       -19.9754
 147   2.0000      -0.728238       -19.8164
 148   2.0000      -0.720855       -19.6155
 149   2.0000      -0.712299       -19.3826
 150   2.0000      -0.708083       -19.2679
 151   2.0000      -0.702084       -19.1047
 152   2.0000      -0.696765       -18.9599
 153   2.0000      -0.696129       -18.9426
 154   2.0000      -0.691112       -18.8061
 155   2.0000      -0.687199       -18.6996
 156   2.0000      -0.682982       -18.5849
 157   2.0000      -0.674362       -18.3503
 158   2.0000      -0.673236       -18.3197
 159   2.0000      -0.668993       -18.2042
 160   2.0000      -0.659545       -17.9471
 161   2.0000      -0.658768       -17.9260
 162   2.0000      -0.656607       -17.8672
 163   2.0000      -0.647935       -17.6312
 164   2.0000      -0.644915       -17.5490
 165   2.0000      -0.643714       -17.5163
 166   2.0000      -0.642169       -17.4743
 167   2.0000      -0.640017       -17.4158
 168   2.0000      -0.638613       -17.3775
 169   2.0000      -0.625346       -17.0165
 170   2.0000      -0.615355       -16.7446
 171   2.0000      -0.612947       -16.6791
 172   2.0000      -0.607873       -16.5411
 173   2.0000      -0.602814       -16.4034
 174   2.0000      -0.600880       -16.3508
 175   2.0000      -0.598112       -16.2755
 176   2.0000      -0.595529       -16.2052
 177   2.0000      -0.592637       -16.1265
 178   2.0000      -0.590957       -16.0807
 179   2.0000      -0.589286       -16.0353
 180   2.0000      -0.587505       -15.9868
 181   2.0000      -0.586779       -15.9671
 182   2.0000      -0.582997       -15.8641
 183   2.0000      -0.577468       -15.7137
 184   2.0000      -0.572746       -15.5852
 185   2.0000      -0.569314       -15.4918
 186   2.0000      -0.564638       -15.3646
 187   2.0000      -0.558705       -15.2031
 188   2.0000      -0.555209       -15.1080
 189   2.0000      -0.552710       -15.0400
 190   2.0000      -0.552040       -15.0218
 191   2.0000      -0.550248       -14.9730
 192   2.0000      -0.549207       -14.9447
 193   2.0000      -0.547579       -14.9004
 194   2.0000      -0.544373       -14.8131
 195   2.0000      -0.540310       -14.7026
 196   2.0000      -0.539139       -14.6707
 197   2.0000      -0.537813       -14.6346
 198   2.0000      -0.534313       -14.5394
 199   2.0000      -0.532973       -14.5029
 200   2.0000      -0.532363       -14.4863
 201   2.0000      -0.529508       -14.4086
 202   2.0000      -0.527605       -14.3569
 203   2.0000      -0.525566       -14.3014
 204   2.0000      -0.521054       -14.1786
 205   2.0000      -0.518051       -14.0969
 206   2.0000      -0.515960       -14.0400
 207   2.0000      -0.513071       -13.9614
 208   2.0000      -0.512127       -13.9357
 209   2.0000      -0.508841       -13.8463
 210   2.0000      -0.505708       -13.7610
 211   2.0000      -0.505121       -13.7451
 212   2.0000      -0.500696       -13.6246
 213   2.0000      -0.499346       -13.5879
 214   2.0000      -0.498864       -13.5748
 215   2.0000      -0.496699       -13.5159
 216   2.0000      -0.495348       -13.4791
 217   2.0000      -0.493978       -13.4418
 218   2.0000      -0.492550       -13.4030
 219   2.0000      -0.492308       -13.3964
 220   2.0000      -0.491759       -13.3815
 221   2.0000      -0.489468       -13.3191
 222   2.0000      -0.488751       -13.2996
 223   2.0000      -0.485753       -13.2180
 224   2.0000      -0.483197       -13.1484
 225   2.0000      -0.479777       -13.0554
 226   2.0000      -0.474740       -12.9183
 227   2.0000      -0.473818       -12.8932
 228   2.0000      -0.469717       -12.7817
 229   2.0000      -0.469384       -12.7726
 230   2.0000      -0.465549       -12.6682
 231   2.0000      -0.464017       -12.6265
 232   2.0000      -0.459600       -12.5064
 233   2.0000      -0.458418       -12.4742
 234   2.0000      -0.457594       -12.4518
 235   2.0000      -0.456287       -12.4162
 236   2.0000      -0.455519       -12.3953
 237   2.0000      -0.453665       -12.3449
 238   2.0000      -0.452022       -12.3001
 239   2.0000      -0.451609       -12.2889
 240   2.0000      -0.451160       -12.2767
 241   2.0000      -0.447249       -12.1703
 242   2.0000      -0.445545       -12.1239
 243   2.0000      -0.444650       -12.0995
 244   2.0000      -0.442527       -12.0418
 245   2.0000      -0.439875       -11.9696
 246   2.0000      -0.439274       -11.9533
 247   2.0000      -0.436220       -11.8702
 248   2.0000      -0.434700       -11.8288
 249   2.0000      -0.433943       -11.8082
 250   2.0000      -0.430427       -11.7125
 251   2.0000      -0.429203       -11.6792
 252   2.0000      -0.427675       -11.6376
 253   2.0000      -0.426922       -11.6171
 254   2.0000      -0.425985       -11.5916
 255   2.0000      -0.425032       -11.5657
 256   2.0000      -0.423809       -11.5324
 257   2.0000      -0.421870       -11.4797
 258   2.0000      -0.417573       -11.3628
 259   2.0000      -0.416263       -11.3271
 260   2.0000      -0.414967       -11.2918
 261   2.0000      -0.412023       -11.2117
 262   2.0000      -0.408128       -11.1057
 263   2.0000      -0.406693       -11.0667
 264   2.0000      -0.403560       -10.9814
 265   2.0000      -0.399852       -10.8805
 266   2.0000      -0.397179       -10.8078
 267   2.0000      -0.394319       -10.7300
 268   2.0000      -0.391981       -10.6663
 269   2.0000      -0.390955       -10.6384
 270   2.0000      -0.388036       -10.5590
 271   2.0000      -0.382251       -10.4016
 272   2.0000      -0.374533       -10.1916
 273   2.0000      -0.369498       -10.0545
 274   2.0000      -0.359416        -9.7802
 275   2.0000      -0.351443        -9.5633
 276   2.0000      -0.349182        -9.5017
 277   2.0000      -0.346747        -9.4355
 278   2.0000      -0.340915        -9.2768
 279   2.0000      -0.339153        -9.2288
 280   2.0000      -0.336707        -9.1623
 281   2.0000      -0.327643        -8.9156
 282   2.0000      -0.315719        -8.5911
 283   2.0000      -0.310482        -8.4486
 284   2.0000      -0.306337        -8.3359
 285   2.0000      -0.287105        -7.8125
 286   2.0000      -0.273194        -7.4340
 287   2.0000      -0.267567        -7.2809
 288   2.0000      -0.238277        -6.4838
 289   0.0000      -0.098329        -2.6757
 290   0.0000      -0.086870        -2.3639
 291   0.0000      -0.065502        -1.7824
 292   0.0000      -0.058797        -1.5999
 293   0.0000      -0.025331        -0.6893

MULLIKEN ATOMIC CHARGES
-----------------------
   0 C :    0.159451
   1 O :   -0.173039
   2 C :   -0.007023
   3 C :   -0.104747
   4 C :    0.234875
   5 C :    0.235179
   6 C :   -0.089383
   7 C :    0.040804
   8 C :    0.321141
   9 C :   -0.356268
  10 C :   -0.184287
  11 N :    0.137998
  12 C :   -0.192778
  13 N :    0.157710
  14 C :   -0.100882
  15 F :   -0.165819
  16 C :   -0.027275
  17 F :   -0.169861
  18 C :    0.139339
  19 O :   -0.142900
  20 C :    0.008301
  21 C :   -0.103603
  22 C :    0.232198
  23 C :    0.234667
  24 C :   -0.090016
  25 C :    0.030110
  26 C :    0.243261
  27 C :   -0.317926
  28 C :   -0.202545
  29 N :    0.166131
  30 C :   -0.180096
  31 N :    0.156742
  32 C :   -0.147174
  33 F :   -0.166827
  34 C :    0.053196
  35 F :   -0.170942
  36 C :   -0.042800
  37 C :   -0.132801
  38 C :    0.201198
  39 C :   -0.074165
  40 S :    0.195426
  41 N :   -0.161194
  42 C :    0.062208
  43 C :   -0.101037
  44 C :    0.094329
  45 C :   -0.161811
  46 S :    0.101204
  47 C :   -0.020558
  48 C :   -0.105942
  49 C :    0.073045
  50 C :    0.112521
  51 S :    0.163480
  52 C :   -0.110622
  53 C :    0.042262
  54 C :   -0.094990
  55 C :    0.159928
  56 N :   -0.140561
  57 S :    0.152511
  58 C :   -0.101098
  59 C :   -0.033402
  60 O :   -0.348580
  61 O :   -0.339564
  62 C :    0.138898
  63 C :    0.008781
  64 C :    0.119391
  65 C :    0.012176
  66 C :    0.185971
  67 C :   -0.134305
  68 C :    0.020901
  69 C :    0.010659
  70 C :    0.004142
  71 C :    0.033131
  72 C :    0.178701
  73 C :   -0.093694
  74 C :    0.012116
  75 C :    0.025495
  76 C :    0.004846
  77 C :    0.028849
  78 H :    0.008481
  79 H :    0.014878
  80 H :    0.001162
  81 H :    0.010742
  82 H :    0.016565
  83 H :    0.024261
  84 H :    0.007045
  85 H :   -0.008415
  86 H :    0.041088
  87 H :    0.020569
  88 H :    0.035621
  89 H :    0.022953
  90 H :    0.034949
  91 H :    0.036615
  92 H :    0.042653
  93 H :    0.033671
  94 H :    0.029384
  95 H :    0.032825
  96 H :    0.010029
  97 H :    0.027247
  98 H :   -0.009436
  99 H :   -0.001693
 100 H :    0.001502
 101 H :    0.010390
 102 H :    0.012321
 103 H :    0.026978
 104 H :   -0.006211
 105 H :    0.005475
 106 H :    0.009558
 107 H :    0.013474
 108 H :    0.009805
 109 H :    0.038269
 110 H :    0.012677
 111 H :   -0.032105
 112 H :    0.001998
 113 H :   -0.016799
 114 H :    0.007804
 115 H :    0.013141
 116 H :    0.021621
 117 H :    0.001995
 118 H :    0.001811
 119 H :    0.009003
 120 H :    0.015060
 121 H :    0.008278
Sum of atomic charges:   -0.0000000

LOEWDIN ATOMIC CHARGES
----------------------
   0 C :    0.082701
   1 O :   -0.162712
   2 C :   -0.043719
   3 C :   -0.007182
   4 C :    0.069738
   5 C :    0.072318
   6 C :   -0.018085
   7 C :   -0.014573
   8 C :    0.078041
   9 C :   -0.145408
  10 C :   -0.019437
  11 N :   -0.057598
  12 C :   -0.020597
  13 N :   -0.052549
  14 C :   -0.123178
  15 F :   -0.044516
  16 C :    0.056218
  17 F :   -0.046589
  18 C :    0.082320
  19 O :   -0.144679
  20 C :   -0.046817
  21 C :   -0.005971
  22 C :    0.068142
  23 C :    0.073544
  24 C :   -0.021438
  25 C :   -0.011135
  26 C :    0.059273
  27 C :   -0.141372
  28 C :   -0.032847
  29 N :   -0.051664
  30 C :   -0.021598
  31 N :   -0.051445
  32 C :   -0.112704
  33 F :   -0.044682
  34 C :    0.054445
  35 F :   -0.047590
  36 C :   -0.178139
  37 C :   -0.025325
  38 C :   -0.023091
  39 C :   -0.201765
  40 S :    0.479974
  41 N :    0.039322
  42 C :    0.007210
  43 C :   -0.224353
  44 C :   -0.065781
  45 C :   -0.173275
  46 S :    0.398853
  47 C :    0.003045
  48 C :   -0.151793
  49 C :   -0.071733
  50 C :    0.033156
  51 S :    0.418240
  52 C :   -0.220893
  53 C :    0.003291
  54 C :   -0.196986
  55 C :   -0.021566
  56 N :    0.057612
  57 S :    0.440607
  58 C :   -0.176393
  59 C :   -0.016554
  60 O :   -0.135513
  61 O :   -0.098742
  62 C :    0.076820
  63 C :   -0.073129
  64 C :    0.072837
  65 C :   -0.060569
  66 C :    0.041741
  67 C :   -0.037043
  68 C :   -0.033674
  69 C :   -0.056154
  70 C :   -0.031545
  71 C :   -0.053691
  72 C :    0.048909
  73 C :   -0.036149
  74 C :   -0.033537
  75 C :   -0.058530
  76 C :   -0.027424
  77 C :   -0.053671
  78 H :    0.051076
  79 H :    0.051291
  80 H :    0.049730
  81 H :    0.051653
  82 H :    0.051006
  83 H :    0.050527
  84 H :    0.036715
  85 H :    0.037601
  86 H :    0.022739
  87 H :    0.012033
  88 H :    0.023201
  89 H :    0.034857
  90 H :    0.029317
  91 H :    0.016023
  92 H :    0.011395
  93 H :    0.032107
  94 H :    0.036760
  95 H :    0.028802
  96 H :    0.023366
  97 H :    0.025015
  98 H :    0.014902
  99 H :    0.020453
 100 H :    0.021031
 101 H :    0.021296
 102 H :    0.025243
 103 H :    0.024488
 104 H :    0.017890
 105 H :    0.019515
 106 H :    0.022552
 107 H :    0.025775
 108 H :    0.021636
 109 H :    0.033400
 110 H :    0.026401
 111 H :    0.020866
 112 H :    0.023900
 113 H :    0.014466
 114 H :    0.020322
 115 H :    0.026452
 116 H :    0.021034
 117 H :    0.022260
 118 H :    0.020643
 119 H :    0.021384
 120 H :    0.027393
 121 H :    0.020223

  Mayer bond orders larger than 0.100000
B(  0-C ,  1-O ) :   2.1473 B(  0-C ,  2-C ) :   0.9646 B(  0-C , 14-C ) :   0.9814
B(  2-C ,  3-C ) :   1.3205 B(  2-C ,  7-C ) :   1.3445 B(  3-C ,  4-C ) :   1.3116
B(  3-C ,  6-C ) :   0.1052 B(  3-C , 78-H ) :   1.0211 B(  4-C ,  5-C ) :   1.2957
B(  4-C , 17-F ) :   1.1297 B(  5-C ,  6-C ) :   1.3311 B(  5-C , 15-F ) :   1.1449
B(  6-C ,  7-C ) :   1.3163 B(  6-C , 79-H ) :   0.9918 B(  7-C ,  8-C ) :   0.9974
B(  8-C ,  9-C ) :   1.6160 B(  8-C , 14-C ) :   1.0999 B(  9-C , 10-C ) :   1.1471
B(  9-C , 12-C ) :   1.1430 B( 10-C , 11-N ) :   2.9549 B( 12-C , 13-N ) :   2.9769
B( 14-C , 16-C ) :   1.4558 B( 16-C , 36-C ) :   1.3028 B( 16-C , 80-H ) :   0.9383
B( 18-C , 19-O ) :   2.2727 B( 18-C , 20-C ) :   0.9260 B( 18-C , 32-C ) :   0.9552
B( 20-C , 21-C ) :   1.3238 B( 20-C , 25-C ) :   1.3447 B( 21-C , 22-C ) :   1.3202
B( 21-C , 24-C ) :   0.1051 B( 21-C , 81-H ) :   1.0197 B( 22-C , 23-C ) :   1.2949
B( 22-C , 35-F ) :   1.1279 B( 23-C , 24-C ) :   1.3336 B( 23-C , 33-F ) :   1.1392
B( 24-C , 25-C ) :   1.3212 B( 24-C , 82-H ) :   0.9954 B( 25-C , 26-C ) :   1.0162
B( 26-C , 27-C ) :   1.6542 B( 26-C , 32-C ) :   1.0544 B( 27-C , 28-C ) :   1.1522
B( 27-C , 30-C ) :   1.1339 B( 28-C , 29-N ) :   3.0202 B( 30-C , 31-N ) :   2.9966
B( 32-C , 34-C ) :   1.5971 B( 34-C , 58-C ) :   1.1754 B( 34-C , 83-H ) :   0.9486
B( 36-C , 37-C ) :   1.3169 B( 36-C , 40-S ) :   1.0622 B( 37-C , 38-C ) :   1.2542
B( 37-C , 84-H ) :   1.0314 B( 38-C , 39-C ) :   1.3180 B( 38-C , 41-N ) :   1.1242
B( 39-C , 40-S ) :   1.0207 B( 39-C , 43-C ) :   1.3930 B( 41-N , 42-C ) :   1.1942
B( 41-N , 72-C ) :   0.9429 B( 42-C , 43-C ) :   1.4323 B( 42-C , 44-C ) :   1.1171
B( 43-C , 46-S ) :   0.9854 B( 44-C , 45-C ) :   1.3034 B( 44-C , 47-C ) :   1.2759
B( 44-C , 49-C ) :   0.1242 B( 45-C , 46-S ) :   1.0058 B( 45-C , 50-C ) :   1.3748
B( 47-C , 48-C ) :   1.3875 B( 47-C , 60-O ) :   1.2047 B( 48-C , 49-C ) :   1.3441
B( 48-C , 51-S ) :   1.0452 B( 49-C , 50-C ) :   1.3022 B( 49-C , 53-C ) :   1.0956
B( 50-C , 61-O ) :   1.1619 B( 51-S , 52-C ) :   0.9754 B( 52-C , 53-C ) :   1.4307
B( 52-C , 54-C ) :   1.4392 B( 53-C , 56-N ) :   1.2105 B( 54-C , 55-C ) :   1.3466
B( 54-C , 57-S ) :   1.0446 B( 55-C , 56-N ) :   1.1359 B( 55-C , 59-C ) :   1.2501
B( 56-N , 66-C ) :   0.9554 B( 57-S , 58-C ) :   1.0748 B( 58-C , 59-C ) :   1.3880
B( 59-C , 85-H ) :   1.0154 B( 60-O , 62-C ) :   0.9294 B( 61-O , 64-C ) :   0.9185
B( 62-C , 63-C ) :   1.0977 B( 62-C , 86-H ) :   0.9477 B( 62-C , 87-H ) :   0.9483
B( 63-C , 88-H ) :   0.9578 B( 63-C , 89-H ) :   0.9554 B( 63-C , 90-H ) :   0.9614
B( 64-C , 65-C ) :   1.1019 B( 64-C , 91-H ) :   0.9525 B( 64-C , 92-H ) :   0.9449
B( 65-C , 93-H ) :   0.9658 B( 65-C , 94-H ) :   0.9589 B( 65-C , 95-H ) :   0.9641
B( 66-C , 67-C ) :   1.0533 B( 66-C , 96-H ) :   0.9319 B( 66-C , 97-H ) :   0.9155
B( 67-C , 68-C ) :   1.0154 B( 67-C , 70-C ) :   1.0612 B( 67-C , 98-H ) :   0.9276
B( 68-C , 69-C ) :   1.0978 B( 68-C , 99-H ) :   0.9435 B( 68-C ,100-H ) :   0.9402
B( 69-C ,101-H ) :   0.9694 B( 69-C ,102-H ) :   0.9645 B( 69-C ,103-H ) :   0.9698
B( 70-C , 71-C ) :   1.1024 B( 70-C ,104-H ) :   0.9426 B( 70-C ,105-H ) :   0.9398
B( 71-C ,106-H ) :   0.9687 B( 71-C ,107-H ) :   0.9646 B( 71-C ,108-H ) :   0.9682
B( 72-C , 73-C ) :   1.0556 B( 72-C ,109-H ) :   0.9374 B( 72-C ,110-H ) :   0.9354
B( 73-C , 74-C ) :   1.0298 B( 73-C , 76-C ) :   1.0557 B( 73-C ,111-H ) :   0.9157
B( 74-C , 75-C ) :   1.1012 B( 74-C ,112-H ) :   0.9388 B( 74-C ,113-H ) :   0.9403
B( 75-C ,114-H ) :   0.9630 B( 75-C ,115-H ) :   0.9625 B( 75-C ,116-H ) :   0.9708
B( 76-C , 77-C ) :   1.1052 B( 76-C ,117-H ) :   0.9437 B( 76-C ,118-H ) :   0.9415
B( 77-C ,119-H ) :   0.9689 B( 77-C ,120-H ) :   0.9618 B( 77-C ,121-H ) :   0.9662

-----------------------------------------------------------------------------
         ABSORPTION SPECTRUM VIA TRANSITION ELECTRIC DIPOLE MOMENTS
-----------------------------------------------------------------------------
State   Energy  Wavelength   fosc         T2         TX        TY        TZ
        (cm-1)    (nm)                  (au**2)     (au)      (au)      (au)
-----------------------------------------------------------------------------
   0   16182.3    618.0   2.166042876  44.06576  -3.55331   5.60708  -0.02123
   1   19382.9    515.9   0.111725841   1.89762   0.08876  -1.37427   0.03353
   2   21451.0    466.2   0.243440383   3.73612   0.29312  -1.79526  -0.65365
   3   23233.2    430.4   0.228142894   3.23277   0.09321  -1.74883  -0.40703
   4   24104.9    414.9   0.324826354   4.43630   0.97069  -1.80992   0.46719
   5   25212.4    396.6   0.042107012   0.54981   0.00528  -0.70938   0.21579
   6   25719.7    388.8   0.005224462   0.06687  -0.11749  -0.21210   0.08991
   7   27649.3    361.7   0.049028104   0.58376  -0.63673   0.42212   0.01230
   8   28932.2    345.6   0.029731967   0.33831   0.57714  -0.03000  -0.06575
   9   29291.5    341.4   0.094639356   1.06367   0.02976   0.91323  -0.47832
  10   29763.4    336.0   0.063202930   0.69909   0.44127  -0.38927   0.59400
  11   30301.7    330.0   0.002150053   0.02336   0.11257  -0.01196  -0.10269
  12   30395.4    329.0   0.007460002   0.08080   0.18497   0.02238  -0.21467
  13   31449.5    318.0   0.015448229   0.16171  -0.06656  -0.39607   0.02027
  14   31757.7    314.9   0.207556377   2.15161   1.19887  -0.26508   0.80254
  15   32100.4    311.5   0.091385173   0.93722  -0.06610   0.90979  -0.32423
  16   32242.3    310.2   0.247674342   2.52889  -0.73737   1.36169  -0.36189
  17   32292.7    309.7   0.068468100   0.69801   0.43079  -0.69821   0.15790
  18   33023.0    302.8   0.049548965   0.49396   0.38045   0.47411  -0.35277
  19   33124.6    301.9   0.051863400   0.51545  -0.37317   0.53837  -0.29385
  20   33637.2    297.3   0.123867311   1.21231   0.93405  -0.20980   0.54391
  21   34576.2    289.2   0.063157649   0.60135   0.40327  -0.39951   0.52831
  22   35692.5    280.2   0.053879336   0.49696  -0.64404   0.12682  -0.25709
  23   35832.0    279.1   0.009933547   0.09127  -0.27629   0.01336  -0.12145
  24   36154.3    276.6   0.030299130   0.27590   0.05756  -0.24869   0.45906
  25   36454.4    274.3   0.272018810   2.45655  -0.87739  -1.29771   0.05177
  26   36949.3    270.6   0.545177119   4.85744  -1.10690   0.78608  -1.73617
  27   37151.9    269.2   0.078371025   0.69446  -0.55057   0.24746  -0.57455
  28   37549.9    266.3   0.136228118   1.19436   0.50319   0.94572   0.21628
  29   38151.4    262.1   0.287659300   2.48224   0.31153   1.30158   0.83130
  30   38175.5    261.9   0.071547824   0.61700   0.36495   0.59504   0.36020
  31   38234.9    261.5   0.082943130   0.71416  -0.35158  -0.76609  -0.06048
  32   38883.6    257.2   0.076319480   0.64617  -0.72621  -0.32877   0.10344
  33   39241.9    254.8   0.090199144   0.75671  -0.16619  -0.85197   0.05694
  34   39432.8    253.6   0.005885104   0.04913  -0.03684  -0.14414  -0.16431
  35   39587.3    252.6   0.162481622   1.35121  -0.21593  -0.99960  -0.55261

FINAL SINGLE POINT ENERGY     -4929.706164989760

DIPOLE MOMENT
-------------
                                X             Y             Z
Electronic contribution:      4.07981       7.70842      -7.64492
Nuclear contribution   :     -5.57548      -9.15199       7.19561
                        -----------------------------------------
Total Dipole Moment    :     -1.49567      -1.44357      -0.44931
                        -----------------------------------------
Magnitude (a.u.)       :      2.12669
Magnitude (Debye)      :      5.40561

Rotational constants in cm-1:     0.001877     0.000231     0.000214
Rotational constants in MHz :    56.265972     6.927801     6.420128

                             ****ORCA TERMINATED NORMALLY****
TOTAL RUN TIME: 0 days 1 hours 29 minutes 13 seconds 82 msec
