                         Program Version 4.2.0 -  RELEASE  -
|  1> # ORCA input file
|  2> # BDTN-BF.out: Geometry 82
|  3> ! CAM-B3LYP def2-SVP def2/J RIJCOSX Grid4 TightSCF
|  4> %maxcore 5000
|  5> %tddft
|  6>     Mode sTDDFT
|  7>     Ethresh 5.0
|  8>     maxcore 5000
|  9> end
| 10> * xyz 0 1
| 11>    C        3.93011         2.07820         0.29023
| 12>    O        3.63391         0.89970         0.19207
| 13>    C        3.00847         3.21845         0.07316
| 14>    C        1.67110         3.16179        -0.29983
| 15>    C        1.00811         4.36848        -0.48873
| 16>    C        1.68160         5.58878        -0.30056
| 17>    C        3.01898         5.64112         0.08614
| 18>    C        3.69866         4.42908         0.27303
| 19>    C        5.10379         4.12063         0.64904
| 20>    C        6.08081         5.07421         0.88405
| 21>    C        7.43729         4.76367         1.21222
| 22>    N        8.54960         4.55090         1.47610
| 23>    C        5.83943         6.47994         0.78984
| 24>    N        5.68055         7.62903         0.71658
| 25>    C        5.24252         2.66321         0.65419
| 26>    F        1.00360         6.71474        -0.50811
| 27>    C        6.39147         1.94259         0.92253
| 28>    F       -0.26801         4.39680        -0.86216
| 29>    C       12.81899       -16.15866         0.87892
| 30>    O       11.89562       -16.94166         0.94482
| 31>    C       14.09956       -16.19373         1.64901
| 32>    C       14.46336       -17.05367         2.68079
| 33>    C       15.68519       -16.82332         3.30671
| 34>    C       16.52061       -15.76911         2.89442
| 35>    C       16.17205       -14.92628         1.84278
| 36>    C       14.93628       -15.13962         1.22197
| 37>    C       14.26429       -14.42352         0.11475
| 38>    C       14.88649       -13.64371        -0.84166
| 39>    C       14.21986       -13.24752        -2.04317
| 40>    N       13.69694       -12.95514        -3.03855
| 41>    C       16.25823       -13.25812        -0.73946
| 42>    N       17.36962       -12.93168        -0.64313
| 43>    C       12.88618       -14.89088         0.08136
| 44>    F       17.66462       -15.57929         3.54680
| 45>    C       11.71762       -14.29354        -0.32438
| 46>    F       16.08688       -17.58538         4.32014
| 47>    C        6.73786         0.57759         0.76650
| 48>    C        8.06162         0.15510         1.01789
| 49>    C        8.28136        -1.16374         0.61192
| 50>    C        7.12239        -1.77041         0.06693
| 51>    S        5.74219        -0.72973         0.07430
| 52>    N        9.35341        -2.04451         0.54499
| 53>    C        8.87981        -3.22564        -0.02340
| 54>    C        7.50348        -3.05954        -0.32184
| 55>    C        9.34187        -4.57125        -0.31051
| 56>    C        8.25153        -5.34029        -0.84754
| 57>    S        6.72732        -4.46828        -0.98180
| 58>    C       10.56264        -5.25975        -0.09841
| 59>    C       10.59483        -6.64265        -0.29972
| 60>    C        9.50300        -7.40000        -0.85335
| 61>    C        8.33185        -6.69113        -1.18164
| 62>    S       11.97746        -7.63126         0.18095
| 63>    C       11.13233        -9.05307        -0.36116
| 64>    C        9.84357        -8.80131        -0.89053
| 65>    C       11.33695       -10.43662        -0.39299
| 66>    C       10.16079       -11.01016        -0.93757
| 67>    N        9.24994       -10.00967        -1.23460
| 68>    S       12.51140       -11.62955         0.01593
| 69>    C       11.42334       -12.91991        -0.53919
| 70>    C       10.20423       -12.41267        -1.00906
| 71>    O       11.68526        -4.63107         0.36867
| 72>    O        7.24259        -7.29910        -1.74205
| 73>    C       12.57051        -4.07856        -0.62750
| 74>    C       13.50903        -5.07281        -1.28212
| 75>    C        7.00022        -7.01392        -3.13483
| 76>    C        5.53885        -7.26911        -3.42441
| 77>    C        7.95596       -10.29853        -1.84539
| 78>    C        6.94375       -11.03083        -0.93944
| 79>    C        6.23258       -10.10362         0.05915
| 80>    C        7.11479        -9.44070         1.11444
| 81>    C        5.93627       -11.76684        -1.84296
| 82>    C        4.97990       -12.70757        -1.11188
| 83>    C       10.71503        -1.62659         0.85974
| 84>    C       11.49986        -0.89450        -0.25615
| 85>    C       10.73648         0.22339        -0.99366
| 86>    C        9.84204        -0.26015        -2.13592
| 87>    C       12.79971        -0.36945         0.38083
| 88>    C       13.88574         0.02472        -0.61874
| 89>    H        1.16317         2.20860        -0.45443
| 90>    H        3.47570         6.61929         0.22263
| 91>    H        7.24536         2.51893         1.27991
| 92>    H       13.81337       -17.86732         3.00763
| 93>    H       16.85889       -14.12942         1.56131
| 94>    H       10.85031       -14.96547        -0.33748
| 95>    H        8.80241         0.83145         1.44224
| 96>    H        9.40584       -13.06321        -1.36432
| 97>    H       13.14675        -3.31430        -0.08687
| 98>    H       11.96327        -3.57110        -1.39358
| 99>    H       14.11929        -5.60215        -0.53575
|100>    H       14.18674        -4.51964        -1.95376
|101>    H       12.97045        -5.81910        -1.88242
|102>    H        7.65648        -7.65700        -3.74820
|103>    H        7.26990        -5.96678        -3.34570
|104>    H        5.27289        -8.32032        -3.23363
|105>    H        5.31281        -7.03824        -4.47682
|106>    H        4.90811        -6.63512        -2.78552
|107>    H        8.15763       -10.91895        -2.73405
|108>    H        7.52555        -9.35377        -2.18209
|109>    H        7.49327       -11.79927        -0.36459
|110>    H        5.46021       -10.69270         0.57873
|111>    H        5.69445        -9.32676        -0.51204
|112>    H        7.71908       -10.18303         1.66234
|113>    H        6.49507        -8.90579         1.85135
|114>    H        7.80392        -8.70498         0.68312
|115>    H        6.50147       -12.35085        -2.59056
|116>    H        5.35923       -11.01961        -2.41949
|117>    H        5.53711       -13.43379        -0.49631
|118>    H        4.36587       -13.27884        -1.82579
|119>    H        4.28887       -12.16846        -0.44577
|120>    H       11.27018        -2.51574         1.18396
|121>    H       10.63980        -0.95988         1.73340
|122>    H       11.77338        -1.63962        -1.01725
|123>    H       11.47735         0.91990        -1.41746
|124>    H       10.15922         0.82640        -0.27669
|125>    H       10.44316        -0.77685        -2.90248
|126>    H        9.33426         0.58482        -2.62608
|127>    H        9.06491        -0.96079        -1.80250
|128>    H       13.20611        -1.13563         1.06509
|129>    H       12.54644         0.49383         1.02205
|130>    H       14.21435        -0.84473        -1.21284
|131>    H       14.76957         0.42960        -0.10182
|132>    H       13.54136         0.79461        -1.32651
|133> *
|134>
|135>                          ****END OF INPUT****

CARTESIAN COORDINATES (ANGSTROEM)
---------------------------------
  C      3.930110    2.078200    0.290230
  O      3.633910    0.899700    0.192070
  C      3.008470    3.218450    0.073160
  C      1.671100    3.161790   -0.299830
  C      1.008110    4.368480   -0.488730
  C      1.681600    5.588780   -0.300560
  C      3.018980    5.641120    0.086140
  C      3.698660    4.429080    0.273030
  C      5.103790    4.120630    0.649040
  C      6.080810    5.074210    0.884050
  C      7.437290    4.763670    1.212220
  N      8.549600    4.550900    1.476100
  C      5.839430    6.479940    0.789840
  N      5.680550    7.629030    0.716580
  C      5.242520    2.663210    0.654190
  F      1.003600    6.714740   -0.508110
  C      6.391470    1.942590    0.922530
  F     -0.268010    4.396800   -0.862160
  C     12.818990  -16.158660    0.878920
  O     11.895620  -16.941660    0.944820
  C     14.099560  -16.193730    1.649010
  C     14.463360  -17.053670    2.680790
  C     15.685190  -16.823320    3.306710
  C     16.520610  -15.769110    2.894420
  C     16.172050  -14.926280    1.842780
  C     14.936280  -15.139620    1.221970
  C     14.264290  -14.423520    0.114750
  C     14.886490  -13.643710   -0.841660
  C     14.219860  -13.247520   -2.043170
  N     13.696940  -12.955140   -3.038550
  C     16.258230  -13.258120   -0.739460
  N     17.369620  -12.931680   -0.643130
  C     12.886180  -14.890880    0.081360
  F     17.664620  -15.579290    3.546800
  C     11.717620  -14.293540   -0.324380
  F     16.086880  -17.585380    4.320140
  C      6.737860    0.577590    0.766500
  C      8.061620    0.155100    1.017890
  C      8.281360   -1.163740    0.611920
  C      7.122390   -1.770410    0.066930
  S      5.742190   -0.729730    0.074300
  N      9.353410   -2.044510    0.544990
  C      8.879810   -3.225640   -0.023400
  C      7.503480   -3.059540   -0.321840
  C      9.341870   -4.571250   -0.310510
  C      8.251530   -5.340290   -0.847540
  S      6.727320   -4.468280   -0.981800
  C     10.562640   -5.259750   -0.098410
  C     10.594830   -6.642650   -0.299720
  C      9.503000   -7.400000   -0.853350
  C      8.331850   -6.691130   -1.181640
  S     11.977460   -7.631260    0.180950
  C     11.132330   -9.053070   -0.361160
  C      9.843570   -8.801310   -0.890530
  C     11.336950  -10.436620   -0.392990
  C     10.160790  -11.010160   -0.937570
  N      9.249940  -10.009670   -1.234600
  S     12.511400  -11.629550    0.015930
  C     11.423340  -12.919910   -0.539190
  C     10.204230  -12.412670   -1.009060
  O     11.685260   -4.631070    0.368670
  O      7.242590   -7.299100   -1.742050
  C     12.570510   -4.078560   -0.627500
  C     13.509030   -5.072810   -1.282120
  C      7.000220   -7.013920   -3.134830
  C      5.538850   -7.269110   -3.424410
  C      7.955960  -10.298530   -1.845390
  C      6.943750  -11.030830   -0.939440
  C      6.232580  -10.103620    0.059150
  C      7.114790   -9.440700    1.114440
  C      5.936270  -11.766840   -1.842960
  C      4.979900  -12.707570   -1.111880
  C     10.715030   -1.626590    0.859740
  C     11.499860   -0.894500   -0.256150
  C     10.736480    0.223390   -0.993660
  C      9.842040   -0.260150   -2.135920
  C     12.799710   -0.369450    0.380830
  C     13.885740    0.024720   -0.618740
  H      1.163170    2.208600   -0.454430
  H      3.475700    6.619290    0.222630
  H      7.245360    2.518930    1.279910
  H     13.813370  -17.867320    3.007630
  H     16.858890  -14.129420    1.561310
  H     10.850310  -14.965470   -0.337480
  H      8.802410    0.831450    1.442240
  H      9.405840  -13.063210   -1.364320
  H     13.146750   -3.314300   -0.086870
  H     11.963270   -3.571100   -1.393580
  H     14.119290   -5.602150   -0.535750
  H     14.186740   -4.519640   -1.953760
  H     12.970450   -5.819100   -1.882420
  H      7.656480   -7.657000   -3.748200
  H      7.269900   -5.966780   -3.345700
  H      5.272890   -8.320320   -3.233630
  H      5.312810   -7.038240   -4.476820
  H      4.908110   -6.635120   -2.785520
  H      8.157630  -10.918950   -2.734050
  H      7.525550   -9.353770   -2.182090
  H      7.493270  -11.799270   -0.364590
  H      5.460210  -10.692700    0.578730
  H      5.694450   -9.326760   -0.512040
  H      7.719080  -10.183030    1.662340
  H      6.495070   -8.905790    1.851350
  H      7.803920   -8.704980    0.683120
  H      6.501470  -12.350850   -2.590560
  H      5.359230  -11.019610   -2.419490
  H      5.537110  -13.433790   -0.496310
  H      4.365870  -13.278840   -1.825790
  H      4.288870  -12.168460   -0.445770
  H     11.270180   -2.515740    1.183960
  H     10.639800   -0.959880    1.733400
  H     11.773380   -1.639620   -1.017250
  H     11.477350    0.919900   -1.417460
  H     10.159220    0.826400   -0.276690
  H     10.443160   -0.776850   -2.902480
  H      9.334260    0.584820   -2.626080
  H      9.064910   -0.960790   -1.802500
  H     13.206110   -1.135630    1.065090
  H     12.546440    0.493830    1.022050
  H     14.214350   -0.844730   -1.212840
  H     14.769570    0.429600   -0.101820
  H     13.541360    0.794610   -1.326510

 Total Charge           Charge          ....    0
 Multiplicity           Mult            ....    1
 Number of Electrons    NEL             ....  578
 Basis Dimension        Dim             .... 1328

ORBITAL ENERGIES
----------------

  NO   OCC          E(Eh)            E(eV)
   0   2.0000     -88.969656     -2420.9874
   1   2.0000     -88.967225     -2420.9213
   2   2.0000     -88.966347     -2420.8974
   3   2.0000     -88.963639     -2420.8237
   4   2.0000     -24.803426      -674.9355
   5   2.0000     -24.802199      -674.9022
   6   2.0000     -24.801457      -674.8820
   7   2.0000     -24.801173      -674.8742
   8   2.0000     -19.259668      -524.0822
   9   2.0000     -19.254944      -523.9537
  10   2.0000     -19.221932      -523.0554
  11   2.0000     -19.218039      -522.9494
  12   2.0000     -14.482666      -394.0934
  13   2.0000     -14.481584      -394.0639
  14   2.0000     -14.424933      -392.5224
  15   2.0000     -14.420917      -392.4131
  16   2.0000     -14.420191      -392.3933
  17   2.0000     -14.415529      -392.2665
  18   2.0000     -10.386897      -282.6418
  19   2.0000     -10.386398      -282.6282
  20   2.0000     -10.386130      -282.6210
  21   2.0000     -10.386029      -282.6182
  22   2.0000     -10.372841      -282.2593
  23   2.0000     -10.372451      -282.2487
  24   2.0000     -10.356201      -281.8066
  25   2.0000     -10.355152      -281.7780
  26   2.0000     -10.351250      -281.6718
  27   2.0000     -10.350006      -281.6380
  28   2.0000     -10.349653      -281.6284
  29   2.0000     -10.347397      -281.5670
  30   2.0000     -10.342499      -281.4337
  31   2.0000     -10.340480      -281.3788
  32   2.0000     -10.340118      -281.3689
  33   2.0000     -10.335423      -281.2412
  34   2.0000     -10.329160      -281.0707
  35   2.0000     -10.327892      -281.0362
  36   2.0000     -10.326315      -280.9933
  37   2.0000     -10.324445      -280.9424
  38   2.0000     -10.324382      -280.9407
  39   2.0000     -10.324225      -280.9364
  40   2.0000     -10.324006      -280.9305
  41   2.0000     -10.323683      -280.9217
  42   2.0000     -10.323552      -280.9181
  43   2.0000     -10.322871      -280.8996
  44   2.0000     -10.322694      -280.8948
  45   2.0000     -10.322186      -280.8810
  46   2.0000     -10.320183      -280.8265
  47   2.0000     -10.320105      -280.8243
  48   2.0000     -10.318409      -280.7782
  49   2.0000     -10.317949      -280.7657
  50   2.0000     -10.317882      -280.7638
  51   2.0000     -10.315712      -280.7048
  52   2.0000     -10.314084      -280.6605
  53   2.0000     -10.312618      -280.6206
  54   2.0000     -10.312343      -280.6131
  55   2.0000     -10.311845      -280.5996
  56   2.0000     -10.311398      -280.5874
  57   2.0000     -10.310867      -280.5730
  58   2.0000     -10.310395      -280.5601
  59   2.0000     -10.310226      -280.5555
  60   2.0000     -10.310205      -280.5550
  61   2.0000     -10.310107      -280.5523
  62   2.0000     -10.305208      -280.4190
  63   2.0000     -10.303125      -280.3623
  64   2.0000     -10.300850      -280.3004
  65   2.0000     -10.299247      -280.2568
  66   2.0000     -10.283057      -279.8162
  67   2.0000     -10.281326      -279.7691
  68   2.0000     -10.280402      -279.7440
  69   2.0000     -10.276917      -279.6491
  70   2.0000     -10.275884      -279.6210
  71   2.0000     -10.274219      -279.5757
  72   2.0000     -10.270614      -279.4776
  73   2.0000     -10.268681      -279.4250
  74   2.0000     -10.266552      -279.3671
  75   2.0000     -10.264950      -279.3235
  76   2.0000     -10.261793      -279.2376
  77   2.0000     -10.256092      -279.0824
  78   2.0000      -8.063771      -219.4264
  79   2.0000      -8.060505      -219.3375
  80   2.0000      -8.059994      -219.3236
  81   2.0000      -8.057627      -219.2592
  82   2.0000      -6.033555      -164.1814
  83   2.0000      -6.030498      -164.0982
  84   2.0000      -6.029898      -164.0819
  85   2.0000      -6.029448      -164.0696
  86   2.0000      -6.027728      -164.0228
  87   2.0000      -6.026543      -163.9906
  88   2.0000      -6.025481      -163.9617
  89   2.0000      -6.025023      -163.9492
  90   2.0000      -6.023682      -163.9127
  91   2.0000      -6.021327      -163.8486
  92   2.0000      -6.021209      -163.8454
  93   2.0000      -6.018184      -163.7631
  94   2.0000      -1.329308       -36.1723
  95   2.0000      -1.328812       -36.1588
  96   2.0000      -1.312900       -35.7258
  97   2.0000      -1.312509       -35.7152
  98   2.0000      -1.161249       -31.5992
  99   2.0000      -1.155342       -31.4384
 100   2.0000      -1.133500       -30.8441
 101   2.0000      -1.130639       -30.7663
 102   2.0000      -1.097217       -29.8568
 103   2.0000      -1.097008       -29.8511
 104   2.0000      -1.015931       -27.6449
 105   2.0000      -1.014500       -27.6060
 106   2.0000      -0.998656       -27.1748
 107   2.0000      -0.998052       -27.1584
 108   2.0000      -0.995228       -27.0815
 109   2.0000      -0.992060       -26.9953
 110   2.0000      -0.988578       -26.9006
 111   2.0000      -0.983476       -26.7617
 112   2.0000      -0.982812       -26.7437
 113   2.0000      -0.975376       -26.5413
 114   2.0000      -0.951725       -25.8977
 115   2.0000      -0.950940       -25.8764
 116   2.0000      -0.931033       -25.3347
 117   2.0000      -0.920738       -25.0546
 118   2.0000      -0.908725       -24.7277
 119   2.0000      -0.901773       -24.5385
 120   2.0000      -0.899665       -24.4811
 121   2.0000      -0.892075       -24.2746
 122   2.0000      -0.889133       -24.1945
 123   2.0000      -0.884327       -24.0638
 124   2.0000      -0.870587       -23.6899
 125   2.0000      -0.870200       -23.6794
 126   2.0000      -0.865441       -23.5498
 127   2.0000      -0.863019       -23.4839
 128   2.0000      -0.856000       -23.2930
 129   2.0000      -0.847459       -23.0605
 130   2.0000      -0.845881       -23.0176
 131   2.0000      -0.844724       -22.9861
 132   2.0000      -0.839548       -22.8453
 133   2.0000      -0.835610       -22.7381
 134   2.0000      -0.829437       -22.5701
 135   2.0000      -0.811846       -22.0914
 136   2.0000      -0.807505       -21.9733
 137   2.0000      -0.798803       -21.7365
 138   2.0000      -0.788841       -21.4655
 139   2.0000      -0.780613       -21.2416
 140   2.0000      -0.770964       -20.9790
 141   2.0000      -0.768402       -20.9093
 142   2.0000      -0.764377       -20.7998
 143   2.0000      -0.749084       -20.3836
 144   2.0000      -0.738924       -20.1071
 145   2.0000      -0.735715       -20.0198
 146   2.0000      -0.734420       -19.9846
 147   2.0000      -0.727615       -19.7994
 148   2.0000      -0.715337       -19.4653
 149   2.0000      -0.711703       -19.3664
 150   2.0000      -0.705196       -19.1894
 151   2.0000      -0.701128       -19.0787
 152   2.0000      -0.698524       -19.0078
 153   2.0000      -0.696260       -18.9462
 154   2.0000      -0.688810       -18.7435
 155   2.0000      -0.684029       -18.6134
 156   2.0000      -0.681630       -18.5481
 157   2.0000      -0.677736       -18.4421
 158   2.0000      -0.672494       -18.2995
 159   2.0000      -0.668370       -18.1873
 160   2.0000      -0.660306       -17.9678
 161   2.0000      -0.656976       -17.8772
 162   2.0000      -0.651486       -17.7278
 163   2.0000      -0.648823       -17.6554
 164   2.0000      -0.643879       -17.5208
 165   2.0000      -0.641425       -17.4541
 166   2.0000      -0.640135       -17.4190
 167   2.0000      -0.639375       -17.3983
 168   2.0000      -0.638881       -17.3848
 169   2.0000      -0.622344       -16.9349
 170   2.0000      -0.616656       -16.7801
 171   2.0000      -0.612515       -16.6674
 172   2.0000      -0.609134       -16.5754
 173   2.0000      -0.605691       -16.4817
 174   2.0000      -0.601104       -16.3569
 175   2.0000      -0.596182       -16.2229
 176   2.0000      -0.592684       -16.1278
 177   2.0000      -0.591078       -16.0840
 178   2.0000      -0.590626       -16.0717
 179   2.0000      -0.589181       -16.0324
 180   2.0000      -0.586076       -15.9479
 181   2.0000      -0.583543       -15.8790
 182   2.0000      -0.574074       -15.6213
 183   2.0000      -0.572148       -15.5689
 184   2.0000      -0.570699       -15.5295
 185   2.0000      -0.566395       -15.4124
 186   2.0000      -0.561301       -15.2738
 187   2.0000      -0.556661       -15.1475
 188   2.0000      -0.552778       -15.0418
 189   2.0000      -0.551714       -15.0129
 190   2.0000      -0.551252       -15.0003
 191   2.0000      -0.549199       -14.9445
 192   2.0000      -0.548706       -14.9310
 193   2.0000      -0.547404       -14.8956
 194   2.0000      -0.542949       -14.7744
 195   2.0000      -0.540246       -14.7009
 196   2.0000      -0.535620       -14.5750
 197   2.0000      -0.534552       -14.5459
 198   2.0000      -0.532712       -14.4958
 199   2.0000      -0.531271       -14.4566
 200   2.0000      -0.529046       -14.3961
 201   2.0000      -0.526747       -14.3335
 202   2.0000      -0.526596       -14.3294
 203   2.0000      -0.523774       -14.2526
 204   2.0000      -0.523334       -14.2406
 205   2.0000      -0.521111       -14.1801
 206   2.0000      -0.515449       -14.0261
 207   2.0000      -0.512274       -13.9397
 208   2.0000      -0.511338       -13.9142
 209   2.0000      -0.508716       -13.8429
 210   2.0000      -0.505076       -13.7438
 211   2.0000      -0.502288       -13.6680
 212   2.0000      -0.498703       -13.5704
 213   2.0000      -0.497533       -13.5386
 214   2.0000      -0.496004       -13.4970
 215   2.0000      -0.495366       -13.4796
 216   2.0000      -0.495224       -13.4757
 217   2.0000      -0.493784       -13.4365
 218   2.0000      -0.493239       -13.4217
 219   2.0000      -0.492449       -13.4002
 220   2.0000      -0.490210       -13.3393
 221   2.0000      -0.487612       -13.2686
 222   2.0000      -0.485681       -13.2161
 223   2.0000      -0.481086       -13.0910
 224   2.0000      -0.478816       -13.0292
 225   2.0000      -0.476816       -12.9748
 226   2.0000      -0.475438       -12.9373
 227   2.0000      -0.473803       -12.8928
 228   2.0000      -0.468236       -12.7413
 229   2.0000      -0.466396       -12.6913
 230   2.0000      -0.463951       -12.6248
 231   2.0000      -0.461970       -12.5709
 232   2.0000      -0.460294       -12.5252
 233   2.0000      -0.457372       -12.4457
 234   2.0000      -0.455504       -12.3949
 235   2.0000      -0.455331       -12.3902
 236   2.0000      -0.454922       -12.3791
 237   2.0000      -0.454557       -12.3691
 238   2.0000      -0.452386       -12.3100
 239   2.0000      -0.451026       -12.2730
 240   2.0000      -0.450179       -12.2500
 241   2.0000      -0.449287       -12.2257
 242   2.0000      -0.447723       -12.1832
 243   2.0000      -0.446568       -12.1517
 244   2.0000      -0.442827       -12.0499
 245   2.0000      -0.442491       -12.0408
 246   2.0000      -0.439964       -11.9720
 247   2.0000      -0.438621       -11.9355
 248   2.0000      -0.435740       -11.8571
 249   2.0000      -0.431959       -11.7542
 250   2.0000      -0.430623       -11.7179
 251   2.0000      -0.430038       -11.7019
 252   2.0000      -0.427522       -11.6335
 253   2.0000      -0.426011       -11.5924
 254   2.0000      -0.425524       -11.5791
 255   2.0000      -0.423109       -11.5134
 256   2.0000      -0.421461       -11.4685
 257   2.0000      -0.419858       -11.4249
 258   2.0000      -0.415817       -11.3150
 259   2.0000      -0.413986       -11.2651
 260   2.0000      -0.412996       -11.2382
 261   2.0000      -0.412282       -11.2188
 262   2.0000      -0.407556       -11.0902
 263   2.0000      -0.406149       -11.0519
 264   2.0000      -0.404443       -11.0055
 265   2.0000      -0.400519       -10.8987
 266   2.0000      -0.397869       -10.8266
 267   2.0000      -0.395858       -10.7719
 268   2.0000      -0.393187       -10.6991
 269   2.0000      -0.390434       -10.6242
 270   2.0000      -0.383630       -10.4391
 271   2.0000      -0.377408       -10.2698
 272   2.0000      -0.374066       -10.1789
 273   2.0000      -0.370271       -10.0756
 274   2.0000      -0.359187        -9.7740
 275   2.0000      -0.356540        -9.7020
 276   2.0000      -0.348309        -9.4780
 277   2.0000      -0.346826        -9.4376
 278   2.0000      -0.342178        -9.3111
 279   2.0000      -0.341183        -9.2841
 280   2.0000      -0.336568        -9.1585
 281   2.0000      -0.326627        -8.8880
 282   2.0000      -0.314756        -8.5649
 283   2.0000      -0.311238        -8.4692
 284   2.0000      -0.309504        -8.4220
 285   2.0000      -0.288905        -7.8615
 286   2.0000      -0.275148        -7.4872
 287   2.0000      -0.269558        -7.3350
 288   2.0000      -0.244890        -6.6638
 289   0.0000      -0.099601        -2.7103
 290   0.0000      -0.089006        -2.4220
 291   0.0000      -0.065590        -1.7848
 292   0.0000      -0.059904        -1.6301
 293   0.0000      -0.026393        -0.7182

MULLIKEN ATOMIC CHARGES
-----------------------
   0 C :    0.142119
   1 O :   -0.165499
   2 C :   -0.018131
   3 C :   -0.102553
   4 C :    0.230931
   5 C :    0.227638
   6 C :   -0.092947
   7 C :    0.042246
   8 C :    0.284661
   9 C :   -0.329996
  10 C :   -0.163774
  11 N :    0.112492
  12 C :   -0.166367
  13 N :    0.127632
  14 C :   -0.085456
  15 F :   -0.159594
  16 C :   -0.021919
  17 F :   -0.161265
  18 C :    0.143680
  19 O :   -0.147366
  20 C :   -0.002351
  21 C :   -0.100939
  22 C :    0.226441
  23 C :    0.226709
  24 C :   -0.088405
  25 C :    0.032785
  26 C :    0.206349
  27 C :   -0.295264
  28 C :   -0.180766
  29 N :    0.150957
  30 C :   -0.163272
  31 N :    0.128309
  32 C :   -0.144788
  33 F :   -0.159667
  34 C :    0.055838
  35 F :   -0.162672
  36 C :   -0.068280
  37 C :   -0.097972
  38 C :    0.170439
  39 C :   -0.090717
  40 S :    0.202654
  41 N :   -0.180182
  42 C :    0.058929
  43 C :   -0.113951
  44 C :    0.102702
  45 C :   -0.144858
  46 S :    0.149875
  47 C :    0.034795
  48 C :   -0.143794
  49 C :    0.115143
  50 C :    0.037090
  51 S :    0.161400
  52 C :   -0.102951
  53 C :    0.044506
  54 C :   -0.101047
  55 C :    0.164479
  56 N :   -0.187893
  57 S :    0.154498
  58 C :   -0.092000
  59 C :   -0.038861
  60 O :   -0.348880
  61 O :   -0.364784
  62 C :    0.147721
  63 C :   -0.011690
  64 C :    0.166959
  65 C :    0.002744
  66 C :    0.213860
  67 C :   -0.124333
  68 C :    0.002522
  69 C :    0.015346
  70 C :   -0.016861
  71 C :    0.006732
  72 C :    0.174470
  73 C :   -0.108259
  74 C :    0.015283
  75 C :    0.004581
  76 C :   -0.017691
  77 C :    0.014818
  78 H :    0.018234
  79 H :    0.023299
  80 H :    0.012560
  81 H :    0.021663
  82 H :    0.025910
  83 H :    0.031144
  84 H :    0.026000
  85 H :    0.006062
  86 H :    0.032498
  87 H :    0.031129
  88 H :    0.039370
  89 H :    0.026396
  90 H :    0.037436
  91 H :    0.016977
  92 H :    0.031847
  93 H :    0.027479
  94 H :    0.030471
  95 H :    0.033838
  96 H :    0.012185
  97 H :    0.007329
  98 H :   -0.001668
  99 H :    0.004465
 100 H :    0.004041
 101 H :    0.010826
 102 H :    0.015675
 103 H :    0.022560
 104 H :    0.001604
 105 H :    0.004259
 106 H :    0.014267
 107 H :    0.019539
 108 H :    0.026147
 109 H :    0.040138
 110 H :    0.014513
 111 H :   -0.023609
 112 H :    0.003896
 113 H :   -0.008343
 114 H :    0.009448
 115 H :    0.020527
 116 H :    0.030418
 117 H :    0.006868
 118 H :    0.008520
 119 H :    0.008409
 120 H :    0.022987
 121 H :    0.020350
Sum of atomic charges:   -0.0000000

LOEWDIN ATOMIC CHARGES
----------------------
   0 C :    0.083337
   1 O :   -0.160399
   2 C :   -0.045700
   3 C :   -0.011976
   4 C :    0.066323
   5 C :    0.068634
   6 C :   -0.023678
   7 C :   -0.014585
   8 C :    0.081786
   9 C :   -0.146355
  10 C :   -0.012497
  11 N :   -0.065727
  12 C :   -0.015236
  13 N :   -0.058318
  14 C :   -0.121312
  15 F :   -0.038356
  16 C :    0.055591
  17 F :   -0.038454
  18 C :    0.089020
  19 O :   -0.146093
  20 C :   -0.047253
  21 C :   -0.012043
  22 C :    0.064910
  23 C :    0.069563
  24 C :   -0.025640
  25 C :   -0.010851
  26 C :    0.061325
  27 C :   -0.140322
  28 C :   -0.030042
  29 N :   -0.050154
  30 C :   -0.015231
  31 N :   -0.055943
  32 C :   -0.110631
  33 F :   -0.037973
  34 C :    0.051145
  35 F :   -0.039293
  36 C :   -0.175158
  37 C :   -0.021833
  38 C :   -0.023395
  39 C :   -0.200807
  40 S :    0.458613
  41 N :    0.032723
  42 C :    0.009034
  43 C :   -0.219571
  44 C :   -0.066610
  45 C :   -0.156628
  46 S :    0.399322
  47 C :    0.017872
  48 C :   -0.154365
  49 C :   -0.067563
  50 C :    0.012312
  51 S :    0.409826
  52 C :   -0.215200
  53 C :    0.003164
  54 C :   -0.196839
  55 C :   -0.017927
  56 N :    0.038337
  57 S :    0.436133
  58 C :   -0.173102
  59 C :   -0.023929
  60 O :   -0.136597
  61 O :   -0.133404
  62 C :    0.084452
  63 C :   -0.078739
  64 C :    0.084718
  65 C :   -0.067084
  66 C :    0.048706
  67 C :   -0.040841
  68 C :   -0.035228
  69 C :   -0.063399
  70 C :   -0.035703
  71 C :   -0.060719
  72 C :    0.045725
  73 C :   -0.040588
  74 C :   -0.038211
  75 C :   -0.062328
  76 C :   -0.034869
  77 C :   -0.059286
  78 H :    0.054314
  79 H :    0.053209
  80 H :    0.050808
  81 H :    0.054972
  82 H :    0.053657
  83 H :    0.053336
  84 H :    0.041374
  85 H :    0.041243
  86 H :    0.024342
  87 H :    0.014182
  88 H :    0.030288
  89 H :    0.037336
  90 H :    0.027555
  91 H :    0.012992
  92 H :    0.014775
  93 H :    0.028464
  94 H :    0.037976
  95 H :    0.032967
  96 H :    0.025388
  97 H :    0.030283
  98 H :    0.018122
  99 H :    0.022620
 100 H :    0.021564
 101 H :    0.024288
 102 H :    0.029032
 103 H :    0.023582
 104 H :    0.019605
 105 H :    0.021027
 106 H :    0.025155
 107 H :    0.029253
 108 H :    0.024765
 109 H :    0.032007
 110 H :    0.029372
 111 H :    0.015548
 112 H :    0.026457
 113 H :    0.019913
 114 H :    0.022200
 115 H :    0.029788
 116 H :    0.025665
 117 H :    0.020214
 118 H :    0.024847
 119 H :    0.021528
 120 H :    0.030807
 121 H :    0.024594

  Mayer bond orders larger than 0.100000
B(  0-C ,  1-O ) :   2.1908 B(  0-C ,  2-C ) :   0.9591 B(  0-C , 14-C ) :   0.9708
B(  2-C ,  3-C ) :   1.3159 B(  2-C ,  7-C ) :   1.3586 B(  3-C ,  4-C ) :   1.3222
B(  3-C ,  6-C ) :   0.1043 B(  3-C , 78-H ) :   1.0137 B(  4-C ,  5-C ) :   1.2816
B(  4-C , 17-F ) :   1.1378 B(  5-C ,  6-C ) :   1.3492 B(  5-C , 15-F ) :   1.1479
B(  6-C ,  7-C ) :   1.3052 B(  6-C , 79-H ) :   0.9866 B(  7-C ,  8-C ) :   0.9988
B(  8-C ,  9-C ) :   1.6188 B(  8-C , 14-C ) :   1.1056 B(  9-C , 10-C ) :   1.1333
B(  9-C , 12-C ) :   1.1269 B( 10-C , 11-N ) :   2.9529 B( 12-C , 13-N ) :   2.9697
B( 14-C , 16-C ) :   1.4777 B( 16-C , 36-C ) :   1.2932 B( 16-C , 80-H ) :   0.9303
B( 18-C , 19-O ) :   2.2546 B( 18-C , 20-C ) :   0.9279 B( 18-C , 32-C ) :   0.9493
B( 20-C , 21-C ) :   1.3245 B( 20-C , 25-C ) :   1.3520 B( 21-C , 22-C ) :   1.3323
B( 21-C , 24-C ) :   0.1030 B( 21-C , 81-H ) :   1.0111 B( 22-C , 23-C ) :   1.2803
B( 22-C , 35-F ) :   1.1356 B( 23-C , 24-C ) :   1.3479 B( 23-C , 33-F ) :   1.1453
B( 24-C , 25-C ) :   1.3148 B( 24-C , 82-H ) :   0.9892 B( 25-C , 26-C ) :   1.0218
B( 26-C , 27-C ) :   1.6634 B( 26-C , 32-C ) :   1.0459 B( 27-C , 28-C ) :   1.1365
B( 27-C , 30-C ) :   1.1158 B( 28-C , 29-N ) :   3.0265 B( 30-C , 31-N ) :   2.9868
B( 32-C , 34-C ) :   1.6124 B( 34-C , 58-C ) :   1.1985 B( 34-C , 83-H ) :   0.9422
B( 36-C , 37-C ) :   1.3393 B( 36-C , 40-S ) :   1.0618 B( 37-C , 38-C ) :   1.2568
B( 37-C , 84-H ) :   1.0087 B( 38-C , 39-C ) :   1.3373 B( 38-C , 41-N ) :   1.1270
B( 39-C , 40-S ) :   1.0254 B( 39-C , 43-C ) :   1.4069 B( 41-N , 42-C ) :   1.1847
B( 41-N , 72-C ) :   0.9499 B( 42-C , 43-C ) :   1.4447 B( 42-C , 44-C ) :   1.1005
B( 43-C , 46-S ) :   0.9813 B( 44-C , 45-C ) :   1.3004 B( 44-C , 47-C ) :   1.2813
B( 44-C , 49-C ) :   0.1087 B( 45-C , 46-S ) :   1.0397 B( 45-C , 50-C ) :   1.3961
B( 47-C , 48-C ) :   1.4179 B( 47-C , 60-O ) :   1.1863 B( 48-C , 49-C ) :   1.2931
B( 48-C , 51-S ) :   1.0400 B( 49-C , 50-C ) :   1.3078 B( 49-C , 53-C ) :   1.1036
B( 50-C , 61-O ) :   1.1652 B( 51-S , 52-C ) :   0.9833 B( 52-C , 53-C ) :   1.4381
B( 52-C , 54-C ) :   1.4169 B( 53-C , 56-N ) :   1.1940 B( 54-C , 55-C ) :   1.3517
B( 54-C , 57-S ) :   1.0569 B( 55-C , 56-N ) :   1.1290 B( 55-C , 59-C ) :   1.2459
B( 56-N , 66-C ) :   0.9441 B( 57-S , 58-C ) :   1.0751 B( 58-C , 59-C ) :   1.3973
B( 59-C , 85-H ) :   1.0089 B( 60-O , 62-C ) :   0.9032 B( 61-O , 64-C ) :   0.8684
B( 62-C , 63-C ) :   1.1164 B( 62-C , 86-H ) :   0.9569 B( 62-C , 87-H ) :   0.9314
B( 63-C , 88-H ) :   0.9623 B( 63-C , 89-H ) :   0.9554 B( 63-C , 90-H ) :   0.9604
B( 64-C , 65-C ) :   1.1178 B( 64-C , 91-H ) :   0.9453 B( 64-C , 92-H ) :   0.9476
B( 65-C , 93-H ) :   0.9694 B( 65-C , 94-H ) :   0.9595 B( 65-C , 95-H ) :   0.9617
B( 66-C , 67-C ) :   1.0282 B( 66-C , 96-H ) :   0.9370 B( 66-C , 97-H ) :   0.9245
B( 67-C , 68-C ) :   1.0441 B( 67-C , 70-C ) :   1.0507 B( 67-C , 98-H ) :   0.9259
B( 68-C , 69-C ) :   1.1031 B( 68-C , 99-H ) :   0.9441 B( 68-C ,100-H ) :   0.9394
B( 69-C ,101-H ) :   0.9651 B( 69-C ,102-H ) :   0.9609 B( 69-C ,103-H ) :   0.9696
B( 70-C , 71-C ) :   1.1013 B( 70-C ,104-H ) :   0.9435 B( 70-C ,105-H ) :   0.9438
B( 71-C ,106-H ) :   0.9697 B( 71-C ,107-H ) :   0.9649 B( 71-C ,108-H ) :   0.9671
B( 72-C , 73-C ) :   1.0462 B( 72-C ,109-H ) :   0.9318 B( 72-C ,110-H ) :   0.9330
B( 73-C , 74-C ) :   1.0337 B( 73-C , 76-C ) :   1.0495 B( 73-C ,111-H ) :   0.9146
B( 74-C , 75-C ) :   1.0907 B( 74-C ,112-H ) :   0.9389 B( 74-C ,113-H ) :   0.9367
B( 75-C ,114-H ) :   0.9651 B( 75-C ,115-H ) :   0.9648 B( 75-C ,116-H ) :   0.9727
B( 76-C , 77-C ) :   1.0998 B( 76-C ,117-H ) :   0.9428 B( 76-C ,118-H ) :   0.9396
B( 77-C ,119-H ) :   0.9688 B( 77-C ,120-H ) :   0.9641 B( 77-C ,121-H ) :   0.9658

-----------------------------------------------------------------------------
         ABSORPTION SPECTRUM VIA TRANSITION ELECTRIC DIPOLE MOMENTS
-----------------------------------------------------------------------------
State   Energy  Wavelength   fosc         T2         TX        TY        TZ
        (cm-1)    (nm)                  (au**2)     (au)      (au)      (au)
-----------------------------------------------------------------------------
   0   17209.4    581.1   2.380897304  45.54603  -3.51673   5.75948  -0.08409
   1   20176.5    495.6   0.121126702   1.97638  -0.01033   1.36531   0.33495
   2   21736.6    460.1   0.189880213   2.87583  -0.06021   1.64176   0.42051
   3   23505.0    425.4   0.164914686   2.30980   0.12875   1.50151   0.19667
   4   24945.3    400.9   0.228052010   3.00969  -0.97052   1.43636  -0.06817
   5   26029.0    384.2   0.043917047   0.55546   0.12212   0.67122  -0.30000
   6   26301.6    380.2   0.020150520   0.25222   0.07212   0.49665  -0.01878
   7   28049.0    356.5   0.043126312   0.50617  -0.54616   0.45442  -0.03715
   8   29227.5    342.1   0.092614330   1.04319  -0.19148  -0.84985   0.53318
   9   29281.3    341.5   0.011971788   0.13460   0.36299   0.04076   0.03425
  10   29810.9    335.4   0.136955901   1.51245  -0.57528   0.66248  -0.86176
  11   30458.6    328.3   0.022078901   0.23864   0.48836   0.01022  -0.00644
  12   30886.6    323.8   0.039282505   0.41870   0.60140   0.05062   0.23336
  13   31535.7    317.1   0.168124267   1.75510  -1.30069   0.21702  -0.12734
  14   31735.8    315.1   0.034627476   0.35921   0.42550   0.10298   0.40933
  15   31934.9    313.1   0.132871468   1.36975   0.14047   0.89044  -0.74641
  16   32400.1    308.6   0.005096576   0.05179  -0.21758  -0.06301   0.02174
  17   32821.3    304.7   0.084844881   0.85103   0.25801   0.69775  -0.54553
  18   33280.1    300.5   0.200604429   1.98441  -0.76114   1.18517  -0.02129
  19   33776.0    296.1   0.061118400   0.59572   0.72568   0.19042   0.18124
  20   33871.7    295.2   0.008575077   0.08334  -0.12201   0.13238   0.22569
  21   35033.5    285.4   0.095890673   0.90109  -0.84348   0.41206  -0.14081
  22   35764.0    279.6   0.018419820   0.16956  -0.34400  -0.05973  -0.21830
  23   35892.9    278.6   0.055798203   0.51179   0.60879  -0.26732   0.26400
  24   36312.8    275.4   0.039055477   0.35408   0.18325  -0.52073   0.22211
  25   36372.9    274.9   0.257278670   2.32863   1.18768   0.86717  -0.40752
  26   36879.7    271.2   0.364260625   3.25162  -1.22843   0.41035  -1.25467
  27   37426.1    267.2   0.240916574   2.11918   0.89174   1.02008   0.53236
  28   37761.4    264.8   0.477802729   4.16558  -0.93194  -1.70209   0.63242
  29   38103.6    262.4   0.124919291   1.07929  -0.01645   0.56170   0.87379
  30   38441.4    260.1   0.049817022   0.42663  -0.48858  -0.35009  -0.25565
  31   38933.4    256.8   0.194810401   1.64727  -0.52061  -1.17043   0.07956
  32   39070.5    255.9   0.036213841   0.30514   0.32542   0.37128  -0.24778
  33   39187.2    255.2   0.016019729   0.13458   0.09206  -0.31717  -0.15971
  34   39446.0    253.5   0.041086895   0.34291   0.12651   0.56684   0.07480
  35   39798.3    251.3   0.097120457   0.80338   0.14615   0.82474   0.31911

FINAL SINGLE POINT ENERGY     -4929.722801245515

DIPOLE MOMENT
-------------
                                X             Y             Z
Electronic contribution:      1.68391       1.29095      36.36443
Nuclear contribution   :     -3.01810      -2.33158     -37.09981
                        -----------------------------------------
Total Dipole Moment    :     -1.33419      -1.04063      -0.73539
                        -----------------------------------------
Magnitude (a.u.)       :      1.84493
Magnitude (Debye)      :      4.68943

Rotational constants in cm-1:     0.001715     0.000230     0.000212
Rotational constants in MHz :    51.408464     6.883863     6.354363

                             ****ORCA TERMINATED NORMALLY****
TOTAL RUN TIME: 0 days 1 hours 12 minutes 32 seconds 142 msec
