                         Program Version 4.2.0 -  RELEASE  -
|  1> # ORCA input file
|  2> # BDTN-Th.out
|  3> ! CAM-B3LYP def2-SVP def2/J RIJCOSX Grid4 TightSCF
|  4> %maxcore 5000
|  5> %tddft
|  6>     Mode sTDDFT
|  7>     Ethresh 5.0
|  8>     maxcore 5000
|  9> end
| 10> * xyz 0 1
| 11>    C        2.60451         2.77279         1.26833
| 12>    O        2.67041         3.58666         0.37659
| 13>    C        2.15387         2.96298         2.65663
| 14>    C        2.19193         1.70569         3.34559
| 15>    C        2.60741         0.67219         2.41667
| 16>    C        2.38898        -0.67045         2.60135
| 17>    C        1.95896        -1.18529         3.83869
| 18>    N        1.65167        -1.62710         4.85301
| 19>    C        2.49412        -1.63443         1.58274
| 20>    N        2.51532        -2.44888         0.77350
| 21>    C        3.02442         1.34263         1.20392
| 22>    C        3.75727         0.90654         0.13720
| 23>    C       12.47364       -14.61491         1.71233
| 24>    O       12.32805       -13.54023         2.26350
| 25>    C       13.05731       -15.83414         2.28656
| 26>    C       13.04462       -16.87185         1.29933
| 27>    C       12.45700       -16.35564         0.07743
| 28>    C       12.28987       -17.09382        -1.06791
| 29>    C       12.69583       -18.44218        -1.13124
| 30>    N       13.02287       -19.54025        -1.20261
| 31>    C       11.72270       -16.64478        -2.27442
| 32>    N       11.26706       -16.34715        -3.28696
| 33>    C       12.10580       -14.97077         0.33011
| 34>    C       11.52047       -14.13382        -0.58778
| 35>    C        4.58397        -0.23245         0.04888
| 36>    C        5.20296        -0.93715         1.07066
| 37>    C        5.98527        -1.97882         0.58395
| 38>    C        5.94566        -2.09190        -0.82772
| 39>    S        4.99385        -0.85875        -1.54795
| 40>    N        6.77951        -2.96404         1.11188
| 41>    C        7.22506        -3.72480         0.05763
| 42>    C        6.70563        -3.21119        -1.14463
| 43>    C        7.99360        -4.90672        -0.13609
| 44>    C        7.93872        -5.33467        -1.49686
| 45>    S        7.08197        -4.17405        -2.52515
| 46>    C        8.75761        -5.65385         0.76952
| 47>    C        9.20078        -6.89940         0.36439
| 48>    C        9.02018        -7.40949        -0.94785
| 49>    C        8.47394        -6.54425        -1.92552
| 50>    S       10.03133        -7.97073         1.46522
| 51>    C       10.09044        -9.16157         0.21295
| 52>    C        9.52064        -8.74388        -1.01152
| 53>    C       10.51715       -10.47629         0.06425
| 54>    C       10.18083       -10.83654        -1.26598
| 55>    N        9.58776        -9.77956        -1.90889
| 56>    S       11.26265       -11.76026         0.93364
| 57>    C       11.11728       -12.79655        -0.48960
| 58>    C       10.52039       -12.14046        -1.57253
| 59>    O        9.08657        -5.20842         2.02775
| 60>    O        8.51645        -6.99738        -3.20421
| 61>    C       10.12359        -4.23171         2.03965
| 62>    C       11.46619        -4.77067         1.56325
| 63>    C        8.38275        -6.12341        -4.31500
| 64>    C        8.90303        -6.85465        -5.54377
| 65>    C        8.99807        -9.92727        -3.21374
| 66>    C        7.66315       -10.69383        -3.18099
| 67>    C        6.63127        -9.97599        -2.29554
| 68>    C        6.55855       -10.53521        -0.87851
| 69>    C        7.15754       -10.85599        -4.62073
| 70>    C        6.11050       -11.95549        -4.75390
| 71>    C        6.81103        -3.27955         2.52108
| 72>    C        6.02809        -4.55699         2.87019
| 73>    C        6.10569        -4.82137         4.37834
| 74>    C        7.52022        -5.04825         4.90221
| 75>    C        4.56869        -4.44889         2.41257
| 76>    C        3.85829        -5.79527         2.34913
| 77>    C        1.71828         3.98321         3.43687
| 78>    S        1.35552         3.42560         5.02955
| 79>    C        1.78229         1.79986         4.63881
| 80>    C       13.58970       -16.22640         3.47034
| 81>    S       14.08704       -17.87773         3.39771
| 82>    C       13.57226       -18.03887         1.75846
| 83>    H        3.74616         1.56107        -0.72860
| 84>    H       11.32284       -14.56236        -1.56356
| 85>    H        5.11021        -0.65989         2.10536
| 86>    H       10.35978       -12.63007        -2.51633
| 87>    H       10.19503        -3.92415         3.08575
| 88>    H        9.83097        -3.36723         1.42604
| 89>    H       11.75257        -5.63641         2.15448
| 90>    H       12.22318        -3.99903         1.67249
| 91>    H       11.41377        -5.06362         0.51651
| 92>    H        8.96616        -5.21199        -4.14611
| 93>    H        7.33076        -5.85335        -4.46114
| 94>    H        9.93828        -7.15098        -5.39575
| 95>    H        8.84272        -6.19625        -6.40503
| 96>    H        8.30778        -7.74295        -5.73748
| 97>    H        9.71459       -10.47090        -3.83819
| 98>    H        8.83788        -8.93939        -3.63599
| 99>    H        7.84833       -11.69101        -2.76765
|100>    H        5.64232       -10.06928        -2.74679
|101>    H        6.86656        -8.91107        -2.25702
|102>    H        6.27755       -11.58620        -0.89987
|103>    H        5.81162        -9.99535        -0.30051
|104>    H        7.51048       -10.44893        -0.36176
|105>    H        8.00000       -11.10003        -5.27243
|106>    H        6.74031        -9.90577        -4.96152
|107>    H        6.53115       -12.91631        -4.46602
|108>    H        5.76791       -12.02717        -5.78331
|109>    H        5.24826       -11.75812        -4.12212
|110>    H        6.37858        -2.42776         3.05006
|111>    H        7.84456        -3.40234         2.83960
|112>    H        6.50192        -5.39296         2.34634
|113>    H        5.51399        -5.71185         4.59187
|114>    H        5.64525        -3.98665         4.91321
|115>    H        8.05791        -5.74031         4.25954
|116>    H        7.48132        -5.46563         5.90561
|117>    H        8.08050        -4.11766         4.95277
|118>    H        4.52439        -4.00259         1.41709
|119>    H        4.02573        -3.78511         3.09049
|120>    H        4.39560        -6.47729         1.69307
|121>    H        2.85374        -5.65996         1.95679
|122>    H        3.77994        -6.25161         3.33226
|123>    H        1.58265         5.01592         3.18573
|124>    H        1.70885         1.03822         5.38924
|125>    H       13.72226       -15.66334         4.37222
|126>    H       13.69681       -18.97836         1.25858
|127> *
|128>
|129>                          ****END OF INPUT****

CARTESIAN COORDINATES (ANGSTROEM)
---------------------------------
  C      2.604510    2.772790    1.268330
  O      2.670410    3.586660    0.376590
  C      2.153870    2.962980    2.656630
  C      2.191930    1.705690    3.345590
  C      2.607410    0.672190    2.416670
  C      2.388980   -0.670450    2.601350
  C      1.958960   -1.185290    3.838690
  N      1.651670   -1.627100    4.853010
  C      2.494120   -1.634430    1.582740
  N      2.515320   -2.448880    0.773500
  C      3.024420    1.342630    1.203920
  C      3.757270    0.906540    0.137200
  C     12.473640  -14.614910    1.712330
  O     12.328050  -13.540230    2.263500
  C     13.057310  -15.834140    2.286560
  C     13.044620  -16.871850    1.299330
  C     12.457000  -16.355640    0.077430
  C     12.289870  -17.093820   -1.067910
  C     12.695830  -18.442180   -1.131240
  N     13.022870  -19.540250   -1.202610
  C     11.722700  -16.644780   -2.274420
  N     11.267060  -16.347150   -3.286960
  C     12.105800  -14.970770    0.330110
  C     11.520470  -14.133820   -0.587780
  C      4.583970   -0.232450    0.048880
  C      5.202960   -0.937150    1.070660
  C      5.985270   -1.978820    0.583950
  C      5.945660   -2.091900   -0.827720
  S      4.993850   -0.858750   -1.547950
  N      6.779510   -2.964040    1.111880
  C      7.225060   -3.724800    0.057630
  C      6.705630   -3.211190   -1.144630
  C      7.993600   -4.906720   -0.136090
  C      7.938720   -5.334670   -1.496860
  S      7.081970   -4.174050   -2.525150
  C      8.757610   -5.653850    0.769520
  C      9.200780   -6.899400    0.364390
  C      9.020180   -7.409490   -0.947850
  C      8.473940   -6.544250   -1.925520
  S     10.031330   -7.970730    1.465220
  C     10.090440   -9.161570    0.212950
  C      9.520640   -8.743880   -1.011520
  C     10.517150  -10.476290    0.064250
  C     10.180830  -10.836540   -1.265980
  N      9.587760   -9.779560   -1.908890
  S     11.262650  -11.760260    0.933640
  C     11.117280  -12.796550   -0.489600
  C     10.520390  -12.140460   -1.572530
  O      9.086570   -5.208420    2.027750
  O      8.516450   -6.997380   -3.204210
  C     10.123590   -4.231710    2.039650
  C     11.466190   -4.770670    1.563250
  C      8.382750   -6.123410   -4.315000
  C      8.903030   -6.854650   -5.543770
  C      8.998070   -9.927270   -3.213740
  C      7.663150  -10.693830   -3.180990
  C      6.631270   -9.975990   -2.295540
  C      6.558550  -10.535210   -0.878510
  C      7.157540  -10.855990   -4.620730
  C      6.110500  -11.955490   -4.753900
  C      6.811030   -3.279550    2.521080
  C      6.028090   -4.556990    2.870190
  C      6.105690   -4.821370    4.378340
  C      7.520220   -5.048250    4.902210
  C      4.568690   -4.448890    2.412570
  C      3.858290   -5.795270    2.349130
  C      1.718280    3.983210    3.436870
  S      1.355520    3.425600    5.029550
  C      1.782290    1.799860    4.638810
  C     13.589700  -16.226400    3.470340
  S     14.087040  -17.877730    3.397710
  C     13.572260  -18.038870    1.758460
  H      3.746160    1.561070   -0.728600
  H     11.322840  -14.562360   -1.563560
  H      5.110210   -0.659890    2.105360
  H     10.359780  -12.630070   -2.516330
  H     10.195030   -3.924150    3.085750
  H      9.830970   -3.367230    1.426040
  H     11.752570   -5.636410    2.154480
  H     12.223180   -3.999030    1.672490
  H     11.413770   -5.063620    0.516510
  H      8.966160   -5.211990   -4.146110
  H      7.330760   -5.853350   -4.461140
  H      9.938280   -7.150980   -5.395750
  H      8.842720   -6.196250   -6.405030
  H      8.307780   -7.742950   -5.737480
  H      9.714590  -10.470900   -3.838190
  H      8.837880   -8.939390   -3.635990
  H      7.848330  -11.691010   -2.767650
  H      5.642320  -10.069280   -2.746790
  H      6.866560   -8.911070   -2.257020
  H      6.277550  -11.586200   -0.899870
  H      5.811620   -9.995350   -0.300510
  H      7.510480  -10.448930   -0.361760
  H      8.000000  -11.100030   -5.272430
  H      6.740310   -9.905770   -4.961520
  H      6.531150  -12.916310   -4.466020
  H      5.767910  -12.027170   -5.783310
  H      5.248260  -11.758120   -4.122120
  H      6.378580   -2.427760    3.050060
  H      7.844560   -3.402340    2.839600
  H      6.501920   -5.392960    2.346340
  H      5.513990   -5.711850    4.591870
  H      5.645250   -3.986650    4.913210
  H      8.057910   -5.740310    4.259540
  H      7.481320   -5.465630    5.905610
  H      8.080500   -4.117660    4.952770
  H      4.524390   -4.002590    1.417090
  H      4.025730   -3.785110    3.090490
  H      4.395600   -6.477290    1.693070
  H      2.853740   -5.659960    1.956790
  H      3.779940   -6.251610    3.332260
  H      1.582650    5.015920    3.185730
  H      1.708850    1.038220    5.389240
  H     13.722260  -15.663340    4.372220
  H     13.696810  -18.978360    1.258580

 Total Charge           Charge          ....    0
 Multiplicity           Mult            ....    1
 Number of Electrons    NEL             ....  550
 Basis Dimension        Dim             .... 1252

ORBITAL ENERGIES
----------------

  NO   OCC          E(Eh)            E(eV)
   0   2.0000     -88.981997     -2421.3232
   1   2.0000     -88.974957     -2421.1317
   2   2.0000     -88.966872     -2420.9117
   3   2.0000     -88.961829     -2420.7744
   4   2.0000     -88.955520     -2420.6028
   5   2.0000     -88.954576     -2420.5771
   6   2.0000     -19.267654      -524.2995
   7   2.0000     -19.251327      -523.8552
   8   2.0000     -19.210482      -522.7438
   9   2.0000     -19.210177      -522.7355
  10   2.0000     -14.476603      -393.9284
  11   2.0000     -14.469772      -393.7425
  12   2.0000     -14.414435      -392.2367
  13   2.0000     -14.413084      -392.1999
  14   2.0000     -14.409108      -392.0918
  15   2.0000     -14.404065      -391.9545
  16   2.0000     -10.366414      -282.0845
  17   2.0000     -10.363493      -282.0050
  18   2.0000     -10.361013      -281.9375
  19   2.0000     -10.342146      -281.4241
  20   2.0000     -10.341267      -281.4002
  21   2.0000     -10.340827      -281.3882
  22   2.0000     -10.337862      -281.3075
  23   2.0000     -10.333897      -281.1996
  24   2.0000     -10.332121      -281.1513
  25   2.0000     -10.328816      -281.0614
  26   2.0000     -10.326443      -280.9968
  27   2.0000     -10.326349      -280.9943
  28   2.0000     -10.320946      -280.8472
  29   2.0000     -10.320340      -280.8307
  30   2.0000     -10.320062      -280.8232
  31   2.0000     -10.319791      -280.8158
  32   2.0000     -10.319107      -280.7972
  33   2.0000     -10.317275      -280.7473
  34   2.0000     -10.315890      -280.7096
  35   2.0000     -10.314988      -280.6851
  36   2.0000     -10.314627      -280.6753
  37   2.0000     -10.313746      -280.6513
  38   2.0000     -10.313453      -280.6433
  39   2.0000     -10.312796      -280.6254
  40   2.0000     -10.311928      -280.6018
  41   2.0000     -10.310494      -280.5628
  42   2.0000     -10.309502      -280.5358
  43   2.0000     -10.309247      -280.5289
  44   2.0000     -10.309238      -280.5286
  45   2.0000     -10.307770      -280.4887
  46   2.0000     -10.307671      -280.4860
  47   2.0000     -10.304907      -280.4108
  48   2.0000     -10.303368      -280.3689
  49   2.0000     -10.303142      -280.3628
  50   2.0000     -10.302384      -280.3421
  51   2.0000     -10.302024      -280.3323
  52   2.0000     -10.297002      -280.1957
  53   2.0000     -10.296523      -280.1826
  54   2.0000     -10.296198      -280.1738
  55   2.0000     -10.294385      -280.1245
  56   2.0000     -10.294160      -280.1183
  57   2.0000     -10.289976      -280.0045
  58   2.0000     -10.286890      -279.9205
  59   2.0000     -10.282888      -279.8116
  60   2.0000     -10.277943      -279.6771
  61   2.0000     -10.268122      -279.4098
  62   2.0000     -10.265727      -279.3446
  63   2.0000     -10.263465      -279.2831
  64   2.0000     -10.263053      -279.2719
  65   2.0000     -10.256675      -279.0983
  66   2.0000     -10.255261      -279.0598
  67   2.0000     -10.253908      -279.0230
  68   2.0000     -10.246936      -278.8333
  69   2.0000     -10.246622      -278.8248
  70   2.0000     -10.246113      -278.8109
  71   2.0000     -10.240266      -278.6518
  72   2.0000      -8.077698      -219.8053
  73   2.0000      -8.070808      -219.6179
  74   2.0000      -8.061724      -219.3707
  75   2.0000      -8.056283      -219.2226
  76   2.0000      -8.049964      -219.0507
  77   2.0000      -8.047322      -218.9788
  78   2.0000      -6.046928      -164.5453
  79   2.0000      -6.042275      -164.4187
  80   2.0000      -6.040439      -164.3687
  81   2.0000      -6.040095      -164.3593
  82   2.0000      -6.035356      -164.2304
  83   2.0000      -6.033465      -164.1789
  84   2.0000      -6.031363      -164.1217
  85   2.0000      -6.027320      -164.0117
  86   2.0000      -6.026459      -163.9883
  87   2.0000      -6.023133      -163.8978
  88   2.0000      -6.022265      -163.8742
  89   2.0000      -6.019893      -163.8096
  90   2.0000      -6.017237      -163.7374
  91   2.0000      -6.016731      -163.7236
  92   2.0000      -6.015889      -163.7007
  93   2.0000      -6.012631      -163.6120
  94   2.0000      -6.010783      -163.5617
  95   2.0000      -6.008679      -163.5045
  96   2.0000      -1.172014       -31.8921
  97   2.0000      -1.155293       -31.4371
  98   2.0000      -1.126750       -30.6604
  99   2.0000      -1.126563       -30.6553
 100   2.0000      -1.103502       -30.0278
 101   2.0000      -1.097786       -29.8723
 102   2.0000      -1.022128       -27.8135
 103   2.0000      -1.014868       -27.6160
 104   2.0000      -1.005232       -27.3538
 105   2.0000      -0.999611       -27.2008
 106   2.0000      -0.999024       -27.1848
 107   2.0000      -0.993841       -27.0438
 108   2.0000      -0.986387       -26.8410
 109   2.0000      -0.985303       -26.8115
 110   2.0000      -0.978294       -26.6207
 111   2.0000      -0.975646       -26.5487
 112   2.0000      -0.959978       -26.1223
 113   2.0000      -0.953216       -25.9383
 114   2.0000      -0.929765       -25.3002
 115   2.0000      -0.915637       -24.9157
 116   2.0000      -0.904370       -24.6092
 117   2.0000      -0.900435       -24.5021
 118   2.0000      -0.894577       -24.3427
 119   2.0000      -0.892694       -24.2915
 120   2.0000      -0.886021       -24.1099
 121   2.0000      -0.880131       -23.9496
 122   2.0000      -0.865650       -23.5555
 123   2.0000      -0.858441       -23.3594
 124   2.0000      -0.852633       -23.2013
 125   2.0000      -0.846809       -23.0428
 126   2.0000      -0.841988       -22.9116
 127   2.0000      -0.840286       -22.8654
 128   2.0000      -0.837919       -22.8009
 129   2.0000      -0.833643       -22.6846
 130   2.0000      -0.832426       -22.6515
 131   2.0000      -0.827184       -22.5088
 132   2.0000      -0.823139       -22.3988
 133   2.0000      -0.806451       -21.9447
 134   2.0000      -0.801073       -21.7983
 135   2.0000      -0.792726       -21.5712
 136   2.0000      -0.777703       -21.1624
 137   2.0000      -0.774194       -21.0669
 138   2.0000      -0.760130       -20.6842
 139   2.0000      -0.749763       -20.4021
 140   2.0000      -0.747183       -20.3319
 141   2.0000      -0.743175       -20.2228
 142   2.0000      -0.736910       -20.0523
 143   2.0000      -0.728455       -19.8223
 144   2.0000      -0.720264       -19.5994
 145   2.0000      -0.712147       -19.3785
 146   2.0000      -0.696998       -18.9663
 147   2.0000      -0.690809       -18.7979
 148   2.0000      -0.688061       -18.7231
 149   2.0000      -0.684871       -18.6363
 150   2.0000      -0.681191       -18.5362
 151   2.0000      -0.679786       -18.4979
 152   2.0000      -0.672451       -18.2983
 153   2.0000      -0.668157       -18.1815
 154   2.0000      -0.666864       -18.1463
 155   2.0000      -0.658696       -17.9240
 156   2.0000      -0.658240       -17.9116
 157   2.0000      -0.654076       -17.7983
 158   2.0000      -0.641682       -17.4611
 159   2.0000      -0.640184       -17.4203
 160   2.0000      -0.635651       -17.2969
 161   2.0000      -0.633996       -17.2519
 162   2.0000      -0.630350       -17.1527
 163   2.0000      -0.617672       -16.8077
 164   2.0000      -0.615639       -16.7524
 165   2.0000      -0.613746       -16.7009
 166   2.0000      -0.600637       -16.3442
 167   2.0000      -0.599736       -16.3197
 168   2.0000      -0.595889       -16.2150
 169   2.0000      -0.592698       -16.1281
 170   2.0000      -0.590797       -16.0764
 171   2.0000      -0.585159       -15.9230
 172   2.0000      -0.578981       -15.7549
 173   2.0000      -0.576482       -15.6869
 174   2.0000      -0.570166       -15.5150
 175   2.0000      -0.566961       -15.4278
 176   2.0000      -0.561651       -15.2833
 177   2.0000      -0.555356       -15.1120
 178   2.0000      -0.549177       -14.9439
 179   2.0000      -0.545211       -14.8359
 180   2.0000      -0.543645       -14.7933
 181   2.0000      -0.539070       -14.6688
 182   2.0000      -0.535724       -14.5778
 183   2.0000      -0.533264       -14.5108
 184   2.0000      -0.532311       -14.4849
 185   2.0000      -0.526897       -14.3376
 186   2.0000      -0.524591       -14.2748
 187   2.0000      -0.523091       -14.2340
 188   2.0000      -0.521397       -14.1879
 189   2.0000      -0.519507       -14.1365
 190   2.0000      -0.516761       -14.0618
 191   2.0000      -0.514739       -14.0068
 192   2.0000      -0.511679       -13.9235
 193   2.0000      -0.508857       -13.8467
 194   2.0000      -0.504388       -13.7251
 195   2.0000      -0.502245       -13.6668
 196   2.0000      -0.501267       -13.6402
 197   2.0000      -0.499440       -13.5905
 198   2.0000      -0.496932       -13.5222
 199   2.0000      -0.495800       -13.4914
 200   2.0000      -0.494348       -13.4519
 201   2.0000      -0.490598       -13.3499
 202   2.0000      -0.489377       -13.3166
 203   2.0000      -0.488420       -13.2906
 204   2.0000      -0.486968       -13.2511
 205   2.0000      -0.486512       -13.2387
 206   2.0000      -0.483624       -13.1601
 207   2.0000      -0.483368       -13.1531
 208   2.0000      -0.479018       -13.0347
 209   2.0000      -0.477366       -12.9898
 210   2.0000      -0.476156       -12.9569
 211   2.0000      -0.473795       -12.8926
 212   2.0000      -0.472647       -12.8614
 213   2.0000      -0.471343       -12.8259
 214   2.0000      -0.468454       -12.7473
 215   2.0000      -0.467167       -12.7123
 216   2.0000      -0.465021       -12.6539
 217   2.0000      -0.463306       -12.6072
 218   2.0000      -0.460360       -12.5270
 219   2.0000      -0.456153       -12.4125
 220   2.0000      -0.452920       -12.3246
 221   2.0000      -0.449471       -12.2307
 222   2.0000      -0.449111       -12.2209
 223   2.0000      -0.446713       -12.1557
 224   2.0000      -0.444962       -12.1080
 225   2.0000      -0.442791       -12.0489
 226   2.0000      -0.442454       -12.0398
 227   2.0000      -0.439867       -11.9694
 228   2.0000      -0.438968       -11.9449
 229   2.0000      -0.438426       -11.9302
 230   2.0000      -0.436465       -11.8768
 231   2.0000      -0.435866       -11.8605
 232   2.0000      -0.432294       -11.7633
 233   2.0000      -0.431285       -11.7359
 234   2.0000      -0.429292       -11.6816
 235   2.0000      -0.428362       -11.6563
 236   2.0000      -0.426295       -11.6001
 237   2.0000      -0.424454       -11.5500
 238   2.0000      -0.424224       -11.5437
 239   2.0000      -0.421866       -11.4796
 240   2.0000      -0.419531       -11.4160
 241   2.0000      -0.419349       -11.4111
 242   2.0000      -0.417693       -11.3660
 243   2.0000      -0.414872       -11.2892
 244   2.0000      -0.412466       -11.2238
 245   2.0000      -0.409242       -11.1360
 246   2.0000      -0.408334       -11.1113
 247   2.0000      -0.407828       -11.0976
 248   2.0000      -0.405264       -11.0278
 249   2.0000      -0.404171       -10.9980
 250   2.0000      -0.397128       -10.8064
 251   2.0000      -0.392120       -10.6701
 252   2.0000      -0.391498       -10.6532
 253   2.0000      -0.389427       -10.5968
 254   2.0000      -0.385095       -10.4790
 255   2.0000      -0.382820       -10.4171
 256   2.0000      -0.376542       -10.2462
 257   2.0000      -0.374788       -10.1985
 258   2.0000      -0.370425       -10.0798
 259   2.0000      -0.367776       -10.0077
 260   2.0000      -0.354023        -9.6335
 261   2.0000      -0.347382        -9.4527
 262   2.0000      -0.336180        -9.1479
 263   2.0000      -0.334802        -9.1104
 264   2.0000      -0.333853        -9.0846
 265   2.0000      -0.329211        -8.9583
 266   2.0000      -0.326576        -8.8866
 267   2.0000      -0.326496        -8.8844
 268   2.0000      -0.310563        -8.4508
 269   2.0000      -0.305469        -8.3122
 270   2.0000      -0.300125        -8.1668
 271   2.0000      -0.282103        -7.6764
 272   2.0000      -0.267901        -7.2899
 273   2.0000      -0.262928        -7.1546
 274   2.0000      -0.233189        -6.3454
 275   0.0000      -0.095367        -2.5951
 276   0.0000      -0.081841        -2.2270
 277   0.0000      -0.045511        -1.2384
 278   0.0000      -0.039774        -1.0823
 279   0.0000      -0.021444        -0.5835

MULLIKEN ATOMIC CHARGES
-----------------------
   0 C :    0.150881
   1 O :   -0.141562
   2 C :    0.043504
   3 C :    0.014559
   4 C :    0.265948
   5 C :   -0.355358
   6 C :   -0.182301
   7 N :    0.150032
   8 C :   -0.182811
   9 N :    0.170307
  10 C :   -0.162021
  11 C :    0.088602
  12 C :    0.179696
  13 O :   -0.172183
  14 C :    0.033472
  15 C :    0.027647
  16 C :    0.318366
  17 C :   -0.358727
  18 C :   -0.197758
  19 N :    0.146573
  20 C :   -0.176209
  21 N :    0.134507
  22 C :   -0.117354
  23 C :   -0.031927
  24 C :   -0.128990
  25 C :   -0.024607
  26 C :    0.121651
  27 C :   -0.083180
  28 S :    0.164555
  29 N :   -0.158811
  30 C :    0.047948
  31 C :   -0.089746
  32 C :    0.114180
  33 C :   -0.165767
  34 S :    0.099680
  35 C :   -0.007755
  36 C :   -0.113093
  37 C :    0.076618
  38 C :    0.107128
  39 S :    0.163661
  40 C :   -0.116090
  41 C :    0.041136
  42 C :   -0.077276
  43 C :    0.185682
  44 N :   -0.140507
  45 S :    0.190458
  46 C :   -0.047677
  47 C :   -0.116289
  48 O :   -0.349985
  49 O :   -0.339126
  50 C :    0.148468
  51 C :    0.000899
  52 C :    0.116276
  53 C :    0.015874
  54 C :    0.192714
  55 C :   -0.130360
  56 C :    0.017311
  57 C :    0.013526
  58 C :    0.001385
  59 C :    0.033725
  60 C :    0.212874
  61 C :   -0.121615
  62 C :    0.000572
  63 C :    0.020173
  64 C :   -0.014907
  65 C :    0.030898
  66 C :   -0.142347
  67 S :    0.152129
  68 C :   -0.137198
  69 C :   -0.142560
  70 S :    0.148813
  71 C :   -0.137994
  72 H :    0.024567
  73 H :    0.002040
  74 H :    0.002911
  75 H :    0.000189
  76 H :    0.029708
  77 H :    0.019588
  78 H :    0.035222
  79 H :    0.021753
  80 H :    0.034039
  81 H :    0.034927
  82 H :    0.043004
  83 H :    0.030920
  84 H :    0.028814
  85 H :    0.034100
  86 H :    0.005278
  87 H :    0.021104
  88 H :   -0.006575
  89 H :   -0.001860
  90 H :   -0.000483
  91 H :    0.010705
  92 H :    0.012224
  93 H :    0.026177
  94 H :   -0.006476
  95 H :    0.004315
  96 H :    0.013304
  97 H :    0.012713
  98 H :    0.008569
  99 H :   -0.001746
 100 H :    0.006948
 101 H :    0.010687
 102 H :    0.004364
 103 H :   -0.004766
 104 H :    0.023054
 105 H :    0.006517
 106 H :    0.004734
 107 H :    0.032214
 108 H :   -0.004761
 109 H :    0.004184
 110 H :    0.018839
 111 H :    0.006834
 112 H :    0.040144
 113 H :    0.049400
 114 H :    0.035744
 115 H :    0.048493
Sum of atomic charges:   -0.0000000

LOEWDIN ATOMIC CHARGES
----------------------
   0 C :    0.079936
   1 O :   -0.145333
   2 C :   -0.091106
   3 C :   -0.062108
   4 C :    0.067640
   5 C :   -0.152663
   6 C :   -0.020381
   7 N :   -0.061632
   8 C :   -0.015191
   9 N :   -0.045155
  10 C :   -0.104895
  11 C :    0.053327
  12 C :    0.081329
  13 O :   -0.165272
  14 C :   -0.089142
  15 C :   -0.063141
  16 C :    0.079679
  17 C :   -0.156333
  18 C :   -0.015676
  19 N :   -0.065502
  20 C :   -0.021361
  21 N :   -0.065945
  22 C :   -0.119640
  23 C :    0.053705
  24 C :   -0.178427
  25 C :   -0.027361
  26 C :   -0.014683
  27 C :   -0.200980
  28 S :    0.436326
  29 N :    0.052373
  30 C :   -0.003604
  31 C :   -0.217186
  32 C :   -0.062564
  33 C :   -0.175518
  34 S :    0.395191
  35 C :   -0.000518
  36 C :   -0.151331
  37 C :   -0.075217
  38 C :    0.035686
  39 S :    0.414319
  40 C :   -0.227139
  41 C :    0.008215
  42 C :   -0.204028
  43 C :   -0.026128
  44 N :    0.049036
  45 S :    0.476261
  46 C :   -0.177672
  47 C :   -0.027529
  48 O :   -0.124890
  49 O :   -0.096815
  50 C :    0.078100
  51 C :   -0.071903
  52 C :    0.071953
  53 C :   -0.060619
  54 C :    0.041399
  55 C :   -0.036567
  56 C :   -0.034300
  57 C :   -0.055955
  58 C :   -0.031470
  59 C :   -0.053373
  60 C :    0.049185
  61 C :   -0.037655
  62 C :   -0.028024
  63 C :   -0.061146
  64 C :   -0.037164
  65 C :   -0.051382
  66 C :   -0.141310
  67 S :    0.480421
  68 C :   -0.156354
  69 C :   -0.142792
  70 S :    0.476483
  71 C :   -0.151120
  72 H :    0.046293
  73 H :    0.049624
  74 H :    0.034927
  75 H :    0.038177
  76 H :    0.023067
  77 H :    0.011969
  78 H :    0.026014
  79 H :    0.033428
  80 H :    0.029303
  81 H :    0.015032
  82 H :    0.011521
  83 H :    0.031184
  84 H :    0.036495
  85 H :    0.029297
  86 H :    0.022052
  87 H :    0.024314
  88 H :    0.016099
  89 H :    0.020462
  90 H :    0.020098
  91 H :    0.021661
  92 H :    0.025190
  93 H :    0.024221
  94 H :    0.017981
  95 H :    0.018195
  96 H :    0.024082
  97 H :    0.025560
  98 H :    0.021189
  99 H :    0.026099
 100 H :    0.025518
 101 H :    0.022559
 102 H :    0.024472
 103 H :    0.018064
 104 H :    0.023316
 105 H :    0.024321
 106 H :    0.013923
 107 H :    0.021969
 108 H :    0.017580
 109 H :    0.020527
 110 H :    0.029150
 111 H :    0.017804
 112 H :    0.035613
 113 H :    0.035096
 114 H :    0.034300
 115 H :    0.034886

  Mayer bond orders larger than 0.100000
B(  0-C ,  1-O ) :   2.2696 B(  0-C ,  2-C ) :   0.9233 B(  0-C , 10-C ) :   0.9468
B(  2-C ,  3-C ) :   1.2229 B(  2-C , 66-C ) :   1.5516 B(  3-C ,  4-C ) :   1.0116
B(  3-C , 68-C ) :   1.5418 B(  4-C ,  5-C ) :   1.6301 B(  4-C , 10-C ) :   1.0602
B(  5-C ,  6-C ) :   1.1430 B(  5-C ,  8-C ) :   1.1782 B(  6-C ,  7-N ) :   2.9896
B(  8-C ,  9-N ) :   2.9426 B( 10-C , 11-C ) :   1.6318 B( 11-C , 24-C ) :   1.1617
B( 11-C , 72-H ) :   0.9318 B( 12-C , 13-O ) :   2.1466 B( 12-C , 14-C ) :   0.9626
B( 12-C , 22-C ) :   0.9710 B( 14-C , 15-C ) :   1.2241 B( 14-C , 69-C ) :   1.5449
B( 15-C , 16-C ) :   0.9887 B( 15-C , 71-C ) :   1.5395 B( 16-C , 17-C ) :   1.6118
B( 16-C , 22-C ) :   1.1086 B( 17-C , 18-C ) :   1.1572 B( 17-C , 20-C ) :   1.1443
B( 18-C , 19-N ) :   2.9883 B( 20-C , 21-N ) :   2.9555 B( 22-C , 23-C ) :   1.4669
B( 23-C , 46-C ) :   1.3027 B( 23-C , 73-H ) :   0.9387 B( 24-C , 25-C ) :   1.4033
B( 24-C , 28-S ) :   1.0705 B( 25-C , 26-C ) :   1.3007 B( 25-C , 74-H ) :   0.9989
B( 26-C , 27-C ) :   1.3520 B( 26-C , 29-N ) :   1.1443 B( 27-C , 28-S ) :   1.0511
B( 27-C , 31-C ) :   1.4024 B( 29-N , 30-C ) :   1.1916 B( 29-N , 60-C ) :   0.9516
B( 30-C , 31-C ) :   1.4392 B( 30-C , 32-C ) :   1.1230 B( 31-C , 34-S ) :   0.9821
B( 32-C , 33-C ) :   1.3015 B( 32-C , 35-C ) :   1.2835 B( 32-C , 37-C ) :   0.1274
B( 33-C , 34-S ) :   1.0013 B( 33-C , 38-C ) :   1.3810 B( 35-C , 36-C ) :   1.3904
B( 35-C , 48-O ) :   1.1619 B( 36-C , 37-C ) :   1.3440 B( 36-C , 39-S ) :   1.0536
B( 37-C , 38-C ) :   1.2909 B( 37-C , 41-C ) :   1.0978 B( 38-C , 49-O ) :   1.1585
B( 39-S , 40-C ) :   0.9709 B( 40-C , 41-C ) :   1.4369 B( 40-C , 42-C ) :   1.4200
B( 41-C , 44-N ) :   1.2062 B( 42-C , 43-C ) :   1.3205 B( 42-C , 45-S ) :   1.0098
B( 43-C , 44-N ) :   1.1264 B( 43-C , 47-C ) :   1.2608 B( 44-N , 54-C ) :   0.9558
B( 45-S , 46-C ) :   1.0614 B( 46-C , 47-C ) :   1.3158 B( 47-C , 75-H ) :   1.0299
B( 48-O , 50-C ) :   0.9266 B( 49-O , 52-C ) :   0.9224 B( 50-C , 51-C ) :   1.1065
B( 50-C , 76-H ) :   0.9533 B( 50-C , 77-H ) :   0.9480 B( 51-C , 78-H ) :   0.9613
B( 51-C , 79-H ) :   0.9558 B( 51-C , 80-H ) :   0.9640 B( 52-C , 53-C ) :   1.1025
B( 52-C , 81-H ) :   0.9521 B( 52-C , 82-H ) :   0.9447 B( 53-C , 83-H ) :   0.9644
B( 53-C , 84-H ) :   0.9586 B( 53-C , 85-H ) :   0.9633 B( 54-C , 55-C ) :   1.0541
B( 54-C , 86-H ) :   0.9313 B( 54-C , 87-H ) :   0.9164 B( 55-C , 56-C ) :   1.0142
B( 55-C , 58-C ) :   1.0592 B( 55-C , 88-H ) :   0.9283 B( 56-C , 57-C ) :   1.1008
B( 56-C , 89-H ) :   0.9427 B( 56-C , 90-H ) :   0.9404 B( 57-C , 91-H ) :   0.9689
B( 57-C , 92-H ) :   0.9639 B( 57-C , 93-H ) :   0.9695 B( 58-C , 59-C ) :   1.1039
B( 58-C , 94-H ) :   0.9428 B( 58-C , 95-H ) :   0.9395 B( 59-C , 96-H ) :   0.9687
B( 59-C , 97-H ) :   0.9642 B( 59-C , 98-H ) :   0.9676 B( 60-C , 61-C ) :   1.0364
B( 60-C , 99-H ) :   0.9280 B( 60-C ,100-H ) :   0.9358 B( 61-C , 62-C ) :   1.0584
B( 61-C , 64-C ) :   1.0359 B( 61-C ,101-H ) :   0.9182 B( 62-C , 63-C ) :   1.1017
B( 62-C ,102-H ) :   0.9452 B( 62-C ,103-H ) :   0.9433 B( 63-C ,104-H ) :   0.9635
B( 63-C ,105-H ) :   0.9606 B( 63-C ,106-H ) :   0.9636 B( 64-C , 65-C ) :   1.1100
B( 64-C ,107-H ) :   0.9402 B( 64-C ,108-H ) :   0.9397 B( 65-C ,109-H ) :   0.9682
B( 65-C ,110-H ) :   0.9630 B( 65-C ,111-H ) :   0.9670 B( 66-C , 67-S ) :   1.1875
B( 66-C ,112-H ) :   0.9706 B( 67-S , 68-C ) :   1.1737 B( 68-C ,113-H ) :   0.9587
B( 69-C , 70-S ) :   1.1824 B( 69-C ,114-H ) :   0.9708 B( 70-S , 71-C ) :   1.1751
B( 71-C ,115-H ) :   0.9562

-----------------------------------------------------------------------------
         ABSORPTION SPECTRUM VIA TRANSITION ELECTRIC DIPOLE MOMENTS
-----------------------------------------------------------------------------
State   Energy  Wavelength   fosc         T2         TX        TY        TZ
        (cm-1)    (nm)                  (au**2)     (au)      (au)      (au)
-----------------------------------------------------------------------------
   0   15764.4    634.3   1.663545645  34.74018  -3.33860   4.83412   0.47461
   1   19202.9    520.8   0.578781761   9.92258  -0.48567   2.90823  -1.10857
   2   21591.7    463.1   0.385345651   5.87543   1.12891  -1.54270  -1.49032
   3   23496.0    425.6   0.270206505   3.78597   0.10373  -1.94035   0.10122
   4   24856.6    402.3   0.007025088   0.09304  -0.16243  -0.19904   0.16444
   5   26662.9    375.1   0.125531081   1.54996  -0.75137   0.90803  -0.40111
   6   27536.0    363.2   0.041643560   0.49788  -0.05100  -0.02455  -0.70333
   7   27817.1    359.5   0.050421180   0.59673   0.54374  -0.52993   0.14232
   8   28582.3    349.9   0.050948645   0.58683  -0.03639   0.76372  -0.04729
   9   29155.2    343.0   0.144406464   1.63059   0.48591  -1.16602  -0.18680
  10   29291.5    341.4   0.000894766   0.01006  -0.09101  -0.01847   0.03786
  11   29894.4    334.5   0.002125486   0.02341  -0.04496   0.14006  -0.04205
  12   31095.1    321.6   0.269312766   2.85128   0.61814  -1.56215  -0.16994
  13   31702.5    315.4   0.070743433   0.73463  -0.22333   0.19608  -0.80393
  14   31785.4    314.6   0.190503633   1.97311   0.50621  -0.19259   1.29606
  15   32668.2    306.1   0.011336889   0.11425   0.11445  -0.19554   0.25083
  16   33924.8    294.8   0.107105261   1.03937  -0.45638   0.91017  -0.05168
  17   33993.9    294.2   0.079009087   0.76516  -0.01263  -0.39243  -0.78166
  18   34342.8    291.2   0.056270976   0.53942  -0.10071   0.69070   0.22850
  19   34704.4    288.1   0.185917623   1.76365   0.46985  -1.23353  -0.14596
  20   34849.6    286.9   0.039744140   0.37545   0.02113   0.61195  -0.02280
  21   35004.8    285.7   0.000062692   0.00059  -0.02331   0.00678   0.00043
  22   35348.4    282.9   0.031327271   0.29176  -0.23324   0.20075  -0.44392
  23   36105.5    277.0   0.089228072   0.81359  -0.34711   0.74981  -0.36178
  24   36602.1    273.2   0.034738441   0.31245  -0.22465   0.11185   0.49947
  25   37139.2    269.3   0.046513950   0.41231   0.28078  -0.54347  -0.19522
  26   37426.1    267.2   0.077078469   0.67801   0.13306  -0.44286  -0.68131
  27   37780.5    264.7   0.093382326   0.81372  -0.50807   0.36382  -0.65055
  28   38198.9    261.8   0.083195530   0.71701  -0.11574   0.64343   0.53816
  29   38611.8    259.0   0.046426937   0.39585  -0.20052   0.58845   0.09679
  30   38798.0    257.7   0.091864847   0.77950   0.20371  -0.85529   0.08055
  31   39296.9    254.5   0.343230433   2.87543  -0.28957  -0.71863  -1.50836
  32   39487.8    253.2   0.391790583   3.26638   0.07843  -1.70513  -0.59395
  33   39588.5    252.6   0.221058710   1.83829  -0.16927  -0.22153  -1.32686

FINAL SINGLE POINT ENERGY     -5174.643973649508

DIPOLE MOMENT
-------------
                                X             Y             Z
Electronic contribution:     16.09150       6.77500      21.88830
Nuclear contribution   :    -15.20266      -3.55010     -21.43619
                        -----------------------------------------
Total Dipole Moment    :      0.88885       3.22489       0.45210
                        -----------------------------------------
Magnitude (a.u.)       :      3.37556
Magnitude (Debye)      :      8.57998

Rotational constants in cm-1:     0.002031     0.000290     0.000271
Rotational constants in MHz :    60.895409     8.686262     8.118279

                             ****ORCA TERMINATED NORMALLY****
TOTAL RUN TIME: 0 days 1 hours 23 minutes 30 seconds 929 msec
