                         Program Version 4.2.0 -  RELEASE  -
|  1> # ORCA input file
|  2> # BDTN-Th.out: Geometry 94
|  3> ! CAM-B3LYP def2-SVP def2/J RIJCOSX Grid4 TightSCF
|  4> %maxcore 5000
|  5> %tddft
|  6>     Mode sTDDFT
|  7>     Ethresh 5.0
|  8>     maxcore 5000
|  9> end
| 10> * xyz 0 1
| 11>    C        4.04773         3.62165         1.38163
| 12>    O        4.28809         4.30183         0.40761
| 13>    C        3.81223         4.06102         2.78038
| 14>    C        3.52430         2.91413         3.59437
| 15>    C        3.48288         1.71533         2.74205
| 16>    C        2.87850         0.52168         3.11075
| 17>    C        2.47439         0.29657         4.46165
| 18>    N        2.18187         0.12519         5.57395
| 19>    C        2.52052        -0.48228         2.16710
| 20>    N        2.20750        -1.29318         1.39505
| 21>    C        3.98754         2.11022         1.43512
| 22>    C        4.54172         1.42294         0.37368
| 23>    C       13.16907       -14.68822         1.56074
| 24>    O       12.68498       -13.83857         2.28691
| 25>    C       13.98682       -15.85554         1.96280
| 26>    C       14.38215       -16.58190         0.79128
| 27>    C       13.81530       -15.92984        -0.39955
| 28>    C       14.03779       -16.36880        -1.69613
| 29>    C       14.87843       -17.49603        -1.94757
| 30>    N       15.57182       -18.41150        -2.12965
| 31>    C       13.48142       -15.74987        -2.85565
| 32>    N       13.02271       -15.25175        -3.80136
| 33>    C       13.04787       -14.77435         0.07614
| 34>    C       12.30646       -13.91766        -0.71297
| 35>    C        5.05719         0.10713         0.26203
| 36>    C        5.34663        -0.83295         1.26028
| 37>    C        6.01115        -1.94981         0.74955
| 38>    C        6.23187        -1.90824        -0.65662
| 39>    S        5.62472        -0.44168        -1.33783
| 40>    N        6.50273        -3.13772         1.27706
| 41>    C        7.04761        -3.82925         0.20633
| 42>    C        6.85463        -3.12902        -0.99611
| 43>    C        7.69621        -5.09424         0.05318
| 44>    C        7.78107        -5.44963        -1.33598
| 45>    S        7.32989        -4.06912        -2.39194
| 46>    C        8.28795        -5.91591         1.02850
| 47>    C        8.81950        -7.13215         0.61789
| 48>    C        8.75169        -7.59557        -0.73819
| 49>    C        8.23631        -6.71735        -1.73450
| 50>    S        9.63701        -8.21887         1.73542
| 51>    C        9.90409        -9.33183         0.42125
| 52>    C        9.35568        -8.90650        -0.81677
| 53>    C       10.53322       -10.57205         0.21626
| 54>    C       10.34046       -10.87958        -1.15309
| 55>    N        9.61214        -9.87789        -1.77999
| 56>    S       11.43486       -11.79799         1.04832
| 57>    C       11.58186       -12.72510        -0.46935
| 58>    C       10.92760       -12.08281        -1.54098
| 59>    O        8.36973        -5.55512         2.34230
| 60>    O        8.24859        -7.17044        -3.01444
| 61>    C        9.25243        -4.45870         2.65948
| 62>    C       10.71011        -4.87900         2.69193
| 63>    C        7.29489        -6.68516        -3.96964
| 64>    C        7.02000        -7.75016        -5.01232
| 65>    C        8.87007       -10.18907        -3.00118
| 66>    C        7.64653       -11.08257        -2.72567
| 67>    C        6.55712       -10.33080        -1.91694
| 68>    C        6.48376       -10.71094        -0.43780
| 69>    C        7.09850       -11.70190        -4.02373
| 70>    C        6.19986       -12.91025        -3.75981
| 71>    C        5.86357        -3.82184         2.41516
| 72>    C        4.88176        -4.91813         1.95985
| 73>    C        4.30349        -5.65814         3.17531
| 74>    C        5.31406        -6.49022         3.96837
| 75>    C        3.79473        -4.35151         1.03429
| 76>    C        2.96179        -5.40382         0.30554
| 77>    C        3.82201         5.23940         3.47431
| 78>    S        3.49213         4.94707         5.15377
| 79>    C        3.32163         3.23610         4.91589
| 80>    C       14.44697       -16.39347         3.13147
| 81>    S       15.38539       -17.81669         2.80116
| 82>    C       15.16144       -17.67818         1.08624
| 83>    H        4.70926         2.07296        -0.49573
| 84>    H       12.25572       -14.18162        -1.76977
| 85>    H        5.12227        -0.66783         2.31137
| 86>    H       10.93576       -12.50137        -2.54704
| 87>    H        8.92101        -4.10608         3.64788
| 88>    H        9.08987        -3.63790         1.94236
| 89>    H       10.86998        -5.69410         3.41309
| 90>    H       11.33707        -4.02404         2.99140
| 91>    H       11.05110        -5.22395         1.70398
| 92>    H        7.69927        -5.77693        -4.44725
| 93>    H        6.36355        -6.41289        -3.45003
| 94>    H        7.94679        -8.08807        -5.50053
| 95>    H        6.35963        -7.33286        -5.78827
| 96>    H        6.51814        -8.62165        -4.56876
| 97>    H        9.56973       -10.70457        -3.67733
| 98>    H        8.58307        -9.24794        -3.47195
| 99>    H        8.01049       -11.92437        -2.10999
|100>    H        5.57183       -10.51319        -2.37748
|101>    H        6.72375        -9.24483        -2.00725
|102>    H        6.20614       -11.77080        -0.31687
|103>    H        5.73378       -10.10595         0.09428
|104>    H        7.44676       -10.56038         0.07207
|105>    H        7.93959       -12.01567        -4.66596
|106>    H        6.54507       -10.93716        -4.59731
|107>    H        6.76223       -13.70811        -3.24670
|108>    H        5.79663       -13.33179        -4.69349
|109>    H        5.34378       -12.64876        -3.11823
|110>    H        5.33530        -3.05192         2.99609
|111>    H        6.63984        -4.25832         3.05140
|112>    H        5.46732        -5.65380         1.37973
|113>    H        3.50406        -6.32773         2.82020
|114>    H        3.80556        -4.92808         3.84003
|115>    H        5.86019        -7.18736         3.31165
|116>    H        4.80585        -7.08535         4.74324
|117>    H        6.06905        -5.87056         4.47542
|118>    H        4.26346        -3.71522         0.26786
|119>    H        3.13313        -3.67813         1.60352
|120>    H        3.60392        -6.08469        -0.28037
|121>    H        2.26232        -4.91667        -0.39161
|122>    H        2.35924        -6.02200         0.99005
|123>    H        4.00485         6.24578         3.10176
|124>    H        3.08294         2.58717         5.75536
|125>    H       14.29077       -16.03839         4.14887
|126>    H       15.60839       -18.40856         0.41642
|127> *
|128>
|129>                          ****END OF INPUT****

CARTESIAN COORDINATES (ANGSTROEM)
---------------------------------
  C      4.047730    3.621650    1.381630
  O      4.288090    4.301830    0.407610
  C      3.812230    4.061020    2.780380
  C      3.524300    2.914130    3.594370
  C      3.482880    1.715330    2.742050
  C      2.878500    0.521680    3.110750
  C      2.474390    0.296570    4.461650
  N      2.181870    0.125190    5.573950
  C      2.520520   -0.482280    2.167100
  N      2.207500   -1.293180    1.395050
  C      3.987540    2.110220    1.435120
  C      4.541720    1.422940    0.373680
  C     13.169070  -14.688220    1.560740
  O     12.684980  -13.838570    2.286910
  C     13.986820  -15.855540    1.962800
  C     14.382150  -16.581900    0.791280
  C     13.815300  -15.929840   -0.399550
  C     14.037790  -16.368800   -1.696130
  C     14.878430  -17.496030   -1.947570
  N     15.571820  -18.411500   -2.129650
  C     13.481420  -15.749870   -2.855650
  N     13.022710  -15.251750   -3.801360
  C     13.047870  -14.774350    0.076140
  C     12.306460  -13.917660   -0.712970
  C      5.057190    0.107130    0.262030
  C      5.346630   -0.832950    1.260280
  C      6.011150   -1.949810    0.749550
  C      6.231870   -1.908240   -0.656620
  S      5.624720   -0.441680   -1.337830
  N      6.502730   -3.137720    1.277060
  C      7.047610   -3.829250    0.206330
  C      6.854630   -3.129020   -0.996110
  C      7.696210   -5.094240    0.053180
  C      7.781070   -5.449630   -1.335980
  S      7.329890   -4.069120   -2.391940
  C      8.287950   -5.915910    1.028500
  C      8.819500   -7.132150    0.617890
  C      8.751690   -7.595570   -0.738190
  C      8.236310   -6.717350   -1.734500
  S      9.637010   -8.218870    1.735420
  C      9.904090   -9.331830    0.421250
  C      9.355680   -8.906500   -0.816770
  C     10.533220  -10.572050    0.216260
  C     10.340460  -10.879580   -1.153090
  N      9.612140   -9.877890   -1.779990
  S     11.434860  -11.797990    1.048320
  C     11.581860  -12.725100   -0.469350
  C     10.927600  -12.082810   -1.540980
  O      8.369730   -5.555120    2.342300
  O      8.248590   -7.170440   -3.014440
  C      9.252430   -4.458700    2.659480
  C     10.710110   -4.879000    2.691930
  C      7.294890   -6.685160   -3.969640
  C      7.020000   -7.750160   -5.012320
  C      8.870070  -10.189070   -3.001180
  C      7.646530  -11.082570   -2.725670
  C      6.557120  -10.330800   -1.916940
  C      6.483760  -10.710940   -0.437800
  C      7.098500  -11.701900   -4.023730
  C      6.199860  -12.910250   -3.759810
  C      5.863570   -3.821840    2.415160
  C      4.881760   -4.918130    1.959850
  C      4.303490   -5.658140    3.175310
  C      5.314060   -6.490220    3.968370
  C      3.794730   -4.351510    1.034290
  C      2.961790   -5.403820    0.305540
  C      3.822010    5.239400    3.474310
  S      3.492130    4.947070    5.153770
  C      3.321630    3.236100    4.915890
  C     14.446970  -16.393470    3.131470
  S     15.385390  -17.816690    2.801160
  C     15.161440  -17.678180    1.086240
  H      4.709260    2.072960   -0.495730
  H     12.255720  -14.181620   -1.769770
  H      5.122270   -0.667830    2.311370
  H     10.935760  -12.501370   -2.547040
  H      8.921010   -4.106080    3.647880
  H      9.089870   -3.637900    1.942360
  H     10.869980   -5.694100    3.413090
  H     11.337070   -4.024040    2.991400
  H     11.051100   -5.223950    1.703980
  H      7.699270   -5.776930   -4.447250
  H      6.363550   -6.412890   -3.450030
  H      7.946790   -8.088070   -5.500530
  H      6.359630   -7.332860   -5.788270
  H      6.518140   -8.621650   -4.568760
  H      9.569730  -10.704570   -3.677330
  H      8.583070   -9.247940   -3.471950
  H      8.010490  -11.924370   -2.109990
  H      5.571830  -10.513190   -2.377480
  H      6.723750   -9.244830   -2.007250
  H      6.206140  -11.770800   -0.316870
  H      5.733780  -10.105950    0.094280
  H      7.446760  -10.560380    0.072070
  H      7.939590  -12.015670   -4.665960
  H      6.545070  -10.937160   -4.597310
  H      6.762230  -13.708110   -3.246700
  H      5.796630  -13.331790   -4.693490
  H      5.343780  -12.648760   -3.118230
  H      5.335300   -3.051920    2.996090
  H      6.639840   -4.258320    3.051400
  H      5.467320   -5.653800    1.379730
  H      3.504060   -6.327730    2.820200
  H      3.805560   -4.928080    3.840030
  H      5.860190   -7.187360    3.311650
  H      4.805850   -7.085350    4.743240
  H      6.069050   -5.870560    4.475420
  H      4.263460   -3.715220    0.267860
  H      3.133130   -3.678130    1.603520
  H      3.603920   -6.084690   -0.280370
  H      2.262320   -4.916670   -0.391610
  H      2.359240   -6.022000    0.990050
  H      4.004850    6.245780    3.101760
  H      3.082940    2.587170    5.755360
  H     14.290770  -16.038390    4.148870
  H     15.608390  -18.408560    0.416420

 Total Charge           Charge          ....    0
 Multiplicity           Mult            ....    1
 Number of Electrons    NEL             ....  550
 Basis Dimension        Dim             .... 1252

ORBITAL ENERGIES
----------------

  NO   OCC          E(Eh)            E(eV)
   0   2.0000     -88.982360     -2421.3331
   1   2.0000     -88.977335     -2421.1964
   2   2.0000     -88.971750     -2421.0444
   3   2.0000     -88.967803     -2420.9370
   4   2.0000     -88.961002     -2420.7519
   5   2.0000     -88.959710     -2420.7168
   6   2.0000     -19.265007      -524.2275
   7   2.0000     -19.251081      -523.8485
   8   2.0000     -19.212959      -522.8112
   9   2.0000     -19.211075      -522.7599
  10   2.0000     -14.473973      -393.8568
  11   2.0000     -14.470501      -393.7624
  12   2.0000     -14.420318      -392.3968
  13   2.0000     -14.419975      -392.3875
  14   2.0000     -14.415720      -392.2717
  15   2.0000     -14.411369      -392.1533
  16   2.0000     -10.370159      -282.1864
  17   2.0000     -10.365891      -282.0702
  18   2.0000     -10.363532      -282.0060
  19   2.0000     -10.348393      -281.5941
  20   2.0000     -10.346598      -281.5453
  21   2.0000     -10.345638      -281.5191
  22   2.0000     -10.342635      -281.4374
  23   2.0000     -10.341684      -281.4115
  24   2.0000     -10.337570      -281.2996
  25   2.0000     -10.334207      -281.2081
  26   2.0000     -10.331450      -281.1331
  27   2.0000     -10.329260      -281.0734
  28   2.0000     -10.325189      -280.9627
  29   2.0000     -10.324635      -280.9476
  30   2.0000     -10.324600      -280.9466
  31   2.0000     -10.324195      -280.9356
  32   2.0000     -10.324028      -280.9311
  33   2.0000     -10.323437      -280.9150
  34   2.0000     -10.322962      -280.9021
  35   2.0000     -10.322867      -280.8995
  36   2.0000     -10.321005      -280.8488
  37   2.0000     -10.320550      -280.8364
  38   2.0000     -10.318759      -280.7877
  39   2.0000     -10.318635      -280.7843
  40   2.0000     -10.318420      -280.7785
  41   2.0000     -10.316849      -280.7357
  42   2.0000     -10.316721      -280.7323
  43   2.0000     -10.315936      -280.7109
  44   2.0000     -10.314600      -280.6745
  45   2.0000     -10.314440      -280.6702
  46   2.0000     -10.312970      -280.6302
  47   2.0000     -10.310284      -280.5571
  48   2.0000     -10.309994      -280.5492
  49   2.0000     -10.308762      -280.5157
  50   2.0000     -10.308671      -280.5132
  51   2.0000     -10.306280      -280.4481
  52   2.0000     -10.305975      -280.4398
  53   2.0000     -10.304962      -280.4123
  54   2.0000     -10.303097      -280.3615
  55   2.0000     -10.299788      -280.2715
  56   2.0000     -10.299424      -280.2616
  57   2.0000     -10.293480      -280.0998
  58   2.0000     -10.292953      -280.0855
  59   2.0000     -10.286603      -279.9127
  60   2.0000     -10.282524      -279.8017
  61   2.0000     -10.274824      -279.5922
  62   2.0000     -10.270741      -279.4811
  63   2.0000     -10.270335      -279.4700
  64   2.0000     -10.268317      -279.4151
  65   2.0000     -10.266194      -279.3573
  66   2.0000     -10.261952      -279.2419
  67   2.0000     -10.260583      -279.2047
  68   2.0000     -10.255763      -279.0735
  69   2.0000     -10.253545      -279.0131
  70   2.0000     -10.251124      -278.9473
  71   2.0000     -10.250480      -278.9298
  72   2.0000      -8.077589      -219.8024
  73   2.0000      -8.072627      -219.6674
  74   2.0000      -8.065903      -219.4844
  75   2.0000      -8.061183      -219.3559
  76   2.0000      -8.053623      -219.1502
  77   2.0000      -8.053572      -219.1488
  78   2.0000      -6.046901      -164.5445
  79   2.0000      -6.042216      -164.4171
  80   2.0000      -6.041924      -164.4091
  81   2.0000      -6.040261      -164.3639
  82   2.0000      -6.037251      -164.2820
  83   2.0000      -6.035606      -164.2372
  84   2.0000      -6.035305      -164.2290
  85   2.0000      -6.031530      -164.1263
  86   2.0000      -6.031520      -164.1260
  87   2.0000      -6.027378      -164.0133
  88   2.0000      -6.027356      -164.0127
  89   2.0000      -6.023590      -163.9102
  90   2.0000      -6.023499      -163.9077
  91   2.0000      -6.021473      -163.8526
  92   2.0000      -6.019602      -163.8017
  93   2.0000      -6.019102      -163.7881
  94   2.0000      -6.014944      -163.6749
  95   2.0000      -6.014342      -163.6586
  96   2.0000      -1.165846       -31.7243
  97   2.0000      -1.152348       -31.3570
  98   2.0000      -1.126234       -30.6464
  99   2.0000      -1.122955       -30.5572
 100   2.0000      -1.096480       -29.8368
 101   2.0000      -1.089468       -29.6459
 102   2.0000      -1.015894       -27.6439
 103   2.0000      -1.009918       -27.4813
 104   2.0000      -1.000178       -27.2162
 105   2.0000      -0.995153       -27.0795
 106   2.0000      -0.993809       -27.0429
 107   2.0000      -0.990162       -26.9437
 108   2.0000      -0.983785       -26.7701
 109   2.0000      -0.983608       -26.7653
 110   2.0000      -0.974810       -26.5259
 111   2.0000      -0.970474       -26.4079
 112   2.0000      -0.954399       -25.9705
 113   2.0000      -0.948643       -25.8139
 114   2.0000      -0.925473       -25.1834
 115   2.0000      -0.912333       -24.8258
 116   2.0000      -0.901895       -24.5418
 117   2.0000      -0.896505       -24.3951
 118   2.0000      -0.891113       -24.2484
 119   2.0000      -0.889103       -24.1937
 120   2.0000      -0.883066       -24.0294
 121   2.0000      -0.877048       -23.8657
 122   2.0000      -0.862613       -23.4729
 123   2.0000      -0.855763       -23.2865
 124   2.0000      -0.851637       -23.1742
 125   2.0000      -0.845164       -22.9981
 126   2.0000      -0.839575       -22.8460
 127   2.0000      -0.836562       -22.7640
 128   2.0000      -0.835602       -22.7379
 129   2.0000      -0.832372       -22.6500
 130   2.0000      -0.830113       -22.5885
 131   2.0000      -0.826072       -22.4786
 132   2.0000      -0.820857       -22.3367
 133   2.0000      -0.804028       -21.8787
 134   2.0000      -0.800261       -21.7762
 135   2.0000      -0.790347       -21.5064
 136   2.0000      -0.776665       -21.1341
 137   2.0000      -0.774221       -21.0676
 138   2.0000      -0.757074       -20.6010
 139   2.0000      -0.745140       -20.2763
 140   2.0000      -0.742805       -20.2127
 141   2.0000      -0.739042       -20.1103
 142   2.0000      -0.733299       -19.9541
 143   2.0000      -0.727903       -19.8072
 144   2.0000      -0.719179       -19.5698
 145   2.0000      -0.710940       -19.3457
 146   2.0000      -0.694511       -18.8986
 147   2.0000      -0.692393       -18.8410
 148   2.0000      -0.686774       -18.6881
 149   2.0000      -0.683540       -18.6001
 150   2.0000      -0.682417       -18.5695
 151   2.0000      -0.677084       -18.4244
 152   2.0000      -0.670750       -18.2520
 153   2.0000      -0.664707       -18.0876
 154   2.0000      -0.662903       -18.0385
 155   2.0000      -0.656353       -17.8603
 156   2.0000      -0.655616       -17.8402
 157   2.0000      -0.653383       -17.7794
 158   2.0000      -0.641348       -17.4520
 159   2.0000      -0.638650       -17.3785
 160   2.0000      -0.634877       -17.2759
 161   2.0000      -0.630359       -17.1529
 162   2.0000      -0.629419       -17.1274
 163   2.0000      -0.615037       -16.7360
 164   2.0000      -0.613192       -16.6858
 165   2.0000      -0.611142       -16.6300
 166   2.0000      -0.599319       -16.3083
 167   2.0000      -0.596945       -16.2437
 168   2.0000      -0.591986       -16.1088
 169   2.0000      -0.590132       -16.0583
 170   2.0000      -0.585640       -15.9361
 171   2.0000      -0.584408       -15.9026
 172   2.0000      -0.576784       -15.6951
 173   2.0000      -0.573236       -15.5985
 174   2.0000      -0.564186       -15.3523
 175   2.0000      -0.562050       -15.2942
 176   2.0000      -0.559950       -15.2370
 177   2.0000      -0.551492       -15.0069
 178   2.0000      -0.547107       -14.8875
 179   2.0000      -0.544350       -14.8125
 180   2.0000      -0.540036       -14.6951
 181   2.0000      -0.536576       -14.6010
 182   2.0000      -0.534279       -14.5385
 183   2.0000      -0.530346       -14.4315
 184   2.0000      -0.528923       -14.3927
 185   2.0000      -0.524984       -14.2855
 186   2.0000      -0.522071       -14.2063
 187   2.0000      -0.520312       -14.1584
 188   2.0000      -0.519950       -14.1486
 189   2.0000      -0.517976       -14.0948
 190   2.0000      -0.515746       -14.0342
 191   2.0000      -0.511576       -13.9207
 192   2.0000      -0.508201       -13.8289
 193   2.0000      -0.506066       -13.7707
 194   2.0000      -0.503666       -13.7054
 195   2.0000      -0.500573       -13.6213
 196   2.0000      -0.500063       -13.6074
 197   2.0000      -0.498408       -13.5624
 198   2.0000      -0.496396       -13.5076
 199   2.0000      -0.493689       -13.4340
 200   2.0000      -0.492036       -13.3890
 201   2.0000      -0.490491       -13.3469
 202   2.0000      -0.488904       -13.3037
 203   2.0000      -0.487809       -13.2740
 204   2.0000      -0.484926       -13.1955
 205   2.0000      -0.484577       -13.1860
 206   2.0000      -0.483201       -13.1486
 207   2.0000      -0.482288       -13.1237
 208   2.0000      -0.479993       -13.0613
 209   2.0000      -0.476738       -12.9727
 210   2.0000      -0.475175       -12.9302
 211   2.0000      -0.471088       -12.8190
 212   2.0000      -0.470804       -12.8112
 213   2.0000      -0.469566       -12.7775
 214   2.0000      -0.469106       -12.7650
 215   2.0000      -0.467201       -12.7132
 216   2.0000      -0.463590       -12.6149
 217   2.0000      -0.461648       -12.5621
 218   2.0000      -0.458497       -12.4763
 219   2.0000      -0.457449       -12.4478
 220   2.0000      -0.454318       -12.3626
 221   2.0000      -0.452322       -12.3083
 222   2.0000      -0.448356       -12.2004
 223   2.0000      -0.447850       -12.1866
 224   2.0000      -0.446508       -12.1501
 225   2.0000      -0.446335       -12.1454
 226   2.0000      -0.442678       -12.0459
 227   2.0000      -0.441818       -12.0225
 228   2.0000      -0.440247       -11.9797
 229   2.0000      -0.439067       -11.9476
 230   2.0000      -0.436443       -11.8762
 231   2.0000      -0.434494       -11.8232
 232   2.0000      -0.433092       -11.7850
 233   2.0000      -0.432861       -11.7787
 234   2.0000      -0.429719       -11.6933
 235   2.0000      -0.426163       -11.5965
 236   2.0000      -0.425510       -11.5787
 237   2.0000      -0.424775       -11.5587
 238   2.0000      -0.423099       -11.5131
 239   2.0000      -0.421951       -11.4819
 240   2.0000      -0.420392       -11.4395
 241   2.0000      -0.419691       -11.4204
 242   2.0000      -0.417560       -11.3624
 243   2.0000      -0.416183       -11.3249
 244   2.0000      -0.412704       -11.2302
 245   2.0000      -0.410107       -11.1596
 246   2.0000      -0.409835       -11.1522
 247   2.0000      -0.407933       -11.1004
 248   2.0000      -0.406299       -11.0559
 249   2.0000      -0.403804       -10.9881
 250   2.0000      -0.400518       -10.8987
 251   2.0000      -0.394023       -10.7219
 252   2.0000      -0.393308       -10.7024
 253   2.0000      -0.389114       -10.5883
 254   2.0000      -0.385736       -10.4964
 255   2.0000      -0.384311       -10.4576
 256   2.0000      -0.380925       -10.3655
 257   2.0000      -0.378226       -10.2921
 258   2.0000      -0.371486       -10.1087
 259   2.0000      -0.367432        -9.9983
 260   2.0000      -0.353446        -9.6178
 261   2.0000      -0.346684        -9.4337
 262   2.0000      -0.337017        -9.1707
 263   2.0000      -0.335053        -9.1173
 264   2.0000      -0.332583        -9.0500
 265   2.0000      -0.330720        -8.9993
 266   2.0000      -0.328421        -8.9368
 267   2.0000      -0.326108        -8.8739
 268   2.0000      -0.311217        -8.4687
 269   2.0000      -0.306935        -8.3521
 270   2.0000      -0.302156        -8.2221
 271   2.0000      -0.286625        -7.7995
 272   2.0000      -0.270805        -7.3690
 273   2.0000      -0.266875        -7.2620
 274   2.0000      -0.237778        -6.4703
 275   0.0000      -0.097582        -2.6553
 276   0.0000      -0.084470        -2.2985
 277   0.0000      -0.047546        -1.2938
 278   0.0000      -0.041057        -1.1172
 279   0.0000      -0.023962        -0.6520

MULLIKEN ATOMIC CHARGES
-----------------------
   0 C :    0.154424
   1 O :   -0.149529
   2 C :    0.034142
   3 C :    0.013996
   4 C :    0.245418
   5 C :   -0.325784
   6 C :   -0.161871
   7 N :    0.120603
   8 C :   -0.172289
   9 N :    0.142734
  10 C :   -0.166815
  11 C :    0.088854
  12 C :    0.167321
  13 O :   -0.163712
  14 C :    0.016315
  15 C :    0.022264
  16 C :    0.281939
  17 C :   -0.321641
  18 C :   -0.165978
  19 N :    0.115489
  20 C :   -0.162147
  21 N :    0.107773
  22 C :   -0.098850
  23 C :   -0.037969
  24 C :   -0.126090
  25 C :    0.005128
  26 C :    0.094555
  27 C :   -0.089316
  28 S :    0.159374
  29 N :   -0.187950
  30 C :    0.012994
  31 C :   -0.079677
  32 C :    0.076263
  33 C :   -0.178314
  34 S :    0.123493
  35 C :    0.056749
  36 C :   -0.115788
  37 C :    0.073935
  38 C :    0.107866
  39 S :    0.167095
  40 C :   -0.126185
  41 C :    0.055259
  42 C :   -0.090261
  43 C :    0.180948
  44 N :   -0.178945
  45 S :    0.207334
  46 C :   -0.060392
  47 C :   -0.105767
  48 O :   -0.350243
  49 O :   -0.336231
  50 C :    0.155385
  51 C :   -0.018054
  52 C :    0.125501
  53 C :   -0.008166
  54 C :    0.192874
  55 C :   -0.124898
  56 C :    0.006873
  57 C :   -0.002772
  58 C :    0.001519
  59 C :    0.006263
  60 C :    0.197619
  61 C :   -0.137064
  62 C :    0.004556
  63 C :    0.007091
  64 C :    0.005507
  65 C :    0.003932
  66 C :   -0.139173
  67 S :    0.148459
  68 C :   -0.138776
  69 C :   -0.140693
  70 S :    0.147803
  71 C :   -0.138537
  72 H :    0.030733
  73 H :    0.011363
  74 H :    0.011876
  75 H :    0.014532
  76 H :    0.030404
  77 H :    0.029763
  78 H :    0.037023
  79 H :    0.025340
  80 H :    0.034952
  81 H :    0.039140
  82 H :    0.038885
  83 H :    0.043661
  84 H :    0.032590
  85 H :    0.034781
  86 H :    0.008963
  87 H :    0.013862
  88 H :    0.007249
  89 H :    0.001795
  90 H :    0.001806
  91 H :    0.015832
  92 H :    0.014972
  93 H :    0.032554
  94 H :    0.000785
  95 H :    0.003214
  96 H :    0.017131
  97 H :    0.019512
  98 H :    0.014178
  99 H :    0.010049
 100 H :    0.027264
 101 H :    0.010726
 102 H :    0.004744
 103 H :    0.001567
 104 H :    0.018401
 105 H :    0.014591
 106 H :    0.015381
 107 H :    0.017347
 108 H :    0.013605
 109 H :    0.002080
 110 H :    0.022459
 111 H :    0.015813
 112 H :    0.051629
 113 H :    0.060935
 114 H :    0.048625
 115 H :    0.062119
Sum of atomic charges:    0.0000000

LOEWDIN ATOMIC CHARGES
----------------------
   0 C :    0.087706
   1 O :   -0.147382
   2 C :   -0.092859
   3 C :   -0.062191
   4 C :    0.072448
   5 C :   -0.158274
   6 C :   -0.015079
   7 N :   -0.066552
   8 C :   -0.016311
   9 N :   -0.050278
  10 C :   -0.108076
  11 C :    0.048732
  12 C :    0.084014
  13 O :   -0.162413
  14 C :   -0.091842
  15 C :   -0.064058
  16 C :    0.083186
  17 C :   -0.155394
  18 C :   -0.010605
  19 N :   -0.069846
  20 C :   -0.014042
  21 N :   -0.072295
  22 C :   -0.117356
  23 C :    0.052580
  24 C :   -0.174656
  25 C :   -0.018872
  26 C :   -0.018123
  27 C :   -0.197266
  28 S :    0.426884
  29 N :    0.024898
  30 C :   -0.003101
  31 C :   -0.213075
  32 C :   -0.067516
  33 C :   -0.171668
  34 S :    0.381165
  35 C :    0.006723
  36 C :   -0.152363
  37 C :   -0.069852
  38 C :    0.034041
  39 S :    0.405586
  40 C :   -0.221926
  41 C :    0.012253
  42 C :   -0.198779
  43 C :   -0.024186
  44 N :    0.030923
  45 S :    0.458087
  46 C :   -0.175267
  47 C :   -0.025040
  48 O :   -0.130757
  49 O :   -0.108971
  50 C :    0.086489
  51 C :   -0.075402
  52 C :    0.077507
  53 C :   -0.068642
  54 C :    0.048514
  55 C :   -0.040104
  56 C :   -0.039329
  57 C :   -0.061090
  58 C :   -0.034987
  59 C :   -0.059235
  60 C :    0.055471
  61 C :   -0.041880
  62 C :   -0.033941
  63 C :   -0.061490
  64 C :   -0.039756
  65 C :   -0.058923
  66 C :   -0.144857
  67 S :    0.473455
  68 C :   -0.158562
  69 C :   -0.146976
  70 S :    0.472433
  71 C :   -0.154234
  72 H :    0.048903
  73 H :    0.051112
  74 H :    0.039977
  75 H :    0.043237
  76 H :    0.023332
  77 H :    0.017181
  78 H :    0.030735
  79 H :    0.035938
  80 H :    0.031271
  81 H :    0.014215
  82 H :    0.017626
  83 H :    0.034031
  84 H :    0.040704
  85 H :    0.028816
  86 H :    0.024981
  87 H :    0.025061
  88 H :    0.021975
  89 H :    0.021100
  90 H :    0.019274
  91 H :    0.023594
  92 H :    0.026512
  93 H :    0.026809
  94 H :    0.021503
  95 H :    0.018872
  96 H :    0.025801
  97 H :    0.027808
  98 H :    0.023365
  99 H :    0.027553
 100 H :    0.024887
 101 H :    0.022489
 102 H :    0.025539
 103 H :    0.021608
 104 H :    0.026042
 105 H :    0.027154
 106 H :    0.019737
 107 H :    0.026296
 108 H :    0.023709
 109 H :    0.019112
 110 H :    0.030761
 111 H :    0.020239
 112 H :    0.041877
 113 H :    0.040301
 114 H :    0.041131
 115 H :    0.040417

  Mayer bond orders larger than 0.100000
B(  0-C ,  1-O ) :   2.2389 B(  0-C ,  2-C ) :   0.9277 B(  0-C , 10-C ) :   0.9452
B(  2-C ,  3-C ) :   1.2265 B(  2-C , 66-C ) :   1.5515 B(  3-C ,  4-C ) :   1.0176
B(  3-C , 68-C ) :   1.5414 B(  4-C ,  5-C ) :   1.6145 B(  4-C , 10-C ) :   1.0678
B(  5-C ,  6-C ) :   1.1139 B(  5-C ,  8-C ) :   1.1619 B(  6-C ,  7-N ) :   2.9895
B(  8-C ,  9-N ) :   2.9436 B( 10-C , 11-C ) :   1.6260 B( 11-C , 24-C ) :   1.2035
B( 11-C , 72-H ) :   0.9172 B( 12-C , 13-O ) :   2.1960 B( 12-C , 14-C ) :   0.9507
B( 12-C , 22-C ) :   0.9592 B( 14-C , 15-C ) :   1.2313 B( 14-C , 69-C ) :   1.5451
B( 15-C , 16-C ) :   0.9980 B( 15-C , 71-C ) :   1.5339 B( 16-C , 17-C ) :   1.6144
B( 16-C , 22-C ) :   1.1066 B( 17-C , 18-C ) :   1.1332 B( 17-C , 20-C ) :   1.1299
B( 18-C , 19-N ) :   2.9772 B( 20-C , 21-N ) :   2.9530 B( 22-C , 23-C ) :   1.4902
B( 23-C , 46-C ) :   1.2927 B( 23-C , 73-H ) :   0.9317 B( 24-C , 25-C ) :   1.3803
B( 24-C , 28-S ) :   1.0709 B( 25-C , 26-C ) :   1.3286 B( 25-C , 74-H ) :   0.9844
B( 26-C , 27-C ) :   1.3559 B( 26-C , 29-N ) :   1.1210 B( 27-C , 28-S ) :   1.0597
B( 27-C , 31-C ) :   1.3692 B( 29-N , 30-C ) :   1.1813 B( 29-N , 60-C ) :   0.9396
B( 30-C , 31-C ) :   1.4711 B( 30-C , 32-C ) :   1.1229 B( 31-C , 34-S ) :   0.9820
B( 32-C , 33-C ) :   1.2900 B( 32-C , 35-C ) :   1.2871 B( 32-C , 37-C ) :   0.1248
B( 33-C , 34-S ) :   1.0037 B( 33-C , 38-C ) :   1.3851 B( 35-C , 36-C ) :   1.4015
B( 35-C , 48-O ) :   1.1871 B( 36-C , 37-C ) :   1.3432 B( 36-C , 39-S ) :   1.0404
B( 37-C , 38-C ) :   1.2958 B( 37-C , 41-C ) :   1.1066 B( 38-C , 49-O ) :   1.1672
B( 39-S , 40-C ) :   0.9752 B( 40-C , 41-C ) :   1.4493 B( 40-C , 42-C ) :   1.4019
B( 41-C , 44-N ) :   1.1870 B( 42-C , 43-C ) :   1.3434 B( 42-C , 45-S ) :   1.0239
B( 43-C , 44-N ) :   1.1185 B( 43-C , 47-C ) :   1.2515 B( 44-N , 54-C ) :   0.9586
B( 45-S , 46-C ) :   1.0605 B( 46-C , 47-C ) :   1.3344 B( 47-C , 75-H ) :   1.0215
B( 48-O , 50-C ) :   0.9015 B( 49-O , 52-C ) :   0.9168 B( 50-C , 51-C ) :   1.1136
B( 50-C , 76-H ) :   0.9541 B( 50-C , 77-H ) :   0.9492 B( 51-C , 78-H ) :   0.9659
B( 51-C , 79-H ) :   0.9572 B( 51-C , 80-H ) :   0.9662 B( 52-C , 53-C ) :   1.1158
B( 52-C , 81-H ) :   0.9500 B( 52-C , 82-H ) :   0.9484 B( 53-C , 83-H ) :   0.9574
B( 53-C , 84-H ) :   0.9539 B( 53-C , 85-H ) :   0.9622 B( 54-C , 55-C ) :   1.0477
B( 54-C , 86-H ) :   0.9336 B( 54-C , 87-H ) :   0.9245 B( 55-C , 56-C ) :   1.0017
B( 55-C , 58-C ) :   1.0577 B( 55-C , 88-H ) :   0.9272 B( 56-C , 57-C ) :   1.0995
B( 56-C , 89-H ) :   0.9448 B( 56-C , 90-H ) :   0.9412 B( 57-C , 91-H ) :   0.9681
B( 57-C , 92-H ) :   0.9648 B( 57-C , 93-H ) :   0.9698 B( 58-C , 59-C ) :   1.0998
B( 58-C , 94-H ) :   0.9413 B( 58-C , 95-H ) :   0.9430 B( 59-C , 96-H ) :   0.9689
B( 59-C , 97-H ) :   0.9667 B( 59-C , 98-H ) :   0.9704 B( 60-C , 61-C ) :   1.0431
B( 60-C , 99-H ) :   0.9345 B( 60-C ,100-H ) :   0.9360 B( 61-C , 62-C ) :   1.0489
B( 61-C , 64-C ) :   1.0447 B( 61-C ,101-H ) :   0.9123 B( 62-C , 63-C ) :   1.1000
B( 62-C ,102-H ) :   0.9437 B( 62-C ,103-H ) :   0.9424 B( 63-C ,104-H ) :   0.9684
B( 63-C ,105-H ) :   0.9642 B( 63-C ,106-H ) :   0.9668 B( 64-C , 65-C ) :   1.1035
B( 64-C ,107-H ) :   0.9398 B( 64-C ,108-H ) :   0.9363 B( 65-C ,109-H ) :   0.9684
B( 65-C ,110-H ) :   0.9655 B( 65-C ,111-H ) :   0.9677 B( 66-C , 67-S ) :   1.1834
B( 66-C ,112-H ) :   0.9684 B( 67-S , 68-C ) :   1.1734 B( 68-C ,113-H ) :   0.9540
B( 69-C , 70-S ) :   1.1799 B( 69-C ,114-H ) :   0.9677 B( 70-S , 71-C ) :   1.1776
B( 71-C ,115-H ) :   0.9514

-----------------------------------------------------------------------------
         ABSORPTION SPECTRUM VIA TRANSITION ELECTRIC DIPOLE MOMENTS
-----------------------------------------------------------------------------
State   Energy  Wavelength   fosc         T2         TX        TY        TZ
        (cm-1)    (nm)                  (au**2)     (au)      (au)      (au)
-----------------------------------------------------------------------------
   0   16353.9    611.5   2.061160282  41.49203   3.39015  -5.43086  -0.71037
   1   19788.4    505.3   0.325662518   5.41793   0.96307  -1.88629   0.96558
   2   22237.1    449.7   0.533432016   7.89724  -1.30429   1.77525   1.74486
   3   23877.4    418.8   0.104542929   1.44140  -0.25443   1.15098  -0.22782
   4   25337.6    394.7   0.001878786   0.02441  -0.03464  -0.01161   0.15191
   5   27064.3    369.5   0.091509144   1.11313  -0.21523   0.91898  -0.47146
   6   28137.8    355.4   0.032017312   0.37460   0.27686   0.03816  -0.54452
   7   28254.4    353.9   0.081437094   0.94888   0.48716  -0.69627   0.47620
   8   28829.1    346.9   0.055889770   0.63823   0.27539   0.73633  -0.14213
   9   29505.9    338.9   0.093740118   1.04590  -0.18386   1.00418  -0.06106
  10   29610.0    337.7   0.113448760   1.26135   0.15302  -1.10188  -0.15426
  11   30220.5    330.9   0.009450886   0.10295   0.07968   0.02979  -0.30938
  12   31057.2    322.0   0.210507168   2.23141   0.11846  -1.48906  -0.00925
  13   31522.0    317.2   0.235050009   2.45484  -0.62827   0.42002  -1.37248
  14   32036.2    312.1   0.042496761   0.43671   0.38923  -0.07908   0.52816
  15   32879.9    304.1   0.016656953   0.16678   0.15765  -0.20554   0.31572
  16   33717.9    296.6   0.041904798   0.40915   0.15556   0.61249   0.09903
  17   34210.7    292.3   0.006859678   0.06601   0.00954   0.24742   0.06858
  18   34419.0    290.5   0.011880100   0.11363   0.14331  -0.28420   0.11103
  19   34635.7    288.7   0.114947169   1.09257  -0.11028   0.80033   0.66324
  20   34850.3    286.9   0.053902678   0.50919   0.18690   0.68799  -0.03049
  21   34949.5    286.1   0.025636448   0.24149  -0.04868   0.05460  -0.48594
  22   35267.2    283.5   0.197528533   1.84389   0.43480  -1.26716   0.22170
  23   36080.4    277.2   0.060992524   0.55652  -0.15871   0.70250  -0.19450
  24   36326.2    275.3   0.026835962   0.24321   0.12222  -0.22918  -0.41922
  25   37342.8    267.8   0.058040743   0.51168   0.16750   0.13450   0.68230
  26   37501.3    266.7   0.054190240   0.47572   0.05183   0.67632   0.12500
  27   38025.3    263.0   0.076791387   0.66484   0.12394  -0.75295   0.28731
  28   38253.4    261.4   0.044706276   0.38475  -0.02019  -0.06731  -0.61628
  29   38682.4    258.5   0.033155253   0.28217  -0.09041   0.44366   0.27779
  30   38829.7    257.5   0.147976535   1.25460  -0.22628   1.09005  -0.12325
  31   39289.0    254.5   0.276052528   2.31311  -0.43958  -1.30220  -0.65127
  32   39358.7    254.1   0.584897169   4.89231   0.13658  -0.35080  -2.17959
  33   39641.8    252.3   0.068827239   0.57159  -0.12851  -0.60157   0.43953

FINAL SINGLE POINT ENERGY     -5174.652680703601

DIPOLE MOMENT
-------------
                                X             Y             Z
Electronic contribution:     49.31318      26.26747      24.48535
Nuclear contribution   :    -49.61477     -24.54806     -23.91198
                        -----------------------------------------
Total Dipole Moment    :     -0.30158       1.71942       0.57337
                        -----------------------------------------
Magnitude (a.u.)       :      1.83742
Magnitude (Debye)      :      4.67034

Rotational constants in cm-1:     0.002157     0.000270     0.000255
Rotational constants in MHz :    64.678422     8.080913     7.654116

                             ****ORCA TERMINATED NORMALLY****
TOTAL RUN TIME: 0 days 1 hours 8 minutes 11 seconds 748 msec
