                         Program Version 4.2.0 -  RELEASE  -
|  1> # ORCA input file
|  2> # BT6IC-HD-4Cl.out
|  3> ! CAM-B3LYP def2-SVP def2/J RIJCOSX Grid4 TightSCF
|  4> %maxcore 5000
|  5> %tddft
|  6>     Mode sTDDFT
|  7>     Ethresh 5.0
|  8>     maxcore 5000
|  9> end
| 10> * xyz 0 1
| 11>   C      3.285365    6.676259   -0.293504
| 12>   O      4.268030    7.386186   -0.350429
| 13>   C      1.863435    7.101637   -0.333133
| 14>   C      1.355290    8.384980   -0.460317
| 15>   C     -0.033362    8.550204   -0.498900
| 16>   C     -0.878185    7.421933   -0.414751
| 17>   C     -0.353194    6.131020   -0.259301
| 18>   C      1.032646    5.968974   -0.212659
| 19>   C      1.883036    4.769883    0.006563
| 20>   C      1.428663    3.564444    0.516650
| 21>   C      2.312189    2.565571    1.020667
| 22>   N      3.016067    1.749298    1.455566
| 23>   C      0.042238    3.254885    0.671751
| 24>   N     -1.079180    2.971654    0.787614
| 25>   C      3.262967    5.175856   -0.202385
| 26>   C      4.480908    4.543196   -0.324255
| 27>   C      4.918985    3.211757   -0.548730
| 28>   S      6.539384    2.855203    0.087683
| 29>   C      6.436451    1.231081   -0.478895
| 30>   C      5.228827    0.995556   -1.172256
| 31>   C      4.360161    2.110886   -1.227645
| 32>   C      3.105909    2.187201   -2.055933
| 33>   C      2.190119    0.960804   -2.000199
| 34>   S      5.111225   -0.663831   -1.777761
| 35>   C      6.674328   -1.012339   -1.089197
| 36>   C      7.245097    0.076557   -0.422771
| 37>   N      8.508839   -0.252614    0.041268
| 38>   C      9.465360    0.838820    0.221178
| 39>   C     10.325623    1.151258   -1.019972
| 40>   C      8.756007   -1.585642   -0.324143
| 41>   C      7.615409   -2.062756   -1.047895
| 42>   C      7.578569   -3.372490   -1.620882
| 43>   N      6.582530   -3.916326   -2.306991
| 44>   S      7.084999   -5.426015   -2.763841
| 45>   N      8.595908   -5.407276   -2.086086
| 46>   C      8.739176   -4.228657   -1.494595
| 47>   C      9.851877   -3.777085   -0.713556
| 48>   C      9.850228   -2.491652   -0.071243
| 49>   N     10.970197   -2.430466    0.762591
| 50>   C     11.385994   -1.448938    1.760466
| 51>   C     12.459192   -0.426066    1.319985
| 52>   C     11.659780   -3.624372    0.641093
| 53>   C     11.015068   -4.451932   -0.289331
| 54>   S     11.829638   -5.974063   -0.545910
| 55>   C     13.047190   -5.508555    0.649512
| 56>   C     12.792375   -4.240993    1.219260
| 57>   S     13.964760   -3.857535    2.423833
| 58>   C     14.830996   -5.387096    2.129486
| 59>   C     14.224286   -6.146247    1.106518
| 60>   C     14.838315   -7.325743    0.401469
| 61>   C     15.222453   -6.993561   -1.051659
| 62>   C     16.047618   -5.501667    2.851620
| 63>   C     16.817419   -6.587859    3.215806
| 64>   C     18.168023   -6.504897    3.771537
| 65>   C     18.974122   -5.384209    3.890095
| 66>   C     18.615512   -4.081238    3.422183
| 67>   N     18.372036   -3.007931    3.046547
| 68>   C     20.261616   -5.424605    4.509858
| 69>   N     21.303437   -5.437984    5.024624
| 70>   C     18.570934   -7.875608    4.159919
| 71>   C     19.771743   -8.380911    4.662528
| 72>   C     19.886984   -9.757875    4.882969
| 73>   C     18.809201  -10.632154    4.620698
| 74>   C     17.599974  -10.122066    4.133485
| 75>   C     17.504089   -8.757953    3.901770
| 76>   C     16.353303   -8.003840    3.329907
| 77>   O     15.254526   -8.459313    3.077070
| 78>   Cl    18.974406  -12.334681    4.883508
| 79>   Cl    -0.693749   10.143227   -0.650051
| 80>   C     13.082725    0.235707    2.559973
| 81>   C     12.096482    0.980853    3.462153
| 82>   C     13.537227   -0.993772    0.395056
| 83>   C      9.510337    1.181967   -2.321444
| 84>   C     10.364024    1.314292   -3.582820
| 85>   C     11.066843    2.469845   -0.770672
| 86>   Cl    -2.597083    7.613834   -0.493170
| 87>   Cl    21.393539  -10.367655    5.479660
| 88>   H      2.021756    9.245587   -0.528510
| 89>   H     -1.046385    5.297011   -0.176585
| 90>   H      5.299784    5.272583   -0.233515
| 91>   H      3.426057    2.354226   -3.101663
| 92>   H      2.540238    3.083765   -1.781049
| 93>   H      2.658535    0.075045   -2.453648
| 94>   H      1.265086    1.159121   -2.560957
| 95>   H      1.919077    0.703773   -0.966983
| 96>   H     10.100010    0.653004    1.091165
| 97>   H      8.872208    1.724919    0.486000
| 98>   H     11.070093    0.341500   -1.124271
| 99>   H     11.778520   -2.029653    2.611134
|100>   H     10.488463   -0.943221    2.137302
|101>   H     11.955007    0.367757    0.757797
|102>   H     14.129437   -8.170386    0.436343
|103>   H     15.725386   -7.664350    0.940037
|104>   H     14.354714   -6.685212   -1.653511
|105>   H     15.677801   -7.871195   -1.536468
|106>   H     15.954794   -6.171537   -1.081390
|107>   H     16.424110   -4.533170    3.188317
|108>   H     20.628744   -7.752341    4.889563
|109>   H     16.759302  -10.784138    3.921128
|110>   H     13.855961    0.940209    2.211873
|111>   H     13.619155   -0.532978    3.144801
|112>   H     11.512006    1.721866    2.890874
|113>   H     12.626929    1.526175    4.257545
|114>   H     11.380714    0.304194    3.956611
|115>   H     14.175120   -1.726468    0.909261
|116>   H     14.189356   -0.177803    0.049125
|117>   H     13.107161   -1.476896   -0.494723
|118>   H      8.776934    2.006153   -2.268086
|119>   H      8.922016    0.255496   -2.402507
|120>   H     10.907352    2.271020   -3.627640
|121>   H      9.736348    1.249611   -4.484853
|122>   H     11.113190    0.506732   -3.641381
|123>   H     10.353883    3.312109   -0.764326
|124>   H     11.816525    2.669369   -1.549004
|125>   H     11.592865    2.468876    0.197190
|126> *
|127>
|128>                          ****END OF INPUT****

CARTESIAN COORDINATES (ANGSTROEM)
---------------------------------
  C      3.285365    6.676259   -0.293504
  O      4.268030    7.386186   -0.350429
  C      1.863435    7.101637   -0.333133
  C      1.355290    8.384980   -0.460317
  C     -0.033362    8.550204   -0.498900
  C     -0.878185    7.421933   -0.414751
  C     -0.353194    6.131020   -0.259301
  C      1.032646    5.968974   -0.212659
  C      1.883036    4.769883    0.006563
  C      1.428663    3.564444    0.516650
  C      2.312189    2.565571    1.020667
  N      3.016067    1.749298    1.455566
  C      0.042238    3.254885    0.671751
  N     -1.079180    2.971654    0.787614
  C      3.262967    5.175856   -0.202385
  C      4.480908    4.543196   -0.324255
  C      4.918985    3.211757   -0.548730
  S      6.539384    2.855203    0.087683
  C      6.436451    1.231081   -0.478895
  C      5.228827    0.995556   -1.172256
  C      4.360161    2.110886   -1.227645
  C      3.105909    2.187201   -2.055933
  C      2.190119    0.960804   -2.000199
  S      5.111225   -0.663831   -1.777761
  C      6.674328   -1.012339   -1.089197
  C      7.245097    0.076557   -0.422771
  N      8.508839   -0.252614    0.041268
  C      9.465360    0.838820    0.221178
  C     10.325623    1.151258   -1.019972
  C      8.756007   -1.585642   -0.324143
  C      7.615409   -2.062756   -1.047895
  C      7.578569   -3.372490   -1.620882
  N      6.582530   -3.916326   -2.306991
  S      7.084999   -5.426015   -2.763841
  N      8.595908   -5.407276   -2.086086
  C      8.739176   -4.228657   -1.494595
  C      9.851877   -3.777085   -0.713556
  C      9.850228   -2.491652   -0.071243
  N     10.970197   -2.430466    0.762591
  C     11.385994   -1.448938    1.760466
  C     12.459192   -0.426066    1.319985
  C     11.659780   -3.624372    0.641093
  C     11.015068   -4.451932   -0.289331
  S     11.829638   -5.974063   -0.545910
  C     13.047190   -5.508555    0.649512
  C     12.792375   -4.240993    1.219260
  S     13.964760   -3.857535    2.423833
  C     14.830996   -5.387096    2.129486
  C     14.224286   -6.146247    1.106518
  C     14.838315   -7.325743    0.401469
  C     15.222453   -6.993561   -1.051659
  C     16.047618   -5.501667    2.851620
  C     16.817419   -6.587859    3.215806
  C     18.168023   -6.504897    3.771537
  C     18.974122   -5.384209    3.890095
  C     18.615512   -4.081238    3.422183
  N     18.372036   -3.007931    3.046547
  C     20.261616   -5.424605    4.509858
  N     21.303437   -5.437984    5.024624
  C     18.570934   -7.875608    4.159919
  C     19.771743   -8.380911    4.662528
  C     19.886984   -9.757875    4.882969
  C     18.809201  -10.632154    4.620698
  C     17.599974  -10.122066    4.133485
  C     17.504089   -8.757953    3.901770
  C     16.353303   -8.003840    3.329907
  O     15.254526   -8.459313    3.077070
  Cl    18.974406  -12.334681    4.883508
  Cl    -0.693749   10.143227   -0.650051
  C     13.082725    0.235707    2.559973
  C     12.096482    0.980853    3.462153
  C     13.537227   -0.993772    0.395056
  C      9.510337    1.181967   -2.321444
  C     10.364024    1.314292   -3.582820
  C     11.066843    2.469845   -0.770672
  Cl    -2.597083    7.613834   -0.493170
  Cl    21.393539  -10.367655    5.479660
  H      2.021756    9.245587   -0.528510
  H     -1.046385    5.297011   -0.176585
  H      5.299784    5.272583   -0.233515
  H      3.426057    2.354226   -3.101663
  H      2.540238    3.083765   -1.781049
  H      2.658535    0.075045   -2.453648
  H      1.265086    1.159121   -2.560957
  H      1.919077    0.703773   -0.966983
  H     10.100010    0.653004    1.091165
  H      8.872208    1.724919    0.486000
  H     11.070093    0.341500   -1.124271
  H     11.778520   -2.029653    2.611134
  H     10.488463   -0.943221    2.137302
  H     11.955007    0.367757    0.757797
  H     14.129437   -8.170386    0.436343
  H     15.725386   -7.664350    0.940037
  H     14.354714   -6.685212   -1.653511
  H     15.677801   -7.871195   -1.536468
  H     15.954794   -6.171537   -1.081390
  H     16.424110   -4.533170    3.188317
  H     20.628744   -7.752341    4.889563
  H     16.759302  -10.784138    3.921128
  H     13.855961    0.940209    2.211873
  H     13.619155   -0.532978    3.144801
  H     11.512006    1.721866    2.890874
  H     12.626929    1.526175    4.257545
  H     11.380714    0.304194    3.956611
  H     14.175120   -1.726468    0.909261
  H     14.189356   -0.177803    0.049125
  H     13.107161   -1.476896   -0.494723
  H      8.776934    2.006153   -2.268086
  H      8.922016    0.255496   -2.402507
  H     10.907352    2.271020   -3.627640
  H      9.736348    1.249611   -4.484853
  H     11.113190    0.506732   -3.641381
  H     10.353883    3.312109   -0.764326
  H     11.816525    2.669369   -1.549004
  H     11.592865    2.468876    0.197190

 Total Charge           Charge          ....    0
 Multiplicity           Mult            ....    1
 Number of Electrons    NEL             ....  606
 Basis Dimension        Dim             .... 1304

ORBITAL ENERGIES
----------------

  NO   OCC          E(Eh)            E(eV)
   0   2.0000    -101.602185     -2764.7360
   1   2.0000    -101.600946     -2764.7023
   2   2.0000    -101.600841     -2764.6995
   3   2.0000    -101.598568     -2764.6376
   4   2.0000     -89.008174     -2422.0355
   5   2.0000     -88.978890     -2421.2387
   6   2.0000     -88.977402     -2421.1982
   7   2.0000     -88.971294     -2421.0320
   8   2.0000     -88.969779     -2420.9908
   9   2.0000     -19.223661      -523.1024
  10   2.0000     -19.221623      -523.0470
  11   2.0000     -14.493681      -394.3931
  12   2.0000     -14.488131      -394.2421
  13   2.0000     -14.441201      -392.9651
  14   2.0000     -14.440458      -392.9448
  15   2.0000     -14.425513      -392.5382
  16   2.0000     -14.424956      -392.5230
  17   2.0000     -14.424780      -392.5182
  18   2.0000     -14.421915      -392.4403
  19   2.0000     -10.375211      -282.3238
  20   2.0000     -10.374925      -282.3161
  21   2.0000     -10.361598      -281.9534
  22   2.0000     -10.360803      -281.9318
  23   2.0000     -10.359913      -281.9076
  24   2.0000     -10.358577      -281.8712
  25   2.0000     -10.355227      -281.7801
  26   2.0000     -10.353647      -281.7371
  27   2.0000     -10.352172      -281.6969
  28   2.0000     -10.351248      -281.6718
  29   2.0000     -10.351119      -281.6683
  30   2.0000     -10.348516      -281.5974
  31   2.0000     -10.336777      -281.2780
  32   2.0000     -10.333799      -281.1970
  33   2.0000     -10.333283      -281.1829
  34   2.0000     -10.331435      -281.1327
  35   2.0000     -10.331404      -281.1318
  36   2.0000     -10.330879      -281.1175
  37   2.0000     -10.329714      -281.0858
  38   2.0000     -10.328880      -281.0631
  39   2.0000     -10.328825      -281.0616
  40   2.0000     -10.328758      -281.0598
  41   2.0000     -10.328710      -281.0585
  42   2.0000     -10.328118      -281.0424
  43   2.0000     -10.326334      -280.9938
  44   2.0000     -10.325909      -280.9823
  45   2.0000     -10.325570      -280.9730
  46   2.0000     -10.324586      -280.9463
  47   2.0000     -10.322817      -280.8981
  48   2.0000     -10.320724      -280.8412
  49   2.0000     -10.320700      -280.8405
  50   2.0000     -10.319121      -280.7976
  51   2.0000     -10.318389      -280.7777
  52   2.0000     -10.317310      -280.7483
  53   2.0000     -10.314912      -280.6830
  54   2.0000     -10.314668      -280.6764
  55   2.0000     -10.314404      -280.6692
  56   2.0000     -10.312586      -280.6197
  57   2.0000     -10.311887      -280.6007
  58   2.0000     -10.311025      -280.5772
  59   2.0000     -10.306089      -280.4429
  60   2.0000     -10.305954      -280.4393
  61   2.0000     -10.305508      -280.4271
  62   2.0000     -10.304295      -280.3941
  63   2.0000     -10.301940      -280.3301
  64   2.0000     -10.301093      -280.3070
  65   2.0000     -10.292946      -280.0853
  66   2.0000     -10.291708      -280.0516
  67   2.0000     -10.291455      -280.0447
  68   2.0000     -10.283778      -279.8358
  69   2.0000     -10.280332      -279.7421
  70   2.0000     -10.278422      -279.6901
  71   2.0000     -10.276073      -279.6262
  72   2.0000     -10.274175      -279.5745
  73   2.0000     -10.270978      -279.4875
  74   2.0000     -10.269469      -279.4464
  75   2.0000     -10.269424      -279.4452
  76   2.0000     -10.267194      -279.3846
  77   2.0000      -9.556808      -260.0540
  78   2.0000      -9.555643      -260.0223
  79   2.0000      -9.555519      -260.0189
  80   2.0000      -9.553256      -259.9573
  81   2.0000      -8.099873      -220.4087
  82   2.0000      -8.072879      -219.6742
  83   2.0000      -8.071656      -219.6409
  84   2.0000      -8.064675      -219.4510
  85   2.0000      -8.062929      -219.4035
  86   2.0000      -7.327309      -199.3862
  87   2.0000      -7.326117      -199.3538
  88   2.0000      -7.326014      -199.3510
  89   2.0000      -7.323731      -199.2889
  90   2.0000      -7.317035      -199.1066
  91   2.0000      -7.316367      -199.0885
  92   2.0000      -7.315888      -199.0754
  93   2.0000      -7.315742      -199.0715
  94   2.0000      -7.315194      -199.0566
  95   2.0000      -7.315070      -199.0532
  96   2.0000      -7.313486      -199.0101
  97   2.0000      -7.312819      -198.9919
  98   2.0000      -6.071494      -165.2138
  99   2.0000      -6.064069      -165.0117
 100   2.0000      -6.061074      -164.9302
 101   2.0000      -6.042546      -164.4260
 102   2.0000      -6.041334      -164.3931
 103   2.0000      -6.038418      -164.3137
 104   2.0000      -6.037248      -164.2819
 105   2.0000      -6.034665      -164.2116
 106   2.0000      -6.034420      -164.2049
 107   2.0000      -6.033128      -164.1698
 108   2.0000      -6.032956      -164.1651
 109   2.0000      -6.030620      -164.1015
 110   2.0000      -6.028848      -164.0533
 111   2.0000      -6.025554      -163.9637
 112   2.0000      -6.023814      -163.9163
 113   2.0000      -1.136074       -30.9141
 114   2.0000      -1.133388       -30.8411
 115   2.0000      -1.111744       -30.2521
 116   2.0000      -1.103019       -30.0147
 117   2.0000      -1.098145       -29.8820
 118   2.0000      -1.027052       -27.9475
 119   2.0000      -1.025186       -27.8967
 120   2.0000      -1.015328       -27.6285
 121   2.0000      -1.014098       -27.5950
 122   2.0000      -1.011279       -27.5183
 123   2.0000      -1.010040       -27.4846
 124   2.0000      -0.994407       -27.0592
 125   2.0000      -0.993638       -27.0383
 126   2.0000      -0.987601       -26.8740
 127   2.0000      -0.986067       -26.8322
 128   2.0000      -0.975907       -26.5558
 129   2.0000      -0.965937       -26.2845
 130   2.0000      -0.960279       -26.1305
 131   2.0000      -0.958696       -26.0874
 132   2.0000      -0.956067       -26.0159
 133   2.0000      -0.946380       -25.7523
 134   2.0000      -0.931761       -25.3545
 135   2.0000      -0.929295       -25.2874
 136   2.0000      -0.920849       -25.0576
 137   2.0000      -0.916700       -24.9447
 138   2.0000      -0.901440       -24.5294
 139   2.0000      -0.899685       -24.4817
 140   2.0000      -0.898508       -24.4497
 141   2.0000      -0.896403       -24.3924
 142   2.0000      -0.883810       -24.0497
 143   2.0000      -0.871089       -23.7035
 144   2.0000      -0.863662       -23.5014
 145   2.0000      -0.859637       -23.3919
 146   2.0000      -0.859300       -23.3828
 147   2.0000      -0.857189       -23.3253
 148   2.0000      -0.854239       -23.2450
 149   2.0000      -0.837101       -22.7787
 150   2.0000      -0.827338       -22.5130
 151   2.0000      -0.825798       -22.4711
 152   2.0000      -0.820034       -22.3143
 153   2.0000      -0.810604       -22.0576
 154   2.0000      -0.810031       -22.0421
 155   2.0000      -0.799800       -21.7637
 156   2.0000      -0.786569       -21.4036
 157   2.0000      -0.782526       -21.2936
 158   2.0000      -0.779779       -21.2189
 159   2.0000      -0.767430       -20.8828
 160   2.0000      -0.762431       -20.7468
 161   2.0000      -0.755335       -20.5537
 162   2.0000      -0.734912       -19.9980
 163   2.0000      -0.732754       -19.9392
 164   2.0000      -0.732428       -19.9304
 165   2.0000      -0.724083       -19.7033
 166   2.0000      -0.721413       -19.6306
 167   2.0000      -0.719429       -19.5766
 168   2.0000      -0.709249       -19.2996
 169   2.0000      -0.703357       -19.1393
 170   2.0000      -0.701522       -19.0894
 171   2.0000      -0.692976       -18.8568
 172   2.0000      -0.689375       -18.7588
 173   2.0000      -0.683065       -18.5871
 174   2.0000      -0.674833       -18.3631
 175   2.0000      -0.672312       -18.2945
 176   2.0000      -0.666114       -18.1259
 177   2.0000      -0.662717       -18.0334
 178   2.0000      -0.655330       -17.8324
 179   2.0000      -0.648033       -17.6339
 180   2.0000      -0.646390       -17.5892
 181   2.0000      -0.643629       -17.5140
 182   2.0000      -0.633994       -17.2518
 183   2.0000      -0.620784       -16.8924
 184   2.0000      -0.616682       -16.7808
 185   2.0000      -0.614731       -16.7277
 186   2.0000      -0.609732       -16.5916
 187   2.0000      -0.603255       -16.4154
 188   2.0000      -0.599084       -16.3019
 189   2.0000      -0.595353       -16.2004
 190   2.0000      -0.592569       -16.1246
 191   2.0000      -0.584805       -15.9133
 192   2.0000      -0.583154       -15.8684
 193   2.0000      -0.578469       -15.7410
 194   2.0000      -0.576029       -15.6745
 195   2.0000      -0.574643       -15.6368
 196   2.0000      -0.569834       -15.5060
 197   2.0000      -0.566147       -15.4056
 198   2.0000      -0.558479       -15.1970
 199   2.0000      -0.554373       -15.0853
 200   2.0000      -0.552839       -15.0435
 201   2.0000      -0.550344       -14.9756
 202   2.0000      -0.547847       -14.9077
 203   2.0000      -0.546301       -14.8656
 204   2.0000      -0.544800       -14.8248
 205   2.0000      -0.543612       -14.7924
 206   2.0000      -0.539417       -14.6783
 207   2.0000      -0.537949       -14.6383
 208   2.0000      -0.536735       -14.6053
 209   2.0000      -0.533664       -14.5217
 210   2.0000      -0.529841       -14.4177
 211   2.0000      -0.528537       -14.3822
 212   2.0000      -0.525103       -14.2888
 213   2.0000      -0.521670       -14.1954
 214   2.0000      -0.519987       -14.1496
 215   2.0000      -0.516386       -14.0516
 216   2.0000      -0.515828       -14.0364
 217   2.0000      -0.514030       -13.9875
 218   2.0000      -0.512329       -13.9412
 219   2.0000      -0.509245       -13.8573
 220   2.0000      -0.508568       -13.8389
 221   2.0000      -0.504639       -13.7319
 222   2.0000      -0.504242       -13.7211
 223   2.0000      -0.502176       -13.6649
 224   2.0000      -0.499611       -13.5951
 225   2.0000      -0.497963       -13.5503
 226   2.0000      -0.495110       -13.4726
 227   2.0000      -0.494506       -13.4562
 228   2.0000      -0.492045       -13.3892
 229   2.0000      -0.491555       -13.3759
 230   2.0000      -0.488956       -13.3052
 231   2.0000      -0.487373       -13.2621
 232   2.0000      -0.486072       -13.2267
 233   2.0000      -0.483448       -13.1553
 234   2.0000      -0.480562       -13.0768
 235   2.0000      -0.479674       -13.0526
 236   2.0000      -0.474612       -12.9149
 237   2.0000      -0.469963       -12.7883
 238   2.0000      -0.468457       -12.7474
 239   2.0000      -0.467896       -12.7321
 240   2.0000      -0.466547       -12.6954
 241   2.0000      -0.465782       -12.6746
 242   2.0000      -0.461241       -12.5510
 243   2.0000      -0.458145       -12.4667
 244   2.0000      -0.455867       -12.4048
 245   2.0000      -0.454712       -12.3733
 246   2.0000      -0.454037       -12.3550
 247   2.0000      -0.450920       -12.2701
 248   2.0000      -0.449485       -12.2311
 249   2.0000      -0.448650       -12.2084
 250   2.0000      -0.448335       -12.1998
 251   2.0000      -0.445141       -12.1129
 252   2.0000      -0.440692       -11.9918
 253   2.0000      -0.439846       -11.9688
 254   2.0000      -0.436786       -11.8856
 255   2.0000      -0.435620       -11.8538
 256   2.0000      -0.434087       -11.8121
 257   2.0000      -0.431630       -11.7453
 258   2.0000      -0.431281       -11.7358
 259   2.0000      -0.430115       -11.7040
 260   2.0000      -0.428334       -11.6556
 261   2.0000      -0.427937       -11.6447
 262   2.0000      -0.427842       -11.6422
 263   2.0000      -0.427298       -11.6274
 264   2.0000      -0.426185       -11.5971
 265   2.0000      -0.425641       -11.5823
 266   2.0000      -0.423948       -11.5362
 267   2.0000      -0.421168       -11.4606
 268   2.0000      -0.418257       -11.3814
 269   2.0000      -0.417566       -11.3626
 270   2.0000      -0.416913       -11.3448
 271   2.0000      -0.414330       -11.2745
 272   2.0000      -0.413222       -11.2443
 273   2.0000      -0.409721       -11.1491
 274   2.0000      -0.409254       -11.1364
 275   2.0000      -0.407878       -11.0989
 276   2.0000      -0.407505       -11.0888
 277   2.0000      -0.406050       -11.0492
 278   2.0000      -0.404053       -10.9949
 279   2.0000      -0.398126       -10.8336
 280   2.0000      -0.397119       -10.8062
 281   2.0000      -0.395944       -10.7742
 282   2.0000      -0.392039       -10.6679
 283   2.0000      -0.388340       -10.5673
 284   2.0000      -0.384723       -10.4688
 285   2.0000      -0.383254       -10.4289
 286   2.0000      -0.372192       -10.1279
 287   2.0000      -0.363695        -9.8966
 288   2.0000      -0.360672        -9.8144
 289   2.0000      -0.349890        -9.5210
 290   2.0000      -0.345779        -9.4091
 291   2.0000      -0.343881        -9.3575
 292   2.0000      -0.339772        -9.2457
 293   2.0000      -0.338488        -9.2107
 294   2.0000      -0.336475        -9.1560
 295   2.0000      -0.318734        -8.6732
 296   2.0000      -0.316866        -8.6224
 297   2.0000      -0.312353        -8.4996
 298   2.0000      -0.309393        -8.4190
 299   2.0000      -0.292870        -7.9694
 300   2.0000      -0.283006        -7.7010
 301   2.0000      -0.279780        -7.6132
 302   2.0000      -0.245863        -6.6903
 303   0.0000      -0.102097        -2.7782
 304   0.0000      -0.093433        -2.5424
 305   0.0000      -0.071238        -1.9385
 306   0.0000      -0.067433        -1.8349
 307   0.0000      -0.048388        -1.3167

MULLIKEN ATOMIC CHARGES
-----------------------
   0 C :    0.127940
   1 O :   -0.148905
   2 C :    0.007606
   3 C :   -0.026157
   4 C :    0.052434
   5 C :    0.036922
   6 C :   -0.015899
   7 C :    0.016072
   8 C :    0.256204
   9 C :   -0.337979
  10 C :   -0.176176
  11 N :    0.153773
  12 C :   -0.154195
  13 N :    0.132471
  14 C :   -0.133109
  15 C :    0.038680
  16 C :   -0.143158
  17 S :    0.138610
  18 C :   -0.029061
  19 C :   -0.108286
  20 C :   -0.014688
  21 C :    0.053982
  22 C :   -0.030953
  23 S :    0.186028
  24 C :   -0.078093
  25 C :    0.039708
  26 N :   -0.191772
  27 C :    0.193485
  28 C :   -0.153357
  29 C :    0.057218
  30 C :   -0.045484
  31 C :   -0.018285
  32 N :   -0.259615
  33 S :    0.450092
  34 N :   -0.269524
  35 C :    0.016956
  36 C :   -0.072092
  37 C :    0.073291
  38 N :   -0.192201
  39 C :    0.155943
  40 C :   -0.137988
  41 C :    0.049787
  42 C :   -0.096929
  43 S :    0.204272
  44 C :   -0.129846
  45 C :   -0.040153
  46 S :    0.147206
  47 C :   -0.142866
  48 C :   -0.008782
  49 C :    0.077588
  50 C :   -0.012670
  51 C :    0.003489
  52 C :   -0.095242
  53 C :    0.271645
  54 C :   -0.325578
  55 C :   -0.174085
  56 N :    0.126958
  57 C :   -0.164401
  58 N :    0.128832
  59 C :    0.039559
  60 C :   -0.011794
  61 C :    0.038659
  62 C :    0.049584
  63 C :   -0.027020
  64 C :   -0.027740
  65 C :    0.142890
  66 O :   -0.148297
  67 Cl:   -0.044474
  68 Cl:   -0.044674
  69 C :   -0.004011
  70 C :   -0.019733
  71 C :    0.026431
  72 C :    0.000386
  73 C :    0.009826
  74 C :    0.024174
  75 Cl:   -0.037568
  76 Cl:   -0.036532
  77 H :    0.010610
  78 H :    0.009539
  79 H :    0.039722
  80 H :    0.041430
  81 H :    0.010458
  82 H :    0.034158
  83 H :    0.028259
  84 H :    0.042516
  85 H :   -0.009915
  86 H :    0.012367
  87 H :    0.016086
  88 H :    0.023127
  89 H :    0.037775
  90 H :   -0.000683
  91 H :    0.035267
  92 H :    0.008364
  93 H :    0.025171
  94 H :    0.028302
  95 H :    0.026054
  96 H :    0.032823
  97 H :    0.007441
  98 H :    0.007762
  99 H :    0.014177
 100 H :    0.012502
 101 H :    0.020540
 102 H :    0.030133
 103 H :    0.022094
 104 H :    0.025339
 105 H :    0.019363
 106 H :    0.033739
 107 H :    0.006213
 108 H :    0.029265
 109 H :    0.017222
 110 H :    0.023309
 111 H :    0.014620
 112 H :    0.019230
 113 H :    0.029985
 114 H :    0.016304
Sum of atomic charges:    0.0000000

LOEWDIN ATOMIC CHARGES
----------------------
   0 C :    0.087995
   1 O :   -0.143893
   2 C :   -0.048372
   3 C :   -0.000396
   4 C :   -0.130740
   5 C :   -0.124507
   6 C :   -0.017785
   7 C :   -0.010698
   8 C :    0.063859
   9 C :   -0.139418
  10 C :   -0.013547
  11 N :   -0.044606
  12 C :   -0.017077
  13 N :   -0.052660
  14 C :   -0.112807
  15 C :    0.044462
  16 C :   -0.181330
  17 S :    0.427719
  18 C :   -0.187583
  19 C :   -0.181812
  20 C :   -0.010862
  21 C :   -0.033906
  22 C :   -0.060004
  23 S :    0.429467
  24 C :   -0.170906
  25 C :   -0.036909
  26 N :    0.028539
  27 C :    0.045772
  28 C :   -0.046753
  29 C :    0.009363
  30 C :   -0.072193
  31 C :   -0.054364
  32 N :   -0.275441
  33 S :    0.579169
  34 N :   -0.278459
  35 C :   -0.051391
  36 C :   -0.080113
  37 C :    0.019259
  38 N :    0.039188
  39 C :    0.045429
  40 C :   -0.049624
  41 C :   -0.039422
  42 C :   -0.165715
  43 S :    0.426403
  44 C :   -0.187186
  45 C :   -0.187487
  46 S :    0.436986
  47 C :   -0.177488
  48 C :    0.001672
  49 C :   -0.030912
  50 C :   -0.056220
  51 C :    0.047301
  52 C :   -0.114104
  53 C :    0.078500
  54 C :   -0.142360
  55 C :   -0.019447
  56 N :   -0.058786
  57 C :   -0.014017
  58 N :   -0.055629
  59 C :   -0.015674
  60 C :   -0.014436
  61 C :   -0.126341
  62 C :   -0.129009
  63 C :   -0.003791
  64 C :   -0.044718
  65 C :    0.079605
  66 O :   -0.142050
  67 Cl:    0.150601
  68 Cl:    0.150353
  69 C :   -0.031531
  70 C :   -0.066445
  71 C :   -0.060595
  72 C :   -0.039439
  73 C :   -0.058073
  74 C :   -0.053065
  75 Cl:    0.153674
  76 Cl:    0.153191
  77 H :    0.049448
  78 H :    0.046120
  79 H :    0.048142
  80 H :    0.047750
  81 H :    0.031813
  82 H :    0.019505
  83 H :    0.034532
  84 H :    0.032226
  85 H :    0.021105
  86 H :    0.022763
  87 H :    0.021595
  88 H :    0.028269
  89 H :    0.030567
  90 H :    0.020862
  91 H :    0.044554
  92 H :    0.032232
  93 H :    0.018521
  94 H :    0.031332
  95 H :    0.029102
  96 H :    0.044013
  97 H :    0.045970
  98 H :    0.048425
  99 H :    0.028729
 100 H :    0.022555
 101 H :    0.021840
 102 H :    0.034319
 103 H :    0.023350
 104 H :    0.013996
 105 H :    0.031866
 106 H :    0.025808
 107 H :    0.020973
 108 H :    0.029199
 109 H :    0.022522
 110 H :    0.030782
 111 H :    0.025425
 112 H :    0.028697
 113 H :    0.031789
 114 H :    0.022891

  Mayer bond orders larger than 0.100000
B(  0-C ,  1-O ) :   2.2361 B(  0-C ,  2-C ) :   0.9260 B(  0-C , 14-C ) :   0.9527
B(  2-C ,  3-C ) :   1.3526 B(  2-C ,  7-C ) :   1.3353 B(  3-C ,  4-C ) :   1.3446
B(  3-C , 77-H ) :   1.0086 B(  4-C ,  5-C ) :   1.4037 B(  4-C , 68-Cl) :   1.0464
B(  5-C ,  6-C ) :   1.3612 B(  5-C , 75-Cl) :   1.0698 B(  6-C ,  7-C ) :   1.3494
B(  6-C , 78-H ) :   0.9830 B(  7-C ,  8-C ) :   1.0011 B(  8-C ,  9-C ) :   1.6218
B(  8-C , 14-C ) :   1.0643 B(  9-C , 10-C ) :   1.1770 B(  9-C , 12-C ) :   1.1098
B( 10-C , 11-N ) :   2.9552 B( 12-C , 13-N ) :   2.9752 B( 14-C , 15-C ) :   1.6360
B( 15-C , 16-C ) :   1.1519 B( 15-C , 79-H ) :   0.9044 B( 16-C , 17-S ) :   1.0475
B( 16-C , 20-C ) :   1.4589 B( 17-S , 18-C ) :   1.0770 B( 18-C , 19-C ) :   1.4437
B( 18-C , 25-C ) :   1.2626 B( 19-C , 20-C ) :   1.3352 B( 19-C , 23-S ) :   1.0360
B( 20-C , 21-C ) :   1.0709 B( 21-C , 22-C ) :   1.0959 B( 21-C , 80-H ) :   0.9148
B( 21-C , 81-H ) :   0.9208 B( 22-C , 82-H ) :   0.9602 B( 22-C , 83-H ) :   0.9616
B( 22-C , 84-H ) :   0.9731 B( 23-S , 24-C ) :   1.0225 B( 24-C , 25-C ) :   1.4314
B( 24-C , 30-C ) :   1.3348 B( 25-C , 26-N ) :   1.1422 B( 26-N , 27-C ) :   0.9618
B( 26-N , 29-C ) :   1.1473 B( 27-C , 28-C ) :   1.0426 B( 27-C , 85-H ) :   0.9355
B( 27-C , 86-H ) :   0.9243 B( 28-C , 72-C ) :   1.0647 B( 28-C , 74-C ) :   1.0599
B( 28-C , 87-H ) :   0.9089 B( 29-C , 30-C ) :   1.4080 B( 29-C , 37-C ) :   1.1223
B( 30-C , 31-C ) :   1.0973 B( 31-C , 32-N ) :   1.6501 B( 31-C , 35-C ) :   1.1192
B( 32-N , 33-S ) :   1.1973 B( 32-N , 34-N ) :   0.1336 B( 33-S , 34-N ) :   1.1975
B( 34-N , 35-C ) :   1.6415 B( 35-C , 36-C ) :   1.1012 B( 36-C , 37-C ) :   1.3754
B( 36-C , 42-C ) :   1.3594 B( 37-C , 38-N ) :   1.1729 B( 38-N , 39-C ) :   0.9484
B( 38-N , 41-C ) :   1.1401 B( 39-C , 40-C ) :   1.0258 B( 39-C , 88-H ) :   0.9319
B( 39-C , 89-H ) :   0.9442 B( 40-C , 69-C ) :   1.0549 B( 40-C , 71-C ) :   1.0922
B( 40-C , 90-H ) :   0.9117 B( 41-C , 42-C ) :   1.4112 B( 41-C , 45-C ) :   1.2687
B( 42-C , 43-S ) :   1.0286 B( 43-S , 44-C ) :   1.0367 B( 44-C , 45-C ) :   1.4158
B( 44-C , 48-C ) :   1.3390 B( 45-C , 46-S ) :   1.0850 B( 46-S , 47-C ) :   1.0443
B( 47-C , 48-C ) :   1.4529 B( 47-C , 51-C ) :   1.2159 B( 48-C , 49-C ) :   1.0811
B( 49-C , 50-C ) :   1.0866 B( 49-C , 91-H ) :   0.9125 B( 49-C , 92-H ) :   0.9228
B( 50-C , 93-H ) :   0.9669 B( 50-C , 94-H ) :   0.9678 B( 50-C , 95-H ) :   0.9687
B( 51-C , 52-C ) :   1.5624 B( 51-C , 96-H ) :   0.9144 B( 52-C , 53-C ) :   1.0950
B( 52-C , 65-C ) :   0.9544 B( 53-C , 54-C ) :   1.6270 B( 53-C , 59-C ) :   0.9920
B( 54-C , 55-C ) :   1.1262 B( 54-C , 57-C ) :   1.1276 B( 55-C , 56-N ) :   2.9705
B( 57-C , 58-N ) :   2.9621 B( 59-C , 60-C ) :   1.3390 B( 59-C , 64-C ) :   1.3356
B( 60-C , 61-C ) :   1.3649 B( 60-C , 97-H ) :   0.9777 B( 61-C , 62-C ) :   1.4016
B( 61-C , 76-Cl) :   1.0762 B( 62-C , 63-C ) :   1.3442 B( 62-C , 67-Cl) :   1.0472
B( 63-C , 64-C ) :   1.3508 B( 63-C , 98-H ) :   1.0086 B( 64-C , 65-C ) :   0.9293
B( 65-C , 66-O ) :   2.2269 B( 69-C , 70-C ) :   1.0951 B( 69-C , 99-H ) :   0.9463
B( 69-C ,100-H ) :   0.9442 B( 70-C ,101-H ) :   0.9644 B( 70-C ,102-H ) :   0.9644
B( 70-C ,103-H ) :   0.9669 B( 71-C ,104-H ) :   0.9567 B( 71-C ,105-H ) :   0.9588
B( 71-C ,106-H ) :   0.9539 B( 72-C , 73-C ) :   1.0994 B( 72-C ,107-H ) :   0.9383
B( 72-C ,108-H ) :   0.9321 B( 73-C ,109-H ) :   0.9699 B( 73-C ,110-H ) :   0.9664
B( 73-C ,111-H ) :   0.9685 B( 74-C ,112-H ) :   0.9612 B( 74-C ,113-H ) :   0.9636
B( 74-C ,114-H ) :   0.9635

-----------------------------------------------------------------------------
         ABSORPTION SPECTRUM VIA TRANSITION ELECTRIC DIPOLE MOMENTS
-----------------------------------------------------------------------------
State   Energy  Wavelength   fosc         T2         TX        TY        TZ
        (cm-1)    (nm)                  (au**2)     (au)      (au)      (au)
-----------------------------------------------------------------------------
   0   16727.5    597.8   2.281705448  44.90592  -5.45018   3.71117  -1.19529
   1   19534.7    511.9   0.266184724   4.48593  -0.86119  -0.74170  -1.78722
   2   24193.8    413.3   0.123032647   1.67414   0.81216  -0.82681   0.57525
   3   24343.1    410.8   0.209532342   2.83368   0.06580   1.66272   0.25438
   4   24988.5    400.2   0.115400457   1.52035  -0.76850   0.92875   0.25920
   5   25140.5    397.8   0.051094672   0.66908  -0.22369  -0.62699  -0.47531
   6   26343.1    379.6   0.059668662   0.74568  -0.10738  -0.50592  -0.69152
   7   26712.2    374.4   0.021425326   0.26405   0.28915   0.30827   0.29227
   8   28265.4    353.8   0.068078503   0.79292  -0.82356   0.10029   0.32344
   9   29414.9    340.0   0.043491200   0.48675  -0.54257   0.01935  -0.43817
  10   29805.1    335.5   0.329637796   3.64102   0.42210  -1.76639   0.58541
  11   29998.0    333.4   0.001798024   0.01973  -0.08818   0.02069  -0.10737
  12   30307.5    330.0   0.111539033   1.21158   0.40479   1.00871   0.17388
  13   30435.7    328.6   0.076958709   0.83243  -0.78976   0.28950  -0.35341
  14   32025.0    312.3   0.007321784   0.07527  -0.21115   0.00772  -0.17500
  15   32295.8    309.6   0.004556873   0.04645  -0.14188  -0.15487   0.04835
  16   32605.5    306.7   0.056543185   0.57091  -0.37625   0.58129  -0.30240
  17   33024.1    302.8   0.071781230   0.71558   0.50528   0.28223   0.61694
  18   33150.1    301.7   0.158437774   1.57344   0.21479   1.21599   0.22062
  19   33420.3    299.2   0.027819683   0.27404  -0.02216  -0.46081  -0.24739
  20   33594.8    297.7   0.046758968   0.45821  -0.32892  -0.35348  -0.47442
  21   33905.0    294.9   0.023876213   0.23183  -0.08682   0.47353   0.00793
  22   33941.3    294.6   0.032754904   0.31770   0.37586   0.41914  -0.02739
  23   34207.1    292.3   0.056792914   0.54658   0.63549  -0.19202   0.32536
  24   34500.4    289.9   0.157934561   1.50706   0.40391  -1.15803   0.05367
  25   34793.7    287.4   0.033299410   0.31507   0.10179  -0.52959   0.15571
  26   35128.7    284.7   0.812579268   7.61517   0.48594  -2.65745   0.56304
  27   35477.7    281.9   0.177235963   1.64464   0.55468  -1.13132   0.23894
  28   36071.1    277.2   0.033303646   0.30395  -0.43359   0.33078  -0.08090
  29   36145.7    276.7   0.179938887   1.63887  -1.00958  -0.78178  -0.09183
  30   36512.9    273.9   0.199207872   1.79612  -0.88333  -1.00765  -0.02204
  31   36783.0    271.9   0.199459480   1.78518  -0.89124  -0.99542  -0.00477
  32   37085.0    269.7   0.028917445   0.25671   0.01647  -0.40509   0.30387
  33   37636.0    265.7   0.188327610   1.64735  -0.65064  -0.82500  -0.73716
  34   38138.7    262.2   0.022771006   0.19656  -0.03558  -0.30088  -0.32367
  35   38600.8    259.1   0.003876915   0.03306  -0.17033   0.01692  -0.06138
  36   38782.3    257.8   0.016757968   0.14225  -0.28028   0.25221  -0.00918
  37   39214.1    255.0   0.038917623   0.32672   0.37587   0.33770   0.26721
  38   40111.3    249.3   0.043944029   0.36067   0.55480  -0.01159   0.22964

FINAL SINGLE POINT ENERGY     -6648.487380374416

DIPOLE MOMENT
-------------
                                X             Y             Z
Electronic contribution:    -33.55551     -33.05960      32.17857
Nuclear contribution   :     33.59223      33.87874     -33.74681
                        -----------------------------------------
Total Dipole Moment    :      0.03672       0.81914      -1.56824
                        -----------------------------------------
Magnitude (a.u.)       :      1.76966
Magnitude (Debye)      :      4.49813

Rotational constants in cm-1:     0.001945     0.000184     0.000176
Rotational constants in MHz :    58.298277     5.501644     5.265528

                             ****ORCA TERMINATED NORMALLY****
TOTAL RUN TIME: 0 days 1 hours 19 minutes 34 seconds 94 msec
