                         Program Version 4.2.0 -  RELEASE  -
|  1> # ORCA input file
|  2> # BTDT2R.out: Geometry 48
|  3> ! CAM-B3LYP def2-SVP def2/J RIJCOSX Grid4 TightSCF
|  4> %maxcore 5000
|  5> %tddft
|  6>     Mode sTDDFT
|  7>     Ethresh 5.0
|  8>     maxcore 5000
|  9> end
| 10> * xyz 0 1
| 11>    C        0.91670         1.93838         0.46829
| 12>    C        2.08553         1.24232         0.15150
| 13>    C        2.19921        -0.19462         0.18902
| 14>    C        1.11812        -1.04438         0.44719
| 15>    C       -0.11632        -0.35663         0.73379
| 16>    C       -0.20797         1.09456         0.77458
| 17>    N       -1.27495        -0.95096         1.00560
| 18>    S       -2.38959         0.21585         1.28389
| 19>    N       -1.42854         1.52992         1.07757
| 20>    O        3.20180         1.93118        -0.22133
| 21>    O        3.41021        -0.72574        -0.13026
| 22>    C        4.49006        -0.49818         0.77722
| 23>    C        3.49306         1.91962        -1.62117
| 24>    C        0.80898         3.38977         0.44979
| 25>    C        1.19177        -2.50002         0.41016
| 26>    S       -0.73588         4.21206         0.50556
| 27>    C        0.01848         5.78474         0.38677
| 28>    C        1.40614         5.65930         0.34396
| 29>    C        1.84442         4.32671         0.37811
| 30>    C        2.32721        -3.31243         0.31412
| 31>    C        2.02413        -4.67753         0.26911
| 32>    C        0.65422        -4.95838         0.31060
| 33>    S       -0.26510        -3.47759         0.45378
| 34>    C       -0.80113         6.95990         0.35594
| 35>    C       -0.40530         8.26056         0.27157
| 36>    C        0.16675        -6.30319         0.22749
| 37>    C       -1.08031        -6.85869         0.20994
| 38>    C       -1.39849         9.36070         0.21978
| 39>    N       -0.73331        10.59736         0.08974
| 40>    C        0.63822        10.57962         0.05546
| 41>    S        1.22762         8.91003         0.19408
| 42>    S       -1.33902        -8.60447         0.05763
| 43>    C       -3.09628        -8.43080         0.13297
| 44>    N       -3.42739        -7.10405         0.28209
| 45>    C       -2.37745        -6.16856         0.30276
| 46>    O       -2.60445         9.24926         0.27439
| 47>    C       -1.48415        11.83883        -0.01012
| 48>    S        1.63232        11.87653        -0.08603
| 49>    S       -4.14009        -9.69396         0.02861
| 50>    C       -4.80853        -6.66132         0.38313
| 51>    O       -2.56290        -4.96998         0.38897
| 52>    H        4.25139        -0.91346         1.77146
| 53>    H        4.71797         0.57336         0.86611
| 54>    H        5.35712        -1.02732         0.36001
| 55>    H        4.30394         2.64281        -1.77749
| 56>    H        2.60913         2.23761        -2.19876
| 57>    H        3.80944         0.91840        -1.95282
| 58>    H        2.08723         6.50597         0.28252
| 59>    H        2.88810         4.02977         0.35045
| 60>    H        3.33571        -2.91939         0.26406
| 61>    H        2.77778        -5.46340         0.19230
| 62>    H       -1.88823         6.82639         0.38104
| 63>    H        0.98934        -7.02329         0.14705
| 64>    H       -2.54576        11.57200        -0.08096
| 65>    H       -1.15748        12.40046        -0.89703
| 66>    H       -1.30554        12.46659         0.87610
| 67>    H       -5.34734        -7.30948         1.08604
| 68>    H       -5.30910        -6.72269        -0.59511
| 69>    H       -4.79479        -5.62118         0.72985
| 70> *
| 71>
| 72>                          ****END OF INPUT****

CARTESIAN COORDINATES (ANGSTROEM)
---------------------------------
  C      0.916700    1.938380    0.468290
  C      2.085530    1.242320    0.151500
  C      2.199210   -0.194620    0.189020
  C      1.118120   -1.044380    0.447190
  C     -0.116320   -0.356630    0.733790
  C     -0.207970    1.094560    0.774580
  N     -1.274950   -0.950960    1.005600
  S     -2.389590    0.215850    1.283890
  N     -1.428540    1.529920    1.077570
  O      3.201800    1.931180   -0.221330
  O      3.410210   -0.725740   -0.130260
  C      4.490060   -0.498180    0.777220
  C      3.493060    1.919620   -1.621170
  C      0.808980    3.389770    0.449790
  C      1.191770   -2.500020    0.410160
  S     -0.735880    4.212060    0.505560
  C      0.018480    5.784740    0.386770
  C      1.406140    5.659300    0.343960
  C      1.844420    4.326710    0.378110
  C      2.327210   -3.312430    0.314120
  C      2.024130   -4.677530    0.269110
  C      0.654220   -4.958380    0.310600
  S     -0.265100   -3.477590    0.453780
  C     -0.801130    6.959900    0.355940
  C     -0.405300    8.260560    0.271570
  C      0.166750   -6.303190    0.227490
  C     -1.080310   -6.858690    0.209940
  C     -1.398490    9.360700    0.219780
  N     -0.733310   10.597360    0.089740
  C      0.638220   10.579620    0.055460
  S      1.227620    8.910030    0.194080
  S     -1.339020   -8.604470    0.057630
  C     -3.096280   -8.430800    0.132970
  N     -3.427390   -7.104050    0.282090
  C     -2.377450   -6.168560    0.302760
  O     -2.604450    9.249260    0.274390
  C     -1.484150   11.838830   -0.010120
  S      1.632320   11.876530   -0.086030
  S     -4.140090   -9.693960    0.028610
  C     -4.808530   -6.661320    0.383130
  O     -2.562900   -4.969980    0.388970
  H      4.251390   -0.913460    1.771460
  H      4.717970    0.573360    0.866110
  H      5.357120   -1.027320    0.360010
  H      4.303940    2.642810   -1.777490
  H      2.609130    2.237610   -2.198760
  H      3.809440    0.918400   -1.952820
  H      2.087230    6.505970    0.282520
  H      2.888100    4.029770    0.350450
  H      3.335710   -2.919390    0.264060
  H      2.777780   -5.463400    0.192300
  H     -1.888230    6.826390    0.381040
  H      0.989340   -7.023290    0.147050
  H     -2.545760   11.572000   -0.080960
  H     -1.157480   12.400460   -0.897030
  H     -1.305540   12.466590    0.876100
  H     -5.347340   -7.309480    1.086040
  H     -5.309100   -6.722690   -0.595110
  H     -4.794790   -5.621180    0.729850

 Total Charge           Charge          ....    0
 Multiplicity           Mult            ....    1
 Number of Electrons    NEL             ....  346
 Basis Dimension        Dim             ....  692

ORBITAL ENERGIES
----------------

  NO   OCC          E(Eh)            E(eV)
   0   2.0000     -89.023369     -2422.4490
   1   2.0000     -88.962031     -2420.7799
   2   2.0000     -88.961436     -2420.7637
   3   2.0000     -88.957903     -2420.6676
   4   2.0000     -88.954601     -2420.5778
   5   2.0000     -88.887216     -2418.7441
   6   2.0000     -88.882944     -2418.6279
   7   2.0000     -19.255822      -523.9775
   8   2.0000     -19.255689      -523.9739
   9   2.0000     -19.211880      -522.7818
  10   2.0000     -19.210199      -522.7361
  11   2.0000     -14.476589      -393.9280
  12   2.0000     -14.475510      -393.8987
  13   2.0000     -14.448953      -393.1760
  14   2.0000     -14.447527      -393.1372
  15   2.0000     -10.397819      -282.9390
  16   2.0000     -10.397801      -282.9386
  17   2.0000     -10.383430      -282.5475
  18   2.0000     -10.380957      -282.4802
  19   2.0000     -10.357611      -281.8449
  20   2.0000     -10.357094      -281.8309
  21   2.0000     -10.336395      -281.2676
  22   2.0000     -10.335824      -281.2521
  23   2.0000     -10.333895      -281.1996
  24   2.0000     -10.333344      -281.1846
  25   2.0000     -10.319555      -280.8094
  26   2.0000     -10.317746      -280.7602
  27   2.0000     -10.317220      -280.7458
  28   2.0000     -10.316305      -280.7209
  29   2.0000     -10.314834      -280.6809
  30   2.0000     -10.313117      -280.6342
  31   2.0000     -10.312826      -280.6263
  32   2.0000     -10.310179      -280.5542
  33   2.0000     -10.309496      -280.5356
  34   2.0000     -10.306784      -280.4619
  35   2.0000     -10.306732      -280.4604
  36   2.0000     -10.305265      -280.4205
  37   2.0000     -10.285535      -279.8836
  38   2.0000     -10.283414      -279.8259
  39   2.0000     -10.280993      -279.7601
  40   2.0000     -10.276938      -279.6497
  41   2.0000      -8.114590      -220.8092
  42   2.0000      -8.057929      -219.2674
  43   2.0000      -8.055642      -219.2052
  44   2.0000      -8.054290      -219.1684
  45   2.0000      -8.047444      -218.9821
  46   2.0000      -7.983915      -217.2534
  47   2.0000      -7.979602      -217.1360
  48   2.0000      -6.085984      -165.6080
  49   2.0000      -6.078541      -165.4055
  50   2.0000      -6.076351      -165.3459
  51   2.0000      -6.027807      -164.0250
  52   2.0000      -6.024979      -163.9480
  53   2.0000      -6.024191      -163.9266
  54   2.0000      -6.023766      -163.9150
  55   2.0000      -6.020695      -163.8314
  56   2.0000      -6.020296      -163.8206
  57   2.0000      -6.018427      -163.7697
  58   2.0000      -6.017896      -163.7553
  59   2.0000      -6.016873      -163.7275
  60   2.0000      -6.014534      -163.6638
  61   2.0000      -6.012305      -163.6031
  62   2.0000      -6.009741      -163.5334
  63   2.0000      -5.953836      -162.0121
  64   2.0000      -5.950430      -161.9194
  65   2.0000      -5.949555      -161.8956
  66   2.0000      -5.945999      -161.7988
  67   2.0000      -5.943964      -161.7435
  68   2.0000      -5.939762      -161.6291
  69   2.0000      -1.174216       -31.9520
  70   2.0000      -1.147808       -31.2334
  71   2.0000      -1.146576       -31.1999
  72   2.0000      -1.145382       -31.1674
  73   2.0000      -1.119011       -30.4498
  74   2.0000      -1.070239       -29.1227
  75   2.0000      -1.069095       -29.0915
  76   2.0000      -0.993252       -27.0278
  77   2.0000      -0.984609       -26.7926
  78   2.0000      -0.973760       -26.4973
  79   2.0000      -0.954704       -25.9788
  80   2.0000      -0.938055       -25.5258
  81   2.0000      -0.935785       -25.4640
  82   2.0000      -0.893260       -24.3068
  83   2.0000      -0.882725       -24.0202
  84   2.0000      -0.873901       -23.7801
  85   2.0000      -0.861496       -23.4425
  86   2.0000      -0.852950       -23.2100
  87   2.0000      -0.843195       -22.9445
  88   2.0000      -0.830337       -22.5946
  89   2.0000      -0.825425       -22.4609
  90   2.0000      -0.809799       -22.0358
  91   2.0000      -0.804933       -21.9033
  92   2.0000      -0.794751       -21.6263
  93   2.0000      -0.793753       -21.5991
  94   2.0000      -0.786461       -21.4007
  95   2.0000      -0.774598       -21.0779
  96   2.0000      -0.742488       -20.2041
  97   2.0000      -0.726712       -19.7748
  98   2.0000      -0.717539       -19.5252
  99   2.0000      -0.702720       -19.1220
 100   2.0000      -0.697606       -18.9828
 101   2.0000      -0.687681       -18.7127
 102   2.0000      -0.682347       -18.5676
 103   2.0000      -0.658738       -17.9252
 104   2.0000      -0.648278       -17.6405
 105   2.0000      -0.642249       -17.4765
 106   2.0000      -0.632246       -17.2043
 107   2.0000      -0.623642       -16.9702
 108   2.0000      -0.616193       -16.7675
 109   2.0000      -0.608313       -16.5531
 110   2.0000      -0.604460       -16.4482
 111   2.0000      -0.592198       -16.1145
 112   2.0000      -0.585486       -15.9319
 113   2.0000      -0.575237       -15.6530
 114   2.0000      -0.573399       -15.6030
 115   2.0000      -0.568215       -15.4619
 116   2.0000      -0.567976       -15.4554
 117   2.0000      -0.564647       -15.3648
 118   2.0000      -0.562023       -15.2934
 119   2.0000      -0.555238       -15.1088
 120   2.0000      -0.546428       -14.8691
 121   2.0000      -0.544522       -14.8172
 122   2.0000      -0.541038       -14.7224
 123   2.0000      -0.535891       -14.5823
 124   2.0000      -0.525960       -14.3121
 125   2.0000      -0.522644       -14.2219
 126   2.0000      -0.517416       -14.0796
 127   2.0000      -0.516274       -14.0485
 128   2.0000      -0.499102       -13.5813
 129   2.0000      -0.494534       -13.4570
 130   2.0000      -0.493635       -13.4325
 131   2.0000      -0.492562       -13.4033
 132   2.0000      -0.488733       -13.2991
 133   2.0000      -0.483591       -13.1592
 134   2.0000      -0.480614       -13.0782
 135   2.0000      -0.478072       -13.0090
 136   2.0000      -0.475864       -12.9489
 137   2.0000      -0.474282       -12.9059
 138   2.0000      -0.468984       -12.7617
 139   2.0000      -0.461832       -12.5671
 140   2.0000      -0.457659       -12.4535
 141   2.0000      -0.454104       -12.3568
 142   2.0000      -0.452990       -12.3265
 143   2.0000      -0.448454       -12.2031
 144   2.0000      -0.444709       -12.1012
 145   2.0000      -0.441519       -12.0144
 146   2.0000      -0.441344       -12.0096
 147   2.0000      -0.439758       -11.9664
 148   2.0000      -0.436503       -11.8779
 149   2.0000      -0.428576       -11.6622
 150   2.0000      -0.424898       -11.5621
 151   2.0000      -0.421302       -11.4642
 152   2.0000      -0.419739       -11.4217
 153   2.0000      -0.399338       -10.8665
 154   2.0000      -0.397969       -10.8293
 155   2.0000      -0.390771       -10.6334
 156   2.0000      -0.389827       -10.6077
 157   2.0000      -0.366938        -9.9849
 158   2.0000      -0.361042        -9.8244
 159   2.0000      -0.358189        -9.7468
 160   2.0000      -0.355006        -9.6602
 161   2.0000      -0.348166        -9.4741
 162   2.0000      -0.340244        -9.2585
 163   2.0000      -0.325910        -8.8684
 164   2.0000      -0.324055        -8.8180
 165   2.0000      -0.323216        -8.7952
 166   2.0000      -0.317643        -8.6435
 167   2.0000      -0.312764        -8.5107
 168   2.0000      -0.298182        -8.1139
 169   2.0000      -0.289296        -7.8721
 170   2.0000      -0.286038        -7.7835
 171   2.0000      -0.270373        -7.3572
 172   2.0000      -0.245316        -6.6754
 173   0.0000      -0.088099        -2.3973
 174   0.0000      -0.056577        -1.5395
 175   0.0000      -0.046392        -1.2624
 176   0.0000      -0.004248        -0.1156
 177   0.0000       0.004810         0.1309

MULLIKEN ATOMIC CHARGES
-----------------------
   0 C :    0.192190
   1 C :    0.031309
   2 C :    0.047271
   3 C :    0.178061
   4 C :   -0.026155
   5 C :   -0.027510
   6 N :   -0.292410
   7 S :    0.502412
   8 N :   -0.301945
   9 O :   -0.350487
  10 O :   -0.340914
  11 C :    0.176662
  12 C :    0.179772
  13 C :   -0.176811
  14 C :   -0.166443
  15 S :    0.181968
  16 C :   -0.093641
  17 C :    0.009583
  18 C :    0.000146
  19 C :    0.032978
  20 C :    0.009566
  21 C :   -0.057926
  22 S :    0.221211
  23 C :    0.070221
  24 C :   -0.181411
  25 C :    0.045055
  26 C :   -0.198524
  27 C :    0.229880
  28 N :   -0.244673
  29 C :    0.007826
  30 S :    0.112777
  31 S :    0.136829
  32 C :   -0.004571
  33 N :   -0.245929
  34 C :    0.239576
  35 O :   -0.183649
  36 C :    0.118264
  37 S :   -0.164135
  38 S :   -0.171047
  39 C :    0.122644
  40 O :   -0.191454
  41 H :    0.026981
  42 H :    0.049337
  43 H :    0.042405
  44 H :    0.043257
  45 H :    0.031658
  46 H :    0.043406
  47 H :    0.005632
  48 H :    0.007163
  49 H :   -0.019333
  50 H :   -0.007795
  51 H :    0.030755
  52 H :    0.005621
  53 H :    0.061425
  54 H :    0.048641
  55 H :    0.049056
  56 H :    0.049591
  57 H :    0.048041
  58 H :    0.057592
Sum of atomic charges:    0.0000000

LOEWDIN ATOMIC CHARGES
----------------------
   0 C :   -0.057684
   1 C :    0.034727
   2 C :    0.038520
   3 C :   -0.059163
   4 C :   -0.047435
   5 C :   -0.048895
   6 N :   -0.279377
   7 S :    0.621739
   8 N :   -0.287389
   9 O :   -0.119213
  10 O :   -0.115784
  11 C :    0.079443
  12 C :    0.084468
  13 C :   -0.159542
  14 C :   -0.158474
  15 S :    0.474890
  16 C :   -0.189547
  17 C :   -0.053828
  18 C :   -0.051112
  19 C :   -0.058096
  20 C :   -0.044179
  21 C :   -0.191981
  22 S :    0.513900
  23 C :   -0.007630
  24 C :   -0.218310
  25 C :   -0.001365
  26 C :   -0.224893
  27 C :    0.079436
  28 N :   -0.038968
  29 C :   -0.239850
  30 S :    0.376530
  31 S :    0.370920
  32 C :   -0.243385
  33 N :   -0.036879
  34 C :    0.074038
  35 O :   -0.172753
  36 C :    0.032771
  37 S :   -0.038313
  38 S :   -0.047343
  39 C :    0.032728
  40 O :   -0.179674
  41 H :    0.018625
  42 H :    0.018351
  43 H :    0.028182
  44 H :    0.028829
  45 H :    0.021686
  46 H :    0.018981
  47 H :    0.023052
  48 H :    0.033146
  49 H :    0.029886
  50 H :    0.031529
  51 H :    0.049914
  52 H :    0.045147
  53 H :    0.038422
  54 H :    0.032873
  55 H :    0.034309
  56 H :    0.032209
  57 H :    0.034376
  58 H :    0.037433

  Mayer bond orders larger than 0.100000
B(  0-C ,  1-C ) :   1.4602 B(  0-C ,  3-C ) :   0.1009 B(  0-C ,  5-C ) :   1.1285
B(  0-C , 13-C ) :   1.0895 B(  1-C ,  2-C ) :   1.1381 B(  1-C ,  9-O ) :   1.1180
B(  2-C ,  3-C ) :   1.4517 B(  2-C , 10-O ) :   1.1479 B(  3-C ,  4-C ) :   1.1264
B(  3-C , 14-C ) :   1.1091 B(  4-C ,  5-C ) :   1.1282 B(  4-C ,  6-N ) :   1.5625
B(  5-C ,  8-N ) :   1.5603 B(  6-N ,  7-S ) :   1.2294 B(  6-N ,  8-N ) :   0.1445
B(  7-S ,  8-N ) :   1.2240 B(  9-O , 12-C ) :   0.9026 B( 10-O , 11-C ) :   0.9007
B( 11-C , 41-H ) :   0.9663 B( 11-C , 42-H ) :   0.9672 B( 11-C , 43-H ) :   0.9813
B( 12-C , 44-H ) :   0.9829 B( 12-C , 45-H ) :   0.9666 B( 12-C , 46-H ) :   0.9708
B( 13-C , 15-S ) :   1.1589 B( 13-C , 16-C ) :   0.1001 B( 13-C , 18-C ) :   1.4707
B( 14-C , 19-C ) :   1.4415 B( 14-C , 22-S ) :   1.1383 B( 15-S , 16-C ) :   1.0994
B( 16-C , 17-C ) :   1.4506 B( 16-C , 23-C ) :   1.1145 B( 17-C , 18-C ) :   1.2943
B( 17-C , 47-H ) :   0.9791 B( 18-C , 48-H ) :   0.9875 B( 19-C , 20-C ) :   1.3002
B( 19-C , 49-H ) :   0.9900 B( 20-C , 21-C ) :   1.3989 B( 20-C , 50-H ) :   0.9951
B( 21-C , 22-S ) :   1.1025 B( 21-C , 25-C ) :   1.2084 B( 23-C , 24-C ) :   1.7531
B( 23-C , 51-H ) :   0.9431 B( 24-C , 27-C ) :   0.9599 B( 24-C , 30-S ) :   1.0169
B( 25-C , 26-C ) :   1.6860 B( 25-C , 52-H ) :   0.9437 B( 26-C , 31-S ) :   1.0257
B( 26-C , 34-C ) :   0.9679 B( 27-C , 28-N ) :   1.0339 B( 27-C , 35-O ) :   2.1496
B( 28-N , 29-C ) :   1.1489 B( 28-N , 36-C ) :   0.9387 B( 29-C , 30-S ) :   1.0371
B( 29-C , 37-S ) :   1.6899 B( 31-S , 32-C ) :   1.0552 B( 31-S , 38-S ) :   0.1001
B( 32-C , 33-N ) :   1.1387 B( 32-C , 38-S ) :   1.6779 B( 33-N , 34-C ) :   1.0520
B( 33-N , 39-C ) :   0.9397 B( 34-C , 40-O ) :   2.1059 B( 36-C , 53-H ) :   0.9573
B( 36-C , 54-H ) :   0.9684 B( 36-C , 55-H ) :   0.9741 B( 39-C , 56-H ) :   0.9652
B( 39-C , 57-H ) :   0.9760 B( 39-C , 58-H ) :   0.9576

-----------------------------------------------------------------------------
         ABSORPTION SPECTRUM VIA TRANSITION ELECTRIC DIPOLE MOMENTS
-----------------------------------------------------------------------------
State   Energy  Wavelength   fosc         T2         TX        TY        TZ
        (cm-1)    (nm)                  (au**2)     (au)      (au)      (au)
-----------------------------------------------------------------------------
   0   18776.8    532.6   1.502472600  26.34266   0.64718   5.09148   0.02565
   1   25442.2    393.0   0.151655541   1.96236  -1.12995   0.81500  -0.14607
   2   26595.8    376.0   0.338945193   4.19558   1.40789   1.48503   0.09007
   3   26963.7    370.9   0.004848109   0.05919   0.09127   0.21932   0.05256
   4   27039.5    369.8   0.271226716   3.30225   0.13361  -1.80707   0.13740
   5   27100.9    369.0   0.123956616   1.50578  -0.11517   1.22113  -0.03670
   6   31662.6    315.8   0.049725132   0.51702   0.51913   0.49592   0.03975
   7   32154.1    311.0   0.004199998   0.04300   0.13409   0.07498  -0.13928
   8   33051.1    302.6   0.160029459   1.59400  -1.21421  -0.21781   0.26881
   9   33987.6    294.2   0.099475459   0.96354  -0.95416   0.19185   0.12772
  10   34070.8    293.5   0.061796555   0.59711  -0.61386  -0.45920   0.09709
  11   34626.0    288.8   0.005847761   0.05560   0.22390   0.06674   0.03186
  12   34713.3    288.1   0.056273258   0.53368  -0.69275   0.22800  -0.04234
  13   35372.6    282.7   0.012262436   0.11413  -0.10379  -0.31468  -0.06581
  14   35914.6    278.4   0.020221701   0.18536   0.00317  -0.42779   0.04843
  15   36026.0    277.6   0.004461506   0.04077   0.01595  -0.20078   0.01422
  16   36486.0    274.1   0.085897227   0.77505  -0.58165  -0.65938  -0.04418
  17   37115.5    269.4   0.008631322   0.07656   0.01669  -0.26881   0.06344
  18   37488.4    266.7   0.052113022   0.45764   0.46913  -0.47307  -0.11735
  19   37917.8    263.7   0.128301810   1.11395  -0.11307   1.04906  -0.02503
  20   38054.7    262.8   0.046411600   0.40151   0.40406  -0.47711  -0.10299
  21   39376.7    254.0   0.009421925   0.07877  -0.24919   0.12906   0.00432
  22   40032.7    249.8   0.019146248   0.15745   0.27612  -0.27960  -0.05507
  23   40143.1    249.1   0.001853601   0.01520   0.08763  -0.07570   0.04232

FINAL SINGLE POINT ENERGY     -4306.140697240976

DIPOLE MOMENT
-------------
                                X             Y             Z
Electronic contribution:    -15.58441      -8.93474       5.07404
Nuclear contribution   :     17.38693       8.74447      -5.21863
                        -----------------------------------------
Total Dipole Moment    :      1.80252      -0.19027      -0.14459
                        -----------------------------------------
Magnitude (a.u.)       :      1.81829
Magnitude (Debye)      :      4.62173

Rotational constants in cm-1:     0.005786     0.000582     0.000533
Rotational constants in MHz :   173.466136    17.458315    15.993395

                             ****ORCA TERMINATED NORMALLY****
TOTAL RUN TIME: 0 days 0 hours 21 minutes 20 seconds 420 msec
