                         Program Version 4.2.0 -  RELEASE  -
|  1> # ORCA input file
|  2> # BTDT2R.out
|  3> ! CAM-B3LYP def2-SVP def2/J RIJCOSX Grid4 TightSCF
|  4> %maxcore 5000
|  5> %tddft
|  6>     Mode sTDDFT
|  7>     Ethresh 5.0
|  8>     maxcore 5000
|  9> end
| 10> * xyz 0 1
| 11>    C        1.06622         1.91889        -0.01797
| 12>    C        2.28948         1.24158        -0.14673
| 13>    C        2.35738        -0.17822        -0.15810
| 14>    C        1.22552        -0.99446        -0.15792
| 15>    C       -0.01907        -0.32231        -0.06716
| 16>    C       -0.09171         1.10415         0.02443
| 17>    N       -1.22235        -0.88546        -0.03816
| 18>    S       -2.33868         0.25810         0.09811
| 19>    N       -1.34955         1.52863         0.12363
| 20>    O        3.40778         2.00682        -0.21691
| 21>    O        3.61264        -0.76062        -0.12632
| 22>    C        4.06782        -1.02261         1.18978
| 23>    C        4.51087         1.60269        -1.01186
| 24>    C        0.92259         3.34394         0.05948
| 25>    C        1.25176        -2.42893        -0.22113
| 26>    S       -0.66138         4.04829         0.05312
| 27>    C       -0.00013         5.65972         0.15107
| 28>    C        1.38467         5.61789         0.19721
| 29>    C        1.89533         4.32841         0.14876
| 30>    C        2.30754        -3.25617        -0.58093
| 31>    C        1.97318        -4.59660        -0.54526
| 32>    C        0.65502        -4.83470        -0.15834
| 33>    S       -0.17739        -3.33694         0.14827
| 34>    C       -0.88511         6.75736         0.18388
| 35>    C       -0.59114         8.08094         0.25885
| 36>    C        0.11548        -6.13323        -0.06476
| 37>    C       -1.14345        -6.54007         0.25844
| 38>    C       -1.64321         9.09550         0.29173
| 39>    N       -1.08255        10.36144         0.37515
| 40>    C        0.26978        10.44456         0.40673
| 41>    S        0.98387         8.83646         0.33267
| 42>    S       -1.57023        -8.24410         0.28078
| 43>    C       -3.23074        -7.88087         0.72036
| 44>    N       -3.39848        -6.53842         0.83629
| 45>    C       -2.29801        -5.73040         0.60648
| 46>    O       -2.83669         8.89547         0.25478
| 47>    C       -1.91058        11.54069         0.42745
| 48>    S        1.12084        11.83206         0.50046
| 49>    S       -4.40306        -8.98953         0.95794
| 50>    C       -4.67708        -5.97107         1.18703
| 51>    O       -2.34588        -4.51891         0.69925
| 52>    H        3.39113        -1.70516         1.71283
| 53>    H        4.16103        -0.09734         1.76805
| 54>    H        5.04559        -1.48848         1.08361
| 55>    H        4.95744         2.52823        -1.37933
| 56>    H        4.19587         0.98871        -1.85581
| 57>    H        5.25059         1.05639        -0.42368
| 58>    H        2.00147         6.49543         0.26760
| 59>    H        2.94366         4.10588         0.18912
| 60>    H        3.27107        -2.88540        -0.87713
| 61>    H        2.65346        -5.39163        -0.79588
| 62>    H       -1.94427         6.52936         0.14628
| 63>    H        0.82089        -6.92416        -0.29584
| 64>    H       -2.94701        11.20872         0.39080
| 65>    H       -1.68981        12.19081        -0.41984
| 66>    H       -1.72004        12.09017         1.35001
| 67>    H       -5.00196        -6.35271         2.15548
| 68>    H       -5.42215        -6.23972         0.43733
| 69>    H       -4.55154        -4.89020         1.22691
| 70> *
| 71>
| 72>                          ****END OF INPUT****

CARTESIAN COORDINATES (ANGSTROEM)
---------------------------------
  C      1.066220    1.918890   -0.017970
  C      2.289480    1.241580   -0.146730
  C      2.357380   -0.178220   -0.158100
  C      1.225520   -0.994460   -0.157920
  C     -0.019070   -0.322310   -0.067160
  C     -0.091710    1.104150    0.024430
  N     -1.222350   -0.885460   -0.038160
  S     -2.338680    0.258100    0.098110
  N     -1.349550    1.528630    0.123630
  O      3.407780    2.006820   -0.216910
  O      3.612640   -0.760620   -0.126320
  C      4.067820   -1.022610    1.189780
  C      4.510870    1.602690   -1.011860
  C      0.922590    3.343940    0.059480
  C      1.251760   -2.428930   -0.221130
  S     -0.661380    4.048290    0.053120
  C     -0.000130    5.659720    0.151070
  C      1.384670    5.617890    0.197210
  C      1.895330    4.328410    0.148760
  C      2.307540   -3.256170   -0.580930
  C      1.973180   -4.596600   -0.545260
  C      0.655020   -4.834700   -0.158340
  S     -0.177390   -3.336940    0.148270
  C     -0.885110    6.757360    0.183880
  C     -0.591140    8.080940    0.258850
  C      0.115480   -6.133230   -0.064760
  C     -1.143450   -6.540070    0.258440
  C     -1.643210    9.095500    0.291730
  N     -1.082550   10.361440    0.375150
  C      0.269780   10.444560    0.406730
  S      0.983870    8.836460    0.332670
  S     -1.570230   -8.244100    0.280780
  C     -3.230740   -7.880870    0.720360
  N     -3.398480   -6.538420    0.836290
  C     -2.298010   -5.730400    0.606480
  O     -2.836690    8.895470    0.254780
  C     -1.910580   11.540690    0.427450
  S      1.120840   11.832060    0.500460
  S     -4.403060   -8.989530    0.957940
  C     -4.677080   -5.971070    1.187030
  O     -2.345880   -4.518910    0.699250
  H      3.391130   -1.705160    1.712830
  H      4.161030   -0.097340    1.768050
  H      5.045590   -1.488480    1.083610
  H      4.957440    2.528230   -1.379330
  H      4.195870    0.988710   -1.855810
  H      5.250590    1.056390   -0.423680
  H      2.001470    6.495430    0.267600
  H      2.943660    4.105880    0.189120
  H      3.271070   -2.885400   -0.877130
  H      2.653460   -5.391630   -0.795880
  H     -1.944270    6.529360    0.146280
  H      0.820890   -6.924160   -0.295840
  H     -2.947010   11.208720    0.390800
  H     -1.689810   12.190810   -0.419840
  H     -1.720040   12.090170    1.350010
  H     -5.001960   -6.352710    2.155480
  H     -5.422150   -6.239720    0.437330
  H     -4.551540   -4.890200    1.226910

 Total Charge           Charge          ....    0
 Multiplicity           Mult            ....    1
 Number of Electrons    NEL             ....  346
 Basis Dimension        Dim             ....  692

ORBITAL ENERGIES
----------------

  NO   OCC          E(Eh)            E(eV)
   0   2.0000     -89.028767     -2422.5959
   1   2.0000     -88.959387     -2420.7080
   2   2.0000     -88.956361     -2420.6256
   3   2.0000     -88.954123     -2420.5647
   4   2.0000     -88.952080     -2420.5092
   5   2.0000     -88.881911     -2418.5998
   6   2.0000     -88.879359     -2418.5303
   7   2.0000     -19.263437      -524.1848
   8   2.0000     -19.255591      -523.9713
   9   2.0000     -19.212236      -522.7915
  10   2.0000     -19.199603      -522.4478
  11   2.0000     -14.476669      -393.9302
  12   2.0000     -14.469853      -393.7447
  13   2.0000     -14.443666      -393.0321
  14   2.0000     -14.441736      -392.9796
  15   2.0000     -10.397617      -282.9336
  16   2.0000     -10.386839      -282.6403
  17   2.0000     -10.378687      -282.4184
  18   2.0000     -10.374557      -282.3060
  19   2.0000     -10.362182      -281.9693
  20   2.0000     -10.355662      -281.7919
  21   2.0000     -10.333662      -281.1932
  22   2.0000     -10.331106      -281.1237
  23   2.0000     -10.329724      -281.0861
  24   2.0000     -10.329333      -281.0754
  25   2.0000     -10.316927      -280.7379
  26   2.0000     -10.315998      -280.7126
  27   2.0000     -10.310704      -280.5685
  28   2.0000     -10.309074      -280.5242
  29   2.0000     -10.306978      -280.4671
  30   2.0000     -10.305849      -280.4364
  31   2.0000     -10.304392      -280.3968
  32   2.0000     -10.303727      -280.3787
  33   2.0000     -10.303703      -280.3780
  34   2.0000     -10.300085      -280.2796
  35   2.0000     -10.298471      -280.2356
  36   2.0000     -10.295730      -280.1610
  37   2.0000     -10.281366      -279.7702
  38   2.0000     -10.275216      -279.6028
  39   2.0000     -10.274613      -279.5864
  40   2.0000     -10.270222      -279.4669
  41   2.0000      -8.120051      -220.9578
  42   2.0000      -8.056356      -219.2246
  43   2.0000      -8.052750      -219.1265
  44   2.0000      -8.047298      -218.9781
  45   2.0000      -8.046604      -218.9592
  46   2.0000      -7.979153      -217.1238
  47   2.0000      -7.976699      -217.0570
  48   2.0000      -6.091325      -165.7534
  49   2.0000      -6.083689      -165.5456
  50   2.0000      -6.082305      -165.5079
  51   2.0000      -6.026149      -163.9799
  52   2.0000      -6.022545      -163.8818
  53   2.0000      -6.022309      -163.8754
  54   2.0000      -6.018508      -163.7719
  55   2.0000      -6.016646      -163.7213
  56   2.0000      -6.016628      -163.7208
  57   2.0000      -6.015933      -163.7019
  58   2.0000      -6.013315      -163.6306
  59   2.0000      -6.011983      -163.5944
  60   2.0000      -6.011548      -163.5825
  61   2.0000      -6.009629      -163.5303
  62   2.0000      -6.008828      -163.5085
  63   2.0000      -5.949000      -161.8805
  64   2.0000      -5.946550      -161.8139
  65   2.0000      -5.945551      -161.7867
  66   2.0000      -5.943163      -161.7217
  67   2.0000      -5.939282      -161.6161
  68   2.0000      -5.936710      -161.5461
  69   2.0000      -1.176006       -32.0008
  70   2.0000      -1.155816       -31.4513
  71   2.0000      -1.149470       -31.2787
  72   2.0000      -1.144439       -31.1418
  73   2.0000      -1.131033       -30.7770
  74   2.0000      -1.079927       -29.3863
  75   2.0000      -1.071951       -29.1693
  76   2.0000      -0.997683       -27.1483
  77   2.0000      -0.990545       -26.9541
  78   2.0000      -0.975626       -26.5481
  79   2.0000      -0.961819       -26.1724
  80   2.0000      -0.944995       -25.7146
  81   2.0000      -0.937496       -25.5106
  82   2.0000      -0.897389       -24.4192
  83   2.0000      -0.885255       -24.0890
  84   2.0000      -0.876114       -23.8403
  85   2.0000      -0.869811       -23.6688
  86   2.0000      -0.858205       -23.3529
  87   2.0000      -0.846796       -23.0425
  88   2.0000      -0.832897       -22.6643
  89   2.0000      -0.829287       -22.5661
  90   2.0000      -0.814326       -22.1589
  91   2.0000      -0.806174       -21.9371
  92   2.0000      -0.799485       -21.7551
  93   2.0000      -0.793845       -21.6016
  94   2.0000      -0.788692       -21.4614
  95   2.0000      -0.775260       -21.0959
  96   2.0000      -0.745850       -20.2956
  97   2.0000      -0.729063       -19.8388
  98   2.0000      -0.720274       -19.5997
  99   2.0000      -0.707892       -19.2627
 100   2.0000      -0.702538       -19.1170
 101   2.0000      -0.692655       -18.8481
 102   2.0000      -0.686352       -18.6766
 103   2.0000      -0.663384       -18.0516
 104   2.0000      -0.650202       -17.6929
 105   2.0000      -0.643087       -17.4993
 106   2.0000      -0.633188       -17.2299
 107   2.0000      -0.626130       -17.0379
 108   2.0000      -0.619678       -16.8623
 109   2.0000      -0.611501       -16.6398
 110   2.0000      -0.608824       -16.5669
 111   2.0000      -0.590400       -16.0656
 112   2.0000      -0.588668       -16.0185
 113   2.0000      -0.579886       -15.7795
 114   2.0000      -0.577698       -15.7200
 115   2.0000      -0.576265       -15.6810
 116   2.0000      -0.570236       -15.5169
 117   2.0000      -0.569204       -15.4888
 118   2.0000      -0.560440       -15.2503
 119   2.0000      -0.555624       -15.1193
 120   2.0000      -0.551879       -15.0174
 121   2.0000      -0.549355       -14.9487
 122   2.0000      -0.546193       -14.8627
 123   2.0000      -0.533163       -14.5081
 124   2.0000      -0.529546       -14.4097
 125   2.0000      -0.524640       -14.2762
 126   2.0000      -0.517111       -14.0713
 127   2.0000      -0.514419       -13.9980
 128   2.0000      -0.501010       -13.6332
 129   2.0000      -0.497524       -13.5383
 130   2.0000      -0.497112       -13.5271
 131   2.0000      -0.492509       -13.4018
 132   2.0000      -0.488614       -13.2958
 133   2.0000      -0.484772       -13.1913
 134   2.0000      -0.481981       -13.1154
 135   2.0000      -0.481122       -13.0920
 136   2.0000      -0.477042       -12.9810
 137   2.0000      -0.475561       -12.9407
 138   2.0000      -0.471581       -12.8324
 139   2.0000      -0.463183       -12.6038
 140   2.0000      -0.459351       -12.4996
 141   2.0000      -0.456006       -12.4086
 142   2.0000      -0.453845       -12.3498
 143   2.0000      -0.449717       -12.2374
 144   2.0000      -0.445358       -12.1188
 145   2.0000      -0.444325       -12.0907
 146   2.0000      -0.440717       -11.9925
 147   2.0000      -0.437517       -11.9055
 148   2.0000      -0.435046       -11.8382
 149   2.0000      -0.430117       -11.7041
 150   2.0000      -0.428753       -11.6670
 151   2.0000      -0.424331       -11.5466
 152   2.0000      -0.419293       -11.4095
 153   2.0000      -0.405548       -11.0355
 154   2.0000      -0.398459       -10.8426
 155   2.0000      -0.393851       -10.7172
 156   2.0000      -0.385028       -10.4772
 157   2.0000      -0.368468       -10.0265
 158   2.0000      -0.360249        -9.8029
 159   2.0000      -0.354563        -9.6482
 160   2.0000      -0.350426        -9.5356
 161   2.0000      -0.342158        -9.3106
 162   2.0000      -0.339594        -9.2408
 163   2.0000      -0.327555        -8.9132
 164   2.0000      -0.320309        -8.7161
 165   2.0000      -0.319384        -8.6909
 166   2.0000      -0.317542        -8.6408
 167   2.0000      -0.311813        -8.4849
 168   2.0000      -0.295428        -8.0390
 169   2.0000      -0.286590        -7.7985
 170   2.0000      -0.283467        -7.7135
 171   2.0000      -0.267355        -7.2751
 172   2.0000      -0.240686        -6.5494
 173   0.0000      -0.089349        -2.4313
 174   0.0000      -0.054301        -1.4776
 175   0.0000      -0.043629        -1.1872
 176   0.0000      -0.000242        -0.0066
 177   0.0000       0.009821         0.2672

MULLIKEN ATOMIC CHARGES
-----------------------
   0 C :    0.149282
   1 C :    0.109934
   2 C :   -0.022182
   3 C :    0.203289
   4 C :   -0.027631
   5 C :   -0.002340
   6 N :   -0.291145
   7 S :    0.529281
   8 N :   -0.326391
   9 O :   -0.323762
  10 O :   -0.364618
  11 C :    0.196552
  12 C :    0.206919
  13 C :   -0.147602
  14 C :   -0.172749
  15 S :    0.167101
  16 C :   -0.078443
  17 C :    0.020383
  18 C :    0.000158
  19 C :    0.019224
  20 C :    0.022543
  21 C :   -0.048506
  22 S :    0.218201
  23 C :    0.072809
  24 C :   -0.182025
  25 C :    0.057267
  26 C :   -0.207268
  27 C :    0.210727
  28 N :   -0.215192
  29 C :    0.003362
  30 S :    0.111921
  31 S :    0.136672
  32 C :   -0.010998
  33 N :   -0.219136
  34 C :    0.241405
  35 O :   -0.187633
  36 C :    0.131138
  37 S :   -0.178578
  38 S :   -0.178323
  39 C :    0.132264
  40 O :   -0.204513
  41 H :    0.036220
  42 H :    0.025952
  43 H :    0.038390
  44 H :    0.032615
  45 H :    0.031968
  46 H :    0.021992
  47 H :   -0.008796
  48 H :   -0.009098
  49 H :   -0.006694
  50 H :   -0.020245
  51 H :    0.019148
  52 H :   -0.001958
  53 H :    0.056134
  54 H :    0.043854
  55 H :    0.043282
  56 H :    0.044364
  57 H :    0.045763
  58 H :    0.055715
Sum of atomic charges:    0.0000000

LOEWDIN ATOMIC CHARGES
----------------------
   0 C :   -0.070923
   1 C :    0.052986
   2 C :    0.027127
   3 C :   -0.053772
   4 C :   -0.054188
   5 C :   -0.047121
   6 N :   -0.285606
   7 S :    0.650056
   8 N :   -0.304267
   9 O :   -0.092593
  10 O :   -0.126650
  11 C :    0.080647
  12 C :    0.085492
  13 C :   -0.156251
  14 C :   -0.171004
  15 S :    0.486956
  16 C :   -0.194416
  17 C :   -0.049378
  18 C :   -0.051573
  19 C :   -0.057113
  20 C :   -0.041741
  21 C :   -0.193034
  22 S :    0.542893
  23 C :   -0.003932
  24 C :   -0.223235
  25 C :    0.001659
  26 C :   -0.227694
  27 C :    0.065426
  28 N :   -0.023915
  29 C :   -0.249800
  30 S :    0.384477
  31 S :    0.380469
  32 C :   -0.254115
  33 N :   -0.020832
  34 C :    0.064484
  35 O :   -0.178964
  36 C :    0.032913
  37 S :   -0.040921
  38 S :   -0.042879
  39 C :    0.032336
  40 O :   -0.186183
  41 H :    0.019994
  42 H :    0.017004
  43 H :    0.026521
  44 H :    0.023064
  45 H :    0.021815
  46 H :    0.016069
  47 H :    0.018407
  48 H :    0.028753
  49 H :    0.027906
  50 H :    0.028070
  51 H :    0.045657
  52 H :    0.042887
  53 H :    0.036165
  54 H :    0.031312
  55 H :    0.031210
  56 H :    0.031674
  57 H :    0.032302
  58 H :    0.035371

  Mayer bond orders larger than 0.100000
B(  0-C ,  1-C ) :   1.4019 B(  0-C ,  3-C ) :   0.1128 B(  0-C ,  5-C ) :   1.1711
B(  0-C , 13-C ) :   1.1222 B(  1-C ,  2-C ) :   1.1559 B(  1-C ,  9-O ) :   1.1998
B(  2-C ,  3-C ) :   1.4247 B(  2-C , 10-O ) :   1.1045 B(  3-C ,  4-C ) :   1.1392
B(  3-C , 14-C ) :   1.1156 B(  4-C ,  5-C ) :   1.1568 B(  4-C ,  6-N ) :   1.5242
B(  5-C ,  8-N ) :   1.5016 B(  6-N ,  7-S ) :   1.2639 B(  6-N ,  8-N ) :   0.1453
B(  7-S ,  8-N ) :   1.2456 B(  9-O , 12-C ) :   0.9206 B( 10-O , 11-C ) :   0.9188
B( 11-C , 41-H ) :   0.9674 B( 11-C , 42-H ) :   0.9688 B( 11-C , 43-H ) :   0.9822
B( 12-C , 44-H ) :   0.9769 B( 12-C , 45-H ) :   0.9730 B( 12-C , 46-H ) :   0.9771
B( 13-C , 15-S ) :   1.1614 B( 13-C , 18-C ) :   1.4527 B( 14-C , 19-C ) :   1.4190
B( 14-C , 22-S ) :   1.1414 B( 15-S , 16-C ) :   1.0845 B( 16-C , 17-C ) :   1.4384
B( 16-C , 23-C ) :   1.1346 B( 17-C , 18-C ) :   1.2975 B( 17-C , 47-H ) :   0.9838
B( 18-C , 48-H ) :   0.9929 B( 19-C , 20-C ) :   1.3116 B( 19-C , 49-H ) :   0.9958
B( 20-C , 21-C ) :   1.3749 B( 20-C , 50-H ) :   1.0029 B( 21-C , 22-S ) :   1.1047
B( 21-C , 25-C ) :   1.2286 B( 23-C , 24-C ) :   1.7295 B( 23-C , 51-H ) :   0.9452
B( 24-C , 27-C ) :   0.9709 B( 24-C , 30-S ) :   1.0157 B( 25-C , 26-C ) :   1.6482
B( 25-C , 52-H ) :   0.9521 B( 26-C , 31-S ) :   1.0272 B( 26-C , 34-C ) :   0.9888
B( 27-C , 28-N ) :   1.0523 B( 27-C , 35-O ) :   2.1505 B( 28-N , 29-C ) :   1.1582
B( 28-N , 36-C ) :   0.9450 B( 29-C , 30-S ) :   1.0430 B( 29-C , 37-S ) :   1.6794
B( 31-S , 32-C ) :   1.0581 B( 31-S , 38-S ) :   0.1012 B( 32-C , 33-N ) :   1.1470
B( 32-C , 38-S ) :   1.6730 B( 33-N , 34-C ) :   1.0758 B( 33-N , 39-C ) :   0.9457
B( 34-C , 40-O ) :   2.0595 B( 36-C , 53-H ) :   0.9548 B( 36-C , 54-H ) :   0.9704
B( 36-C , 55-H ) :   0.9704 B( 39-C , 56-H ) :   0.9697 B( 39-C , 57-H ) :   0.9700
B( 39-C , 58-H ) :   0.9537

-----------------------------------------------------------------------------
         ABSORPTION SPECTRUM VIA TRANSITION ELECTRIC DIPOLE MOMENTS
-----------------------------------------------------------------------------
State   Energy  Wavelength   fosc         T2         TX        TY        TZ
        (cm-1)    (nm)                  (au**2)     (au)      (au)      (au)
-----------------------------------------------------------------------------
   0   17553.5    569.7   1.400462856  26.26540  -0.45401  -5.10483  -0.00543
   1   24468.2    408.7   0.141487931   1.90368   1.34258   0.01866  -0.31752
   2   25868.3    386.6   0.249230426   3.17182  -1.42045  -1.02002   0.33719
   3   26626.1    375.6   0.000567985   0.00702   0.02875   0.02250  -0.07543
   4   26710.8    374.4   0.573599712   7.06965   0.40241  -2.62583  -0.11283
   5   26830.8    372.7   0.000929558   0.01141   0.02302  -0.09052  -0.05179
   6   30418.2    328.8   0.101156914   1.09481  -0.91197  -0.50561   0.08648
   7   31179.6    320.7   0.108786708   1.14863   1.04040   0.23216  -0.11094
   8   32183.0    310.7   0.024976385   0.25549  -0.49328  -0.09196  -0.06094
   9   32540.0    307.3   0.003721006   0.03765  -0.02606  -0.08568   0.17212
  10   33190.1    301.3   0.073306674   0.72713   0.79663   0.17250  -0.25048
  11   33720.8    296.6   0.071490478   0.69795  -0.81474   0.07618   0.16838
  12   34593.7    289.1   0.000300418   0.00286   0.05111  -0.00632  -0.01439
  13   34913.6    286.4   0.010347137   0.09757   0.11481  -0.28124  -0.07273
  14   35022.9    285.5   0.001213452   0.01141  -0.00518   0.08762  -0.06085
  15   35362.1    282.8   0.012771886   0.11890  -0.27021   0.21054  -0.03955
  16   35690.4    280.2   0.001100302   0.01015  -0.07785   0.05144  -0.03799
  17   36407.4    274.7   0.115610856   1.04541  -0.73379  -0.71190  -0.01239
  18   37453.3    267.0   0.157224055   1.38199   0.32013  -1.12311  -0.13464
  19   37607.7    265.9   0.001380998   0.01209  -0.01939   0.09583  -0.05029
  20   37693.7    265.3   0.072827830   0.63607  -0.25781  -0.75023  -0.08222
  21   39065.1    256.0   0.003006454   0.02534   0.12942  -0.09032  -0.02070
  22   39558.7    252.8   0.007595858   0.06321  -0.04700   0.24687  -0.00765
  23   39730.9    251.7   0.035085057   0.29072   0.19200  -0.50374  -0.01007
  24   40282.9    248.2   0.044488733   0.36358  -0.03584   0.59001   0.11911

FINAL SINGLE POINT ENERGY     -4306.126002174873

DIPOLE MOMENT
-------------
                                X             Y             Z
Electronic contribution:    -16.69919      -7.11683      -0.91173
Nuclear contribution   :     18.67940       5.83881       0.74908
                        -----------------------------------------
Total Dipole Moment    :      1.98020      -1.27802      -0.16265
                        -----------------------------------------
Magnitude (a.u.)       :      2.36241
Magnitude (Debye)      :      6.00477

Rotational constants in cm-1:     0.005295     0.000627     0.000564
Rotational constants in MHz :   158.741716    18.790646    16.898589

                             ****ORCA TERMINATED NORMALLY****
TOTAL RUN TIME: 0 days 0 hours 21 minutes 9 seconds 56 msec
