                         Program Version 4.2.0 -  RELEASE  -
|  1> # ORCA input file
|  2> # BTN-4F.out
|  3> ! CAM-B3LYP def2-SVP def2/J RIJCOSX Grid4 TightSCF
|  4> %maxcore 5000
|  5> %tddft
|  6>     Mode sTDDFT
|  7>     Ethresh 5.0
|  8>     maxcore 5000
|  9> end
| 10> * xyz 0 1
| 11>    C        0.58201        -0.50816         0.07026
| 12>    C        1.33094         0.67444        -0.02338
| 13>    C        2.79271         0.63292        -0.01305
| 14>    C        3.38164        -0.60516         0.17204
| 15>    C        2.64499        -1.81398         0.31162
| 16>    C        1.21909        -1.77036         0.24538
| 17>    N        3.19694        -3.00874         0.48909
| 18>    S        1.86025        -4.03543         0.58295
| 19>    N        0.59417        -2.93359         0.38084
| 20>    N        3.92151         1.52608        -0.13753
| 21>    C        5.11271         0.76843        -0.02893
| 22>    C        4.77600        -0.54996         0.22017
| 23>    C       -0.82319        -0.29359        -0.00469
| 24>    C       -0.94020         1.05869        -0.07294
| 25>    N        0.34019         1.65610        -0.08585
| 26>    N       -2.12617        -0.84360        -0.05968
| 27>    C       -3.08342         0.19449        -0.08985
| 28>    C       -2.33364         1.38529        -0.10676
| 29>    C        6.54091         1.01356        -0.13017
| 30>    C        7.33158        -0.09005         0.11602
| 31>    S        6.24100        -1.39751         0.43817
| 32>    S        7.49867         2.35761        -0.60371
| 33>    C        9.08345         1.40555        -0.49303
| 34>    C        8.75142         0.11498        -0.04160
| 35>    C        0.48557         3.08666        -0.09441
| 36>    C       -4.55690         0.11968        -0.25134
| 37>    C       -5.53120        -0.69131         0.23485
| 38>    C       10.30785         1.81530        -1.24155
| 39>    C       11.65417         1.91873        -0.99377
| 40>    C       -5.28315        -1.95910         1.02498
| 41>    C       -6.34006        -2.90773         0.60739
| 42>    C       -7.31659        -2.23415        -0.13691
| 43>    C       -7.03519        -0.76679        -0.07304
| 44>    C       12.38276         0.96792        -1.99475
| 45>    C       13.23458         0.08606        -1.13490
| 46>    C       13.26613         0.62288         0.16136
| 47>    C       12.75394         1.99436         0.06304
| 48>    C       -6.34670        -4.28634         0.76954
| 49>    C       -7.33746        -5.00516         0.10316
| 50>    C       -8.26909        -4.35768        -0.71342
| 51>    C       -8.26151        -2.96951        -0.84971
| 52>    C       13.72198        -1.17667        -1.41056
| 53>    C       14.10334        -1.95183        -0.31406
| 54>    C       13.98674        -1.46863         1.00062
| 55>    C       13.59150        -0.15686         1.25593
| 56>    O       -4.42176        -2.19731         1.84206
| 57>    C       -8.07607         0.14102        -0.03636
| 58>    C       -7.80643         1.63690        -0.03189
| 59>    C       -9.50634        -0.37340        -0.04702
| 60>    F       -7.36449        -6.34039         0.20851
| 61>    F       -9.17150        -5.07106        -1.40110
| 62>    O       12.24394         0.88423        -3.19483
| 63>    C       13.70330         3.02265         0.06162
| 64>    C       13.25020         4.33089        -0.31552
| 65>    C       15.21654         2.88001         0.07322
| 66>    F       14.20938        -2.29010         2.03584
| 67>    F       14.51897        -3.20884        -0.51907
| 68>    N      -10.69286        -0.80014        -0.05585
| 69>    N       -7.58275         2.87786        -0.02818
| 70>    N       16.47191         2.76168         0.08284
| 71>    N       12.87209         5.37648        -0.62700
| 72>    C        9.62678        -1.08579         0.05593
| 73>    C        3.84108         2.95829        -0.23916
| 74>    C       -2.32625        -2.26499        -0.21084
| 75>    H       -2.76103         2.37748        -0.16273
| 76>    H       -0.50017         3.56169        -0.08672
| 77>    H        1.01126         3.37854        -1.00363
| 78>    H        1.02416         3.38635         0.80570
| 79>    H       -4.91933         0.92587        -0.89194
| 80>    H       10.07470         1.70483        -2.30946
| 81>    H       -5.59081        -4.79895         1.35326
| 82>    H       -8.98053        -2.51980        -1.52800
| 83>    H       13.74187        -1.58307        -2.41446
| 84>    H       13.47299         0.18968         2.27729
| 85>    H       10.68346        -0.82313         0.06126
| 86>    H        9.44831        -1.75418        -0.79468
| 87>    H        9.42354        -1.64296         0.97675
| 88>    H        4.83301         3.40560        -0.25162
| 89>    H        3.30318         3.33231         0.63519
| 90>    H        3.31388         3.21356        -1.16021
| 91>    H       -1.61017        -2.65248        -0.93965
| 92>    H       -3.32074        -2.47165        -0.60445
| 93>    H       -2.18101        -2.74432         0.76055
| 94> *
| 95>
| 96>                          ****END OF INPUT****

CARTESIAN COORDINATES (ANGSTROEM)
---------------------------------
  C      0.582010   -0.508160    0.070260
  C      1.330940    0.674440   -0.023380
  C      2.792710    0.632920   -0.013050
  C      3.381640   -0.605160    0.172040
  C      2.644990   -1.813980    0.311620
  C      1.219090   -1.770360    0.245380
  N      3.196940   -3.008740    0.489090
  S      1.860250   -4.035430    0.582950
  N      0.594170   -2.933590    0.380840
  N      3.921510    1.526080   -0.137530
  C      5.112710    0.768430   -0.028930
  C      4.776000   -0.549960    0.220170
  C     -0.823190   -0.293590   -0.004690
  C     -0.940200    1.058690   -0.072940
  N      0.340190    1.656100   -0.085850
  N     -2.126170   -0.843600   -0.059680
  C     -3.083420    0.194490   -0.089850
  C     -2.333640    1.385290   -0.106760
  C      6.540910    1.013560   -0.130170
  C      7.331580   -0.090050    0.116020
  S      6.241000   -1.397510    0.438170
  S      7.498670    2.357610   -0.603710
  C      9.083450    1.405550   -0.493030
  C      8.751420    0.114980   -0.041600
  C      0.485570    3.086660   -0.094410
  C     -4.556900    0.119680   -0.251340
  C     -5.531200   -0.691310    0.234850
  C     10.307850    1.815300   -1.241550
  C     11.654170    1.918730   -0.993770
  C     -5.283150   -1.959100    1.024980
  C     -6.340060   -2.907730    0.607390
  C     -7.316590   -2.234150   -0.136910
  C     -7.035190   -0.766790   -0.073040
  C     12.382760    0.967920   -1.994750
  C     13.234580    0.086060   -1.134900
  C     13.266130    0.622880    0.161360
  C     12.753940    1.994360    0.063040
  C     -6.346700   -4.286340    0.769540
  C     -7.337460   -5.005160    0.103160
  C     -8.269090   -4.357680   -0.713420
  C     -8.261510   -2.969510   -0.849710
  C     13.721980   -1.176670   -1.410560
  C     14.103340   -1.951830   -0.314060
  C     13.986740   -1.468630    1.000620
  C     13.591500   -0.156860    1.255930
  O     -4.421760   -2.197310    1.842060
  C     -8.076070    0.141020   -0.036360
  C     -7.806430    1.636900   -0.031890
  C     -9.506340   -0.373400   -0.047020
  F     -7.364490   -6.340390    0.208510
  F     -9.171500   -5.071060   -1.401100
  O     12.243940    0.884230   -3.194830
  C     13.703300    3.022650    0.061620
  C     13.250200    4.330890   -0.315520
  C     15.216540    2.880010    0.073220
  F     14.209380   -2.290100    2.035840
  F     14.518970   -3.208840   -0.519070
  N    -10.692860   -0.800140   -0.055850
  N     -7.582750    2.877860   -0.028180
  N     16.471910    2.761680    0.082840
  N     12.872090    5.376480   -0.627000
  C      9.626780   -1.085790    0.055930
  C      3.841080    2.958290   -0.239160
  C     -2.326250   -2.264990   -0.210840
  H     -2.761030    2.377480   -0.162730
  H     -0.500170    3.561690   -0.086720
  H      1.011260    3.378540   -1.003630
  H      1.024160    3.386350    0.805700
  H     -4.919330    0.925870   -0.891940
  H     10.074700    1.704830   -2.309460
  H     -5.590810   -4.798950    1.353260
  H     -8.980530   -2.519800   -1.528000
  H     13.741870   -1.583070   -2.414460
  H     13.472990    0.189680    2.277290
  H     10.683460   -0.823130    0.061260
  H      9.448310   -1.754180   -0.794680
  H      9.423540   -1.642960    0.976750
  H      4.833010    3.405600   -0.251620
  H      3.303180    3.332310    0.635190
  H      3.313880    3.213560   -1.160210
  H     -1.610170   -2.652480   -0.939650
  H     -3.320740   -2.471650   -0.604450
  H     -2.181010   -2.744320    0.760550

 Total Charge           Charge          ....    0
 Multiplicity           Mult            ....    1
 Number of Electrons    NEL             ....  458
 Basis Dimension        Dim             .... 1003

ORBITAL ENERGIES
----------------

  NO   OCC          E(Eh)            E(eV)
   0   2.0000     -88.997942     -2421.7571
   1   2.0000     -88.967735     -2420.9351
   2   2.0000     -88.958892     -2420.6945
   3   2.0000     -24.815903      -675.2751
   4   2.0000     -24.811263      -675.1488
   5   2.0000     -24.809082      -675.0894
   6   2.0000     -24.808611      -675.0766
   7   2.0000     -19.242248      -523.6082
   8   2.0000     -19.232393      -523.3400
   9   2.0000     -14.484048      -394.1310
  10   2.0000     -14.474558      -393.8727
  11   2.0000     -14.469892      -393.7458
  12   2.0000     -14.462841      -393.5539
  13   2.0000     -14.457933      -393.4204
  14   2.0000     -14.456904      -393.3923
  15   2.0000     -14.442596      -393.0030
  16   2.0000     -14.439426      -392.9168
  17   2.0000     -14.430282      -392.6679
  18   2.0000     -10.404713      -283.1266
  19   2.0000     -10.403998      -283.1072
  20   2.0000     -10.400747      -283.0187
  21   2.0000     -10.397001      -282.9168
  22   2.0000     -10.396314      -282.8981
  23   2.0000     -10.390658      -282.7442
  24   2.0000     -10.389631      -282.7162
  25   2.0000     -10.386717      -282.6369
  26   2.0000     -10.379844      -282.4499
  27   2.0000     -10.373304      -282.2720
  28   2.0000     -10.367437      -282.1123
  29   2.0000     -10.363800      -282.0133
  30   2.0000     -10.362061      -281.9660
  31   2.0000     -10.350621      -281.6547
  32   2.0000     -10.348216      -281.5893
  33   2.0000     -10.343696      -281.4663
  34   2.0000     -10.343206      -281.4529
  35   2.0000     -10.338958      -281.3374
  36   2.0000     -10.337940      -281.3097
  37   2.0000     -10.337177      -281.2889
  38   2.0000     -10.332107      -281.1509
  39   2.0000     -10.331035      -281.1217
  40   2.0000     -10.330550      -281.1085
  41   2.0000     -10.330389      -281.1042
  42   2.0000     -10.330002      -281.0937
  43   2.0000     -10.329417      -281.0777
  44   2.0000     -10.328140      -281.0430
  45   2.0000     -10.327947      -281.0377
  46   2.0000     -10.327022      -281.0125
  47   2.0000     -10.323617      -280.9199
  48   2.0000     -10.322256      -280.8829
  49   2.0000     -10.320607      -280.8380
  50   2.0000     -10.319969      -280.8206
  51   2.0000     -10.318239      -280.7736
  52   2.0000     -10.317741      -280.7600
  53   2.0000     -10.317271      -280.7472
  54   2.0000     -10.313563      -280.6463
  55   2.0000     -10.308604      -280.5114
  56   2.0000     -10.302565      -280.3470
  57   2.0000     -10.301556      -280.3196
  58   2.0000     -10.299288      -280.2579
  59   2.0000     -10.298795      -280.2445
  60   2.0000     -10.288979      -279.9774
  61   2.0000     -10.288863      -279.9742
  62   2.0000     -10.287103      -279.9263
  63   2.0000     -10.283003      -279.8147
  64   2.0000      -8.089403      -220.1239
  65   2.0000      -8.061588      -219.3669
  66   2.0000      -8.053506      -219.1470
  67   2.0000      -6.060887      -164.9251
  68   2.0000      -6.053961      -164.7366
  69   2.0000      -6.050379      -164.6392
  70   2.0000      -6.031490      -164.1252
  71   2.0000      -6.027280      -164.0106
  72   2.0000      -6.023360      -163.9040
  73   2.0000      -6.022810      -163.8890
  74   2.0000      -6.019078      -163.7874
  75   2.0000      -6.014517      -163.6633
  76   2.0000      -1.336349       -36.3639
  77   2.0000      -1.331270       -36.2257
  78   2.0000      -1.321268       -35.9535
  79   2.0000      -1.316576       -35.8259
  80   2.0000      -1.154457       -31.4144
  81   2.0000      -1.145984       -31.1838
  82   2.0000      -1.100506       -29.9463
  83   2.0000      -1.090848       -29.6835
  84   2.0000      -1.084124       -29.5005
  85   2.0000      -1.059041       -28.8180
  86   2.0000      -1.035476       -28.1767
  87   2.0000      -1.019784       -27.7497
  88   2.0000      -1.008633       -27.4463
  89   2.0000      -1.006772       -27.3957
  90   2.0000      -0.981302       -26.7026
  91   2.0000      -0.977701       -26.6046
  92   2.0000      -0.974010       -26.5041
  93   2.0000      -0.966475       -26.2991
  94   2.0000      -0.965463       -26.2716
  95   2.0000      -0.955903       -26.0114
  96   2.0000      -0.954084       -25.9620
  97   2.0000      -0.941068       -25.6078
  98   2.0000      -0.913089       -24.8464
  99   2.0000      -0.907851       -24.7039
 100   2.0000      -0.905694       -24.6452
 101   2.0000      -0.896457       -24.3938
 102   2.0000      -0.891776       -24.2665
 103   2.0000      -0.887242       -24.1431
 104   2.0000      -0.882677       -24.0189
 105   2.0000      -0.878810       -23.9136
 106   2.0000      -0.877178       -23.8692
 107   2.0000      -0.859018       -23.3751
 108   2.0000      -0.844457       -22.9788
 109   2.0000      -0.823713       -22.4144
 110   2.0000      -0.816470       -22.2173
 111   2.0000      -0.801563       -21.8116
 112   2.0000      -0.789624       -21.4868
 113   2.0000      -0.787216       -21.4212
 114   2.0000      -0.782951       -21.3052
 115   2.0000      -0.774430       -21.0733
 116   2.0000      -0.770187       -20.9578
 117   2.0000      -0.766238       -20.8504
 118   2.0000      -0.763152       -20.7664
 119   2.0000      -0.747838       -20.3497
 120   2.0000      -0.735102       -20.0031
 121   2.0000      -0.719597       -19.5812
 122   2.0000      -0.719111       -19.5680
 123   2.0000      -0.707073       -19.2404
 124   2.0000      -0.700865       -19.0715
 125   2.0000      -0.692487       -18.8435
 126   2.0000      -0.690969       -18.8022
 127   2.0000      -0.687016       -18.6946
 128   2.0000      -0.676382       -18.4053
 129   2.0000      -0.667485       -18.1632
 130   2.0000      -0.665073       -18.0976
 131   2.0000      -0.654986       -17.8231
 132   2.0000      -0.650637       -17.7047
 133   2.0000      -0.649968       -17.6865
 134   2.0000      -0.646837       -17.6013
 135   2.0000      -0.646520       -17.5927
 136   2.0000      -0.639526       -17.4024
 137   2.0000      -0.628471       -17.1016
 138   2.0000      -0.623300       -16.9608
 139   2.0000      -0.618028       -16.8174
 140   2.0000      -0.616351       -16.7718
 141   2.0000      -0.605518       -16.4770
 142   2.0000      -0.601804       -16.3759
 143   2.0000      -0.600641       -16.3443
 144   2.0000      -0.595686       -16.2095
 145   2.0000      -0.593713       -16.1558
 146   2.0000      -0.592193       -16.1144
 147   2.0000      -0.582616       -15.8538
 148   2.0000      -0.579549       -15.7703
 149   2.0000      -0.576868       -15.6974
 150   2.0000      -0.572713       -15.5843
 151   2.0000      -0.568765       -15.4769
 152   2.0000      -0.564709       -15.3665
 153   2.0000      -0.563314       -15.3285
 154   2.0000      -0.561745       -15.2859
 155   2.0000      -0.558544       -15.1988
 156   2.0000      -0.556516       -15.1436
 157   2.0000      -0.556171       -15.1342
 158   2.0000      -0.553813       -15.0700
 159   2.0000      -0.549917       -14.9640
 160   2.0000      -0.548218       -14.9178
 161   2.0000      -0.543925       -14.8010
 162   2.0000      -0.540449       -14.7064
 163   2.0000      -0.538946       -14.6655
 164   2.0000      -0.536637       -14.6026
 165   2.0000      -0.531985       -14.4761
 166   2.0000      -0.529886       -14.4189
 167   2.0000      -0.525996       -14.3131
 168   2.0000      -0.523471       -14.2444
 169   2.0000      -0.515983       -14.0406
 170   2.0000      -0.514338       -13.9959
 171   2.0000      -0.511099       -13.9077
 172   2.0000      -0.507916       -13.8211
 173   2.0000      -0.505400       -13.7526
 174   2.0000      -0.504938       -13.7401
 175   2.0000      -0.500103       -13.6085
 176   2.0000      -0.498187       -13.5564
 177   2.0000      -0.497127       -13.5275
 178   2.0000      -0.495523       -13.4839
 179   2.0000      -0.490449       -13.3458
 180   2.0000      -0.489837       -13.3292
 181   2.0000      -0.486305       -13.2330
 182   2.0000      -0.483151       -13.1472
 183   2.0000      -0.480494       -13.0749
 184   2.0000      -0.473219       -12.8770
 185   2.0000      -0.472096       -12.8464
 186   2.0000      -0.469400       -12.7730
 187   2.0000      -0.469028       -12.7629
 188   2.0000      -0.467747       -12.7281
 189   2.0000      -0.466650       -12.6982
 190   2.0000      -0.465063       -12.6550
 191   2.0000      -0.460989       -12.5442
 192   2.0000      -0.458599       -12.4791
 193   2.0000      -0.456412       -12.4196
 194   2.0000      -0.453881       -12.3507
 195   2.0000      -0.453634       -12.3440
 196   2.0000      -0.449557       -12.2331
 197   2.0000      -0.442614       -12.0441
 198   2.0000      -0.434759       -11.8304
 199   2.0000      -0.434306       -11.8181
 200   2.0000      -0.429725       -11.6934
 201   2.0000      -0.424775       -11.5587
 202   2.0000      -0.417443       -11.3592
 203   2.0000      -0.414558       -11.2807
 204   2.0000      -0.412845       -11.2341
 205   2.0000      -0.408810       -11.1243
 206   2.0000      -0.407360       -11.0848
 207   2.0000      -0.401144       -10.9157
 208   2.0000      -0.399400       -10.8682
 209   2.0000      -0.397463       -10.8155
 210   2.0000      -0.391398       -10.6505
 211   2.0000      -0.387378       -10.5411
 212   2.0000      -0.383823       -10.4444
 213   2.0000      -0.375943       -10.2299
 214   2.0000      -0.375411       -10.2155
 215   2.0000      -0.369868       -10.0646
 216   2.0000      -0.366902        -9.9839
 217   2.0000      -0.357250        -9.7213
 218   2.0000      -0.346651        -9.4328
 219   2.0000      -0.344085        -9.3630
 220   2.0000      -0.335853        -9.1390
 221   2.0000      -0.332308        -9.0426
 222   2.0000      -0.328456        -8.9377
 223   2.0000      -0.326888        -8.8951
 224   2.0000      -0.316564        -8.6141
 225   2.0000      -0.299172        -8.1409
 226   2.0000      -0.281493        -7.6598
 227   2.0000      -0.269590        -7.3359
 228   2.0000      -0.248265        -6.7556
 229   0.0000      -0.092729        -2.5233
 230   0.0000      -0.092057        -2.5050
 231   0.0000      -0.068911        -1.8752
 232   0.0000      -0.065401        -1.7796
 233   0.0000      -0.049983        -1.3601

MULLIKEN ATOMIC CHARGES
-----------------------
   0 C :   -0.054941
   1 C :    0.077500
   2 C :    0.121004
   3 C :   -0.088367
   4 C :   -0.011326
   5 C :    0.028213
   6 N :   -0.256484
   7 S :    0.411276
   8 N :   -0.305248
   9 N :   -0.275418
  10 C :    0.070889
  11 C :   -0.062720
  12 C :    0.072698
  13 C :    0.133828
  14 N :   -0.250368
  15 N :   -0.248090
  16 C :    0.145640
  17 C :   -0.157292
  18 C :   -0.057065
  19 C :   -0.104435
  20 S :    0.156525
  21 S :    0.112884
  22 C :   -0.160035
  23 C :   -0.067030
  24 C :    0.137521
  25 C :   -0.017481
  26 C :   -0.044468
  27 C :    0.000117
  28 C :   -0.060479
  29 C :    0.099379
  30 C :    0.018398
  31 C :    0.032718
  32 C :    0.162640
  33 C :    0.108346
  34 C :    0.044018
  35 C :   -0.009241
  36 C :    0.121066
  37 C :   -0.092486
  38 C :    0.228244
  39 C :    0.232508
  40 C :   -0.071341
  41 C :   -0.075484
  42 C :    0.222624
  43 C :    0.238035
  44 C :   -0.070836
  45 O :   -0.141039
  46 C :   -0.206716
  47 C :   -0.082751
  48 C :   -0.068597
  49 F :   -0.168524
  50 F :   -0.164864
  51 O :   -0.141145
  52 C :   -0.183203
  53 C :   -0.126850
  54 C :   -0.048658
  55 F :   -0.165577
  56 F :   -0.168957
  57 N :    0.026382
  58 N :    0.024445
  59 N :    0.036957
  60 N :    0.123625
  61 C :    0.091848
  62 C :    0.136950
  63 C :    0.175361
  64 H :   -0.023930
  65 H :    0.044413
  66 H :    0.031691
  67 H :    0.036385
  68 H :    0.034071
  69 H :    0.086086
  70 H :    0.022023
  71 H :    0.026578
  72 H :    0.027501
  73 H :    0.016865
  74 H :    0.007162
  75 H :    0.049354
  76 H :    0.039987
  77 H :    0.043313
  78 H :    0.034039
  79 H :    0.038697
  80 H :    0.034868
  81 H :    0.013270
  82 H :    0.053503
Sum of atomic charges:   -0.0000000

LOEWDIN ATOMIC CHARGES
----------------------
   0 C :   -0.080872
   1 C :    0.014524
   2 C :    0.015271
   3 C :   -0.073651
   4 C :   -0.057489
   5 C :   -0.052969
   6 N :   -0.261506
   7 S :    0.542922
   8 N :   -0.267772
   9 N :    0.005206
  10 C :   -0.023598
  11 C :   -0.194815
  12 C :    0.004745
  13 C :   -0.010544
  14 N :    0.010722
  15 N :    0.031175
  16 C :    0.000416
  17 C :   -0.080036
  18 C :   -0.221335
  19 C :   -0.214166
  20 S :    0.437578
  21 S :    0.374529
  22 C :   -0.171745
  23 C :   -0.046389
  24 C :    0.035778
  25 C :    0.041267
  26 C :   -0.073945
  27 C :    0.025875
  28 C :   -0.039390
  29 C :    0.084257
  30 C :   -0.048578
  31 C :   -0.016071
  32 C :    0.076745
  33 C :    0.110283
  34 C :   -0.055980
  35 C :   -0.014596
  36 C :    0.057619
  37 C :   -0.007341
  38 C :    0.073430
  39 C :    0.076516
  40 C :   -0.015511
  41 C :    0.001879
  42 C :    0.068224
  43 C :    0.080572
  44 C :   -0.026825
  45 O :   -0.124018
  46 C :   -0.108299
  47 C :    0.001729
  48 C :    0.005308
  49 F :   -0.045327
  50 F :   -0.043122
  51 O :   -0.124590
  52 C :   -0.088522
  53 C :   -0.029819
  54 C :    0.003615
  55 F :   -0.042806
  56 F :   -0.046174
  57 N :   -0.067760
  58 N :   -0.068245
  59 N :   -0.052082
  60 N :   -0.027024
  61 C :   -0.052211
  62 C :    0.032660
  63 C :    0.031052
  64 H :    0.024427
  65 H :    0.040786
  66 H :    0.024463
  67 H :    0.025689
  68 H :    0.053825
  69 H :    0.057926
  70 H :    0.054487
  71 H :    0.052927
  72 H :    0.057387
  73 H :    0.053131
  74 H :    0.027922
  75 H :    0.046287
  76 H :    0.042873
  77 H :    0.032091
  78 H :    0.027695
  79 H :    0.027459
  80 H :    0.028432
  81 H :    0.020126
  82 H :    0.033294

  Mayer bond orders larger than 0.100000
B(  0-C ,  1-C ) :   1.4414 B(  0-C ,  3-C ) :   0.1342 B(  0-C ,  5-C ) :   1.1554
B(  0-C , 12-C ) :   1.1786 B(  1-C ,  2-C ) :   1.0448 B(  1-C , 14-N ) :   1.1619
B(  2-C ,  3-C ) :   1.4384 B(  2-C ,  9-N ) :   1.1349 B(  3-C ,  4-C ) :   1.1297
B(  3-C , 11-C ) :   1.3153 B(  4-C ,  5-C ) :   1.0960 B(  4-C ,  6-N ) :   1.6516
B(  5-C ,  8-N ) :   1.5836 B(  6-N ,  7-S ) :   1.1855 B(  6-N ,  8-N ) :   0.1483
B(  7-S ,  8-N ) :   1.1765 B(  9-N , 10-C ) :   1.1230 B(  9-N , 62-C ) :   0.9691
B( 10-C , 11-C ) :   1.4279 B( 10-C , 18-C ) :   1.2156 B( 11-C , 20-S ) :   1.0163
B( 12-C , 13-C ) :   1.3757 B( 12-C , 15-N ) :   1.1925 B( 13-C , 14-N ) :   1.0860
B( 13-C , 17-C ) :   1.2320 B( 14-N , 24-C ) :   0.9724 B( 15-N , 16-C ) :   1.1465
B( 15-N , 63-C ) :   0.9596 B( 16-C , 17-C ) :   1.3973 B( 16-C , 25-C ) :   1.0630
B( 17-C , 64-H ) :   1.0259 B( 18-C , 19-C ) :   1.4672 B( 18-C , 21-S ) :   1.0523
B( 19-C , 20-S ) :   1.0543 B( 19-C , 23-C ) :   1.2442 B( 21-S , 22-C ) :   1.0516
B( 22-C , 23-C ) :   1.6052 B( 22-C , 27-C ) :   1.0232 B( 23-C , 61-C ) :   1.0976
B( 24-C , 65-H ) :   0.9658 B( 24-C , 66-H ) :   0.9720 B( 24-C , 67-H ) :   0.9719
B( 25-C , 26-C ) :   1.7557 B( 25-C , 68-H ) :   0.9484 B( 26-C , 29-C ) :   0.9327
B( 26-C , 32-C ) :   0.9734 B( 27-C , 28-C ) :   1.8558 B( 27-C , 69-H ) :   0.9128
B( 28-C , 33-C ) :   0.8736 B( 28-C , 36-C ) :   1.0109 B( 29-C , 30-C ) :   0.9330
B( 29-C , 45-O ) :   2.2275 B( 30-C , 31-C ) :   1.3501 B( 30-C , 37-C ) :   1.3280
B( 31-C , 32-C ) :   0.9923 B( 31-C , 40-C ) :   1.3226 B( 32-C , 46-C ) :   1.7427
B( 33-C , 34-C ) :   0.9183 B( 33-C , 51-O ) :   2.2221 B( 34-C , 35-C ) :   1.3257
B( 34-C , 41-C ) :   1.3532 B( 35-C , 36-C ) :   0.9951 B( 35-C , 44-C ) :   1.3724
B( 36-C , 52-C ) :   1.7356 B( 37-C , 38-C ) :   1.3305 B( 37-C , 40-C ) :   0.1011
B( 37-C , 70-H ) :   1.0140 B( 38-C , 39-C ) :   1.2830 B( 38-C , 49-F ) :   1.1289
B( 39-C , 40-C ) :   1.3593 B( 39-C , 50-F ) :   1.1387 B( 40-C , 71-H ) :   0.9901
B( 41-C , 42-C ) :   1.3327 B( 41-C , 44-C ) :   0.1037 B( 41-C , 72-H ) :   1.0120
B( 42-C , 43-C ) :   1.2979 B( 42-C , 56-F ) :   1.1244 B( 43-C , 44-C ) :   1.3177
B( 43-C , 55-F ) :   1.1316 B( 44-C , 73-H ) :   1.0147 B( 46-C , 47-C ) :   1.0516
B( 46-C , 48-C ) :   1.0425 B( 47-C , 58-N ) :   2.9645 B( 48-C , 57-N ) :   2.9439
B( 52-C , 53-C ) :   1.1113 B( 52-C , 54-C ) :   1.0438 B( 53-C , 60-N ) :   3.0311
B( 54-C , 59-N ) :   2.9633 B( 61-C , 74-H ) :   0.9509 B( 61-C , 75-H ) :   0.9478
B( 61-C , 76-H ) :   0.9468 B( 62-C , 77-H ) :   0.9641 B( 62-C , 78-H ) :   0.9701
B( 62-C , 79-H ) :   0.9703 B( 63-C , 80-H ) :   0.9635 B( 63-C , 81-H ) :   0.9608
B( 63-C , 82-H ) :   0.9659

-----------------------------------------------------------------------------
         ABSORPTION SPECTRUM VIA TRANSITION ELECTRIC DIPOLE MOMENTS
-----------------------------------------------------------------------------
State   Energy  Wavelength   fosc         T2         TX        TY        TZ
        (cm-1)    (nm)                  (au**2)     (au)      (au)      (au)
-----------------------------------------------------------------------------
   0   19455.1    514.0   0.847015202  14.33285   3.72312   0.68242  -0.07423
   1   22566.7    443.1   0.058429915   0.85240   0.91444   0.12493   0.02440
   2   23978.0    417.0   0.371714385   5.10355   2.25710   0.02332  -0.09231
   3   24087.9    415.1   0.059263897   0.80996   0.51119   0.73211  -0.11250
   4   25295.0    395.3   0.065978279   0.85870  -0.81877  -0.42773   0.07322
   5   26124.1    382.8   0.019467548   0.24533  -0.48344   0.05100   0.09494
   6   26232.2    381.2   0.003568717   0.04479   0.03525   0.19344  -0.07828
   7   28283.4    353.6   0.065344325   0.76059  -0.03603  -0.86080   0.13537
   8   29342.7    340.8   0.043610703   0.48929   0.38005   0.58704  -0.01568
   9   29430.1    339.8   0.090067538   1.00752  -0.82568   0.52833  -0.21596
  10   29514.3    338.8   0.004847074   0.05407  -0.13352   0.12224   0.14593
  11   30897.0    323.7   0.130432751   1.38978   0.10168  -1.16874   0.11612
  12   31479.4    317.7   0.045152660   0.47221   0.34434  -0.56397   0.18860
  13   31667.3    315.8   0.039858290   0.41437   0.22445   0.60146  -0.04722
  14   32203.8    310.5   0.045317251   0.46327   0.65721  -0.16973  -0.05039
  15   32426.5    308.4   0.328433568   3.33444   1.69498   0.66534  -0.13708
  16   32589.5    306.8   0.021233687   0.21450   0.42636  -0.16526  -0.07355
  17   32710.7    305.7   0.077336767   0.77834   0.80880   0.34140  -0.08738
  18   33412.5    299.3   0.012227421   0.12048   0.02043  -0.34318   0.04784
  19   33529.7    298.2   0.192677273   1.89181   0.04594  -1.36879  -0.12687
  20   34247.7    292.0   0.166820868   1.60360   0.65598   1.06924   0.17326
  21   34395.5    290.7   0.206839858   1.97974  -0.74004  -1.15112  -0.32711
  22   34596.6    289.0   0.187466091   1.78388   0.37288  -1.27827  -0.10420
  23   35437.8    282.2   0.054187276   0.50339  -0.67756   0.20930   0.02220
  24   35821.6    279.2   0.011621052   0.10680  -0.10450  -0.30865  -0.02485
  25   35994.3    277.8   0.147973982   1.35340  -1.15966   0.08938  -0.02455
  26   36257.1    275.8   0.343236624   3.11657   1.74108   0.15620   0.24662
  27   36356.2    275.1   0.012264404   0.11106  -0.28827   0.13976  -0.09179
  28   36760.4    272.0   0.024200789   0.21673  -0.25904   0.20493   0.32808
  29   37029.5    270.1   0.003547126   0.03154  -0.03707  -0.16474   0.05498
  30   37265.0    268.3   0.027436460   0.24238  -0.41235   0.12812   0.23652
  31   37389.9    267.5   0.114265130   1.00608  -0.61418   0.79293  -0.01119
  32   38090.5    262.5   0.191199902   1.65252   0.26014   1.25166  -0.13486
  33   38435.6    260.2   0.072862152   0.62409   0.10326  -0.55023   0.55738
  34   39150.8    255.4   0.032755049   0.27543   0.37679  -0.32990   0.15693
  35   39312.1    254.4   0.051844885   0.43417  -0.64901  -0.05157   0.10143
  36   39551.5    252.8   0.060054898   0.49987  -0.66492   0.23071  -0.06735
  37   39772.4    251.4   0.291304624   2.41125  -1.22983   0.65510  -0.68528
  38   39846.9    251.0   0.071943614   0.59439   0.37705   0.48417  -0.46670
  39   40029.6    249.8   0.005511803   0.04533   0.11001   0.11451  -0.14183

FINAL SINGLE POINT ENERGY     -3997.320800974769

DIPOLE MOMENT
-------------
                                X             Y             Z
Electronic contribution:      8.08989     -27.10835       4.08256
Nuclear contribution   :     -7.96137      26.57389      -4.30435
                        -----------------------------------------
Total Dipole Moment    :      0.12852      -0.53446      -0.22178
                        -----------------------------------------
Magnitude (a.u.)       :      0.59275
Magnitude (Debye)      :      1.50666

Rotational constants in cm-1:     0.003311     0.000280     0.000263
Rotational constants in MHz :    99.261792     8.402558     7.882903

                             ****ORCA TERMINATED NORMALLY****
TOTAL RUN TIME: 0 days 0 hours 48 minutes 32 seconds 566 msec
