                         Program Version 4.2.0 -  RELEASE  -
|  1> # ORCA input file
|  2> # BTN-4F.out: Geometry 122
|  3> ! CAM-B3LYP def2-SVP def2/J RIJCOSX Grid4 TightSCF
|  4> %maxcore 5000
|  5> %tddft
|  6>     Mode sTDDFT
|  7>     Ethresh 5.0
|  8>     maxcore 5000
|  9> end
| 10> * xyz 0 1
| 11>    C        0.55913        -0.81636        -0.86291
| 12>    C        1.34847         0.37790        -0.93436
| 13>    C        2.77700         0.27895        -0.86442
| 14>    C        3.37875        -0.96512        -0.49773
| 15>    C        2.59603        -2.15634        -0.36821
| 16>    C        1.16697        -2.09040        -0.61794
| 17>    N        3.03634        -3.37758        -0.09525
| 18>    S        1.72489        -4.38470        -0.14977
| 19>    N        0.56266        -3.26780        -0.52941
| 20>    N        3.79533         1.20753        -1.09403
| 21>    C        5.00485         0.58748        -0.82713
| 22>    C        4.76846        -0.74377        -0.44106
| 23>    C       -0.78906        -0.39020        -0.89436
| 24>    C       -0.80463         1.02153        -0.97731
| 25>    N        0.50193         1.48989        -0.99487
| 26>    N       -2.06279        -0.85255        -0.80981
| 27>    C       -2.91484         0.26299        -0.80240
| 28>    C       -2.13239         1.44648        -0.95688
| 29>    C        6.38693         0.88624        -0.90898
| 30>    C        7.16693        -0.22385        -0.52646
| 31>    S        6.21897        -1.64753        -0.10869
| 32>    S        7.39683         2.21524        -1.37790
| 33>    C        8.86038         1.27670        -1.03095
| 34>    C        8.56091        -0.02190        -0.57975
| 35>    C        0.82097         2.88044        -0.73077
| 36>    C       -4.31801         0.26233        -0.61264
| 37>    C       -5.09947        -0.63903         0.09352
| 38>    C       10.13798         1.82142        -1.35361
| 39>    C       11.35302         1.53072        -0.77930
| 40>    C       -4.57585        -1.52767         1.17291
| 41>    C       -5.75854        -2.21795         1.74489
| 42>    C       -6.92818        -1.78011         1.09657
| 43>    C       -6.55540        -0.75614         0.08549
| 44>    C       12.61057         1.66274        -1.59377
| 45>    C       13.63881         0.88093        -0.85096
| 46>    C       13.10867         0.45359         0.38351
| 47>    C       11.72456         0.96881         0.51267
| 48>    C       -5.76495        -3.17871         2.74788
| 49>    C       -6.98959        -3.73758         3.09333
| 50>    C       -8.16701        -3.32838         2.44186
| 51>    C       -8.15916        -2.34523         1.45508
| 52>    C       14.91684         0.53220        -1.27263
| 53>    C       15.67142        -0.28502        -0.43615
| 54>    C       15.15786        -0.71226         0.80255
| 55>    C       13.88594        -0.34361         1.23308
| 56>    O       -3.43297        -1.63891         1.57531
| 57>    C       -7.45359        -0.08736        -0.73016
| 58>    C       -7.05420         0.87465        -1.70919
| 59>    C       -8.86444        -0.30415        -0.66179
| 60>    F       -7.06372        -4.67577         4.03369
| 61>    F       -9.31383        -3.91042         2.78218
| 62>    O       12.74376         2.22144        -2.66115
| 63>    C       11.01030         1.05523         1.69294
| 64>    C        9.76039         1.73912         1.79112
| 65>    C       11.52089         0.54200         2.92517
| 66>    F       15.91425        -1.49552         1.56795
| 67>    F       16.88431        -0.69107        -0.79724
| 68>    N      -10.01337        -0.47452        -0.61112
| 69>    N       -6.74580         1.66127        -2.50786
| 70>    N       11.94616         0.10855         3.91586
| 71>    N        8.75293         2.30806         1.89503
| 72>    C        9.54015        -1.11858        -0.31029
| 73>    C        3.71944         2.47233        -1.80479
| 74>    C       -2.43722        -2.24947        -0.99084
| 75>    H       -2.54283         2.45305        -0.97854
| 76>    H       -0.02462         3.33660        -0.19686
| 77>    H        0.99530         3.45821        -1.65152
| 78>    H        1.70382         2.95368        -0.08413
| 79>    H       -4.80923         1.12846        -1.05909
| 80>    H       10.19884         2.46821        -2.23906
| 81>    H       -4.84564        -3.49727         3.24161
| 82>    H       -9.10867        -2.06999         1.00179
| 83>    H       15.31347         0.87342        -2.22998
| 84>    H       13.54413        -0.70699         2.19946
| 85>    H       10.46860        -0.98123        -0.87885
| 86>    H        9.09962        -2.08913        -0.58418
| 87>    H        9.81362        -1.16515         0.75662
| 88>    H        4.62197         2.58474        -2.42205
| 89>    H        3.65698         3.33277        -1.12209
| 90>    H        2.85243         2.47573        -2.47620
| 91>    H       -1.81010        -2.68934        -1.77560
| 92>    H       -3.49010        -2.30209        -1.29171
| 93>    H       -2.29296        -2.81368        -0.06389
| 94> *
| 95>
| 96>                          ****END OF INPUT****

CARTESIAN COORDINATES (ANGSTROEM)
---------------------------------
  C      0.559130   -0.816360   -0.862910
  C      1.348470    0.377900   -0.934360
  C      2.777000    0.278950   -0.864420
  C      3.378750   -0.965120   -0.497730
  C      2.596030   -2.156340   -0.368210
  C      1.166970   -2.090400   -0.617940
  N      3.036340   -3.377580   -0.095250
  S      1.724890   -4.384700   -0.149770
  N      0.562660   -3.267800   -0.529410
  N      3.795330    1.207530   -1.094030
  C      5.004850    0.587480   -0.827130
  C      4.768460   -0.743770   -0.441060
  C     -0.789060   -0.390200   -0.894360
  C     -0.804630    1.021530   -0.977310
  N      0.501930    1.489890   -0.994870
  N     -2.062790   -0.852550   -0.809810
  C     -2.914840    0.262990   -0.802400
  C     -2.132390    1.446480   -0.956880
  C      6.386930    0.886240   -0.908980
  C      7.166930   -0.223850   -0.526460
  S      6.218970   -1.647530   -0.108690
  S      7.396830    2.215240   -1.377900
  C      8.860380    1.276700   -1.030950
  C      8.560910   -0.021900   -0.579750
  C      0.820970    2.880440   -0.730770
  C     -4.318010    0.262330   -0.612640
  C     -5.099470   -0.639030    0.093520
  C     10.137980    1.821420   -1.353610
  C     11.353020    1.530720   -0.779300
  C     -4.575850   -1.527670    1.172910
  C     -5.758540   -2.217950    1.744890
  C     -6.928180   -1.780110    1.096570
  C     -6.555400   -0.756140    0.085490
  C     12.610570    1.662740   -1.593770
  C     13.638810    0.880930   -0.850960
  C     13.108670    0.453590    0.383510
  C     11.724560    0.968810    0.512670
  C     -5.764950   -3.178710    2.747880
  C     -6.989590   -3.737580    3.093330
  C     -8.167010   -3.328380    2.441860
  C     -8.159160   -2.345230    1.455080
  C     14.916840    0.532200   -1.272630
  C     15.671420   -0.285020   -0.436150
  C     15.157860   -0.712260    0.802550
  C     13.885940   -0.343610    1.233080
  O     -3.432970   -1.638910    1.575310
  C     -7.453590   -0.087360   -0.730160
  C     -7.054200    0.874650   -1.709190
  C     -8.864440   -0.304150   -0.661790
  F     -7.063720   -4.675770    4.033690
  F     -9.313830   -3.910420    2.782180
  O     12.743760    2.221440   -2.661150
  C     11.010300    1.055230    1.692940
  C      9.760390    1.739120    1.791120
  C     11.520890    0.542000    2.925170
  F     15.914250   -1.495520    1.567950
  F     16.884310   -0.691070   -0.797240
  N    -10.013370   -0.474520   -0.611120
  N     -6.745800    1.661270   -2.507860
  N     11.946160    0.108550    3.915860
  N      8.752930    2.308060    1.895030
  C      9.540150   -1.118580   -0.310290
  C      3.719440    2.472330   -1.804790
  C     -2.437220   -2.249470   -0.990840
  H     -2.542830    2.453050   -0.978540
  H     -0.024620    3.336600   -0.196860
  H      0.995300    3.458210   -1.651520
  H      1.703820    2.953680   -0.084130
  H     -4.809230    1.128460   -1.059090
  H     10.198840    2.468210   -2.239060
  H     -4.845640   -3.497270    3.241610
  H     -9.108670   -2.069990    1.001790
  H     15.313470    0.873420   -2.229980
  H     13.544130   -0.706990    2.199460
  H     10.468600   -0.981230   -0.878850
  H      9.099620   -2.089130   -0.584180
  H      9.813620   -1.165150    0.756620
  H      4.621970    2.584740   -2.422050
  H      3.656980    3.332770   -1.122090
  H      2.852430    2.475730   -2.476200
  H     -1.810100   -2.689340   -1.775600
  H     -3.490100   -2.302090   -1.291710
  H     -2.292960   -2.813680   -0.063890

 Total Charge           Charge          ....    0
 Multiplicity           Mult            ....    1
 Number of Electrons    NEL             ....  458
 Basis Dimension        Dim             .... 1003

ORBITAL ENERGIES
----------------

  NO   OCC          E(Eh)            E(eV)
   0   2.0000     -89.009882     -2422.0820
   1   2.0000     -88.980228     -2421.2751
   2   2.0000     -88.971889     -2421.0482
   3   2.0000     -24.808833      -675.0827
   4   2.0000     -24.807508      -675.0466
   5   2.0000     -24.801522      -674.8837
   6   2.0000     -24.799273      -674.8225
   7   2.0000     -19.227346      -523.2027
   8   2.0000     -19.215968      -522.8931
   9   2.0000     -14.497639      -394.5008
  10   2.0000     -14.487919      -394.2363
  11   2.0000     -14.478344      -393.9758
  12   2.0000     -14.443229      -393.0202
  13   2.0000     -14.441756      -392.9802
  14   2.0000     -14.428209      -392.6115
  15   2.0000     -14.425785      -392.5456
  16   2.0000     -14.420215      -392.3940
  17   2.0000     -14.418114      -392.3368
  18   2.0000     -10.393463      -282.8205
  19   2.0000     -10.393126      -282.8113
  20   2.0000     -10.384750      -282.5834
  21   2.0000     -10.383938      -282.5613
  22   2.0000     -10.381019      -282.4819
  23   2.0000     -10.369455      -282.1672
  24   2.0000     -10.358236      -281.8619
  25   2.0000     -10.356102      -281.8039
  26   2.0000     -10.351539      -281.6797
  27   2.0000     -10.348536      -281.5980
  28   2.0000     -10.347569      -281.5717
  29   2.0000     -10.346578      -281.5447
  30   2.0000     -10.345504      -281.5155
  31   2.0000     -10.340082      -281.3679
  32   2.0000     -10.336195      -281.2622
  33   2.0000     -10.333818      -281.1975
  34   2.0000     -10.333444      -281.1873
  35   2.0000     -10.332194      -281.1533
  36   2.0000     -10.331562      -281.1361
  37   2.0000     -10.330790      -281.1151
  38   2.0000     -10.328733      -281.0591
  39   2.0000     -10.327763      -281.0327
  40   2.0000     -10.327631      -281.0291
  41   2.0000     -10.326534      -280.9993
  42   2.0000     -10.324308      -280.9387
  43   2.0000     -10.323448      -280.9153
  44   2.0000     -10.322368      -280.8859
  45   2.0000     -10.322014      -280.8763
  46   2.0000     -10.319882      -280.8183
  47   2.0000     -10.318016      -280.7675
  48   2.0000     -10.317577      -280.7555
  49   2.0000     -10.317397      -280.7506
  50   2.0000     -10.316872      -280.7364
  51   2.0000     -10.316340      -280.7219
  52   2.0000     -10.315504      -280.6991
  53   2.0000     -10.311735      -280.5966
  54   2.0000     -10.311195      -280.5819
  55   2.0000     -10.307961      -280.4939
  56   2.0000     -10.307698      -280.4867
  57   2.0000     -10.306641      -280.4580
  58   2.0000     -10.303200      -280.3643
  59   2.0000     -10.300725      -280.2970
  60   2.0000     -10.299765      -280.2709
  61   2.0000     -10.299359      -280.2598
  62   2.0000     -10.296844      -280.1914
  63   2.0000     -10.294405      -280.1250
  64   2.0000      -8.101520      -220.4536
  65   2.0000      -8.074466      -219.7174
  66   2.0000      -8.065771      -219.4808
  67   2.0000      -6.073139      -165.2585
  68   2.0000      -6.065753      -165.0575
  69   2.0000      -6.062706      -164.9746
  70   2.0000      -6.044214      -164.4714
  71   2.0000      -6.040067      -164.3586
  72   2.0000      -6.035844      -164.2437
  73   2.0000      -6.035691      -164.2395
  74   2.0000      -6.031707      -164.1311
  75   2.0000      -6.026655      -163.9936
  76   2.0000      -1.335017       -36.3277
  77   2.0000      -1.327086       -36.1118
  78   2.0000      -1.318961       -35.8907
  79   2.0000      -1.311228       -35.6803
  80   2.0000      -1.139810       -31.0158
  81   2.0000      -1.129421       -30.7331
  82   2.0000      -1.115544       -30.3555
  83   2.0000      -1.105137       -30.0723
  84   2.0000      -1.104164       -30.0458
  85   2.0000      -1.075405       -29.2633
  86   2.0000      -1.023471       -27.8501
  87   2.0000      -1.014486       -27.6056
  88   2.0000      -1.012576       -27.5536
  89   2.0000      -1.003139       -27.2968
  90   2.0000      -0.996221       -27.1085
  91   2.0000      -0.994975       -27.0747
  92   2.0000      -0.989262       -26.9192
  93   2.0000      -0.976927       -26.5835
  94   2.0000      -0.964951       -26.2577
  95   2.0000      -0.957400       -26.0522
  96   2.0000      -0.950210       -25.8565
  97   2.0000      -0.946296       -25.7500
  98   2.0000      -0.913211       -24.8497
  99   2.0000      -0.910318       -24.7710
 100   2.0000      -0.905655       -24.6441
 101   2.0000      -0.896675       -24.3998
 102   2.0000      -0.894172       -24.3316
 103   2.0000      -0.888082       -24.1659
 104   2.0000      -0.877260       -23.8715
 105   2.0000      -0.876065       -23.8389
 106   2.0000      -0.869260       -23.6538
 107   2.0000      -0.868147       -23.6235
 108   2.0000      -0.849099       -23.1052
 109   2.0000      -0.831455       -22.6250
 110   2.0000      -0.815195       -22.1826
 111   2.0000      -0.810740       -22.0614
 112   2.0000      -0.800674       -21.7875
 113   2.0000      -0.792604       -21.5678
 114   2.0000      -0.783017       -21.3070
 115   2.0000      -0.781656       -21.2700
 116   2.0000      -0.775000       -21.0888
 117   2.0000      -0.765739       -20.8368
 118   2.0000      -0.763273       -20.7697
 119   2.0000      -0.743964       -20.2443
 120   2.0000      -0.731096       -19.8941
 121   2.0000      -0.726307       -19.7638
 122   2.0000      -0.714647       -19.4465
 123   2.0000      -0.706325       -19.2201
 124   2.0000      -0.701854       -19.0984
 125   2.0000      -0.697227       -18.9725
 126   2.0000      -0.691486       -18.8163
 127   2.0000      -0.684704       -18.6317
 128   2.0000      -0.679443       -18.4886
 129   2.0000      -0.668638       -18.1946
 130   2.0000      -0.662390       -18.0246
 131   2.0000      -0.658123       -17.9084
 132   2.0000      -0.655295       -17.8315
 133   2.0000      -0.647708       -17.6250
 134   2.0000      -0.643736       -17.5170
 135   2.0000      -0.638664       -17.3789
 136   2.0000      -0.634305       -17.2603
 137   2.0000      -0.632409       -17.2087
 138   2.0000      -0.616958       -16.7883
 139   2.0000      -0.614785       -16.7292
 140   2.0000      -0.609775       -16.5928
 141   2.0000      -0.606211       -16.4958
 142   2.0000      -0.601860       -16.3774
 143   2.0000      -0.596836       -16.2407
 144   2.0000      -0.594871       -16.1873
 145   2.0000      -0.592494       -16.1226
 146   2.0000      -0.589116       -16.0307
 147   2.0000      -0.588765       -16.0211
 148   2.0000      -0.583773       -15.8853
 149   2.0000      -0.581876       -15.8337
 150   2.0000      -0.571328       -15.5466
 151   2.0000      -0.568075       -15.4581
 152   2.0000      -0.566783       -15.4229
 153   2.0000      -0.560842       -15.2613
 154   2.0000      -0.557633       -15.1740
 155   2.0000      -0.555186       -15.1074
 156   2.0000      -0.550315       -14.9748
 157   2.0000      -0.549976       -14.9656
 158   2.0000      -0.546470       -14.8702
 159   2.0000      -0.545888       -14.8544
 160   2.0000      -0.543188       -14.7809
 161   2.0000      -0.538709       -14.6590
 162   2.0000      -0.536712       -14.6047
 163   2.0000      -0.536145       -14.5892
 164   2.0000      -0.532987       -14.5033
 165   2.0000      -0.531357       -14.4590
 166   2.0000      -0.529820       -14.4171
 167   2.0000      -0.527228       -14.3466
 168   2.0000      -0.523312       -14.2400
 169   2.0000      -0.518305       -14.1038
 170   2.0000      -0.515552       -14.0289
 171   2.0000      -0.514067       -13.9885
 172   2.0000      -0.511568       -13.9205
 173   2.0000      -0.507819       -13.8184
 174   2.0000      -0.503343       -13.6967
 175   2.0000      -0.501296       -13.6410
 176   2.0000      -0.496600       -13.5132
 177   2.0000      -0.495438       -13.4816
 178   2.0000      -0.493938       -13.4407
 179   2.0000      -0.490580       -13.3494
 180   2.0000      -0.488974       -13.3057
 181   2.0000      -0.488812       -13.3013
 182   2.0000      -0.485167       -13.2021
 183   2.0000      -0.484204       -13.1759
 184   2.0000      -0.478454       -13.0194
 185   2.0000      -0.476532       -12.9671
 186   2.0000      -0.472012       -12.8441
 187   2.0000      -0.468782       -12.7562
 188   2.0000      -0.466092       -12.6830
 189   2.0000      -0.461805       -12.5663
 190   2.0000      -0.457798       -12.4573
 191   2.0000      -0.457366       -12.4456
 192   2.0000      -0.456015       -12.4088
 193   2.0000      -0.454433       -12.3657
 194   2.0000      -0.452808       -12.3215
 195   2.0000      -0.450548       -12.2600
 196   2.0000      -0.450047       -12.2464
 197   2.0000      -0.444613       -12.0985
 198   2.0000      -0.443859       -12.0780
 199   2.0000      -0.439713       -11.9652
 200   2.0000      -0.431886       -11.7522
 201   2.0000      -0.431301       -11.7363
 202   2.0000      -0.428027       -11.6472
 203   2.0000      -0.424838       -11.5604
 204   2.0000      -0.423829       -11.5330
 205   2.0000      -0.421816       -11.4782
 206   2.0000      -0.412877       -11.2350
 207   2.0000      -0.410857       -11.1800
 208   2.0000      -0.410539       -11.1713
 209   2.0000      -0.405182       -11.0256
 210   2.0000      -0.401834       -10.9345
 211   2.0000      -0.399914       -10.8822
 212   2.0000      -0.395147       -10.7525
 213   2.0000      -0.373840       -10.1727
 214   2.0000      -0.369891       -10.0653
 215   2.0000      -0.362276        -9.8580
 216   2.0000      -0.354910        -9.6576
 217   2.0000      -0.352605        -9.5949
 218   2.0000      -0.346278        -9.4227
 219   2.0000      -0.343803        -9.3554
 220   2.0000      -0.340343        -9.2612
 221   2.0000      -0.329023        -8.9532
 222   2.0000      -0.326138        -8.8747
 223   2.0000      -0.318640        -8.6706
 224   2.0000      -0.311818        -8.4850
 225   2.0000      -0.296794        -8.0762
 226   2.0000      -0.285688        -7.7740
 227   2.0000      -0.280135        -7.6229
 228   2.0000      -0.244272        -6.6470
 229   0.0000      -0.101009        -2.7486
 230   0.0000      -0.088143        -2.3985
 231   0.0000      -0.069839        -1.9004
 232   0.0000      -0.062079        -1.6893
 233   0.0000      -0.045079        -1.2267

MULLIKEN ATOMIC CHARGES
-----------------------
   0 C :    0.009732
   1 C :    0.058752
   2 C :    0.044150
   3 C :   -0.028168
   4 C :   -0.012775
   5 C :    0.030798
   6 N :   -0.263727
   7 S :    0.450262
   8 N :   -0.303790
   9 N :   -0.213437
  10 C :    0.056830
  11 C :   -0.109671
  12 C :   -0.011839
  13 C :    0.173071
  14 N :   -0.212382
  15 N :   -0.168307
  16 C :    0.097210
  17 C :   -0.160205
  18 C :   -0.042423
  19 C :   -0.127058
  20 S :    0.199587
  21 S :    0.171443
  22 C :   -0.162178
  23 C :   -0.045944
  24 C :    0.115295
  25 C :   -0.014489
  26 C :   -0.114955
  27 C :    0.058659
  28 C :   -0.169432
  29 C :    0.122563
  30 C :   -0.020401
  31 C :    0.056580
  32 C :    0.261113
  33 C :    0.144192
  34 C :   -0.001961
  35 C :    0.034763
  36 C :    0.227272
  37 C :   -0.101444
  38 C :    0.226634
  39 C :    0.223766
  40 C :   -0.091184
  41 C :   -0.102191
  42 C :    0.229654
  43 C :    0.226262
  44 C :   -0.088512
  45 O :   -0.160684
  46 C :   -0.320774
  47 C :   -0.171579
  48 C :   -0.164222
  49 F :   -0.163079
  50 F :   -0.159735
  51 O :   -0.140834
  52 C :   -0.323435
  53 C :   -0.173950
  54 C :   -0.166648
  55 F :   -0.158633
  56 F :   -0.158803
  57 N :    0.126044
  58 N :    0.119852
  59 N :    0.137245
  60 N :    0.156224
  61 C :    0.110198
  62 C :    0.107815
  63 C :    0.141201
  64 H :   -0.007372
  65 H :    0.049863
  66 H :    0.041151
  67 H :    0.049007
  68 H :    0.032694
  69 H :    0.040924
  70 H :    0.017091
  71 H :    0.021911
  72 H :    0.022247
  73 H :    0.023251
  74 H :    0.033615
  75 H :    0.035780
  76 H :    0.053123
  77 H :    0.050538
  78 H :    0.049996
  79 H :    0.053142
  80 H :    0.044313
  81 H :    0.035772
  82 H :    0.064635
Sum of atomic charges:   -0.0000000

LOEWDIN ATOMIC CHARGES
----------------------
   0 C :   -0.088095
   1 C :    0.027692
   2 C :    0.008962
   3 C :   -0.071765
   4 C :   -0.052487
   5 C :   -0.045647
   6 N :   -0.275101
   7 S :    0.576407
   8 N :   -0.279553
   9 N :    0.025682
  10 C :   -0.031235
  11 C :   -0.171113
  12 C :    0.021023
  13 C :   -0.016577
  14 N :    0.011366
  15 N :    0.062469
  16 C :   -0.005346
  17 C :   -0.053051
  18 C :   -0.191907
  19 C :   -0.188435
  20 S :    0.424461
  21 S :    0.427347
  22 C :   -0.182718
  23 C :   -0.026017
  24 C :    0.035961
  25 C :    0.057881
  26 C :   -0.125105
  27 C :    0.047477
  28 C :   -0.102215
  29 C :    0.081062
  30 C :   -0.046593
  31 C :   -0.015384
  32 C :    0.077785
  33 C :    0.088175
  34 C :   -0.049366
  35 C :   -0.014279
  36 C :    0.066804
  37 C :   -0.013545
  38 C :    0.065471
  39 C :    0.067103
  40 C :   -0.023916
  41 C :   -0.010227
  42 C :    0.066446
  43 C :    0.071078
  44 C :   -0.024656
  45 O :   -0.149411
  46 C :   -0.146736
  47 C :   -0.015607
  48 C :   -0.014401
  49 F :   -0.039586
  50 F :   -0.038649
  51 O :   -0.139815
  52 C :   -0.136431
  53 C :   -0.017222
  54 C :   -0.016665
  55 F :   -0.036816
  56 F :   -0.036456
  57 N :   -0.060203
  58 N :   -0.062226
  59 N :   -0.052342
  60 N :   -0.046069
  61 C :   -0.049643
  62 C :    0.035281
  63 C :    0.036614
  64 H :    0.035478
  65 H :    0.040620
  66 H :    0.026056
  67 H :    0.034725
  68 H :    0.051913
  69 H :    0.050166
  70 H :    0.053477
  71 H :    0.052652
  72 H :    0.055567
  73 H :    0.052876
  74 H :    0.041365
  75 H :    0.038218
  76 H :    0.046212
  77 H :    0.035555
  78 H :    0.030284
  79 H :    0.037502
  80 H :    0.032080
  81 H :    0.031525
  82 H :    0.033798

  Mayer bond orders larger than 0.100000
B(  0-C ,  1-C ) :   1.3916 B(  0-C ,  5-C ) :   1.1000 B(  0-C , 12-C ) :   1.2192
B(  1-C ,  2-C ) :   1.1290 B(  1-C , 14-N ) :   1.1806 B(  2-C ,  3-C ) :   1.3884
B(  2-C ,  9-N ) :   1.1609 B(  3-C ,  4-C ) :   1.1094 B(  3-C , 11-C ) :   1.3601
B(  4-C ,  5-C ) :   1.1146 B(  4-C ,  6-N ) :   1.6456 B(  5-C ,  8-N ) :   1.5946
B(  6-N ,  7-S ) :   1.2008 B(  6-N ,  8-N ) :   0.1333 B(  7-S ,  8-N ) :   1.1896
B(  9-N , 10-C ) :   1.1450 B(  9-N , 62-C ) :   0.9636 B( 10-C , 11-C ) :   1.4176
B( 10-C , 18-C ) :   1.2738 B( 11-C , 20-S ) :   1.0278 B( 12-C , 13-C ) :   1.2844
B( 12-C , 15-N ) :   1.2746 B( 13-C , 14-N ) :   1.0779 B( 13-C , 17-C ) :   1.3035
B( 14-N , 24-C ) :   0.9709 B( 15-N , 16-C ) :   1.1317 B( 15-N , 63-C ) :   0.9431
B( 16-C , 17-C ) :   1.2647 B( 16-C , 25-C ) :   1.2592 B( 17-C , 64-H ) :   1.0325
B( 18-C , 19-C ) :   1.4468 B( 18-C , 21-S ) :   1.0630 B( 19-C , 20-S ) :   1.0382
B( 19-C , 23-C ) :   1.3492 B( 21-S , 22-C ) :   1.0555 B( 22-C , 23-C ) :   1.4625
B( 22-C , 27-C ) :   1.1393 B( 23-C , 61-C ) :   1.1304 B( 24-C , 65-H ) :   0.9648
B( 24-C , 66-H ) :   0.9712 B( 24-C , 67-H ) :   0.9680 B( 25-C , 26-C ) :   1.4691
B( 25-C , 68-H ) :   0.9335 B( 26-C , 29-C ) :   0.9725 B( 26-C , 32-C ) :   1.1056
B( 27-C , 28-C ) :   1.6533 B( 27-C , 69-H ) :   0.9295 B( 28-C , 33-C ) :   0.9370
B( 28-C , 36-C ) :   1.0617 B( 29-C , 30-C ) :   0.9479 B( 29-C , 45-O ) :   2.1945
B( 30-C , 31-C ) :   1.3547 B( 30-C , 37-C ) :   1.3229 B( 31-C , 32-C ) :   1.0023
B( 31-C , 40-C ) :   1.3038 B( 32-C , 46-C ) :   1.6277 B( 33-C , 34-C ) :   0.9273
B( 33-C , 51-O ) :   2.2670 B( 34-C , 35-C ) :   1.3531 B( 34-C , 41-C ) :   1.3207
B( 35-C , 36-C ) :   1.0136 B( 35-C , 44-C ) :   1.3097 B( 36-C , 52-C ) :   1.6589
B( 37-C , 38-C ) :   1.3225 B( 37-C , 40-C ) :   0.1034 B( 37-C , 70-H ) :   1.0124
B( 38-C , 39-C ) :   1.2809 B( 38-C , 49-F ) :   1.1351 B( 39-C , 40-C ) :   1.3490
B( 39-C , 50-F ) :   1.1481 B( 40-C , 71-H ) :   0.9858 B( 41-C , 42-C ) :   1.3284
B( 41-C , 44-C ) :   0.1029 B( 41-C , 72-H ) :   1.0122 B( 42-C , 43-C ) :   1.2785
B( 42-C , 56-F ) :   1.1391 B( 43-C , 44-C ) :   1.3491 B( 43-C , 55-F ) :   1.1468
B( 44-C , 73-H ) :   0.9890 B( 46-C , 47-C ) :   1.1293 B( 46-C , 48-C ) :   1.1232
B( 47-C , 58-N ) :   2.9654 B( 48-C , 57-N ) :   2.9688 B( 52-C , 53-C ) :   1.1468
B( 52-C , 54-C ) :   1.1095 B( 53-C , 60-N ) :   3.0128 B( 54-C , 59-N ) :   2.9858
B( 61-C , 74-H ) :   0.9289 B( 61-C , 75-H ) :   0.9443 B( 61-C , 76-H ) :   0.9223
B( 62-C , 77-H ) :   0.9643 B( 62-C , 78-H ) :   0.9707 B( 62-C , 79-H ) :   0.9672
B( 63-C , 80-H ) :   0.9655 B( 63-C , 81-H ) :   0.9652 B( 63-C , 82-H ) :   0.9577

-----------------------------------------------------------------------------
         ABSORPTION SPECTRUM VIA TRANSITION ELECTRIC DIPOLE MOMENTS
-----------------------------------------------------------------------------
State   Energy  Wavelength   fosc         T2         TX        TY        TZ
        (cm-1)    (nm)                  (au**2)     (au)      (au)      (au)
-----------------------------------------------------------------------------
   0   16544.8    604.4   2.121377948  42.21166   6.45146   0.76402   0.08138
   1   19848.5    503.8   0.098881068   1.64007   0.97879  -0.20360  -0.80037
   2   23326.4    428.7   0.083754531   1.18205   0.88875   0.13121  -0.61233
   3   23952.1    417.5   0.118643536   1.63071   0.21536  -1.21405   0.33227
   4   25077.7    398.8   0.003096539   0.04065  -0.14499   0.01759   0.13899
   5   25133.1    397.9   0.069042565   0.90437   0.89513   0.30126   0.11117
   6   26171.6    382.1   0.029947062   0.37670   0.32346   0.22429  -0.47093
   7   26713.6    374.3   0.078600536   0.96866   0.89241   0.19629   0.36568
   8   29201.1    342.5   0.032371474   0.36495  -0.22411  -0.41082  -0.38205
   9   29787.6    335.7   0.067841969   0.74979  -0.63350   0.45916   0.37100
  10   30214.0    331.0   0.072201851   0.78671   0.80493   0.07827  -0.36424
  11   30350.4    329.5   0.020504269   0.22241  -0.15354   0.05331  -0.44271
  12   30478.1    328.1   0.076061861   0.82159  -0.21351  -0.70203   0.53213
  13   31141.4    321.1   0.113611409   1.20105  -0.11746   0.70556  -0.83032
  14   31753.4    314.9   0.057271336   0.59378   0.64759   0.18310  -0.37533
  15   32106.6    311.5   0.074301468   0.76187  -0.79052   0.23542   0.28552
  16   32813.8    304.8   0.070930801   0.71163   0.57972   0.28087  -0.54466
  17   32931.9    303.7   0.096700399   0.96669   0.45432  -0.86470  -0.11217
  18   33346.4    299.9   0.053445598   0.52764   0.71858  -0.09892  -0.03871
  19   33746.2    296.3   0.030430418   0.29686   0.23126  -0.48824  -0.07074
  20   33764.6    296.2   0.129224996   1.25997  -0.25304  -1.06464   0.24997
  21   34925.4    286.3   0.171010034   1.61197  -1.16008   0.25722  -0.44723
  22   35204.5    284.1   0.008270219   0.07734   0.09282  -0.25431   0.06364
  23   35528.0    281.5   0.019389015   0.17966   0.25624   0.06481  -0.33137
  24   35845.8    279.0   0.427448489   3.92573  -1.44796  -1.01435   0.89456
  25   36016.1    277.7   0.011115801   0.10161  -0.12465  -0.18207   0.23004
  26   36350.1    275.1   0.172327005   1.56072  -1.03808   0.56831  -0.40016
  27   36664.1    272.7   0.322684366   2.89743   0.89715   0.12855  -1.44084
  28   37382.0    267.5   0.152073020   1.33926   0.18761  -0.80800   0.80697
  29   37471.1    266.9   0.278686606   2.44847  -1.47297   0.44880  -0.27823
  30   37669.3    265.5   0.151484260   1.32390  -0.26933   0.05804   1.11714
  31   37853.6    264.2   0.022614153   0.19667  -0.08238   0.33099  -0.28344
  32   38205.0    261.7   0.000570780   0.00492  -0.03430  -0.05342  -0.02980
  33   38710.6    258.3   0.082925787   0.70524  -0.04324  -0.74860   0.37811
  34   39333.8    254.2   0.162755907   1.36222   0.97685  -0.60680   0.19947
  35   39804.2    251.2   0.007304402   0.06041  -0.21523  -0.10164  -0.06130

FINAL SINGLE POINT ENERGY     -3997.601865334547

DIPOLE MOMENT
-------------
                                X             Y             Z
Electronic contribution:     10.91665     -22.45991      16.98897
Nuclear contribution   :     -8.94231      23.09547     -18.41818
                        -----------------------------------------
Total Dipole Moment    :      1.97434       0.63556      -1.42922
                        -----------------------------------------
Magnitude (a.u.)       :      2.51885
Magnitude (Debye)      :      6.40241

Rotational constants in cm-1:     0.003482     0.000299     0.000286
Rotational constants in MHz :   104.381886     8.954823     8.566400

                             ****ORCA TERMINATED NORMALLY****
TOTAL RUN TIME: 0 days 0 hours 45 minutes 59 seconds 238 msec
