                         Program Version 4.2.0 -  RELEASE  -
|  1> # ORCA input file
|  2> # BTP-4Cl.out: Geometry 28
|  3> ! CAM-B3LYP def2-SVP def2/J RIJCOSX Grid4 TightSCF
|  4> %maxcore 5000
|  5> %tddft
|  6>     Mode sTDDFT
|  7>     Ethresh 5.0
|  8>     maxcore 5000
|  9> end
| 10> * xyz 0 1
| 11>    C        4.42603         2.78642         0.99198
| 12>    O        5.18529         2.05917         0.37293
| 13>    C        3.45818         3.72635         0.38338
| 14>    C        3.22616         3.94479        -0.96465
| 15>    C        2.25667         4.88525        -1.32620
| 16>   Cl        1.94216         5.18104        -3.00280
| 17>    C        1.54814         5.57953        -0.32166
| 18>   Cl        0.34360         6.74647        -0.74891
| 19>    C        1.79405         5.34855         1.03826
| 20>    C        2.76199         4.40799         1.39834
| 21>    C        3.24913         3.92702         2.71721
| 22>    C        2.77329         4.38443         3.93611
| 23>    C        3.23669         3.89941         5.19747
| 24>    N        3.59898         3.50901         6.23116
| 25>    C        1.76032         5.38727         4.04273
| 26>    N        0.93697         6.20175         4.14259
| 27>    C        4.27593         2.91561         2.45920
| 28>    C        4.96445         2.17895         3.40823
| 29>    C        5.94140         1.16226         3.33789
| 30>    S        6.72448         0.54772         1.86136
| 31>    C        7.67607        -0.53503         2.80469
| 32>    C        7.38802        -0.45874         4.18549
| 33>    C        6.41588         0.50015         4.50740
| 34>    C        5.89450         0.74507         5.89920
| 35>    C        4.48801         0.17168         6.13735
| 36>    S        8.33194        -1.61096         5.14726
| 37>    C        9.10010        -2.17777         3.68212
| 38>    C        8.64180        -1.52065         2.53168
| 39>    N        9.28213        -2.01019         1.40108
| 40>    C        9.58383        -1.05407         0.32093
| 41>    C       10.96884        -0.43549         0.48252
| 42>    C       10.14277        -3.02605         1.83760
| 43>    C       10.07341        -3.11768         3.26022
| 44>    C       10.95079        -3.99538         3.97754
| 45>    N       11.04168        -4.12821         5.29302
| 46>    S       12.25938        -5.21150         5.58471
| 47>    N       12.69678        -5.53392         4.01937
| 48>    C       11.90926        -4.80535         3.24000
| 49>    C       11.89303        -4.77987         1.80556
| 50>    C       10.98535        -3.92173         1.10422
| 51>    N       11.09193        -4.18208        -0.25845
| 52>    C       10.18617        -3.81451        -1.34666
| 53>    C       10.80885        -2.85931        -2.36090
| 54>    C       12.06173        -5.15253        -0.42712
| 55>    C       12.57793        -5.53156         0.82527
| 56>    S       13.79186        -6.78470         0.71602
| 57>    C       13.59056        -6.79616        -1.04281
| 58>    C       12.62331        -5.87498        -1.50012
| 59>    S       12.45188        -5.90148        -3.22032
| 60>    C       13.71141        -7.15657        -3.34363
| 61>    C       14.21928        -7.52284        -2.06444
| 62>    C       15.24822        -8.58549        -1.78789
| 63>    C       14.61215        -9.94144        -1.43686
| 64>    C       14.20819        -7.73151        -4.53593
| 65>    C       13.94059        -7.54998        -5.88391
| 66>    C       14.60522        -8.23152        -6.99728
| 67>    C       15.59810        -9.19643        -6.94485
| 68>    C       16.17513        -9.78015        -8.11448
| 69>    N       16.65567       -10.26454        -9.05500
| 70>    C       16.14588        -9.70145        -5.72649
| 71>    N       16.60248       -10.12214        -4.74355
| 72>    C       14.02443        -7.69640        -8.25655
| 73>    C       14.28193        -7.97492        -9.60244
| 74>    C       13.55871        -7.28491       -10.58551
| 75>   Cl       13.88540        -7.63270       -12.25090
| 76>    C       12.58335        -6.32423       -10.23967
| 77>   Cl       11.70254        -5.48206       -11.46848
| 78>    C       12.32435        -6.04797        -8.89293
| 79>    C       13.04718        -6.73679        -7.93127
| 80>    C       12.94886        -6.60978        -6.45691
| 81>    O       12.18979        -5.86237        -5.86269
| 82>    H        3.78644         3.39507        -1.72196
| 83>    H        1.21636         5.91331         1.76452
| 84>    H        4.70513         2.40099         4.44026
| 85>    H        5.88278         1.82537         6.11633
| 86>    H        6.59883         0.29694         6.61665
| 87>    H        3.74771         0.64031         5.47433
| 88>    H        4.16871         0.36654         7.17179
| 89>    H        4.46549        -0.91443         5.95672
| 90>    H        8.81144        -0.27483         0.36734
| 91>    H        9.47001        -1.53072        -0.65549
| 92>    H       11.75558        -1.20461         0.43962
| 93>    H       11.05063         0.08203         1.45038
| 94>    H       11.16068         0.29525        -0.31734
| 95>    H        9.27496        -3.40524        -0.89516
| 96>    H        9.88186        -4.74651        -1.85041
| 97>    H       10.06367        -2.57625        -3.11935
| 98>    H       11.65130        -3.33259        -2.88473
| 99>    H       11.18434        -1.94586        -1.87996
|100>    H       15.87247        -8.24236        -0.94584
|101>    H       15.92971        -8.71903        -2.63946
|102>    H       13.92521        -9.85043        -0.58132
|103>    H       15.39201       -10.67261        -1.17905
|104>    H       14.04353       -10.33890        -2.29088
|105>    H       14.98104        -8.46318        -4.31368
|106>    H       15.02146        -8.70332        -9.92506
|107>    H       11.57406        -5.31020        -8.60624
|108> *
|109>
|110>                          ****END OF INPUT****

CARTESIAN COORDINATES (ANGSTROEM)
---------------------------------
  C      4.426030    2.786420    0.991980
  O      5.185290    2.059170    0.372930
  C      3.458180    3.726350    0.383380
  C      3.226160    3.944790   -0.964650
  C      2.256670    4.885250   -1.326200
  Cl     1.942160    5.181040   -3.002800
  C      1.548140    5.579530   -0.321660
  Cl     0.343600    6.746470   -0.748910
  C      1.794050    5.348550    1.038260
  C      2.761990    4.407990    1.398340
  C      3.249130    3.927020    2.717210
  C      2.773290    4.384430    3.936110
  C      3.236690    3.899410    5.197470
  N      3.598980    3.509010    6.231160
  C      1.760320    5.387270    4.042730
  N      0.936970    6.201750    4.142590
  C      4.275930    2.915610    2.459200
  C      4.964450    2.178950    3.408230
  C      5.941400    1.162260    3.337890
  S      6.724480    0.547720    1.861360
  C      7.676070   -0.535030    2.804690
  C      7.388020   -0.458740    4.185490
  C      6.415880    0.500150    4.507400
  C      5.894500    0.745070    5.899200
  C      4.488010    0.171680    6.137350
  S      8.331940   -1.610960    5.147260
  C      9.100100   -2.177770    3.682120
  C      8.641800   -1.520650    2.531680
  N      9.282130   -2.010190    1.401080
  C      9.583830   -1.054070    0.320930
  C     10.968840   -0.435490    0.482520
  C     10.142770   -3.026050    1.837600
  C     10.073410   -3.117680    3.260220
  C     10.950790   -3.995380    3.977540
  N     11.041680   -4.128210    5.293020
  S     12.259380   -5.211500    5.584710
  N     12.696780   -5.533920    4.019370
  C     11.909260   -4.805350    3.240000
  C     11.893030   -4.779870    1.805560
  C     10.985350   -3.921730    1.104220
  N     11.091930   -4.182080   -0.258450
  C     10.186170   -3.814510   -1.346660
  C     10.808850   -2.859310   -2.360900
  C     12.061730   -5.152530   -0.427120
  C     12.577930   -5.531560    0.825270
  S     13.791860   -6.784700    0.716020
  C     13.590560   -6.796160   -1.042810
  C     12.623310   -5.874980   -1.500120
  S     12.451880   -5.901480   -3.220320
  C     13.711410   -7.156570   -3.343630
  C     14.219280   -7.522840   -2.064440
  C     15.248220   -8.585490   -1.787890
  C     14.612150   -9.941440   -1.436860
  C     14.208190   -7.731510   -4.535930
  C     13.940590   -7.549980   -5.883910
  C     14.605220   -8.231520   -6.997280
  C     15.598100   -9.196430   -6.944850
  C     16.175130   -9.780150   -8.114480
  N     16.655670  -10.264540   -9.055000
  C     16.145880   -9.701450   -5.726490
  N     16.602480  -10.122140   -4.743550
  C     14.024430   -7.696400   -8.256550
  C     14.281930   -7.974920   -9.602440
  C     13.558710   -7.284910  -10.585510
  Cl    13.885400   -7.632700  -12.250900
  C     12.583350   -6.324230  -10.239670
  Cl    11.702540   -5.482060  -11.468480
  C     12.324350   -6.047970   -8.892930
  C     13.047180   -6.736790   -7.931270
  C     12.948860   -6.609780   -6.456910
  O     12.189790   -5.862370   -5.862690
  H      3.786440    3.395070   -1.721960
  H      1.216360    5.913310    1.764520
  H      4.705130    2.400990    4.440260
  H      5.882780    1.825370    6.116330
  H      6.598830    0.296940    6.616650
  H      3.747710    0.640310    5.474330
  H      4.168710    0.366540    7.171790
  H      4.465490   -0.914430    5.956720
  H      8.811440   -0.274830    0.367340
  H      9.470010   -1.530720   -0.655490
  H     11.755580   -1.204610    0.439620
  H     11.050630    0.082030    1.450380
  H     11.160680    0.295250   -0.317340
  H      9.274960   -3.405240   -0.895160
  H      9.881860   -4.746510   -1.850410
  H     10.063670   -2.576250   -3.119350
  H     11.651300   -3.332590   -2.884730
  H     11.184340   -1.945860   -1.879960
  H     15.872470   -8.242360   -0.945840
  H     15.929710   -8.719030   -2.639460
  H     13.925210   -9.850430   -0.581320
  H     15.392010  -10.672610   -1.179050
  H     14.043530  -10.338900   -2.290880
  H     14.981040   -8.463180   -4.313680
  H     15.021460   -8.703320   -9.925060
  H     11.574060   -5.310200   -8.606240

 Total Charge           Charge          ....    0
 Multiplicity           Mult            ....    1
 Number of Electrons    NEL             ....  558
 Basis Dimension        Dim             .... 1160

ORBITAL ENERGIES
----------------

  NO   OCC          E(Eh)            E(eV)
   0   2.0000    -101.602525     -2764.7452
   1   2.0000    -101.602497     -2764.7445
   2   2.0000    -101.599800     -2764.6711
   3   2.0000    -101.599632     -2764.6665
   4   2.0000     -89.011398     -2422.1233
   5   2.0000     -88.977188     -2421.1924
   6   2.0000     -88.975778     -2421.1540
   7   2.0000     -88.973589     -2421.0944
   8   2.0000     -88.973113     -2421.0815
   9   2.0000     -19.226452      -523.1784
  10   2.0000     -19.226138      -523.1698
  11   2.0000     -14.494943      -394.4275
  12   2.0000     -14.487558      -394.2265
  13   2.0000     -14.444810      -393.0633
  14   2.0000     -14.444117      -393.0444
  15   2.0000     -14.429646      -392.6506
  16   2.0000     -14.429440      -392.6450
  17   2.0000     -14.422486      -392.4558
  18   2.0000     -14.422469      -392.4553
  19   2.0000     -10.376674      -282.3636
  20   2.0000     -10.375943      -282.3438
  21   2.0000     -10.361156      -281.9414
  22   2.0000     -10.360844      -281.9329
  23   2.0000     -10.360344      -281.9193
  24   2.0000     -10.359791      -281.9042
  25   2.0000     -10.353934      -281.7449
  26   2.0000     -10.353834      -281.7421
  27   2.0000     -10.352380      -281.7026
  28   2.0000     -10.352306      -281.7006
  29   2.0000     -10.350904      -281.6624
  30   2.0000     -10.348944      -281.6091
  31   2.0000     -10.343365      -281.4573
  32   2.0000     -10.339775      -281.3596
  33   2.0000     -10.334010      -281.2027
  34   2.0000     -10.333826      -281.1977
  35   2.0000     -10.333603      -281.1916
  36   2.0000     -10.333519      -281.1893
  37   2.0000     -10.333470      -281.1880
  38   2.0000     -10.331364      -281.1307
  39   2.0000     -10.330330      -281.1026
  40   2.0000     -10.330287      -281.1014
  41   2.0000     -10.329548      -281.0813
  42   2.0000     -10.327717      -281.0315
  43   2.0000     -10.326938      -281.0103
  44   2.0000     -10.326688      -281.0035
  45   2.0000     -10.326677      -281.0032
  46   2.0000     -10.324932      -280.9557
  47   2.0000     -10.321374      -280.8589
  48   2.0000     -10.321242      -280.8553
  49   2.0000     -10.321060      -280.8503
  50   2.0000     -10.321007      -280.8489
  51   2.0000     -10.320781      -280.8427
  52   2.0000     -10.319918      -280.8193
  53   2.0000     -10.318536      -280.7816
  54   2.0000     -10.317800      -280.7616
  55   2.0000     -10.314140      -280.6620
  56   2.0000     -10.313596      -280.6472
  57   2.0000     -10.313300      -280.6392
  58   2.0000     -10.312542      -280.6185
  59   2.0000     -10.307944      -280.4934
  60   2.0000     -10.305277      -280.4208
  61   2.0000     -10.304903      -280.4107
  62   2.0000     -10.304750      -280.4065
  63   2.0000     -10.304107      -280.3890
  64   2.0000     -10.303932      -280.3843
  65   2.0000     -10.290989      -280.0320
  66   2.0000     -10.290574      -280.0207
  67   2.0000     -10.290120      -280.0084
  68   2.0000     -10.289392      -279.9886
  69   2.0000     -10.270886      -279.4850
  70   2.0000     -10.270027      -279.4616
  71   2.0000      -9.557214      -260.0650
  72   2.0000      -9.557162      -260.0636
  73   2.0000      -9.554470      -259.9903
  74   2.0000      -9.554303      -259.9858
  75   2.0000      -8.103100      -220.4966
  76   2.0000      -8.069549      -219.5836
  77   2.0000      -8.068252      -219.5483
  78   2.0000      -8.066955      -219.5130
  79   2.0000      -8.066525      -219.5013
  80   2.0000      -7.327675      -199.3962
  81   2.0000      -7.327643      -199.3953
  82   2.0000      -7.324971      -199.3226
  83   2.0000      -7.324797      -199.3179
  84   2.0000      -7.317463      -199.1183
  85   2.0000      -7.317412      -199.1169
  86   2.0000      -7.316766      -199.0993
  87   2.0000      -7.316711      -199.0978
  88   2.0000      -7.314690      -199.0428
  89   2.0000      -7.314524      -199.0383
  90   2.0000      -7.314013      -199.0244
  91   2.0000      -7.313860      -199.0202
  92   2.0000      -6.074750      -165.3024
  93   2.0000      -6.067260      -165.0985
  94   2.0000      -6.064312      -165.0183
  95   2.0000      -6.039344      -164.3389
  96   2.0000      -6.037993      -164.3022
  97   2.0000      -6.036949      -164.2737
  98   2.0000      -6.036527      -164.2622
  99   2.0000      -6.034908      -164.2182
 100   2.0000      -6.033640      -164.1837
 101   2.0000      -6.032977      -164.1656
 102   2.0000      -6.032530      -164.1535
 103   2.0000      -6.031183      -164.1168
 104   2.0000      -6.029901      -164.0820
 105   2.0000      -6.027779      -164.0242
 106   2.0000      -6.027352      -164.0126
 107   2.0000      -1.137776       -30.9604
 108   2.0000      -1.137775       -30.9604
 109   2.0000      -1.115911       -30.3655
 110   2.0000      -1.106507       -30.1096
 111   2.0000      -1.100479       -29.9456
 112   2.0000      -1.026558       -27.9341
 113   2.0000      -1.026538       -27.9335
 114   2.0000      -1.015377       -27.6298
 115   2.0000      -1.014858       -27.6157
 116   2.0000      -1.013142       -27.5690
 117   2.0000      -1.011671       -27.5290
 118   2.0000      -0.996787       -27.1240
 119   2.0000      -0.996429       -27.1142
 120   2.0000      -0.987340       -26.8669
 121   2.0000      -0.987315       -26.8662
 122   2.0000      -0.979195       -26.6452
 123   2.0000      -0.965813       -26.2811
 124   2.0000      -0.959992       -26.1227
 125   2.0000      -0.959706       -26.1149
 126   2.0000      -0.956323       -26.0229
 127   2.0000      -0.947841       -25.7921
 128   2.0000      -0.931394       -25.3445
 129   2.0000      -0.930001       -25.3066
 130   2.0000      -0.912481       -24.8299
 131   2.0000      -0.901164       -24.5219
 132   2.0000      -0.899141       -24.4669
 133   2.0000      -0.897792       -24.4302
 134   2.0000      -0.894983       -24.3537
 135   2.0000      -0.888661       -24.1817
 136   2.0000      -0.870733       -23.6938
 137   2.0000      -0.867931       -23.6176
 138   2.0000      -0.859159       -23.3789
 139   2.0000      -0.858749       -23.3678
 140   2.0000      -0.858611       -23.3640
 141   2.0000      -0.848122       -23.0786
 142   2.0000      -0.833445       -22.6792
 143   2.0000      -0.830849       -22.6085
 144   2.0000      -0.819890       -22.3103
 145   2.0000      -0.805264       -21.9124
 146   2.0000      -0.804326       -21.8868
 147   2.0000      -0.801379       -21.8066
 148   2.0000      -0.784396       -21.3445
 149   2.0000      -0.765828       -20.8392
 150   2.0000      -0.764315       -20.7981
 151   2.0000      -0.757477       -20.6120
 152   2.0000      -0.754537       -20.5320
 153   2.0000      -0.752510       -20.4768
 154   2.0000      -0.736452       -20.0399
 155   2.0000      -0.726412       -19.7667
 156   2.0000      -0.724395       -19.7118
 157   2.0000      -0.718336       -19.5469
 158   2.0000      -0.711097       -19.3499
 159   2.0000      -0.698032       -18.9944
 160   2.0000      -0.697648       -18.9840
 161   2.0000      -0.695021       -18.9125
 162   2.0000      -0.694705       -18.9039
 163   2.0000      -0.687628       -18.7113
 164   2.0000      -0.673186       -18.3183
 165   2.0000      -0.665492       -18.1090
 166   2.0000      -0.660683       -17.9781
 167   2.0000      -0.655691       -17.8422
 168   2.0000      -0.643528       -17.5113
 169   2.0000      -0.635819       -17.3015
 170   2.0000      -0.633385       -17.2353
 171   2.0000      -0.624364       -16.9898
 172   2.0000      -0.621065       -16.9000
 173   2.0000      -0.617767       -16.8103
 174   2.0000      -0.614950       -16.7336
 175   2.0000      -0.610384       -16.6094
 176   2.0000      -0.602436       -16.3931
 177   2.0000      -0.599383       -16.3100
 178   2.0000      -0.590643       -16.0722
 179   2.0000      -0.586454       -15.9582
 180   2.0000      -0.584644       -15.9090
 181   2.0000      -0.576624       -15.6907
 182   2.0000      -0.576034       -15.6747
 183   2.0000      -0.570406       -15.5215
 184   2.0000      -0.565965       -15.4007
 185   2.0000      -0.559261       -15.2183
 186   2.0000      -0.555127       -15.1058
 187   2.0000      -0.551183       -14.9985
 188   2.0000      -0.550672       -14.9846
 189   2.0000      -0.548298       -14.9200
 190   2.0000      -0.548050       -14.9132
 191   2.0000      -0.547371       -14.8947
 192   2.0000      -0.544543       -14.8178
 193   2.0000      -0.544205       -14.8086
 194   2.0000      -0.540449       -14.7064
 195   2.0000      -0.538068       -14.6416
 196   2.0000      -0.535045       -14.5593
 197   2.0000      -0.532109       -14.4794
 198   2.0000      -0.530234       -14.4284
 199   2.0000      -0.527412       -14.3516
 200   2.0000      -0.526632       -14.3304
 201   2.0000      -0.521047       -14.1784
 202   2.0000      -0.513894       -13.9838
 203   2.0000      -0.512153       -13.9364
 204   2.0000      -0.511136       -13.9087
 205   2.0000      -0.509312       -13.8591
 206   2.0000      -0.509128       -13.8541
 207   2.0000      -0.505828       -13.7643
 208   2.0000      -0.504697       -13.7335
 209   2.0000      -0.500678       -13.6241
 210   2.0000      -0.495967       -13.4960
 211   2.0000      -0.495614       -13.4863
 212   2.0000      -0.494301       -13.4506
 213   2.0000      -0.492379       -13.3983
 214   2.0000      -0.487484       -13.2651
 215   2.0000      -0.485864       -13.2210
 216   2.0000      -0.483371       -13.1532
 217   2.0000      -0.481733       -13.1086
 218   2.0000      -0.480949       -13.0873
 219   2.0000      -0.479000       -13.0343
 220   2.0000      -0.476070       -12.9545
 221   2.0000      -0.472552       -12.8588
 222   2.0000      -0.469093       -12.7647
 223   2.0000      -0.468402       -12.7459
 224   2.0000      -0.467524       -12.7220
 225   2.0000      -0.461129       -12.5480
 226   2.0000      -0.460067       -12.5191
 227   2.0000      -0.458942       -12.4885
 228   2.0000      -0.457792       -12.4571
 229   2.0000      -0.455000       -12.3812
 230   2.0000      -0.453609       -12.3433
 231   2.0000      -0.452098       -12.3022
 232   2.0000      -0.449500       -12.2315
 233   2.0000      -0.449299       -12.2260
 234   2.0000      -0.443853       -12.0779
 235   2.0000      -0.438507       -11.9324
 236   2.0000      -0.438393       -11.9293
 237   2.0000      -0.436657       -11.8820
 238   2.0000      -0.432695       -11.7742
 239   2.0000      -0.431772       -11.7491
 240   2.0000      -0.431520       -11.7422
 241   2.0000      -0.429741       -11.6939
 242   2.0000      -0.428668       -11.6646
 243   2.0000      -0.428134       -11.6501
 244   2.0000      -0.428076       -11.6485
 245   2.0000      -0.427496       -11.6328
 246   2.0000      -0.425420       -11.5763
 247   2.0000      -0.423147       -11.5144
 248   2.0000      -0.419049       -11.4029
 249   2.0000      -0.417827       -11.3696
 250   2.0000      -0.416715       -11.3394
 251   2.0000      -0.411093       -11.1864
 252   2.0000      -0.409277       -11.1370
 253   2.0000      -0.408704       -11.1214
 254   2.0000      -0.407827       -11.0975
 255   2.0000      -0.407160       -11.0794
 256   2.0000      -0.404073       -10.9954
 257   2.0000      -0.401719       -10.9313
 258   2.0000      -0.395905       -10.7731
 259   2.0000      -0.393515       -10.7081
 260   2.0000      -0.384559       -10.4644
 261   2.0000      -0.384252       -10.4560
 262   2.0000      -0.375875       -10.2281
 263   2.0000      -0.368736       -10.0338
 264   2.0000      -0.365973        -9.9586
 265   2.0000      -0.350687        -9.5427
 266   2.0000      -0.344707        -9.3800
 267   2.0000      -0.344415        -9.3720
 268   2.0000      -0.342723        -9.3260
 269   2.0000      -0.341282        -9.2868
 270   2.0000      -0.338971        -9.2239
 271   2.0000      -0.320027        -8.7084
 272   2.0000      -0.318604        -8.6697
 273   2.0000      -0.315017        -8.5720
 274   2.0000      -0.310007        -8.4357
 275   2.0000      -0.295871        -8.0511
 276   2.0000      -0.284232        -7.7344
 277   2.0000      -0.281747        -7.6667
 278   2.0000      -0.248148        -6.7525
 279   0.0000      -0.104759        -2.8506
 280   0.0000      -0.093424        -2.5422
 281   0.0000      -0.072507        -1.9730
 282   0.0000      -0.068730        -1.8702
 283   0.0000      -0.050481        -1.3737

MULLIKEN ATOMIC CHARGES
-----------------------
   0 C :    0.140367
   1 O :   -0.171505
   2 C :   -0.019029
   3 C :   -0.027148
   4 C :    0.054277
   5 Cl:   -0.045382
   6 C :    0.032046
   7 Cl:   -0.037351
   8 C :   -0.007912
   9 C :    0.034234
  10 C :    0.282001
  11 C :   -0.330232
  12 C :   -0.155122
  13 N :    0.115278
  14 C :   -0.160302
  15 N :    0.129053
  16 C :   -0.085007
  17 C :   -0.030411
  18 C :   -0.090558
  19 S :    0.190562
  20 C :   -0.040264
  21 C :   -0.093068
  22 C :   -0.058345
  23 C :    0.043644
  24 C :    0.009167
  25 S :    0.198647
  26 C :   -0.098580
  27 C :    0.046208
  28 N :   -0.189734
  29 C :    0.090915
  30 C :   -0.013102
  31 C :    0.026246
  32 C :   -0.023477
  33 C :   -0.017235
  34 N :   -0.262011
  35 S :    0.449977
  36 N :   -0.260326
  37 C :   -0.009040
  38 C :   -0.033688
  39 C :    0.066201
  40 N :   -0.185147
  41 C :    0.076451
  42 C :   -0.008349
  43 C :    0.045720
  44 C :   -0.103543
  45 S :    0.198983
  46 C :   -0.088161
  47 C :   -0.038849
  48 S :    0.192987
  49 C :   -0.098585
  50 C :   -0.059667
  51 C :    0.034097
  52 C :    0.015937
  53 C :   -0.020708
  54 C :   -0.083866
  55 C :    0.278722
  56 C :   -0.330220
  57 C :   -0.164445
  58 N :    0.133578
  59 C :   -0.148716
  60 N :    0.113107
  61 C :    0.033846
  62 C :   -0.009950
  63 C :    0.035369
  64 Cl:   -0.036738
  65 C :    0.053016
  66 Cl:   -0.044863
  67 C :   -0.028291
  68 C :   -0.018159
  69 C :    0.139966
  70 O :   -0.170191
  71 H :    0.006273
  72 H :    0.007053
  73 H :   -0.013114
  74 H :    0.046612
  75 H :    0.013752
  76 H :    0.017822
  77 H :    0.039702
  78 H :    0.022340
  79 H :    0.040325
  80 H :    0.013224
  81 H :    0.040576
  82 H :    0.039110
  83 H :    0.040852
  84 H :    0.041646
  85 H :    0.043289
  86 H :    0.039204
  87 H :    0.039262
  88 H :    0.025446
  89 H :    0.021902
  90 H :    0.038761
  91 H :    0.021466
  92 H :    0.039347
  93 H :    0.019680
  94 H :   -0.021898
  95 H :    0.007885
  96 H :    0.006157
Sum of atomic charges:   -0.0000000

LOEWDIN ATOMIC CHARGES
----------------------
   0 C :    0.084178
   1 O :   -0.166737
   2 C :   -0.045300
   3 C :   -0.003072
   4 C :   -0.129493
   5 Cl:    0.149482
   6 C :   -0.126357
   7 Cl:    0.153415
   8 C :   -0.013730
   9 C :   -0.013507
  10 C :    0.082230
  11 C :   -0.147285
  12 C :   -0.009200
  13 N :   -0.062213
  14 C :   -0.014109
  15 N :   -0.056605
  16 C :   -0.122595
  17 C :    0.055519
  18 C :   -0.187734
  19 S :    0.467036
  20 C :   -0.191833
  21 C :   -0.193785
  22 C :   -0.004066
  23 C :   -0.035721
  24 C :   -0.048076
  25 S :    0.413775
  26 C :   -0.162754
  27 C :   -0.040582
  28 N :    0.014681
  29 C :    0.043536
  30 C :   -0.066267
  31 C :    0.012633
  32 C :   -0.069600
  33 C :   -0.053944
  34 N :   -0.273789
  35 S :    0.579551
  36 N :   -0.275378
  37 C :   -0.051138
  38 C :   -0.078161
  39 C :    0.016139
  40 N :    0.035894
  41 C :    0.040235
  42 C :   -0.070865
  43 C :   -0.039659
  44 C :   -0.163187
  45 S :    0.414573
  46 C :   -0.192873
  47 C :   -0.189918
  48 S :    0.466283
  49 C :   -0.187456
  50 C :   -0.003298
  51 C :   -0.035743
  52 C :   -0.047316
  53 C :    0.055395
  54 C :   -0.122527
  55 C :    0.082228
  56 C :   -0.147247
  57 C :   -0.014968
  58 N :   -0.055789
  59 C :   -0.007669
  60 N :   -0.063358
  61 C :   -0.013532
  62 C :   -0.013784
  63 C :   -0.125799
  64 Cl:    0.152504
  65 C :   -0.129466
  66 Cl:    0.149730
  67 C :   -0.003442
  68 C :   -0.045051
  69 C :    0.084098
  70 O :   -0.166333
  71 H :    0.047616
  72 H :    0.045787
  73 H :    0.048676
  74 H :    0.042188
  75 H :    0.033069
  76 H :    0.023809
  77 H :    0.036746
  78 H :    0.027691
  79 H :    0.028965
  80 H :    0.023608
  81 H :    0.030542
  82 H :    0.037637
  83 H :    0.037587
  84 H :    0.031629
  85 H :    0.034835
  86 H :    0.040298
  87 H :    0.025565
  88 H :    0.029127
  89 H :    0.036098
  90 H :    0.036244
  91 H :    0.024900
  92 H :    0.035672
  93 H :    0.028235
  94 H :    0.048747
  95 H :    0.046294
  96 H :    0.047631

  Mayer bond orders larger than 0.100000
B(  0-C ,  1-O ) :   2.1789 B(  0-C ,  2-C ) :   0.9520 B(  0-C , 16-C ) :   0.9716
B(  2-C ,  3-C ) :   1.3524 B(  2-C ,  9-C ) :   1.3386 B(  3-C ,  4-C ) :   1.3405
B(  3-C , 71-H ) :   1.0082 B(  4-C ,  5-Cl) :   1.0450 B(  4-C ,  6-C ) :   1.4045
B(  6-C ,  7-Cl) :   1.0749 B(  6-C ,  8-C ) :   1.3625 B(  8-C ,  9-C ) :   1.3448
B(  8-C , 72-H ) :   0.9786 B(  9-C , 10-C ) :   0.9869 B( 10-C , 11-C ) :   1.6161
B( 10-C , 16-C ) :   1.1068 B( 11-C , 12-C ) :   1.1423 B( 11-C , 14-C ) :   1.1276
B( 12-C , 13-N ) :   2.9412 B( 14-C , 15-N ) :   2.9613 B( 16-C , 17-C ) :   1.4834
B( 17-C , 18-C ) :   1.3102 B( 17-C , 73-H ) :   0.9206 B( 18-C , 19-S ) :   1.0368
B( 18-C , 22-C ) :   1.3648 B( 19-S , 20-C ) :   1.0501 B( 20-C , 21-C ) :   1.3963
B( 20-C , 27-C ) :   1.2876 B( 21-C , 22-C ) :   1.4155 B( 21-C , 25-S ) :   1.0218
B( 22-C , 23-C ) :   1.0705 B( 23-C , 24-C ) :   1.0999 B( 23-C , 74-H ) :   0.9043
B( 23-C , 75-H ) :   0.9260 B( 24-C , 76-H ) :   0.9701 B( 24-C , 77-H ) :   0.9663
B( 24-C , 78-H ) :   0.9671 B( 25-S , 26-C ) :   1.0245 B( 26-C , 27-C ) :   1.4360
B( 26-C , 32-C ) :   1.3212 B( 27-C , 28-N ) :   1.1306 B( 28-N , 29-C ) :   0.9448
B( 28-N , 31-C ) :   1.1515 B( 29-C , 30-C ) :   1.1134 B( 29-C , 79-H ) :   0.9408
B( 29-C , 80-H ) :   0.9442 B( 30-C , 81-H ) :   0.9575 B( 30-C , 82-H ) :   0.9613
B( 30-C , 83-H ) :   0.9624 B( 31-C , 32-C ) :   1.4261 B( 31-C , 39-C ) :   1.1284
B( 32-C , 33-C ) :   1.0941 B( 33-C , 34-N ) :   1.6529 B( 33-C , 37-C ) :   1.1071
B( 34-N , 35-S ) :   1.1983 B( 34-N , 36-N ) :   0.1325 B( 35-S , 36-N ) :   1.1960
B( 36-N , 37-C ) :   1.6536 B( 37-C , 38-C ) :   1.1010 B( 38-C , 39-C ) :   1.3773
B( 38-C , 44-C ) :   1.3514 B( 39-C , 40-N ) :   1.1819 B( 39-C , 43-C ) :   0.1001
B( 40-N , 41-C ) :   0.9286 B( 40-N , 43-C ) :   1.1402 B( 41-C , 42-C ) :   1.1018
B( 41-C , 84-H ) :   0.9529 B( 41-C , 85-H ) :   0.9442 B( 42-C , 86-H ) :   0.9618
B( 42-C , 87-H ) :   0.9538 B( 42-C , 88-H ) :   0.9613 B( 43-C , 44-C ) :   1.4158
B( 43-C , 47-C ) :   1.2855 B( 44-C , 45-S ) :   1.0228 B( 45-S , 46-C ) :   1.0233
B( 46-C , 47-C ) :   1.3992 B( 46-C , 50-C ) :   1.4056 B( 47-C , 48-S ) :   1.0441
B( 48-S , 49-C ) :   1.0381 B( 49-C , 50-C ) :   1.3702 B( 49-C , 53-C ) :   1.3104
B( 50-C , 51-C ) :   1.0717 B( 51-C , 52-C ) :   1.0979 B( 51-C , 89-H ) :   0.9214
B( 51-C , 90-H ) :   0.9054 B( 52-C , 91-H ) :   0.9709 B( 52-C , 92-H ) :   0.9679
B( 52-C , 93-H ) :   0.9681 B( 53-C , 54-C ) :   1.4865 B( 53-C , 94-H ) :   0.9203
B( 54-C , 55-C ) :   1.1072 B( 54-C , 69-C ) :   0.9663 B( 55-C , 56-C ) :   1.6184
B( 55-C , 61-C ) :   0.9869 B( 56-C , 57-C ) :   1.1261 B( 56-C , 59-C ) :   1.1418
B( 57-C , 58-N ) :   2.9641 B( 59-C , 60-N ) :   2.9445 B( 61-C , 62-C ) :   1.3455
B( 61-C , 68-C ) :   1.3409 B( 62-C , 63-C ) :   1.3610 B( 62-C , 95-H ) :   0.9794
B( 63-C , 64-Cl) :   1.0754 B( 63-C , 65-C ) :   1.4032 B( 65-C , 66-Cl) :   1.0465
B( 65-C , 67-C ) :   1.3426 B( 67-C , 68-C ) :   1.3464 B( 67-C , 96-H ) :   1.0096
B( 68-C , 69-C ) :   0.9520 B( 69-C , 70-O ) :   2.1852

-----------------------------------------------------------------------------
         ABSORPTION SPECTRUM VIA TRANSITION ELECTRIC DIPOLE MOMENTS
-----------------------------------------------------------------------------
State   Energy  Wavelength   fosc         T2         TX        TY        TZ
        (cm-1)    (nm)                  (au**2)     (au)      (au)      (au)
-----------------------------------------------------------------------------
   0   16759.4    596.7   2.289698648  44.97756   3.97102  -4.26069  -3.32492
   1   20460.4    488.7   0.686895207  11.05227  -1.17658   1.04118  -2.92982
   2   24146.6    414.1   0.009510097   0.12966   0.23053  -0.27417  -0.03673
   3   24551.2    407.3   0.000852626   0.01143  -0.01453   0.10592  -0.00149
   4   24897.0    401.7   0.328347592   4.34173  -0.75773   0.72326  -1.80124
   5   25526.9    391.7   0.087129415   1.12368   0.63962  -0.54045  -0.64998
   6   26083.7    383.4   0.205183556   2.58969  -0.59085   0.55232  -1.39123
   7   26811.8    373.0   0.010949088   0.13444   0.28208  -0.16103  -0.17012
   8   28740.3    347.9   0.076023207   0.87082  -0.48802   0.58352   0.54052
   9   29823.0    335.3   0.104930047   1.15831  -0.40536   0.37436  -0.92404
  10   30315.7    329.9   0.073228180   0.79522   0.18030  -0.21540   0.84635
  11   30435.3    328.6   0.053956276   0.58363  -0.51624   0.47743  -0.29865
  12   30543.6    327.4   0.164967568   1.77809   0.48951  -0.39964   1.17420
  13   30666.8    326.1   0.033001167   0.35427   0.10439  -0.19340   0.55315
  14   30847.2    324.2   0.000305755   0.00326   0.05052   0.02105   0.01638
  15   32359.5    309.0   0.022248183   0.22634   0.25386  -0.21130   0.34242
  16   32552.6    307.2   0.000030670   0.00031   0.01273   0.00891   0.00829
  17   32706.2    305.8   0.146995182   1.47961  -0.36305   0.30546  -1.12004
  18   32933.0    303.6   0.057259595   0.57239  -0.41879   0.38684  -0.49735
  19   33305.8    300.2   0.038516756   0.38072  -0.03941   0.07552  -0.61112
  20   33338.6    300.0   0.156594478   1.54634   0.53553  -0.50162   1.00396
  21   33663.0    297.1   0.056536528   0.55291   0.10961  -0.12238   0.72520
  22   33761.3    296.2   0.041570251   0.40536  -0.43441   0.41409   0.21254
  23   34403.1    290.7   0.023442977   0.22433   0.26735  -0.22979   0.31631
  24   34612.0    288.9   0.313231019   2.97929  -0.52227   0.43506  -1.58658
  25   34728.7    287.9   0.072675590   0.68893   0.35143  -0.43111   0.61610
  26   34945.2    286.2   0.194170181   1.82924   0.92124  -0.87675  -0.46028
  27   35582.1    281.0   0.114929889   1.06335   0.60717  -0.67835  -0.48429
  28   35977.8    277.9   0.319738989   2.92575   0.51453  -0.52458   1.54461
  29   36319.3    275.3   0.473544421   4.29238  -1.13801   1.15976   1.28540
  30   36388.6    274.8   0.145794607   1.31902   0.77470  -0.84756   0.02251
  31   36716.2    272.4   0.055654372   0.49902   0.43664  -0.39379  -0.39152
  32   36995.6    270.3   0.010603130   0.09435   0.12718  -0.11413   0.25525
  33   37663.4    265.5   0.107372581   0.93853   0.32892  -0.31364   0.85555
  34   38371.6    260.6   0.029777371   0.25548   0.19381  -0.21250   0.41564
  35   38775.9    257.9   0.017225761   0.14625   0.06267  -0.06861   0.37096
  36   38961.4    256.7   0.025305494   0.21382   0.25178  -0.29591  -0.25073
  37   39151.4    255.4   0.024430640   0.20543  -0.16866   0.22925  -0.35274
  38   39873.3    250.8   0.018163442   0.14997   0.24438  -0.23359  -0.18889
  39   39914.1    250.5   0.030608181   0.25246  -0.17711   0.18505  -0.43226

FINAL SINGLE POINT ENERGY     -6412.965241028885

DIPOLE MOMENT
-------------
                                X             Y             Z
Electronic contribution:    -22.93030      20.04290     -52.89612
Nuclear contribution   :     23.04378     -19.79550      52.73781
                        -----------------------------------------
Total Dipole Moment    :      0.11349       0.24740      -0.15832
                        -----------------------------------------
Magnitude (a.u.)       :      0.31488
Magnitude (Debye)      :      0.80036

Rotational constants in cm-1:     0.000960     0.000268     0.000211
Rotational constants in MHz :    28.768080     8.045106     6.324482

                             ****ORCA TERMINATED NORMALLY****
TOTAL RUN TIME: 0 days 0 hours 56 minutes 4 seconds 901 msec
