                         Program Version 4.2.0 -  RELEASE  -
|  1> # ORCA input file
|  2> # BTP-4Cl.out
|  3> ! CAM-B3LYP def2-SVP def2/J RIJCOSX Grid4 TightSCF
|  4> %maxcore 5000
|  5> %tddft
|  6>     Mode sTDDFT
|  7>     Ethresh 5.0
|  8>     maxcore 5000
|  9> end
| 10> * xyz 0 1
| 11>    C        4.59755         2.87582         1.07531
| 12>    O        5.39216         2.17327         0.47468
| 13>    C        3.70908         3.89109         0.47533
| 14>    C        3.57391         4.24185        -0.85146
| 15>    C        2.65686         5.23304        -1.17927
| 16>   Cl        2.45262         5.69513        -2.82056
| 17>    C        1.89983         5.85060        -0.17863
| 18>   Cl        0.76836         7.07316        -0.59686
| 19>    C        2.04216         5.49383         1.15868
| 20>    C        2.95403         4.50559         1.48910
| 21>    C        3.32675         3.91708         2.77592
| 22>    C        2.81722         4.29679         3.99167
| 23>    C        3.17848         3.75788         5.24374
| 24>    N        3.41935         3.37722         6.30065
| 25>    C        1.84848         5.30859         4.16098
| 26>    N        1.06269         6.11838         4.37028
| 27>    C        4.32407         2.89989         2.51232
| 28>    C        4.89662         2.08581         3.46291
| 29>    C        5.85528         1.07743         3.35102
| 30>    S        6.64672         0.59327         1.84821
| 31>    C        7.55677        -0.59572         2.69830
| 32>    C        7.25364        -0.61134         4.07257
| 33>    C        6.30487         0.32547         4.45375
| 34>    C        5.80635         0.44801         5.85623
| 35>    C        4.51547        -0.35366         6.04658
| 36>    S        8.16234        -1.80782         4.97886
| 37>    C        8.94473        -2.27724         3.51058
| 38>    C        8.51866        -1.55889         2.38639
| 39>    N        9.18295        -1.99302         1.26783
| 40>    C        9.25690        -1.08742         0.14040
| 41>    C       10.32448        -0.01948         0.37118
| 42>    C       10.05313        -2.99516         1.66276
| 43>    C        9.93366        -3.16783         3.07427
| 44>    C       10.78167        -4.03687         3.79696
| 45>    N       10.80824        -4.26982         5.09957
| 46>    S       12.02585        -5.28821         5.41430
| 47>    N       12.56456        -5.47434         3.89922
| 48>    C       11.80900        -4.74598         3.09287
| 49>    C       11.85534        -4.65523         1.68347
| 50>    C       10.93519        -3.84765         0.94858
| 51>    N       11.11326        -4.10315        -0.39544
| 52>    C       10.26531        -3.81843        -1.53109
| 53>    C       10.89990        -2.80332        -2.48147
| 54>    C       12.13337        -5.00696        -0.52327
| 55>    C       12.62224        -5.35378         0.74401
| 56>    S       13.89334        -6.52471         0.70787
| 57>    C       13.75331        -6.57256        -1.04016
| 58>    C       12.76574        -5.70966        -1.55142
| 59>    S       12.64999        -5.80778        -3.26731
| 60>    C       13.93458        -7.01849        -3.29756
| 61>    C       14.42280        -7.30557        -2.00811
| 62>    C       15.47662        -8.31102        -1.67821
| 63>    C       14.88224        -9.71959        -1.59515
| 64>    C       14.41487        -7.64877        -4.44653
| 65>    C       14.04588        -7.52682        -5.76689
| 66>    C       14.61400        -8.28159        -6.86519
| 67>    C       15.59903        -9.23478        -6.80723
| 68>    C       16.09489        -9.92891        -7.93125
| 69>    N       16.54393       -10.53038        -8.79976
| 70>    C       16.26241        -9.66956        -5.64105
| 71>    N       16.85021       -10.08304        -4.74414
| 72>    C       13.93655        -7.84849        -8.08767
| 73>    C       14.07945        -8.24240        -9.40734
| 74>    C       13.27999        -7.64018       -10.37388
| 75>   Cl       13.45007        -8.12485       -12.01281
| 76>    C       12.34786        -6.65460       -10.03384
| 77>   Cl       11.37889        -5.93065       -11.25306
| 78>    C       12.20061        -6.25763        -8.71036
| 79>    C       12.99416        -6.85965        -7.75654
| 80>    C       13.02672        -6.62287        -6.29955
| 81>    O       12.33835        -5.82482        -5.68684
| 82>    H        4.16377         3.75625        -1.61305
| 83>    H        1.43979         5.99214         1.90004
| 84>    H        4.55070         2.23375         4.47666
| 85>    H        5.62745         1.49104         6.12094
| 86>    H        6.57235         0.05162         6.52560
| 87>    H        3.73149         0.01539         5.38949
| 88>    H        4.17499        -0.26244         7.07390
| 89>    H        4.68703        -1.40478         5.82679
| 90>    H        8.27621        -0.61324         0.04796
| 91>    H        9.46774        -1.62151        -0.77782
| 92>    H       11.30499        -0.47782         0.48434
| 93>    H       10.10342         0.55103         1.26974
| 94>    H       10.34946         0.66323        -0.47331
| 95>    H        9.28710        -3.49825        -1.16954
| 96>    H       10.12182        -4.75750        -2.07672
| 97>    H       10.18202        -2.51410        -3.24377
| 98>    H       11.75837        -3.24763        -2.97719
| 99>    H       11.23539        -1.91422        -1.95302
|100>    H       15.90489        -8.04890        -0.70893
|101>    H       16.27616        -8.29871        -2.42000
|102>    H       14.10754        -9.75906        -0.83336
|103>    H       15.66143       -10.43148        -1.33926
|104>    H       14.44899       -10.01306        -2.54805
|105>    H       15.20483        -8.35875        -4.24397
|106>    H       14.78632        -8.99739        -9.70938
|107>    H       11.48517        -5.49955        -8.43370
|108> *
|109>
|110>                          ****END OF INPUT****

CARTESIAN COORDINATES (ANGSTROEM)
---------------------------------
  C      4.597550    2.875820    1.075310
  O      5.392160    2.173270    0.474680
  C      3.709080    3.891090    0.475330
  C      3.573910    4.241850   -0.851460
  C      2.656860    5.233040   -1.179270
  Cl     2.452620    5.695130   -2.820560
  C      1.899830    5.850600   -0.178630
  Cl     0.768360    7.073160   -0.596860
  C      2.042160    5.493830    1.158680
  C      2.954030    4.505590    1.489100
  C      3.326750    3.917080    2.775920
  C      2.817220    4.296790    3.991670
  C      3.178480    3.757880    5.243740
  N      3.419350    3.377220    6.300650
  C      1.848480    5.308590    4.160980
  N      1.062690    6.118380    4.370280
  C      4.324070    2.899890    2.512320
  C      4.896620    2.085810    3.462910
  C      5.855280    1.077430    3.351020
  S      6.646720    0.593270    1.848210
  C      7.556770   -0.595720    2.698300
  C      7.253640   -0.611340    4.072570
  C      6.304870    0.325470    4.453750
  C      5.806350    0.448010    5.856230
  C      4.515470   -0.353660    6.046580
  S      8.162340   -1.807820    4.978860
  C      8.944730   -2.277240    3.510580
  C      8.518660   -1.558890    2.386390
  N      9.182950   -1.993020    1.267830
  C      9.256900   -1.087420    0.140400
  C     10.324480   -0.019480    0.371180
  C     10.053130   -2.995160    1.662760
  C      9.933660   -3.167830    3.074270
  C     10.781670   -4.036870    3.796960
  N     10.808240   -4.269820    5.099570
  S     12.025850   -5.288210    5.414300
  N     12.564560   -5.474340    3.899220
  C     11.809000   -4.745980    3.092870
  C     11.855340   -4.655230    1.683470
  C     10.935190   -3.847650    0.948580
  N     11.113260   -4.103150   -0.395440
  C     10.265310   -3.818430   -1.531090
  C     10.899900   -2.803320   -2.481470
  C     12.133370   -5.006960   -0.523270
  C     12.622240   -5.353780    0.744010
  S     13.893340   -6.524710    0.707870
  C     13.753310   -6.572560   -1.040160
  C     12.765740   -5.709660   -1.551420
  S     12.649990   -5.807780   -3.267310
  C     13.934580   -7.018490   -3.297560
  C     14.422800   -7.305570   -2.008110
  C     15.476620   -8.311020   -1.678210
  C     14.882240   -9.719590   -1.595150
  C     14.414870   -7.648770   -4.446530
  C     14.045880   -7.526820   -5.766890
  C     14.614000   -8.281590   -6.865190
  C     15.599030   -9.234780   -6.807230
  C     16.094890   -9.928910   -7.931250
  N     16.543930  -10.530380   -8.799760
  C     16.262410   -9.669560   -5.641050
  N     16.850210  -10.083040   -4.744140
  C     13.936550   -7.848490   -8.087670
  C     14.079450   -8.242400   -9.407340
  C     13.279990   -7.640180  -10.373880
  Cl    13.450070   -8.124850  -12.012810
  C     12.347860   -6.654600  -10.033840
  Cl    11.378890   -5.930650  -11.253060
  C     12.200610   -6.257630   -8.710360
  C     12.994160   -6.859650   -7.756540
  C     13.026720   -6.622870   -6.299550
  O     12.338350   -5.824820   -5.686840
  H      4.163770    3.756250   -1.613050
  H      1.439790    5.992140    1.900040
  H      4.550700    2.233750    4.476660
  H      5.627450    1.491040    6.120940
  H      6.572350    0.051620    6.525600
  H      3.731490    0.015390    5.389490
  H      4.174990   -0.262440    7.073900
  H      4.687030   -1.404780    5.826790
  H      8.276210   -0.613240    0.047960
  H      9.467740   -1.621510   -0.777820
  H     11.304990   -0.477820    0.484340
  H     10.103420    0.551030    1.269740
  H     10.349460    0.663230   -0.473310
  H      9.287100   -3.498250   -1.169540
  H     10.121820   -4.757500   -2.076720
  H     10.182020   -2.514100   -3.243770
  H     11.758370   -3.247630   -2.977190
  H     11.235390   -1.914220   -1.953020
  H     15.904890   -8.048900   -0.708930
  H     16.276160   -8.298710   -2.420000
  H     14.107540   -9.759060   -0.833360
  H     15.661430  -10.431480   -1.339260
  H     14.448990  -10.013060   -2.548050
  H     15.204830   -8.358750   -4.243970
  H     14.786320   -8.997390   -9.709380
  H     11.485170   -5.499550   -8.433700

 Total Charge           Charge          ....    0
 Multiplicity           Mult            ....    1
 Number of Electrons    NEL             ....  558
 Basis Dimension        Dim             .... 1160

ORBITAL ENERGIES
----------------

  NO   OCC          E(Eh)            E(eV)
   0   2.0000    -101.602540     -2764.7457
   1   2.0000    -101.602461     -2764.7435
   2   2.0000    -101.600212     -2764.6823
   3   2.0000    -101.600165     -2764.6810
   4   2.0000     -89.012596     -2422.1559
   5   2.0000     -88.972581     -2421.0670
   6   2.0000     -88.971542     -2421.0387
   7   2.0000     -88.969752     -2420.9900
   8   2.0000     -88.969677     -2420.9880
   9   2.0000     -19.227286      -523.2010
  10   2.0000     -19.227007      -523.1934
  11   2.0000     -14.492505      -394.3611
  12   2.0000     -14.490025      -394.2936
  13   2.0000     -14.436250      -392.8303
  14   2.0000     -14.435822      -392.8187
  15   2.0000     -14.423881      -392.4938
  16   2.0000     -14.423557      -392.4849
  17   2.0000     -14.416675      -392.2977
  18   2.0000     -14.416488      -392.2926
  19   2.0000     -10.376062      -282.3470
  20   2.0000     -10.375772      -282.3391
  21   2.0000     -10.357975      -281.8548
  22   2.0000     -10.357756      -281.8489
  23   2.0000     -10.357326      -281.8372
  24   2.0000     -10.357114      -281.8314
  25   2.0000     -10.348125      -281.5868
  26   2.0000     -10.347322      -281.5650
  27   2.0000     -10.346777      -281.5501
  28   2.0000     -10.346621      -281.5459
  29   2.0000     -10.345498      -281.5153
  30   2.0000     -10.345294      -281.5098
  31   2.0000     -10.341216      -281.3988
  32   2.0000     -10.337516      -281.2981
  33   2.0000     -10.327740      -281.0321
  34   2.0000     -10.327014      -281.0123
  35   2.0000     -10.327010      -281.0122
  36   2.0000     -10.326785      -281.0061
  37   2.0000     -10.326362      -280.9946
  38   2.0000     -10.325998      -280.9847
  39   2.0000     -10.325157      -280.9618
  40   2.0000     -10.324859      -280.9537
  41   2.0000     -10.322598      -280.8922
  42   2.0000     -10.321714      -280.8681
  43   2.0000     -10.319920      -280.8193
  44   2.0000     -10.319677      -280.8127
  45   2.0000     -10.319418      -280.8056
  46   2.0000     -10.319149      -280.7983
  47   2.0000     -10.317071      -280.7418
  48   2.0000     -10.316853      -280.7358
  49   2.0000     -10.314180      -280.6631
  50   2.0000     -10.313918      -280.6560
  51   2.0000     -10.313777      -280.6521
  52   2.0000     -10.313660      -280.6490
  53   2.0000     -10.311959      -280.6027
  54   2.0000     -10.311834      -280.5993
  55   2.0000     -10.311734      -280.5966
  56   2.0000     -10.311652      -280.5943
  57   2.0000     -10.310301      -280.5576
  58   2.0000     -10.310133      -280.5530
  59   2.0000     -10.303327      -280.3678
  60   2.0000     -10.303083      -280.3611
  61   2.0000     -10.299655      -280.2679
  62   2.0000     -10.298338      -280.2320
  63   2.0000     -10.298327      -280.2317
  64   2.0000     -10.298082      -280.2250
  65   2.0000     -10.287191      -279.9287
  66   2.0000     -10.286891      -279.9205
  67   2.0000     -10.286503      -279.9100
  68   2.0000     -10.283770      -279.8356
  69   2.0000     -10.267188      -279.3844
  70   2.0000     -10.266253      -279.3590
  71   2.0000      -9.557604      -260.0756
  72   2.0000      -9.557477      -260.0722
  73   2.0000      -9.555255      -260.0117
  74   2.0000      -9.555183      -260.0097
  75   2.0000      -8.104912      -220.5459
  76   2.0000      -8.064908      -219.4573
  77   2.0000      -8.064037      -219.4336
  78   2.0000      -8.063858      -219.4287
  79   2.0000      -8.063829      -219.4279
  80   2.0000      -7.327976      -199.4044
  81   2.0000      -7.327858      -199.4011
  82   2.0000      -7.325663      -199.3414
  83   2.0000      -7.325589      -199.3394
  84   2.0000      -7.317867      -199.1293
  85   2.0000      -7.317744      -199.1259
  86   2.0000      -7.317141      -199.1095
  87   2.0000      -7.317013      -199.1061
  88   2.0000      -7.315494      -199.0647
  89   2.0000      -7.315427      -199.0629
  90   2.0000      -7.314774      -199.0451
  91   2.0000      -7.314710      -199.0434
  92   2.0000      -6.076450      -165.3486
  93   2.0000      -6.068731      -165.1386
  94   2.0000      -6.066489      -165.0776
  95   2.0000      -6.034770      -164.2144
  96   2.0000      -6.033892      -164.1905
  97   2.0000      -6.033754      -164.1868
  98   2.0000      -6.033675      -164.1846
  99   2.0000      -6.030102      -164.0874
 100   2.0000      -6.029750      -164.0778
 101   2.0000      -6.029740      -164.0776
 102   2.0000      -6.029282      -164.0651
 103   2.0000      -6.026532      -163.9903
 104   2.0000      -6.025580      -163.9644
 105   2.0000      -6.024797      -163.9431
 106   2.0000      -6.024753      -163.9419
 107   2.0000      -1.142632       -31.0926
 108   2.0000      -1.142345       -31.0848
 109   2.0000      -1.124185       -30.5906
 110   2.0000      -1.116404       -30.3789
 111   2.0000      -1.109542       -30.1922
 112   2.0000      -1.033217       -28.1153
 113   2.0000      -1.033064       -28.1111
 114   2.0000      -1.020322       -27.7644
 115   2.0000      -1.020091       -27.7581
 116   2.0000      -1.017571       -27.6895
 117   2.0000      -1.016191       -27.6520
 118   2.0000      -0.999163       -27.1886
 119   2.0000      -0.999127       -27.1876
 120   2.0000      -0.993524       -27.0352
 121   2.0000      -0.993364       -27.0308
 122   2.0000      -0.978403       -26.6237
 123   2.0000      -0.972254       -26.4564
 124   2.0000      -0.963460       -26.2171
 125   2.0000      -0.963350       -26.2141
 126   2.0000      -0.960583       -26.1388
 127   2.0000      -0.953547       -25.9473
 128   2.0000      -0.935845       -25.4656
 129   2.0000      -0.934272       -25.4228
 130   2.0000      -0.917285       -24.9606
 131   2.0000      -0.905223       -24.6324
 132   2.0000      -0.902785       -24.5660
 133   2.0000      -0.901808       -24.5395
 134   2.0000      -0.900333       -24.4993
 135   2.0000      -0.894297       -24.3351
 136   2.0000      -0.875388       -23.8205
 137   2.0000      -0.872557       -23.7435
 138   2.0000      -0.863487       -23.4967
 139   2.0000      -0.862836       -23.4789
 140   2.0000      -0.862604       -23.4727
 141   2.0000      -0.849604       -23.1189
 142   2.0000      -0.836915       -22.7736
 143   2.0000      -0.832980       -22.6665
 144   2.0000      -0.822108       -22.3707
 145   2.0000      -0.806336       -21.9415
 146   2.0000      -0.806246       -21.9391
 147   2.0000      -0.803369       -21.8608
 148   2.0000      -0.787265       -21.4226
 149   2.0000      -0.771704       -20.9991
 150   2.0000      -0.770593       -20.9689
 151   2.0000      -0.760620       -20.6975
 152   2.0000      -0.757869       -20.6227
 153   2.0000      -0.756510       -20.5857
 154   2.0000      -0.739518       -20.1233
 155   2.0000      -0.729077       -19.8392
 156   2.0000      -0.726922       -19.7805
 157   2.0000      -0.720259       -19.5992
 158   2.0000      -0.713194       -19.4070
 159   2.0000      -0.702878       -19.1263
 160   2.0000      -0.700492       -19.0614
 161   2.0000      -0.698811       -19.0156
 162   2.0000      -0.698533       -19.0081
 163   2.0000      -0.690942       -18.8015
 164   2.0000      -0.673870       -18.3369
 165   2.0000      -0.667555       -18.1651
 166   2.0000      -0.664380       -18.0787
 167   2.0000      -0.658813       -17.9272
 168   2.0000      -0.645573       -17.5669
 169   2.0000      -0.637958       -17.3597
 170   2.0000      -0.637002       -17.3337
 171   2.0000      -0.627535       -17.0761
 172   2.0000      -0.624779       -17.0011
 173   2.0000      -0.622599       -16.9418
 174   2.0000      -0.619221       -16.8498
 175   2.0000      -0.614953       -16.7337
 176   2.0000      -0.605582       -16.4787
 177   2.0000      -0.599911       -16.3244
 178   2.0000      -0.594318       -16.1722
 179   2.0000      -0.589279       -16.0351
 180   2.0000      -0.587962       -15.9993
 181   2.0000      -0.580039       -15.7837
 182   2.0000      -0.576938       -15.6993
 183   2.0000      -0.571848       -15.5608
 184   2.0000      -0.567007       -15.4291
 185   2.0000      -0.562680       -15.3113
 186   2.0000      -0.560525       -15.2527
 187   2.0000      -0.556840       -15.1524
 188   2.0000      -0.552785       -15.0421
 189   2.0000      -0.552450       -15.0329
 190   2.0000      -0.551804       -15.0153
 191   2.0000      -0.549868       -14.9627
 192   2.0000      -0.549790       -14.9605
 193   2.0000      -0.549031       -14.9399
 194   2.0000      -0.543563       -14.7911
 195   2.0000      -0.542867       -14.7722
 196   2.0000      -0.539716       -14.6864
 197   2.0000      -0.536440       -14.5973
 198   2.0000      -0.534772       -14.5519
 199   2.0000      -0.530405       -14.4330
 200   2.0000      -0.528712       -14.3870
 201   2.0000      -0.525276       -14.2935
 202   2.0000      -0.517565       -14.0836
 203   2.0000      -0.516277       -14.0486
 204   2.0000      -0.513675       -13.9778
 205   2.0000      -0.512187       -13.9373
 206   2.0000      -0.510933       -13.9032
 207   2.0000      -0.510381       -13.8882
 208   2.0000      -0.507536       -13.8108
 209   2.0000      -0.502095       -13.6627
 210   2.0000      -0.499826       -13.6009
 211   2.0000      -0.498598       -13.5675
 212   2.0000      -0.496122       -13.5002
 213   2.0000      -0.492897       -13.4124
 214   2.0000      -0.490266       -13.3408
 215   2.0000      -0.488736       -13.2992
 216   2.0000      -0.484087       -13.1727
 217   2.0000      -0.482511       -13.1298
 218   2.0000      -0.480685       -13.0801
 219   2.0000      -0.479485       -13.0475
 220   2.0000      -0.477878       -13.0037
 221   2.0000      -0.474808       -12.9202
 222   2.0000      -0.470776       -12.8105
 223   2.0000      -0.470139       -12.7931
 224   2.0000      -0.467527       -12.7221
 225   2.0000      -0.461893       -12.5687
 226   2.0000      -0.461018       -12.5449
 227   2.0000      -0.457214       -12.4414
 228   2.0000      -0.455637       -12.3985
 229   2.0000      -0.455388       -12.3917
 230   2.0000      -0.454606       -12.3705
 231   2.0000      -0.452582       -12.3154
 232   2.0000      -0.446755       -12.1568
 233   2.0000      -0.446692       -12.1551
 234   2.0000      -0.446128       -12.1398
 235   2.0000      -0.441601       -12.0166
 236   2.0000      -0.441385       -12.0107
 237   2.0000      -0.438652       -11.9363
 238   2.0000      -0.434955       -11.8357
 239   2.0000      -0.434812       -11.8318
 240   2.0000      -0.433817       -11.8047
 241   2.0000      -0.430730       -11.7208
 242   2.0000      -0.430585       -11.7168
 243   2.0000      -0.430530       -11.7153
 244   2.0000      -0.429637       -11.6910
 245   2.0000      -0.429189       -11.6788
 246   2.0000      -0.427109       -11.6222
 247   2.0000      -0.426634       -11.6093
 248   2.0000      -0.420408       -11.4399
 249   2.0000      -0.417412       -11.3584
 250   2.0000      -0.417336       -11.3563
 251   2.0000      -0.411002       -11.1839
 252   2.0000      -0.409451       -11.1417
 253   2.0000      -0.409345       -11.1389
 254   2.0000      -0.407581       -11.0908
 255   2.0000      -0.407040       -11.0761
 256   2.0000      -0.405818       -11.0429
 257   2.0000      -0.398207       -10.8358
 258   2.0000      -0.395642       -10.7660
 259   2.0000      -0.395373       -10.7587
 260   2.0000      -0.383389       -10.4326
 261   2.0000      -0.383232       -10.4283
 262   2.0000      -0.369365       -10.0509
 263   2.0000      -0.368793       -10.0354
 264   2.0000      -0.366976        -9.9859
 265   2.0000      -0.351856        -9.5745
 266   2.0000      -0.344133        -9.3643
 267   2.0000      -0.341839        -9.3019
 268   2.0000      -0.341493        -9.2925
 269   2.0000      -0.340645        -9.2694
 270   2.0000      -0.340210        -9.2576
 271   2.0000      -0.318519        -8.6673
 272   2.0000      -0.318297        -8.6613
 273   2.0000      -0.314633        -8.5616
 274   2.0000      -0.309219        -8.4143
 275   2.0000      -0.293059        -7.9745
 276   2.0000      -0.280079        -7.6213
 277   2.0000      -0.279800        -7.6137
 278   2.0000      -0.244685        -6.6582
 279   0.0000      -0.102976        -2.8021
 280   0.0000      -0.091098        -2.4789
 281   0.0000      -0.072503        -1.9729
 282   0.0000      -0.069031        -1.8784
 283   0.0000      -0.045647        -1.2421

MULLIKEN ATOMIC CHARGES
-----------------------
   0 C :    0.159531
   1 O :   -0.180925
   2 C :   -0.010386
   3 C :   -0.032405
   4 C :    0.059356
   5 Cl:   -0.045241
   6 C :    0.045641
   7 Cl:   -0.035834
   8 C :   -0.011726
   9 C :    0.026319
  10 C :    0.321002
  11 C :   -0.355468
  12 C :   -0.182511
  13 N :    0.145191
  14 C :   -0.192122
  15 N :    0.155320
  16 C :   -0.104578
  17 C :   -0.031059
  18 C :   -0.082957
  19 S :    0.170672
  20 C :   -0.025054
  21 C :   -0.085368
  22 C :   -0.067537
  23 C :    0.053220
  24 C :    0.030515
  25 S :    0.192874
  26 C :   -0.084167
  27 C :    0.023490
  28 N :   -0.161706
  29 C :    0.098267
  30 C :    0.001662
  31 C :    0.047253
  32 C :   -0.061964
  33 C :   -0.004886
  34 N :   -0.264059
  35 S :    0.472200
  36 N :   -0.263107
  37 C :   -0.006150
  38 C :   -0.058401
  39 C :    0.056238
  40 N :   -0.155417
  41 C :    0.070116
  42 C :    0.009440
  43 C :    0.028678
  44 C :   -0.090962
  45 S :    0.192448
  46 C :   -0.086197
  47 C :   -0.023444
  48 S :    0.176504
  49 C :   -0.087740
  50 C :   -0.067598
  51 C :    0.052135
  52 C :    0.034737
  53 C :   -0.031751
  54 C :   -0.103560
  55 C :    0.320987
  56 C :   -0.355225
  57 C :   -0.193467
  58 N :    0.157669
  59 C :   -0.182139
  60 N :    0.143912
  61 C :    0.027329
  62 C :   -0.014529
  63 C :    0.047830
  64 Cl:   -0.035761
  65 C :    0.060037
  66 Cl:   -0.044796
  67 C :   -0.034915
  68 C :   -0.009887
  69 C :    0.159123
  70 O :   -0.181694
  71 H :   -0.004655
  72 H :   -0.000247
  73 H :   -0.016129
  74 H :    0.038115
  75 H :    0.013615
  76 H :    0.014326
  77 H :    0.034757
  78 H :    0.015883
  79 H :    0.040039
  80 H :   -0.001270
  81 H :    0.033475
  82 H :    0.037300
  83 H :    0.032770
  84 H :    0.040532
  85 H :    0.041509
  86 H :    0.033139
  87 H :    0.035235
  88 H :    0.025908
  89 H :    0.013892
  90 H :    0.037342
  91 H :    0.015362
  92 H :    0.034866
  93 H :    0.013886
  94 H :   -0.017601
  95 H :    0.000100
  96 H :   -0.005158
Sum of atomic charges:   -0.0000000

LOEWDIN ATOMIC CHARGES
----------------------
   0 C :    0.083184
   1 O :   -0.170455
   2 C :   -0.042727
   3 C :   -0.001845
   4 C :   -0.135540
   5 Cl:    0.156803
   6 C :   -0.131699
   7 Cl:    0.161225
   8 C :   -0.011802
   9 C :   -0.013029
  10 C :    0.077814
  11 C :   -0.146140
  12 C :   -0.017985
  13 N :   -0.056953
  14 C :   -0.020998
  15 N :   -0.051396
  16 C :   -0.124610
  17 C :    0.056781
  18 C :   -0.188890
  19 S :    0.475410
  20 C :   -0.194547
  21 C :   -0.196057
  22 C :   -0.008060
  23 C :   -0.030542
  24 C :   -0.041702
  25 S :    0.423564
  26 C :   -0.165037
  27 C :   -0.044074
  28 N :    0.039824
  29 C :    0.040193
  30 C :   -0.058231
  31 C :    0.011262
  32 C :   -0.074314
  33 C :   -0.055992
  34 N :   -0.286182
  35 S :    0.605530
  36 N :   -0.287213
  37 C :   -0.054803
  38 C :   -0.078851
  39 C :    0.014420
  40 N :    0.045814
  41 C :    0.038795
  42 C :   -0.065394
  43 C :   -0.044603
  44 C :   -0.164322
  45 S :    0.423894
  46 C :   -0.195901
  47 C :   -0.193372
  48 S :    0.480847
  49 C :   -0.190093
  50 C :   -0.007927
  51 C :   -0.030525
  52 C :   -0.041121
  53 C :    0.056591
  54 C :   -0.124753
  55 C :    0.077625
  56 C :   -0.146039
  57 C :   -0.021206
  58 N :   -0.051126
  59 C :   -0.018160
  60 N :   -0.056677
  61 C :   -0.012893
  62 C :   -0.012065
  63 C :   -0.131357
  64 Cl:    0.161211
  65 C :   -0.135475
  66 Cl:    0.156723
  67 C :   -0.001863
  68 C :   -0.042809
  69 C :    0.083181
  70 O :   -0.171126
  71 H :    0.044110
  72 H :    0.044448
  73 H :    0.047590
  74 H :    0.038013
  75 H :    0.031716
  76 H :    0.024062
  77 H :    0.033326
  78 H :    0.025686
  79 H :    0.029041
  80 H :    0.025154
  81 H :    0.029060
  82 H :    0.032442
  83 H :    0.034617
  84 H :    0.029015
  85 H :    0.033418
  86 H :    0.036561
  87 H :    0.024756
  88 H :    0.026176
  89 H :    0.031786
  90 H :    0.037838
  91 H :    0.025252
  92 H :    0.033748
  93 H :    0.023845
  94 H :    0.047547
  95 H :    0.044580
  96 H :    0.044005

  Mayer bond orders larger than 0.100000
B(  0-C ,  1-O ) :   2.1336 B(  0-C ,  2-C ) :   0.9560 B(  0-C , 16-C ) :   0.9833
B(  2-C ,  3-C ) :   1.3495 B(  2-C ,  9-C ) :   1.3317 B(  3-C ,  4-C ) :   1.3350
B(  3-C , 71-H ) :   1.0167 B(  4-C ,  5-Cl) :   1.0442 B(  4-C ,  6-C ) :   1.4147
B(  6-C ,  7-Cl) :   1.0757 B(  6-C ,  8-C ) :   1.3533 B(  8-C ,  9-C ) :   1.3496
B(  8-C , 72-H ) :   0.9858 B(  9-C , 10-C ) :   0.9824 B( 10-C , 11-C ) :   1.6143
B( 10-C , 16-C ) :   1.1031 B( 11-C , 12-C ) :   1.1523 B( 11-C , 14-C ) :   1.1458
B( 12-C , 13-N ) :   2.9596 B( 14-C , 15-N ) :   2.9700 B( 16-C , 17-C ) :   1.4648
B( 17-C , 18-C ) :   1.3197 B( 17-C , 73-H ) :   0.9278 B( 18-C , 19-S ) :   1.0318
B( 18-C , 22-C ) :   1.3591 B( 19-S , 20-C ) :   1.0304 B( 20-C , 21-C ) :   1.3908
B( 20-C , 27-C ) :   1.2923 B( 21-C , 22-C ) :   1.4286 B( 21-C , 25-S ) :   1.0182
B( 22-C , 23-C ) :   1.0776 B( 23-C , 24-C ) :   1.1020 B( 23-C , 74-H ) :   0.9042
B( 23-C , 75-H ) :   0.9221 B( 24-C , 76-H ) :   0.9699 B( 24-C , 77-H ) :   0.9670
B( 24-C , 78-H ) :   0.9669 B( 25-S , 26-C ) :   1.0230 B( 26-C , 27-C ) :   1.4115
B( 26-C , 32-C ) :   1.3535 B( 27-C , 28-N ) :   1.1447 B( 27-C , 31-C ) :   0.1015
B( 28-N , 29-C ) :   0.9579 B( 28-N , 31-C ) :   1.1699 B( 29-C , 30-C ) :   1.1062
B( 29-C , 79-H ) :   0.9371 B( 29-C , 80-H ) :   0.9440 B( 30-C , 81-H ) :   0.9650
B( 30-C , 82-H ) :   0.9627 B( 30-C , 83-H ) :   0.9658 B( 31-C , 32-C ) :   1.3813
B( 31-C , 39-C ) :   1.1316 B( 32-C , 33-C ) :   1.1071 B( 33-C , 34-N ) :   1.6309
B( 33-C , 37-C ) :   1.1491 B( 34-N , 35-S ) :   1.2246 B( 34-N , 36-N ) :   0.1295
B( 35-S , 36-N ) :   1.2229 B( 36-N , 37-C ) :   1.6309 B( 37-C , 38-C ) :   1.1118
B( 38-C , 39-C ) :   1.3668 B( 38-C , 44-C ) :   1.3580 B( 39-C , 40-N ) :   1.1896
B( 39-C , 43-C ) :   0.1071 B( 40-N , 41-C ) :   0.9406 B( 40-N , 43-C ) :   1.1446
B( 41-C , 42-C ) :   1.0981 B( 41-C , 84-H ) :   0.9536 B( 41-C , 85-H ) :   0.9425
B( 42-C , 86-H ) :   0.9639 B( 42-C , 87-H ) :   0.9529 B( 42-C , 88-H ) :   0.9629
B( 43-C , 44-C ) :   1.4059 B( 43-C , 47-C ) :   1.2934 B( 44-C , 45-S ) :   1.0243
B( 45-S , 46-C ) :   1.0181 B( 46-C , 47-C ) :   1.3868 B( 46-C , 50-C ) :   1.4317
B( 47-C , 48-S ) :   1.0295 B( 48-S , 49-C ) :   1.0366 B( 49-C , 50-C ) :   1.3558
B( 49-C , 53-C ) :   1.3201 B( 50-C , 51-C ) :   1.0775 B( 51-C , 52-C ) :   1.1029
B( 51-C , 89-H ) :   0.9219 B( 51-C , 90-H ) :   0.9047 B( 52-C , 91-H ) :   0.9660
B( 52-C , 92-H ) :   0.9663 B( 52-C , 93-H ) :   0.9695 B( 53-C , 54-C ) :   1.4656
B( 53-C , 94-H ) :   0.9285 B( 54-C , 55-C ) :   1.1021 B( 54-C , 69-C ) :   0.9825
B( 55-C , 56-C ) :   1.6136 B( 55-C , 61-C ) :   0.9816 B( 56-C , 57-C ) :   1.1450
B( 56-C , 59-C ) :   1.1528 B( 57-C , 58-N ) :   2.9708 B( 59-C , 60-N ) :   2.9566
B( 61-C , 62-C ) :   1.3496 B( 61-C , 68-C ) :   1.3332 B( 62-C , 63-C ) :   1.3505
B( 62-C , 95-H ) :   0.9867 B( 63-C , 64-Cl) :   1.0758 B( 63-C , 65-C ) :   1.4144
B( 65-C , 66-Cl) :   1.0446 B( 65-C , 67-C ) :   1.3353 B( 67-C , 68-C ) :   1.3445
B( 67-C , 96-H ) :   1.0185 B( 68-C , 69-C ) :   0.9579 B( 69-C , 70-O ) :   2.1326

-----------------------------------------------------------------------------
         ABSORPTION SPECTRUM VIA TRANSITION ELECTRIC DIPOLE MOMENTS
-----------------------------------------------------------------------------
State   Energy  Wavelength   fosc         T2         TX        TY        TZ
        (cm-1)    (nm)                  (au**2)     (au)      (au)      (au)
-----------------------------------------------------------------------------
   0   16478.7    606.8   2.353082615  47.01007  -3.97817   4.37977   3.46437
   1   20274.6    493.2   0.591131352   9.59858   1.17797  -1.06369   2.66074
   2   23376.4    427.8   0.008961520   0.12621   0.12566  -0.18851  -0.27364
   3   23876.9    418.8   0.127784613   1.76188  -0.50182   0.45610  -1.14107
   4   24152.3    414.0   0.236250800   3.22026   0.62687  -0.71437   1.52216
   5   25252.8    396.0   0.092127992   1.20104   0.71615  -0.58061  -0.59251
   6   26025.6    384.2   0.164371600   2.07922   0.53353  -0.48940   1.24702
   7   27171.3    368.0   0.017855220   0.21634   0.40063  -0.08831  -0.21917
   8   28763.2    347.7   0.067876029   0.77688   0.39026  -0.67083  -0.41781
   9   29733.4    336.3   0.102519661   1.13511  -0.37113   0.37920  -0.92390
  10   29971.9    333.6   0.004268116   0.04688   0.13661  -0.12494   0.11229
  11   30337.7    329.6   0.004376150   0.04749   0.10781   0.01078   0.18907
  12   30484.6    328.0   0.011335461   0.12241  -0.00170  -0.09257   0.33741
  13   30551.3    327.3   0.028902080   0.31144  -0.49226   0.25221   0.07421
  14   30753.7    325.2   0.130035802   1.39201  -0.36079   0.41037  -1.04567
  15   32007.9    312.4   0.152108089   1.56448   0.24127  -0.12582   1.22084
  16   32042.8    312.1   0.098755743   1.01463   0.57917  -0.63733   0.52250
  17   32457.1    308.1   0.022913499   0.23241  -0.23287   0.30855  -0.28807
  18   32559.8    307.1   0.001804375   0.01824  -0.08896   0.08433  -0.05673
  19   32765.3    305.2   0.206046638   2.07027  -0.49666   0.50300  -1.25323
  20   33163.2    301.5   0.043020711   0.42707  -0.53667   0.18674   0.32277
  21   33494.5    298.6   0.011848391   0.11646  -0.10569   0.17317   0.27440
  22   33700.2    296.7   0.146276663   1.42895  -0.38616   0.46198  -1.03267
  23   34505.8    289.8   0.025743765   0.24562  -0.14124   0.20659  -0.42777
  24   34832.2    287.1   0.013008185   0.12295   0.03563  -0.20596  -0.28153
  25   34977.2    285.9   0.532135111   5.00856  -1.14021   1.03300  -1.62524
  26   35003.8    285.7   0.214861508   2.02078  -0.26633  -0.05010   1.39547
  27   35581.1    281.0   0.528003419   4.88532   1.43436  -1.22435  -1.15278
  28   36214.6    276.1   0.147614057   1.34190  -0.33076   0.46888  -1.00630
  29   36745.6    272.1   0.098906353   0.88612  -0.47522   0.58199   0.56708
  30   36796.5    271.8   0.125008661   1.11843  -0.62713   0.70808   0.47303
  31   37093.7    269.6   0.214235151   1.90137  -0.79920   0.87792   0.70135
  32   37511.9    266.6   0.091133288   0.79980  -0.33269   0.35519  -0.75031
  33   37554.2    266.3   0.061342002   0.53774   0.31160  -0.27753   0.60301
  34   37724.6    265.1   0.003888957   0.03394   0.02627  -0.03201   0.17951
  35   37909.0    263.8   0.005236294   0.04547  -0.18450   0.09388   0.05116
  36   39146.3    255.5   0.022956872   0.19306   0.25173  -0.29210  -0.21065
  37   39591.0    252.6   0.038264395   0.31818   0.14805  -0.24503   0.48603
  38   40177.4    248.9   0.009055930   0.07420  -0.20563   0.05243  -0.17080
  39   40262.6    248.4   0.065487275   0.53546   0.24489  -0.27483   0.63243

FINAL SINGLE POINT ENERGY     -6412.949112550391

DIPOLE MOMENT
-------------
                                X             Y             Z
Electronic contribution:    -22.06173      19.91677     -50.41871
Nuclear contribution   :     21.99858     -19.60592      49.92314
                        -----------------------------------------
Total Dipole Moment    :     -0.06315       0.31085      -0.49557
                        -----------------------------------------
Magnitude (a.u.)       :      0.58839
Magnitude (Debye)      :      1.49556

Rotational constants in cm-1:     0.001014     0.000269     0.000214
Rotational constants in MHz :    30.392305     8.054301     6.420837

                             ****ORCA TERMINATED NORMALLY****
TOTAL RUN TIME: 0 days 1 hours 4 minutes 49 seconds 743 msec
