                         Program Version 4.2.0 -  RELEASE  -
|  1> # ORCA input file
|  2> # BTSe-4F.out
|  3> ! CAM-B3LYP def2-SVP def2/J RIJCOSX Grid4 TightSCF
|  4> %maxcore 5000
|  5> %tddft
|  6>     Mode sTDDFT
|  7>     Ethresh 5.0
|  8>     maxcore 5000
|  9> end
| 10> * xyz 0 1
| 11>    C        0.85050        -0.50188         0.10754
| 12>    C        1.47105         0.76645        -0.00263
| 13>    C        2.96576         0.80370        -0.02309
| 14>    C        3.63020        -0.44233         0.11639
| 15>    C        2.97160        -1.66698         0.22818
| 16>    C        1.55656        -1.69784         0.21199
| 17>    N        3.58935        -2.87051         0.33562
| 18>    S        2.30886        -3.91663         0.40696
| 19>    N        0.98749        -2.92591         0.30996
| 20>    N        3.97037         1.78052        -0.16273
| 21>    C        5.18140         1.12173        -0.09877
| 22>    C        4.98002        -0.20031         0.09296
| 23>    C       -0.51363        -0.31507         0.08715
| 24>    C       -0.75145         0.98675         0.00183
| 25>    N        0.43170         1.69786        -0.06596
| 26>   Se       -1.96741        -1.36379         0.13875
| 27>    C       -3.00423         0.18950         0.10481
| 28>    C       -2.13338         1.32370         0.00026
| 29>    C        6.59103         1.42644        -0.22359
| 30>    C        7.37286         0.30065        -0.06277
| 31>    S        6.41649        -1.09084         0.18447
| 32>    S        7.69512         2.68177        -0.61727
| 33>    C        9.19275         1.78014        -0.53230
| 34>    C        8.76892         0.44467        -0.23686
| 35>    C        0.47770         3.14857        -0.16867
| 36>    C        3.91612         3.22240        -0.35469
| 37>    C       -4.57214         0.25783         0.06024
| 38>    C       -5.50580        -0.77359         0.20630
| 39>    C       10.40784         1.88652        -1.45126
| 40>    C       11.80342         1.77537        -1.32286
| 41>    C       -5.16634        -2.16723         0.60674
| 42>    C       -6.26292        -3.05043         0.35154
| 43>    C       -7.36599        -2.32999        -0.03938
| 44>    C       -7.06264        -0.83203         0.02305
| 45>    C       12.34823         0.78789        -2.32365
| 46>    C       13.32072        -0.04352        -1.59829
| 47>    C       13.66832         0.59144        -0.44073
| 48>    C       13.00877         1.88900        -0.36640
| 49>    C       -6.24999        -4.44765         0.44198
| 50>    C       -7.39679        -5.15668         0.08025
| 51>    C       -8.52265        -4.46522        -0.37478
| 52>    C       -8.51395        -3.06469        -0.43988
| 53>    C       13.80959        -1.32458        -1.87905
| 54>    C       14.63212        -1.95682        -0.92151
| 55>    C       14.96327        -1.29954         0.27983
| 56>    C       14.49271        -0.00539         0.51865
| 57>    O       -4.15875        -2.55479         1.16110
| 58>    C       -8.07607         0.14102        -0.03636
| 59>    C       -7.80643         1.63690        -0.03189
| 60>    C       -9.50634        -0.37340        -0.04702
| 61>    F       -7.40848        -6.51136         0.14038
| 62>    F       -9.62724        -5.15083        -0.76375
| 63>    O       11.82781         0.44327        -3.37525
| 64>    C       13.70330         3.02265         0.06162
| 65>    C       13.07019         4.40452         0.05739
| 66>    C       15.21654         2.88001         0.07322
| 67>    F       15.71682        -1.92237         1.22097
| 68>    F       15.08029        -3.21733        -1.13810
| 69>    N      -10.69286        -0.80014        -0.05585
| 70>    N       -7.58275         2.87786        -0.02818
| 71>    N       16.47191         2.76168         0.08284
| 72>    N       12.54498         5.55089         0.05388
| 73>    C        9.64461        -0.78121        -0.26490
| 74>    H       -2.50412         2.33644        -0.06974
| 75>    H       -0.54285         3.58208        -0.16059
| 76>    H        0.93495         3.43705        -1.13559
| 77>    H        1.01365         3.56572         0.70879
| 78>    H        2.90662         3.60617        -0.37977
| 79>    H        4.44785         3.72350         0.48128
| 80>    H        4.41060         3.48860        -1.31183
| 81>    H       -4.97641         1.23207        -0.18923
| 82>    H       10.02678         1.58556        -2.42376
| 83>    H       -5.36286        -4.97761         0.76326
| 84>    H       -9.40465        -2.62938        -0.83349
| 85>    H       13.52629        -1.84175        -2.78416
| 86>    H       14.71980         0.49992         1.45113
| 87>    H       10.70795        -0.54501        -0.44377
| 88>    H        9.30037        -1.46416        -1.07223
| 89>    H        9.57409        -1.31327         0.70588
| 90> *
| 91>
| 92>                          ****END OF INPUT****

CARTESIAN COORDINATES (ANGSTROEM)
---------------------------------
  C      0.850500   -0.501880    0.107540
  C      1.471050    0.766450   -0.002630
  C      2.965760    0.803700   -0.023090
  C      3.630200   -0.442330    0.116390
  C      2.971600   -1.666980    0.228180
  C      1.556560   -1.697840    0.211990
  N      3.589350   -2.870510    0.335620
  S      2.308860   -3.916630    0.406960
  N      0.987490   -2.925910    0.309960
  N      3.970370    1.780520   -0.162730
  C      5.181400    1.121730   -0.098770
  C      4.980020   -0.200310    0.092960
  C     -0.513630   -0.315070    0.087150
  C     -0.751450    0.986750    0.001830
  N      0.431700    1.697860   -0.065960
  Se    -1.967410   -1.363790    0.138750
  C     -3.004230    0.189500    0.104810
  C     -2.133380    1.323700    0.000260
  C      6.591030    1.426440   -0.223590
  C      7.372860    0.300650   -0.062770
  S      6.416490   -1.090840    0.184470
  S      7.695120    2.681770   -0.617270
  C      9.192750    1.780140   -0.532300
  C      8.768920    0.444670   -0.236860
  C      0.477700    3.148570   -0.168670
  C      3.916120    3.222400   -0.354690
  C     -4.572140    0.257830    0.060240
  C     -5.505800   -0.773590    0.206300
  C     10.407840    1.886520   -1.451260
  C     11.803420    1.775370   -1.322860
  C     -5.166340   -2.167230    0.606740
  C     -6.262920   -3.050430    0.351540
  C     -7.365990   -2.329990   -0.039380
  C     -7.062640   -0.832030    0.023050
  C     12.348230    0.787890   -2.323650
  C     13.320720   -0.043520   -1.598290
  C     13.668320    0.591440   -0.440730
  C     13.008770    1.889000   -0.366400
  C     -6.249990   -4.447650    0.441980
  C     -7.396790   -5.156680    0.080250
  C     -8.522650   -4.465220   -0.374780
  C     -8.513950   -3.064690   -0.439880
  C     13.809590   -1.324580   -1.879050
  C     14.632120   -1.956820   -0.921510
  C     14.963270   -1.299540    0.279830
  C     14.492710   -0.005390    0.518650
  O     -4.158750   -2.554790    1.161100
  C     -8.076070    0.141020   -0.036360
  C     -7.806430    1.636900   -0.031890
  C     -9.506340   -0.373400   -0.047020
  F     -7.408480   -6.511360    0.140380
  F     -9.627240   -5.150830   -0.763750
  O     11.827810    0.443270   -3.375250
  C     13.703300    3.022650    0.061620
  C     13.070190    4.404520    0.057390
  C     15.216540    2.880010    0.073220
  F     15.716820   -1.922370    1.220970
  F     15.080290   -3.217330   -1.138100
  N    -10.692860   -0.800140   -0.055850
  N     -7.582750    2.877860   -0.028180
  N     16.471910    2.761680    0.082840
  N     12.544980    5.550890    0.053880
  C      9.644610   -0.781210   -0.264900
  H     -2.504120    2.336440   -0.069740
  H     -0.542850    3.582080   -0.160590
  H      0.934950    3.437050   -1.135590
  H      1.013650    3.565720    0.708790
  H      2.906620    3.606170   -0.379770
  H      4.447850    3.723500    0.481280
  H      4.410600    3.488600   -1.311830
  H     -4.976410    1.232070   -0.189230
  H     10.026780    1.585560   -2.423760
  H     -5.362860   -4.977610    0.763260
  H     -9.404650   -2.629380   -0.833490
  H     13.526290   -1.841750   -2.784160
  H     14.719800    0.499920    1.451130
  H     10.707950   -0.545010   -0.443770
  H      9.300370   -1.464160   -1.072230
  H      9.574090   -1.313270    0.705880

 Total Charge           Charge          ....    0
 Multiplicity           Mult            ....    1
 Number of Electrons    NEL             ....  476
 Basis Dimension        Dim             ....  992

ORBITAL ENERGIES
----------------

  NO   OCC          E(Eh)            E(eV)
   0   2.0000    -453.925449    -12351.9394
   1   2.0000     -89.006944     -2422.0021
   2   2.0000     -88.972552     -2421.0662
   3   2.0000     -88.957848     -2420.6661
   4   2.0000     -58.139878     -1582.0665
   5   2.0000     -52.209946     -1420.7049
   6   2.0000     -52.208925     -1420.6771
   7   2.0000     -52.207964     -1420.6509
   8   2.0000     -24.813949      -675.2219
   9   2.0000     -24.813353      -675.2057
  10   2.0000     -24.803749      -674.9443
  11   2.0000     -24.803026      -674.9246
  12   2.0000     -19.237552      -523.4804
  13   2.0000     -19.225746      -523.1591
  14   2.0000     -14.493459      -394.3871
  15   2.0000     -14.487673      -394.2296
  16   2.0000     -14.458513      -393.4361
  17   2.0000     -14.458101      -393.4249
  18   2.0000     -14.458027      -393.4229
  19   2.0000     -14.455231      -393.3468
  20   2.0000     -14.446437      -393.1075
  21   2.0000     -14.445694      -393.0873
  22   2.0000     -10.408071      -283.2180
  23   2.0000     -10.407721      -283.2085
  24   2.0000     -10.397114      -282.9198
  25   2.0000     -10.395601      -282.8787
  26   2.0000     -10.394282      -282.8428
  27   2.0000     -10.393763      -282.8287
  28   2.0000     -10.389167      -282.7036
  29   2.0000     -10.380745      -282.4744
  30   2.0000     -10.379246      -282.4336
  31   2.0000     -10.376664      -282.3634
  32   2.0000     -10.364687      -282.0375
  33   2.0000     -10.364597      -282.0350
  34   2.0000     -10.362752      -281.9848
  35   2.0000     -10.362437      -281.9762
  36   2.0000     -10.357306      -281.8366
  37   2.0000     -10.352105      -281.6951
  38   2.0000     -10.350622      -281.6547
  39   2.0000     -10.350350      -281.6473
  40   2.0000     -10.350214      -281.6437
  41   2.0000     -10.347535      -281.5707
  42   2.0000     -10.341659      -281.4108
  43   2.0000     -10.333360      -281.1850
  44   2.0000     -10.333179      -281.1801
  45   2.0000     -10.331714      -281.1402
  46   2.0000     -10.331026      -281.1215
  47   2.0000     -10.330453      -281.1059
  48   2.0000     -10.330069      -281.0955
  49   2.0000     -10.328806      -281.0611
  50   2.0000     -10.328184      -281.0442
  51   2.0000     -10.322722      -280.8955
  52   2.0000     -10.322716      -280.8954
  53   2.0000     -10.321484      -280.8618
  54   2.0000     -10.320189      -280.8266
  55   2.0000     -10.316320      -280.7213
  56   2.0000     -10.316153      -280.7168
  57   2.0000     -10.313659      -280.6489
  58   2.0000     -10.312302      -280.6120
  59   2.0000     -10.308543      -280.5097
  60   2.0000     -10.305919      -280.4383
  61   2.0000     -10.304398      -280.3969
  62   2.0000     -10.295562      -280.1565
  63   2.0000     -10.290427      -280.0167
  64   2.0000     -10.288595      -279.9669
  65   2.0000     -10.283677      -279.8331
  66   2.0000     -10.283142      -279.8185
  67   2.0000      -8.098615      -220.3745
  68   2.0000      -8.066880      -219.5110
  69   2.0000      -8.054003      -219.1606
  70   2.0000      -7.914398      -215.3617
  71   2.0000      -6.069644      -165.1634
  72   2.0000      -6.062776      -164.9765
  73   2.0000      -6.060377      -164.9112
  74   2.0000      -6.036550      -164.2629
  75   2.0000      -6.032233      -164.1454
  76   2.0000      -6.028482      -164.0433
  77   2.0000      -6.023681      -163.9127
  78   2.0000      -6.019437      -163.7972
  79   2.0000      -6.015125      -163.6799
  80   2.0000      -5.863645      -159.5579
  81   2.0000      -5.859228      -159.4377
  82   2.0000      -5.853884      -159.2923
  83   2.0000      -2.218594       -60.3710
  84   2.0000      -2.217729       -60.3475
  85   2.0000      -2.212678       -60.2100
  86   2.0000      -2.209100       -60.1127
  87   2.0000      -2.208714       -60.1022
  88   2.0000      -1.328886       -36.1608
  89   2.0000      -1.318846       -35.8876
  90   2.0000      -1.315188       -35.7881
  91   2.0000      -1.304754       -35.5041
  92   2.0000      -1.148592       -31.2548
  93   2.0000      -1.145681       -31.1756
  94   2.0000      -1.112047       -30.2603
  95   2.0000      -1.101259       -29.9668
  96   2.0000      -1.100512       -29.9465
  97   2.0000      -1.033966       -28.1356
  98   2.0000      -1.018676       -27.7196
  99   2.0000      -1.011730       -27.5306
 100   2.0000      -0.983244       -26.7554
 101   2.0000      -0.979896       -26.6643
 102   2.0000      -0.978730       -26.6326
 103   2.0000      -0.970182       -26.4000
 104   2.0000      -0.966278       -26.2938
 105   2.0000      -0.965769       -26.2799
 106   2.0000      -0.963189       -26.2097
 107   2.0000      -0.959097       -26.0984
 108   2.0000      -0.949193       -25.8289
 109   2.0000      -0.946585       -25.7579
 110   2.0000      -0.912577       -24.8325
 111   2.0000      -0.906789       -24.6750
 112   2.0000      -0.898089       -24.4383
 113   2.0000      -0.892455       -24.2849
 114   2.0000      -0.884982       -24.0816
 115   2.0000      -0.879994       -23.9458
 116   2.0000      -0.875669       -23.8282
 117   2.0000      -0.869475       -23.6596
 118   2.0000      -0.869027       -23.6474
 119   2.0000      -0.843472       -22.9520
 120   2.0000      -0.831672       -22.6310
 121   2.0000      -0.828063       -22.5327
 122   2.0000      -0.813416       -22.1342
 123   2.0000      -0.801632       -21.8135
 124   2.0000      -0.791386       -21.5347
 125   2.0000      -0.785783       -21.3823
 126   2.0000      -0.779082       -21.1999
 127   2.0000      -0.775861       -21.1122
 128   2.0000      -0.766039       -20.8450
 129   2.0000      -0.762650       -20.7527
 130   2.0000      -0.744537       -20.2599
 131   2.0000      -0.730550       -19.8793
 132   2.0000      -0.723359       -19.6836
 133   2.0000      -0.716231       -19.4896
 134   2.0000      -0.708786       -19.2871
 135   2.0000      -0.702406       -19.1134
 136   2.0000      -0.698349       -19.0030
 137   2.0000      -0.691851       -18.8262
 138   2.0000      -0.685027       -18.6405
 139   2.0000      -0.671890       -18.2831
 140   2.0000      -0.666558       -18.1380
 141   2.0000      -0.660145       -17.9635
 142   2.0000      -0.657384       -17.8883
 143   2.0000      -0.652796       -17.7635
 144   2.0000      -0.650852       -17.7106
 145   2.0000      -0.642846       -17.4927
 146   2.0000      -0.639952       -17.4140
 147   2.0000      -0.629368       -17.1260
 148   2.0000      -0.624974       -17.0064
 149   2.0000      -0.620789       -16.8925
 150   2.0000      -0.615574       -16.7506
 151   2.0000      -0.610570       -16.6145
 152   2.0000      -0.605092       -16.4654
 153   2.0000      -0.598824       -16.2948
 154   2.0000      -0.596486       -16.2312
 155   2.0000      -0.594796       -16.1852
 156   2.0000      -0.590057       -16.0563
 157   2.0000      -0.587994       -16.0001
 158   2.0000      -0.586742       -15.9661
 159   2.0000      -0.585821       -15.9410
 160   2.0000      -0.579535       -15.7699
 161   2.0000      -0.575597       -15.6628
 162   2.0000      -0.573459       -15.6046
 163   2.0000      -0.563568       -15.3355
 164   2.0000      -0.560683       -15.2569
 165   2.0000      -0.557825       -15.1792
 166   2.0000      -0.553977       -15.0745
 167   2.0000      -0.549711       -14.9584
 168   2.0000      -0.549083       -14.9413
 169   2.0000      -0.547584       -14.9005
 170   2.0000      -0.543132       -14.7794
 171   2.0000      -0.541341       -14.7306
 172   2.0000      -0.540235       -14.7006
 173   2.0000      -0.537663       -14.6305
 174   2.0000      -0.533930       -14.5290
 175   2.0000      -0.531251       -14.4561
 176   2.0000      -0.527906       -14.3651
 177   2.0000      -0.524245       -14.2654
 178   2.0000      -0.517849       -14.0914
 179   2.0000      -0.514623       -14.0036
 180   2.0000      -0.510930       -13.9031
 181   2.0000      -0.509842       -13.8735
 182   2.0000      -0.506742       -13.7892
 183   2.0000      -0.505188       -13.7469
 184   2.0000      -0.503034       -13.6883
 185   2.0000      -0.501825       -13.6554
 186   2.0000      -0.499464       -13.5911
 187   2.0000      -0.494371       -13.4525
 188   2.0000      -0.491826       -13.3833
 189   2.0000      -0.486698       -13.2437
 190   2.0000      -0.485786       -13.2189
 191   2.0000      -0.484867       -13.1939
 192   2.0000      -0.482828       -13.1384
 193   2.0000      -0.476446       -12.9648
 194   2.0000      -0.472689       -12.8625
 195   2.0000      -0.468416       -12.7462
 196   2.0000      -0.468143       -12.7388
 197   2.0000      -0.468001       -12.7350
 198   2.0000      -0.464734       -12.6460
 199   2.0000      -0.464284       -12.6338
 200   2.0000      -0.462814       -12.5938
 201   2.0000      -0.461129       -12.5480
 202   2.0000      -0.457111       -12.4386
 203   2.0000      -0.456208       -12.4140
 204   2.0000      -0.451778       -12.2935
 205   2.0000      -0.439230       -11.9520
 206   2.0000      -0.438116       -11.9217
 207   2.0000      -0.432631       -11.7725
 208   2.0000      -0.419020       -11.4021
 209   2.0000      -0.417843       -11.3701
 210   2.0000      -0.414972       -11.2920
 211   2.0000      -0.414566       -11.2809
 212   2.0000      -0.412938       -11.2366
 213   2.0000      -0.411689       -11.2026
 214   2.0000      -0.408795       -11.1239
 215   2.0000      -0.407075       -11.0771
 216   2.0000      -0.405475       -11.0335
 217   2.0000      -0.403610       -10.9828
 218   2.0000      -0.401975       -10.9383
 219   2.0000      -0.399306       -10.8657
 220   2.0000      -0.396568       -10.7912
 221   2.0000      -0.393392       -10.7047
 222   2.0000      -0.381283       -10.3752
 223   2.0000      -0.368365       -10.0237
 224   2.0000      -0.365683        -9.9507
 225   2.0000      -0.361250        -9.8301
 226   2.0000      -0.353573        -9.6212
 227   2.0000      -0.351757        -9.5718
 228   2.0000      -0.345668        -9.4061
 229   2.0000      -0.341454        -9.2914
 230   2.0000      -0.335734        -9.1358
 231   2.0000      -0.330184        -8.9848
 232   2.0000      -0.326032        -8.8718
 233   2.0000      -0.315572        -8.5872
 234   2.0000      -0.301421        -8.2021
 235   2.0000      -0.285372        -7.7654
 236   2.0000      -0.271797        -7.3960
 237   2.0000      -0.254540        -6.9264
 238   0.0000      -0.100037        -2.7222
 239   0.0000      -0.097724        -2.6592
 240   0.0000      -0.078596        -2.1387
 241   0.0000      -0.071500        -1.9456
 242   0.0000      -0.050325        -1.3694

MULLIKEN ATOMIC CHARGES
-----------------------
   0 C :    0.006034
   1 C :    0.055702
   2 C :    0.061174
   3 C :   -0.046993
   4 C :    0.012773
   5 C :    0.025913
   6 N :   -0.277121
   7 S :    0.447004
   8 N :   -0.285384
   9 N :   -0.205149
  10 C :    0.047847
  11 C :   -0.101736
  12 C :   -0.156767
  13 C :    0.133184
  14 N :   -0.203298
  15 Se:    0.275789
  16 C :   -0.139500
  17 C :   -0.062739
  18 C :   -0.068419
  19 C :   -0.074233
  20 S :    0.171440
  21 S :    0.128799
  22 C :   -0.140360
  23 C :   -0.122997
  24 C :    0.096546
  25 C :    0.126276
  26 C :    0.048301
  27 C :   -0.056093
  28 C :    0.053196
  29 C :   -0.094153
  30 C :    0.090807
  31 C :    0.036979
  32 C :    0.064946
  33 C :    0.197354
  34 C :    0.122397
  35 C :    0.042063
  36 C :    0.017609
  37 C :    0.135830
  38 C :   -0.079470
  39 C :    0.232549
  40 C :    0.229673
  41 C :   -0.082779
  42 C :   -0.087660
  43 C :    0.237613
  44 C :    0.242263
  45 C :   -0.051642
  46 O :   -0.170848
  47 C :   -0.218549
  48 C :   -0.078651
  49 C :   -0.078758
  50 F :   -0.178575
  51 F :   -0.174166
  52 O :   -0.163038
  53 C :   -0.132299
  54 C :   -0.068930
  55 C :   -0.102393
  56 F :   -0.174487
  57 F :   -0.174799
  58 N :    0.008805
  59 N :    0.023602
  60 N :    0.013420
  61 N :    0.025958
  62 C :    0.078477
  63 H :   -0.015704
  64 H :    0.050235
  65 H :    0.062117
  66 H :    0.061391
  67 H :    0.002233
  68 H :    0.055007
  69 H :    0.053053
  70 H :    0.023518
  71 H :    0.075822
  72 H :    0.019690
  73 H :    0.016762
  74 H :    0.023747
  75 H :    0.025746
  76 H :    0.012673
  77 H :    0.049057
  78 H :    0.046314
Sum of atomic charges:    0.0000000

LOEWDIN ATOMIC CHARGES
----------------------
   0 C :   -0.081143
   1 C :    0.024374
   2 C :    0.012876
   3 C :   -0.078530
   4 C :   -0.056013
   5 C :   -0.054118
   6 N :   -0.282090
   7 S :    0.590057
   8 N :   -0.284669
   9 N :    0.023852
  10 C :   -0.033242
  11 C :   -0.191696
  12 C :   -0.180009
  13 C :   -0.031896
  14 N :    0.017232
  15 Se:    0.468940
  16 C :   -0.176328
  17 C :   -0.045193
  18 C :   -0.221851
  19 C :   -0.217709
  20 S :    0.450547
  21 S :    0.428267
  22 C :   -0.220937
  23 C :   -0.056638
  24 C :    0.032044
  25 C :    0.033131
  26 C :    0.071430
  27 C :   -0.094901
  28 C :    0.065920
  29 C :   -0.054157
  30 C :    0.071150
  31 C :   -0.048021
  32 C :   -0.012483
  33 C :    0.087875
  34 C :    0.093964
  35 C :   -0.047939
  36 C :   -0.022050
  37 C :    0.072297
  38 C :   -0.001733
  39 C :    0.083178
  40 C :    0.084458
  41 C :   -0.014258
  42 C :    0.001943
  43 C :    0.085531
  44 C :    0.091272
  45 C :   -0.009727
  46 O :   -0.139571
  47 C :   -0.120317
  48 C :    0.004362
  49 C :    0.014198
  50 F :   -0.057252
  51 F :   -0.055949
  52 O :   -0.139990
  53 C :   -0.101654
  54 C :    0.001365
  55 C :    0.000019
  56 F :   -0.053559
  57 F :   -0.054415
  58 N :   -0.075841
  59 N :   -0.072471
  60 N :   -0.069013
  61 N :   -0.058732
  62 C :   -0.059823
  63 H :    0.026741
  64 H :    0.044241
  65 H :    0.033002
  66 H :    0.034621
  67 H :    0.027534
  68 H :    0.039275
  69 H :    0.037900
  70 H :    0.045321
  71 H :    0.052627
  72 H :    0.053867
  73 H :    0.043547
  74 H :    0.054133
  75 H :    0.053825
  76 H :    0.030336
  77 H :    0.044405
  78 H :    0.044260

  Mayer bond orders larger than 0.100000
B(  0-C ,  1-C ) :   1.3912 B(  0-C ,  3-C ) :   0.1282 B(  0-C ,  5-C ) :   1.1536
B(  0-C , 12-C ) :   1.2836 B(  1-C ,  2-C ) :   1.0793 B(  1-C , 14-N ) :   1.1802
B(  2-C ,  3-C ) :   1.3858 B(  2-C ,  9-N ) :   1.1588 B(  3-C ,  4-C ) :   1.1504
B(  3-C , 11-C ) :   1.3438 B(  4-C ,  5-C ) :   1.1547 B(  4-C ,  6-N ) :   1.5578
B(  5-C ,  8-N ) :   1.5364 B(  6-N ,  7-S ) :   1.2322 B(  6-N ,  8-N ) :   0.1636
B(  7-S ,  8-N ) :   1.2272 B(  9-N , 10-C ) :   1.1490 B(  9-N , 25-C ) :   0.9592
B( 10-C , 11-C ) :   1.4625 B( 10-C , 18-C ) :   1.2179 B( 11-C , 20-S ) :   1.0208
B( 12-C , 13-C ) :   1.4287 B( 12-C , 15-Se) :   1.0442 B( 13-C , 14-N ) :   1.0936
B( 13-C , 17-C ) :   1.2354 B( 14-N , 24-C ) :   0.9658 B( 15-Se, 16-C ) :   1.0911
B( 16-C , 17-C ) :   1.4356 B( 16-C , 26-C ) :   1.1040 B( 17-C , 63-H ) :   1.0062
B( 18-C , 19-C ) :   1.4395 B( 18-C , 21-S ) :   1.0465 B( 19-C , 20-S ) :   1.0489
B( 19-C , 23-C ) :   1.3168 B( 21-S , 22-C ) :   1.1021 B( 22-C , 23-C ) :   1.5085
B( 22-C , 28-C ) :   1.0057 B( 23-C , 62-C ) :   1.0877 B( 24-C , 64-H ) :   0.9638
B( 24-C , 65-H ) :   0.9626 B( 24-C , 66-H ) :   0.9647 B( 25-C , 67-H ) :   0.9684
B( 25-C , 68-H ) :   0.9682 B( 25-C , 69-H ) :   0.9682 B( 26-C , 27-C ) :   1.6704
B( 26-C , 70-H ) :   0.9471 B( 27-C , 30-C ) :   0.9731 B( 27-C , 33-C ) :   1.0134
B( 28-C , 29-C ) :   1.8445 B( 28-C , 71-H ) :   0.9166 B( 29-C , 34-C ) :   0.9432
B( 29-C , 37-C ) :   0.9555 B( 30-C , 31-C ) :   0.9813 B( 30-C , 46-O ) :   2.1584
B( 31-C , 32-C ) :   1.3909 B( 31-C , 38-C ) :   1.2954 B( 32-C , 33-C ) :   1.0085
B( 32-C , 41-C ) :   1.2691 B( 33-C , 47-C ) :   1.6795 B( 34-C , 35-C ) :   0.9420
B( 34-C , 52-O ) :   2.1872 B( 35-C , 36-C ) :   1.3619 B( 35-C , 42-C ) :   1.3089
B( 36-C , 37-C ) :   1.0165 B( 36-C , 45-C ) :   1.3140 B( 37-C , 53-C ) :   1.7119
B( 38-C , 39-C ) :   1.3387 B( 38-C , 41-C ) :   0.1045 B( 38-C , 72-H ) :   1.0124
B( 39-C , 40-C ) :   1.2686 B( 39-C , 50-F ) :   1.1225 B( 40-C , 41-C ) :   1.3868
B( 40-C , 51-F ) :   1.1397 B( 41-C , 73-H ) :   0.9811 B( 42-C , 43-C ) :   1.3444
B( 42-C , 45-C ) :   0.1046 B( 42-C , 74-H ) :   1.0104 B( 43-C , 44-C ) :   1.2667
B( 43-C , 57-F ) :   1.1204 B( 44-C , 45-C ) :   1.3596 B( 44-C , 56-F ) :   1.1259
B( 45-C , 75-H ) :   0.9974 B( 47-C , 48-C ) :   1.0645 B( 47-C , 49-C ) :   1.0545
B( 48-C , 59-N ) :   2.9444 B( 49-C , 58-N ) :   2.9083 B( 53-C , 54-C ) :   1.0594
B( 53-C , 55-C ) :   1.0552 B( 54-C , 61-N ) :   2.9632 B( 55-C , 60-N ) :   2.9434
B( 62-C , 76-H ) :   0.9526 B( 62-C , 77-H ) :   0.9504 B( 62-C , 78-H ) :   0.9479

-----------------------------------------------------------------------------
         ABSORPTION SPECTRUM VIA TRANSITION ELECTRIC DIPOLE MOMENTS
-----------------------------------------------------------------------------
State   Energy  Wavelength   fosc         T2         TX        TY        TZ
        (cm-1)    (nm)                  (au**2)     (au)      (au)      (au)
-----------------------------------------------------------------------------
   0   19448.8    514.2   1.355879969  22.95119   4.74378   0.66564  -0.06854
   1   21264.5    470.3   0.009604767   0.14870   0.37172   0.05614  -0.08586
   2   21738.3    460.0   0.058522147   0.88628  -0.77284   0.53666  -0.03144
   3   24546.2    407.4   0.034066403   0.45690  -0.62601  -0.20369   0.15336
   4   24854.1    402.3   0.008909616   0.11801   0.24180   0.24269  -0.02546
   5   24985.5    400.2   0.144934096   1.90967   1.24230   0.60212  -0.06170
   6   26629.8    375.5   0.014064656   0.17387  -0.38510  -0.15992  -0.00041
   7   26970.1    370.8   0.001785961   0.02180  -0.13363   0.03384  -0.05289
   8   27644.0    361.7   0.044350307   0.52817  -0.05829  -0.71973   0.08218
   9   28359.1    352.6   0.003226126   0.03745  -0.18247   0.02219   0.06052
  10   29715.8    336.5   0.020656920   0.22885   0.45887  -0.13073   0.03461
  11   30371.3    329.3   0.098740407   1.07031  -0.63418   0.81032  -0.10724
  12   30534.2    327.5   0.073538249   0.79287  -0.64992   0.60816   0.02497
  13   30660.0    326.2   0.018618661   0.19992  -0.01255   0.44473  -0.04445
  14   31136.2    321.2   0.058207089   0.61544  -0.55220  -0.53733   0.14764
  15   31758.0    314.9   0.202844211   2.10273   0.16322   1.44041  -0.03607
  16   32372.9    308.9   0.063338797   0.64412  -0.20600   0.76325   0.13833
  17   32486.9    307.8   0.343760746   3.48356   1.01908   1.49618   0.45440
  18   32558.7    307.1   0.018858210   0.19068  -0.41030   0.14934  -0.00612
  19   33059.0    302.5   0.054503100   0.54276  -0.15814  -0.71886   0.03152
  20   33104.8    302.1   0.025649587   0.25507  -0.36907   0.30169  -0.16688
  21   33506.7    298.4   0.154686555   1.51983  -0.71825   0.99169   0.14316
  22   34071.2    293.5   0.046312344   0.44749  -0.60170  -0.27311   0.10419
  23   34170.4    292.7   0.250414707   2.41260   0.72282   1.30130   0.44356
  24   34460.8    290.2   0.271136413   2.59023  -1.30237  -0.94231   0.07820
  25   34718.0    288.0   0.514266219   4.87651  -2.18545   0.24735   0.19787
  26   35351.6    282.9   0.018709945   0.17424  -0.10389   0.40123   0.04960
  27   35700.5    280.1   0.062514345   0.57648  -0.23796   0.71211  -0.11289
  28   35823.3    279.1   0.093109841   0.85567  -0.36574  -0.84614   0.07711
  29   36218.1    276.1   0.017485396   0.15894  -0.01024   0.39249   0.06916
  30   36721.3    272.3   0.004238651   0.03800  -0.06570  -0.18033   0.03412
  31   36896.9    271.0   0.077053186   0.68751   0.26528   0.28968   0.73022
  32   37107.5    269.5   0.320013490   2.83911  -1.03199   1.31259  -0.22630
  33   37328.5    267.9   0.048971497   0.43190   0.51584  -0.40716   0.00440
  34   38439.1    260.2   0.123042910   1.05380   0.60912   0.82322  -0.07126
  35   38792.9    257.8   0.077940999   0.66144   0.79825  -0.15276   0.02992
  36   39294.7    254.5   0.085744123   0.71837   0.80351  -0.20303   0.17754
  37   39591.7    252.6   0.003163274   0.02630   0.15657   0.00281   0.04220
  38   39787.4    251.3   0.059633939   0.49343  -0.64956   0.26154  -0.05562
  39   39950.1    250.3   0.027344504   0.22533  -0.25479   0.39589  -0.06074

FINAL SINGLE POINT ENERGY     -6304.147500195636

DIPOLE MOMENT
-------------
                                X             Y             Z
Electronic contribution:    -58.76178     -43.19568       6.71241
Nuclear contribution   :     59.38437      43.53749      -7.07753
                        -----------------------------------------
Total Dipole Moment    :      0.62258       0.34181      -0.36512
                        -----------------------------------------
Magnitude (a.u.)       :      0.79859
Magnitude (Debye)      :      2.02987

Rotational constants in cm-1:     0.003287     0.000267     0.000250
Rotational constants in MHz :    98.532210     7.996598     7.497880

                             ****ORCA TERMINATED NORMALLY****
TOTAL RUN TIME: 0 days 0 hours 44 minutes 7 seconds 159 msec
