                         Program Version 4.2.0 -  RELEASE  -
|  1> # ORCA input file
|  2> # BTSe-4F.out: Geometry 118
|  3> ! CAM-B3LYP def2-SVP def2/J RIJCOSX Grid4 TightSCF
|  4> %maxcore 5000
|  5> %tddft
|  6>     Mode sTDDFT
|  7>     Ethresh 5.0
|  8>     maxcore 5000
|  9> end
| 10> * xyz 0 1
| 11>    C        1.10865        -2.12712        -0.90107
| 12>    C        1.74995        -1.04664        -1.58778
| 13>    C        3.18056        -0.99374        -1.63986
| 14>    C        3.95030        -2.10759        -1.17947
| 15>    C        3.31357        -3.24243        -0.57672
| 16>    C        1.87257        -3.22797        -0.39075
| 17>    N        3.90531        -4.32056        -0.08075
| 18>    S        2.71450        -5.25977         0.58300
| 19>    N        1.41085        -4.29637         0.24373
| 20>    N        4.05694         0.03308        -1.99726
| 21>    C        5.34506        -0.42772        -1.79931
| 22>    C        5.30826        -1.74174        -1.30222
| 23>    C       -0.27260        -1.83844        -0.87622
| 24>    C       -0.45859        -0.63160        -1.58226
| 25>    N        0.76874        -0.17289        -2.04369
| 26>   Se       -1.86231        -2.46700        -0.12050
| 27>    C       -2.68398        -0.89681        -0.87984
| 28>    C       -1.76104        -0.12979        -1.61728
| 29>    C        6.65564         0.09750        -1.85465
| 30>    C        7.59849        -0.82949        -1.36962
| 31>    S        6.88476        -2.36889        -0.88933
| 32>    S        7.41132         1.58891        -2.29944
| 33>    C        8.98245         0.99460        -1.73375
| 34>    C        8.92025        -0.33812        -1.29229
| 35>    C        0.86640         0.90140        -3.01121
| 36>    C        3.76872         1.45508        -2.09878
| 37>    C       -3.98692        -0.38283        -0.67525
| 38>    C       -5.02991        -0.74222         0.15807
| 39>    C       10.09634         1.88232        -1.79855
| 40>    C       11.19068         1.97142        -0.97316
| 41>    C       -5.04772        -1.93276         1.03426
| 42>    C       -6.27592        -1.83036         1.85993
| 43>    C       -7.01124        -0.69499         1.46505
| 44>    C       -6.25871         0.01636         0.39983
| 45>    C       12.42572         2.66637        -1.47524
| 46>    C       13.48963         2.35280        -0.48402
| 47>    C       12.93988         1.60906         0.58161
| 48>    C       11.47540         1.48607         0.37351
| 49>    C       -6.67109        -2.65899         2.90468
| 50>    C       -7.84663        -2.32920         3.57037
| 51>    C       -8.60905        -1.21852         3.16864
| 52>    C       -8.21119        -0.39081         2.12257
| 53>    C       14.83621         2.69921        -0.53675
| 54>    C       15.65304         2.26519         0.50140
| 55>    C       15.12425         1.49660         1.55622
| 56>    C       13.77165         1.17082         1.62069
| 57>    O       -4.22641        -2.83597         1.08409
| 58>    C       -6.66005         1.20790        -0.18217
| 59>    C       -5.86444         1.94160        -1.11722
| 60>    C       -7.90342         1.84406         0.12456
| 61>    F       -8.27180        -3.04612         4.60578
| 62>    F       -9.73389        -0.96024         3.83049
| 63>    O       12.53926         3.31234        -2.49526
| 64>    C       10.56045         1.17856         1.36398
| 65>    C        9.14986         1.35867         1.22011
| 66>    C       10.95265         0.74345         2.66832
| 67>    F       15.95367         1.07939         2.50828
| 68>    F       16.94854         2.56216         0.51805
| 69>    N       -8.91095         2.37774         0.35186
| 70>    N       -5.22701         2.56661        -1.86250
| 71>    N       11.24592         0.36832         3.72850
| 72>    N        7.99944         1.51111         1.16544
| 73>    C       10.07902        -1.17010        -0.84687
| 74>    H       -2.06103         0.80366        -2.09601
| 75>    H       -0.03161         0.88869        -3.64530
| 76>    H        1.73404         0.74641        -3.66167
| 77>    H        0.93809         1.88987        -2.53050
| 78>    H        2.90861         1.70949        -1.46852
| 79>    H        4.63199         2.01637        -1.71789
| 80>    H        3.57259         1.77519        -3.13218
| 81>    H       -4.13859         0.52516        -1.25799
| 82>    H       10.13085         2.57857        -2.64819
| 83>    H       -6.07562        -3.52072         3.21024
| 84>    H       -8.84210         0.45945         1.87392
| 85>    H       15.24196         3.28928        -1.36041
| 86>    H       13.42053         0.58900         2.47127
| 87>    H       11.03347        -0.75549        -1.19432
| 88>    H        9.97996        -2.19589        -1.23317
| 89>    H       10.12391        -1.23316         0.25330
| 90> *
| 91>
| 92>                          ****END OF INPUT****

CARTESIAN COORDINATES (ANGSTROEM)
---------------------------------
  C      1.108650   -2.127120   -0.901070
  C      1.749950   -1.046640   -1.587780
  C      3.180560   -0.993740   -1.639860
  C      3.950300   -2.107590   -1.179470
  C      3.313570   -3.242430   -0.576720
  C      1.872570   -3.227970   -0.390750
  N      3.905310   -4.320560   -0.080750
  S      2.714500   -5.259770    0.583000
  N      1.410850   -4.296370    0.243730
  N      4.056940    0.033080   -1.997260
  C      5.345060   -0.427720   -1.799310
  C      5.308260   -1.741740   -1.302220
  C     -0.272600   -1.838440   -0.876220
  C     -0.458590   -0.631600   -1.582260
  N      0.768740   -0.172890   -2.043690
  Se    -1.862310   -2.467000   -0.120500
  C     -2.683980   -0.896810   -0.879840
  C     -1.761040   -0.129790   -1.617280
  C      6.655640    0.097500   -1.854650
  C      7.598490   -0.829490   -1.369620
  S      6.884760   -2.368890   -0.889330
  S      7.411320    1.588910   -2.299440
  C      8.982450    0.994600   -1.733750
  C      8.920250   -0.338120   -1.292290
  C      0.866400    0.901400   -3.011210
  C      3.768720    1.455080   -2.098780
  C     -3.986920   -0.382830   -0.675250
  C     -5.029910   -0.742220    0.158070
  C     10.096340    1.882320   -1.798550
  C     11.190680    1.971420   -0.973160
  C     -5.047720   -1.932760    1.034260
  C     -6.275920   -1.830360    1.859930
  C     -7.011240   -0.694990    1.465050
  C     -6.258710    0.016360    0.399830
  C     12.425720    2.666370   -1.475240
  C     13.489630    2.352800   -0.484020
  C     12.939880    1.609060    0.581610
  C     11.475400    1.486070    0.373510
  C     -6.671090   -2.658990    2.904680
  C     -7.846630   -2.329200    3.570370
  C     -8.609050   -1.218520    3.168640
  C     -8.211190   -0.390810    2.122570
  C     14.836210    2.699210   -0.536750
  C     15.653040    2.265190    0.501400
  C     15.124250    1.496600    1.556220
  C     13.771650    1.170820    1.620690
  O     -4.226410   -2.835970    1.084090
  C     -6.660050    1.207900   -0.182170
  C     -5.864440    1.941600   -1.117220
  C     -7.903420    1.844060    0.124560
  F     -8.271800   -3.046120    4.605780
  F     -9.733890   -0.960240    3.830490
  O     12.539260    3.312340   -2.495260
  C     10.560450    1.178560    1.363980
  C      9.149860    1.358670    1.220110
  C     10.952650    0.743450    2.668320
  F     15.953670    1.079390    2.508280
  F     16.948540    2.562160    0.518050
  N     -8.910950    2.377740    0.351860
  N     -5.227010    2.566610   -1.862500
  N     11.245920    0.368320    3.728500
  N      7.999440    1.511110    1.165440
  C     10.079020   -1.170100   -0.846870
  H     -2.061030    0.803660   -2.096010
  H     -0.031610    0.888690   -3.645300
  H      1.734040    0.746410   -3.661670
  H      0.938090    1.889870   -2.530500
  H      2.908610    1.709490   -1.468520
  H      4.631990    2.016370   -1.717890
  H      3.572590    1.775190   -3.132180
  H     -4.138590    0.525160   -1.257990
  H     10.130850    2.578570   -2.648190
  H     -6.075620   -3.520720    3.210240
  H     -8.842100    0.459450    1.873920
  H     15.241960    3.289280   -1.360410
  H     13.420530    0.589000    2.471270
  H     11.033470   -0.755490   -1.194320
  H      9.979960   -2.195890   -1.233170
  H     10.123910   -1.233160    0.253300

 Total Charge           Charge          ....    0
 Multiplicity           Mult            ....    1
 Number of Electrons    NEL             ....  476
 Basis Dimension        Dim             ....  992

ORBITAL ENERGIES
----------------

  NO   OCC          E(Eh)            E(eV)
   0   2.0000    -453.933457    -12352.1573
   1   2.0000     -89.007518     -2422.0177
   2   2.0000     -88.981114     -2421.2992
   3   2.0000     -88.971962     -2421.0502
   4   2.0000     -58.146823     -1582.2555
   5   2.0000     -52.217045     -1420.8980
   6   2.0000     -52.215948     -1420.8682
   7   2.0000     -52.214724     -1420.8349
   8   2.0000     -24.809644      -675.1047
   9   2.0000     -24.808788      -675.0815
  10   2.0000     -24.803280      -674.9316
  11   2.0000     -24.801199      -674.8749
  12   2.0000     -19.228498      -523.2340
  13   2.0000     -19.225833      -523.1615
  14   2.0000     -14.496246      -394.4629
  15   2.0000     -14.492129      -394.3509
  16   2.0000     -14.441334      -392.9687
  17   2.0000     -14.439971      -392.9316
  18   2.0000     -14.429648      -392.6507
  19   2.0000     -14.428144      -392.6098
  20   2.0000     -14.425776      -392.5453
  21   2.0000     -14.421002      -392.4154
  22   2.0000     -10.394731      -282.8550
  23   2.0000     -10.394217      -282.8410
  24   2.0000     -10.386977      -282.6440
  25   2.0000     -10.386076      -282.6195
  26   2.0000     -10.381048      -282.4827
  27   2.0000     -10.374774      -282.3119
  28   2.0000     -10.360589      -281.9260
  29   2.0000     -10.358573      -281.8711
  30   2.0000     -10.352333      -281.7013
  31   2.0000     -10.351733      -281.6850
  32   2.0000     -10.350498      -281.6514
  33   2.0000     -10.347464      -281.5688
  34   2.0000     -10.343485      -281.4605
  35   2.0000     -10.343387      -281.4579
  36   2.0000     -10.335190      -281.2348
  37   2.0000     -10.335029      -281.2304
  38   2.0000     -10.332821      -281.1703
  39   2.0000     -10.331863      -281.1443
  40   2.0000     -10.330479      -281.1066
  41   2.0000     -10.330186      -281.0986
  42   2.0000     -10.329748      -281.0867
  43   2.0000     -10.329388      -281.0769
  44   2.0000     -10.329019      -281.0669
  45   2.0000     -10.328854      -281.0624
  46   2.0000     -10.326713      -281.0042
  47   2.0000     -10.325181      -280.9625
  48   2.0000     -10.324463      -280.9429
  49   2.0000     -10.322978      -280.9025
  50   2.0000     -10.321109      -280.8517
  51   2.0000     -10.320591      -280.8375
  52   2.0000     -10.318598      -280.7833
  53   2.0000     -10.318447      -280.7792
  54   2.0000     -10.318279      -280.7746
  55   2.0000     -10.315625      -280.7024
  56   2.0000     -10.312764      -280.6246
  57   2.0000     -10.312679      -280.6223
  58   2.0000     -10.311656      -280.5944
  59   2.0000     -10.311101      -280.5793
  60   2.0000     -10.310209      -280.5550
  61   2.0000     -10.307631      -280.4849
  62   2.0000     -10.304728      -280.4059
  63   2.0000     -10.304663      -280.4041
  64   2.0000     -10.301023      -280.3051
  65   2.0000     -10.299014      -280.2504
  66   2.0000     -10.294910      -280.1387
  67   2.0000      -8.099273      -220.3924
  68   2.0000      -8.075305      -219.7402
  69   2.0000      -8.065579      -219.4756
  70   2.0000      -7.920339      -215.5234
  71   2.0000      -6.070904      -165.1977
  72   2.0000      -6.063480      -164.9957
  73   2.0000      -6.060424      -164.9125
  74   2.0000      -6.045014      -164.4932
  75   2.0000      -6.040906      -164.3814
  76   2.0000      -6.036768      -164.2688
  77   2.0000      -6.035559      -164.2359
  78   2.0000      -6.031526      -164.1262
  79   2.0000      -6.026463      -163.9884
  80   2.0000      -5.869612      -159.7203
  81   2.0000      -5.865356      -159.6044
  82   2.0000      -5.859294      -159.4395
  83   2.0000      -2.224278       -60.5257
  84   2.0000      -2.223665       -60.5090
  85   2.0000      -2.218103       -60.3576
  86   2.0000      -2.214752       -60.2665
  87   2.0000      -2.214067       -60.2478
  88   2.0000      -1.336284       -36.3621
  89   2.0000      -1.329542       -36.1787
  90   2.0000      -1.320156       -35.9233
  91   2.0000      -1.312974       -35.7278
  92   2.0000      -1.140712       -31.0403
  93   2.0000      -1.135758       -30.9055
  94   2.0000      -1.114472       -30.3263
  95   2.0000      -1.103291       -30.0221
  96   2.0000      -1.099381       -29.9157
  97   2.0000      -1.024625       -27.8815
  98   2.0000      -1.016684       -27.6654
  99   2.0000      -1.014713       -27.6117
 100   2.0000      -1.004637       -27.3376
 101   2.0000      -0.999334       -27.1933
 102   2.0000      -0.997709       -27.1491
 103   2.0000      -0.992830       -27.0163
 104   2.0000      -0.975485       -26.5443
 105   2.0000      -0.966729       -26.3060
 106   2.0000      -0.963444       -26.2166
 107   2.0000      -0.957501       -26.0549
 108   2.0000      -0.950245       -25.8575
 109   2.0000      -0.946783       -25.7633
 110   2.0000      -0.912047       -24.8181
 111   2.0000      -0.906630       -24.6707
 112   2.0000      -0.899450       -24.4753
 113   2.0000      -0.894038       -24.3280
 114   2.0000      -0.889195       -24.1962
 115   2.0000      -0.878255       -23.8985
 116   2.0000      -0.876006       -23.8373
 117   2.0000      -0.870910       -23.6987
 118   2.0000      -0.869223       -23.6527
 119   2.0000      -0.849010       -23.1027
 120   2.0000      -0.832460       -22.6524
 121   2.0000      -0.829908       -22.5829
 122   2.0000      -0.815203       -22.1828
 123   2.0000      -0.802800       -21.8453
 124   2.0000      -0.794469       -21.6186
 125   2.0000      -0.790071       -21.4989
 126   2.0000      -0.782233       -21.2856
 127   2.0000      -0.776871       -21.1397
 128   2.0000      -0.770043       -20.9539
 129   2.0000      -0.764778       -20.8107
 130   2.0000      -0.745093       -20.2750
 131   2.0000      -0.730088       -19.8667
 132   2.0000      -0.726288       -19.7633
 133   2.0000      -0.716257       -19.4903
 134   2.0000      -0.708259       -19.2727
 135   2.0000      -0.704196       -19.1622
 136   2.0000      -0.697622       -18.9833
 137   2.0000      -0.691834       -18.8258
 138   2.0000      -0.685094       -18.6424
 139   2.0000      -0.671061       -18.2605
 140   2.0000      -0.662518       -18.0280
 141   2.0000      -0.660593       -17.9757
 142   2.0000      -0.656964       -17.8769
 143   2.0000      -0.650301       -17.6956
 144   2.0000      -0.648965       -17.6592
 145   2.0000      -0.643218       -17.5029
 146   2.0000      -0.641245       -17.4492
 147   2.0000      -0.636134       -17.3101
 148   2.0000      -0.624222       -16.9860
 149   2.0000      -0.617527       -16.8038
 150   2.0000      -0.615876       -16.7589
 151   2.0000      -0.611858       -16.6495
 152   2.0000      -0.604485       -16.4489
 153   2.0000      -0.599000       -16.2996
 154   2.0000      -0.597974       -16.2717
 155   2.0000      -0.594312       -16.1721
 156   2.0000      -0.591953       -16.1079
 157   2.0000      -0.591254       -16.0888
 158   2.0000      -0.590983       -16.0815
 159   2.0000      -0.582463       -15.8496
 160   2.0000      -0.581022       -15.8104
 161   2.0000      -0.572843       -15.5878
 162   2.0000      -0.567343       -15.4382
 163   2.0000      -0.558742       -15.2041
 164   2.0000      -0.558535       -15.1985
 165   2.0000      -0.556214       -15.1354
 166   2.0000      -0.551646       -15.0111
 167   2.0000      -0.550180       -14.9712
 168   2.0000      -0.549476       -14.9520
 169   2.0000      -0.545019       -14.8307
 170   2.0000      -0.540481       -14.7072
 171   2.0000      -0.538128       -14.6432
 172   2.0000      -0.537272       -14.6199
 173   2.0000      -0.535425       -14.5697
 174   2.0000      -0.534390       -14.5415
 175   2.0000      -0.533740       -14.5238
 176   2.0000      -0.528951       -14.3935
 177   2.0000      -0.528345       -14.3770
 178   2.0000      -0.520419       -14.1613
 179   2.0000      -0.515775       -14.0350
 180   2.0000      -0.514264       -13.9938
 181   2.0000      -0.509579       -13.8663
 182   2.0000      -0.503166       -13.6919
 183   2.0000      -0.502920       -13.6852
 184   2.0000      -0.501605       -13.6494
 185   2.0000      -0.499906       -13.6031
 186   2.0000      -0.496847       -13.5199
 187   2.0000      -0.495086       -13.4720
 188   2.0000      -0.494278       -13.4500
 189   2.0000      -0.492551       -13.4030
 190   2.0000      -0.489442       -13.3184
 191   2.0000      -0.487524       -13.2662
 192   2.0000      -0.485317       -13.2062
 193   2.0000      -0.479531       -13.0487
 194   2.0000      -0.473223       -12.8771
 195   2.0000      -0.468794       -12.7565
 196   2.0000      -0.464062       -12.6278
 197   2.0000      -0.461774       -12.5655
 198   2.0000      -0.459005       -12.4902
 199   2.0000      -0.458488       -12.4761
 200   2.0000      -0.457186       -12.4407
 201   2.0000      -0.456161       -12.4128
 202   2.0000      -0.455567       -12.3966
 203   2.0000      -0.452239       -12.3061
 204   2.0000      -0.451347       -12.2818
 205   2.0000      -0.448112       -12.1938
 206   2.0000      -0.446517       -12.1503
 207   2.0000      -0.443621       -12.0715
 208   2.0000      -0.434464       -11.8224
 209   2.0000      -0.432404       -11.7663
 210   2.0000      -0.429016       -11.6741
 211   2.0000      -0.428053       -11.6479
 212   2.0000      -0.427586       -11.6352
 213   2.0000      -0.425760       -11.5855
 214   2.0000      -0.414811       -11.2876
 215   2.0000      -0.413268       -11.2456
 216   2.0000      -0.410718       -11.1762
 217   2.0000      -0.406953       -11.0738
 218   2.0000      -0.403952       -10.9921
 219   2.0000      -0.401862       -10.9352
 220   2.0000      -0.395006       -10.7487
 221   2.0000      -0.393130       -10.6976
 222   2.0000      -0.371822       -10.1178
 223   2.0000      -0.370293       -10.0762
 224   2.0000      -0.365586        -9.9481
 225   2.0000      -0.355431        -9.6718
 226   2.0000      -0.350158        -9.5283
 227   2.0000      -0.347391        -9.4530
 228   2.0000      -0.346801        -9.4369
 229   2.0000      -0.343865        -9.3570
 230   2.0000      -0.329054        -8.9540
 231   2.0000      -0.325097        -8.8463
 232   2.0000      -0.318959        -8.6793
 233   2.0000      -0.314539        -8.5591
 234   2.0000      -0.295439        -8.0393
 235   2.0000      -0.290179        -7.8962
 236   2.0000      -0.280459        -7.6317
 237   2.0000      -0.248547        -6.7633
 238   0.0000      -0.103100        -2.8055
 239   0.0000      -0.091668        -2.4944
 240   0.0000      -0.071473        -1.9449
 241   0.0000      -0.065738        -1.7888
 242   0.0000      -0.044689        -1.2160

MULLIKEN ATOMIC CHARGES
-----------------------
   0 C :   -0.031035
   1 C :    0.083948
   2 C :    0.048615
   3 C :   -0.028615
   4 C :   -0.009711
   5 C :    0.018040
   6 N :   -0.264727
   7 S :    0.450961
   8 N :   -0.268324
   9 N :   -0.209226
  10 C :    0.053651
  11 C :   -0.105940
  12 C :   -0.155717
  13 C :    0.152342
  14 N :   -0.209804
  15 Se:    0.320812
  16 C :   -0.098544
  17 C :   -0.097524
  18 C :   -0.032703
  19 C :   -0.119882
  20 S :    0.201838
  21 S :    0.165618
  22 C :   -0.165519
  23 C :   -0.053673
  24 C :    0.110212
  25 C :    0.105562
  26 C :   -0.024847
  27 C :   -0.081254
  28 C :    0.050280
  29 C :   -0.151391
  30 C :    0.155599
  31 C :   -0.017957
  32 C :    0.038404
  33 C :    0.285577
  34 C :    0.136275
  35 C :    0.003441
  36 C :    0.030496
  37 C :    0.242900
  38 C :   -0.098034
  39 C :    0.228142
  40 C :    0.226196
  41 C :   -0.089440
  42 C :   -0.101935
  43 C :    0.230474
  44 C :    0.228972
  45 C :   -0.092410
  46 O :   -0.178589
  47 C :   -0.328653
  48 C :   -0.157609
  49 C :   -0.165168
  50 F :   -0.160579
  51 F :   -0.158456
  52 O :   -0.142224
  53 C :   -0.336903
  54 C :   -0.173355
  55 C :   -0.165846
  56 F :   -0.157245
  57 F :   -0.159218
  58 N :    0.129592
  59 N :    0.105427
  60 N :    0.141131
  61 N :    0.156035
  62 C :    0.094852
  63 H :    0.011330
  64 H :    0.055328
  65 H :    0.048572
  66 H :    0.044682
  67 H :    0.052996
  68 H :    0.057552
  69 H :    0.044702
  70 H :    0.015537
  71 H :    0.041205
  72 H :    0.020884
  73 H :    0.023999
  74 H :    0.023075
  75 H :    0.025754
  76 H :    0.034455
  77 H :    0.040146
  78 H :    0.056448
Sum of atomic charges:    0.0000000

LOEWDIN ATOMIC CHARGES
----------------------
   0 C :   -0.082058
   1 C :    0.026857
   2 C :    0.005688
   3 C :   -0.067387
   4 C :   -0.053553
   5 C :   -0.049663
   6 N :   -0.275000
   7 S :    0.579576
   8 N :   -0.275668
   9 N :    0.025681
  10 C :   -0.030173
  11 C :   -0.170721
  12 C :   -0.147964
  13 C :   -0.027959
  14 N :    0.020723
  15 Se:    0.440860
  16 C :   -0.157647
  17 C :   -0.027023
  18 C :   -0.191858
  19 C :   -0.184721
  20 S :    0.422483
  21 S :    0.428598
  22 C :   -0.184530
  23 C :   -0.026815
  24 C :    0.034943
  25 C :    0.036063
  26 C :    0.058320
  27 C :   -0.120642
  28 C :    0.046519
  29 C :   -0.102455
  30 C :    0.090205
  31 C :   -0.044957
  32 C :   -0.014408
  33 C :    0.082807
  34 C :    0.087590
  35 C :   -0.049410
  36 C :   -0.012925
  37 C :    0.066882
  38 C :   -0.011165
  39 C :    0.066506
  40 C :    0.068710
  41 C :   -0.023152
  42 C :   -0.009704
  43 C :    0.066852
  44 C :    0.071752
  45 C :   -0.025902
  46 O :   -0.156345
  47 C :   -0.145955
  48 C :   -0.010751
  49 C :   -0.014832
  50 F :   -0.037364
  51 F :   -0.037569
  52 O :   -0.140069
  53 C :   -0.135199
  54 C :   -0.015086
  55 C :   -0.017825
  56 F :   -0.035659
  57 F :   -0.036443
  58 N :   -0.057632
  59 N :   -0.067089
  60 N :   -0.050591
  61 N :   -0.047075
  62 C :   -0.049978
  63 H :    0.041530
  64 H :    0.040617
  65 H :    0.035755
  66 H :    0.028433
  67 H :    0.037452
  68 H :    0.037095
  69 H :    0.027520
  70 H :    0.049302
  71 H :    0.050378
  72 H :    0.055144
  73 H :    0.053386
  74 H :    0.056091
  75 H :    0.053692
  76 H :    0.040203
  77 H :    0.042133
  78 H :    0.046578

  Mayer bond orders larger than 0.100000
B(  0-C ,  1-C ) :   1.3837 B(  0-C ,  5-C ) :   1.0977 B(  0-C , 12-C ) :   1.3276
B(  1-C ,  2-C ) :   1.1217 B(  1-C , 14-N ) :   1.1822 B(  2-C ,  3-C ) :   1.3921
B(  2-C ,  9-N ) :   1.1623 B(  3-C ,  4-C ) :   1.0985 B(  3-C , 11-C ) :   1.3531
B(  4-C ,  5-C ) :   1.1146 B(  4-C ,  6-N ) :   1.6479 B(  5-C ,  8-N ) :   1.6396
B(  6-N ,  7-S ) :   1.1985 B(  6-N ,  8-N ) :   0.1327 B(  7-S ,  8-N ) :   1.1950
B(  9-N , 10-C ) :   1.1516 B(  9-N , 25-C ) :   0.9631 B( 10-C , 11-C ) :   1.4229
B( 10-C , 18-C ) :   1.2651 B( 11-C , 20-S ) :   1.0270 B( 12-C , 13-C ) :   1.3441
B( 12-C , 15-Se) :   1.0228 B( 13-C , 14-N ) :   1.1001 B( 13-C , 17-C ) :   1.2493
B( 14-N , 24-C ) :   0.9693 B( 15-Se, 16-C ) :   1.0473 B( 16-C , 17-C ) :   1.3515
B( 16-C , 26-C ) :   1.2770 B( 17-C , 63-H ) :   1.0153 B( 18-C , 19-C ) :   1.4487
B( 18-C , 21-S ) :   1.0624 B( 19-C , 20-S ) :   1.0408 B( 19-C , 23-C ) :   1.3392
B( 21-S , 22-C ) :   1.0556 B( 22-C , 23-C ) :   1.4704 B( 22-C , 28-C ) :   1.1233
B( 23-C , 62-C ) :   1.1269 B( 24-C , 64-H ) :   0.9636 B( 24-C , 65-H ) :   0.9679
B( 24-C , 66-H ) :   0.9706 B( 25-C , 67-H ) :   0.9666 B( 25-C , 68-H ) :   0.9619
B( 25-C , 69-H ) :   0.9705 B( 26-C , 27-C ) :   1.4745 B( 26-C , 70-H ) :   0.9333
B( 27-C , 30-C ) :   0.9814 B( 27-C , 33-C ) :   1.1004 B( 28-C , 29-C ) :   1.6673
B( 28-C , 71-H ) :   0.9240 B( 29-C , 34-C ) :   0.9399 B( 29-C , 37-C ) :   1.0577
B( 30-C , 31-C ) :   0.9653 B( 30-C , 46-O ) :   2.1416 B( 31-C , 32-C ) :   1.3570
B( 31-C , 38-C ) :   1.3188 B( 32-C , 33-C ) :   1.0045 B( 32-C , 41-C ) :   1.3069
B( 33-C , 47-C ) :   1.6193 B( 34-C , 35-C ) :   0.9336 B( 34-C , 52-O ) :   2.2607
B( 35-C , 36-C ) :   1.3550 B( 35-C , 42-C ) :   1.3156 B( 36-C , 37-C ) :   1.0162
B( 36-C , 45-C ) :   1.3085 B( 37-C , 53-C ) :   1.6472 B( 38-C , 39-C ) :   1.3239
B( 38-C , 41-C ) :   0.1030 B( 38-C , 72-H ) :   1.0127 B( 39-C , 40-C ) :   1.2801
B( 39-C , 50-F ) :   1.1386 B( 40-C , 41-C ) :   1.3509 B( 40-C , 51-F ) :   1.1507
B( 41-C , 73-H ) :   0.9847 B( 42-C , 43-C ) :   1.3310 B( 42-C , 45-C ) :   0.1037
B( 42-C , 74-H ) :   1.0125 B( 43-C , 44-C ) :   1.2767 B( 43-C , 57-F ) :   1.1391
B( 44-C , 45-C ) :   1.3509 B( 44-C , 56-F ) :   1.1482 B( 45-C , 75-H ) :   0.9872
B( 47-C , 48-C ) :   1.1329 B( 47-C , 49-C ) :   1.1250 B( 48-C , 59-N ) :   2.9479
B( 49-C , 58-N ) :   2.9698 B( 53-C , 54-C ) :   1.1544 B( 53-C , 55-C ) :   1.1119
B( 54-C , 61-N ) :   3.0075 B( 55-C , 60-N ) :   2.9853 B( 62-C , 76-H ) :   0.9356
B( 62-C , 77-H ) :   0.9449 B( 62-C , 78-H ) :   0.9250

-----------------------------------------------------------------------------
         ABSORPTION SPECTRUM VIA TRANSITION ELECTRIC DIPOLE MOMENTS
-----------------------------------------------------------------------------
State   Energy  Wavelength   fosc         T2         TX        TY        TZ
        (cm-1)    (nm)                  (au**2)     (au)      (au)      (au)
-----------------------------------------------------------------------------
   0   16756.4    596.8   1.881197910  36.95973  -6.04984  -0.59922  -0.00984
   1   19966.3    500.8   0.408908237   6.74224  -1.87142   1.27217   1.27343
   2   23519.3    425.2   0.092941355   1.30095  -0.62458   0.87244  -0.38692
   3   24222.5    412.8   0.195541597   2.65763  -1.18666  -0.92655   0.62528
   4   24628.4    406.0   0.021204499   0.28344   0.43161   0.30015   0.08405
   5   25576.0    391.0   0.073970779   0.95215  -0.50712  -0.81723  -0.16462
   6   27135.7    368.5   0.094343365   1.14458  -0.00368   0.72999   0.78210
   7   27477.8    363.9   0.023038703   0.27603   0.33317   0.28194   0.29246
   8   28927.1    345.7   0.033176379   0.37757   0.50336   0.33211  -0.11791
   9   29538.7    338.5   0.070550293   0.78629   0.71299  -0.49663   0.17692
  10   30232.0    330.8   0.142424631   1.55093   0.53258   0.74332  -0.84544
  11   30419.4    328.7   0.053784317   0.58208   0.71460   0.25270  -0.08698
  12   30810.5    324.6   0.023469185   0.25077   0.27580  -0.27900   0.31123
  13   31099.1    321.6   0.033672485   0.35645  -0.22321  -0.35426   0.42559
  14   31496.4    317.5   0.103182482   1.07850  -0.82966  -0.17925   0.59836
  15   32148.7    311.1   0.113510287   1.16238   1.03242   0.28789  -0.11664
  16   32682.3    306.0   0.071190108   0.71711   0.83709   0.02998  -0.12442
  17   32750.2    305.3   0.028527638   0.28677   0.44775   0.18954  -0.22441
  18   33076.6    302.3   0.044136894   0.43929   0.35508  -0.36862   0.42111
  19   33638.3    297.3   0.112317130   1.09923  -0.18212   0.93105  -0.44633
  20   34117.7    293.1   0.005264467   0.05080  -0.22303  -0.02007  -0.02560
  21   34437.0    290.4   0.032424670   0.30997  -0.02212   0.45653  -0.31790
  22   34910.1    286.5   0.066324369   0.62546  -0.57499   0.34095  -0.42260
  23   35114.9    284.8   0.068835284   0.64535  -0.67715  -0.41611   0.11693
  24   35532.6    281.4   0.043856535   0.40633  -0.51015  -0.17869   0.33786
  25   35944.3    278.2   0.338419147   3.09956  -0.41848  -1.49094   0.83758
  26   36364.1    275.0   0.307312849   2.78217  -1.55763  -0.57202   0.16954
  27   36434.3    274.5   0.491830147   4.44407  -1.54011  -0.97899   1.05532
  28   36808.0    271.7   0.018876117   0.16883   0.19968   0.14449  -0.32875
  29   37338.1    267.8   0.134890610   1.18934  -1.01948   0.26178   0.28541
  30   37537.0    266.4   0.265568540   2.32912   0.28871  -1.10850   1.00846
  31   37905.7    263.8   0.012360507   0.10735   0.06170  -0.24904   0.20377
  32   38133.2    262.2   0.125424105   1.08281   0.45728  -0.80606   0.47326
  33   38480.4    259.9   0.049179581   0.42075   0.30836  -0.54417  -0.17187
  34   38793.5    257.8   0.020127000   0.17080  -0.19749   0.32919   0.15309
  35   39060.0    256.0   0.036182637   0.30496  -0.46059   0.29091   0.09050
  36   39963.5    250.2   0.012234561   0.10079   0.14456  -0.24171   0.14650

FINAL SINGLE POINT ENERGY     -6304.440035123967

DIPOLE MOMENT
-------------
                                X             Y             Z
Electronic contribution:    -58.71946     -35.34416      24.24168
Nuclear contribution   :     60.79640      35.31028     -26.33645
                        -----------------------------------------
Total Dipole Moment    :      2.07694      -0.03388      -2.09477
                        -----------------------------------------
Magnitude (a.u.)       :      2.95007
Magnitude (Debye)      :      7.49848

Rotational constants in cm-1:     0.002713     0.000288     0.000282
Rotational constants in MHz :    81.329883     8.630072     8.468103

                             ****ORCA TERMINATED NORMALLY****
TOTAL RUN TIME: 0 days 0 hours 39 minutes 14 seconds 370 msec
