                         Program Version 4.2.0 -  RELEASE  -
|  1> # ORCA input file
|  2> # BTTPC.out
|  3> ! CAM-B3LYP def2-SVP def2/J RIJCOSX Grid4 TightSCF
|  4> %maxcore 5000
|  5> %tddft
|  6>     Mode sTDDFT
|  7>     Ethresh 5.0
|  8>     maxcore 5000
|  9> end
| 10> * xyz 0 1
| 11>    C       -3.04954        -1.03564        -0.62360
| 12>    O       -2.61405        -0.14899        -1.33144
| 13>    C       -2.36503        -2.29382        -0.27255
| 14>    C       -1.13277        -2.73078        -0.69329
| 15>    C       -0.67081        -3.95548        -0.20042
| 16>    C       -1.47835        -4.68538         0.70395
| 17>    C       -2.72526        -4.24370         1.13088
| 18>    C       -3.16731        -3.03346         0.63219
| 19>    C       -4.39732        -2.29213         0.87278
| 20>    C       -5.48947        -2.74162         1.56993
| 21>    C       -5.54729        -3.98479         2.23163
| 22>    N       -5.64953        -4.98103         2.79321
| 23>    C       -6.70954        -2.04223         1.67542
| 24>    N       -7.73776        -1.54026         1.77591
| 25>    C       -4.30465        -1.03609         0.15549
| 26>    C       -5.10238         0.05499         0.36515
| 27>    C       -5.15037         1.26403        -0.36307
| 28>    S       -5.47123         2.70044         0.62415
| 29>    C       -5.36609         3.71106        -0.76349
| 30>    C       -5.17470         2.95137        -1.92428
| 31>    C       -5.05390         1.57059        -1.71654
| 32>    C       -4.95423         0.61855        -2.86065
| 33>    C       -6.01733        -0.47770        -2.82870
| 34>    S       -5.09224         3.92611        -3.37586
| 35>    C       -5.26667         5.34685        -2.40613
| 36>    C       -5.40240         5.07961        -1.03845
| 37>    N       -5.49263         6.25347        -0.33315
| 38>    C       -6.19642         6.27439         0.93246
| 39>    C       -7.62886         5.76390         0.77749
| 40>    C       -5.37728         7.28753        -1.24595
| 41>    C       -5.28890         6.74386        -2.55679
| 42>    C       -5.28875         7.58165        -3.69498
| 43>    N       -5.28687         7.23671        -4.97244
| 44>    S       -5.35637         8.58175        -5.86986
| 45>    N       -5.38210         9.66009        -4.66294
| 46>    C       -5.34079         9.00672        -3.51311
| 47>    C       -5.24627         9.53491        -2.20485
| 48>    C       -5.20261         8.68113        -1.06661
| 49>    N       -4.89259         9.43841         0.04414
| 50>    C       -4.42733         9.03243         1.35173
| 51>    C       -5.39514         9.44835         2.45875
| 52>    C       -4.75636        10.73793        -0.36316
| 53>    C       -4.99705        10.83468        -1.73923
| 54>    S       -4.78437        12.43166        -2.36701
| 55>    C       -4.31856        12.97913        -0.77115
| 56>    C       -4.34315        11.95571         0.18504
| 57>    S       -3.76138        12.51389         1.70380
| 58>    C       -3.53820        14.13794         1.05812
| 59>    C       -3.87814        14.21935        -0.28704
| 60>    C       -3.65338        15.39419        -1.18630
| 61>    C       -4.92911        15.83433        -1.90631
| 62>    C       -2.92534        15.06003         1.94071
| 63>    C       -2.98477        16.41812         2.00924
| 64>    C       -3.90143        17.39250         1.46365
| 65>    C       -5.22381        17.17049         1.17495
| 66>    C       -6.11207        18.17373         0.74181
| 67>    N       -6.86783        18.95378         0.36989
| 68>    C       -5.84562        15.92022         1.35939
| 69>    N       -6.39422        14.92606         1.53030
| 70>    C       -3.25256        18.69591         1.54505
| 71>    C       -3.61897        19.92011         1.02280
| 72>    C       -2.78648        20.99860         1.30096
| 73>    C       -1.61526        20.88329         2.08761
| 74>    C       -1.25875        19.63475         2.60712
| 75>    C       -2.07367        18.56574         2.32415
| 76>    C       -1.90565        17.15530         2.72140
| 77>    O       -1.05119        16.67741         3.43345
| 78>    C       -0.94802        22.13342         2.22401
| 79>    C       -1.57976        23.13393         1.57278
| 80>    S       -3.01893        22.62968         0.75615
| 81>    S       -0.70268        -6.16044         1.18939
| 82>    C        0.66584        -5.79588         0.19662
| 83>    C        0.55534        -4.62609        -0.47001
| 84>    H        1.48211        -6.49152         0.17435
| 85>    H       -1.29142        24.16526         1.51233
| 86>    H       -0.54270        -2.14506        -1.38112
| 87>    H       -3.30095        -4.82994         1.82773
| 88>    H       -5.72838         0.04658         1.25171
| 89>    H       -3.95743         0.16972        -2.85612
| 90>    H       -5.05598         1.19588        -3.78244
| 91>    H       -5.90393        -1.11459        -1.95570
| 92>    H       -5.93213        -1.09650        -3.71824
| 93>    H       -7.01333        -0.04064        -2.80637
| 94>    H       -6.23433         7.29432         1.29962
| 95>    H       -5.65296         5.64573         1.64491
| 96>    H       -8.16174         6.35750         0.03746
| 97>    H       -8.14697         5.84437         1.72900
| 98>    H       -7.64336         4.72334         0.46622
| 99>    H       -3.46575         9.52799         1.52891
|100>    H       -4.25034         7.95676         1.34910
|101>    H       -6.39986         9.07153         2.28069
|102>    H       -5.45179        10.53155         2.51948
|103>    H       -5.04293         9.06853         3.41343
|104>    H       -2.91736        15.09899        -1.94111
|105>    H       -3.23094        16.22392        -0.61931
|106>    H       -5.73688        16.02060        -1.20345
|107>    H       -5.25862        15.06464        -2.59893
|108>    H       -4.74105        16.74636        -2.46739
|109>    H       -2.24438        14.61254         2.66137
|110>    H       -4.49949        20.05049         0.41506
|111>    H       -0.37255        19.51111         3.21001
|112>    H       -0.03961        22.25872         2.78499
|113>    H        1.30767        -4.23687        -1.13204
|114> *
|115>
|116>                          ****END OF INPUT****

CARTESIAN COORDINATES (ANGSTROEM)
---------------------------------
  C     -3.049540   -1.035640   -0.623600
  O     -2.614050   -0.148990   -1.331440
  C     -2.365030   -2.293820   -0.272550
  C     -1.132770   -2.730780   -0.693290
  C     -0.670810   -3.955480   -0.200420
  C     -1.478350   -4.685380    0.703950
  C     -2.725260   -4.243700    1.130880
  C     -3.167310   -3.033460    0.632190
  C     -4.397320   -2.292130    0.872780
  C     -5.489470   -2.741620    1.569930
  C     -5.547290   -3.984790    2.231630
  N     -5.649530   -4.981030    2.793210
  C     -6.709540   -2.042230    1.675420
  N     -7.737760   -1.540260    1.775910
  C     -4.304650   -1.036090    0.155490
  C     -5.102380    0.054990    0.365150
  C     -5.150370    1.264030   -0.363070
  S     -5.471230    2.700440    0.624150
  C     -5.366090    3.711060   -0.763490
  C     -5.174700    2.951370   -1.924280
  C     -5.053900    1.570590   -1.716540
  C     -4.954230    0.618550   -2.860650
  C     -6.017330   -0.477700   -2.828700
  S     -5.092240    3.926110   -3.375860
  C     -5.266670    5.346850   -2.406130
  C     -5.402400    5.079610   -1.038450
  N     -5.492630    6.253470   -0.333150
  C     -6.196420    6.274390    0.932460
  C     -7.628860    5.763900    0.777490
  C     -5.377280    7.287530   -1.245950
  C     -5.288900    6.743860   -2.556790
  C     -5.288750    7.581650   -3.694980
  N     -5.286870    7.236710   -4.972440
  S     -5.356370    8.581750   -5.869860
  N     -5.382100    9.660090   -4.662940
  C     -5.340790    9.006720   -3.513110
  C     -5.246270    9.534910   -2.204850
  C     -5.202610    8.681130   -1.066610
  N     -4.892590    9.438410    0.044140
  C     -4.427330    9.032430    1.351730
  C     -5.395140    9.448350    2.458750
  C     -4.756360   10.737930   -0.363160
  C     -4.997050   10.834680   -1.739230
  S     -4.784370   12.431660   -2.367010
  C     -4.318560   12.979130   -0.771150
  C     -4.343150   11.955710    0.185040
  S     -3.761380   12.513890    1.703800
  C     -3.538200   14.137940    1.058120
  C     -3.878140   14.219350   -0.287040
  C     -3.653380   15.394190   -1.186300
  C     -4.929110   15.834330   -1.906310
  C     -2.925340   15.060030    1.940710
  C     -2.984770   16.418120    2.009240
  C     -3.901430   17.392500    1.463650
  C     -5.223810   17.170490    1.174950
  C     -6.112070   18.173730    0.741810
  N     -6.867830   18.953780    0.369890
  C     -5.845620   15.920220    1.359390
  N     -6.394220   14.926060    1.530300
  C     -3.252560   18.695910    1.545050
  C     -3.618970   19.920110    1.022800
  C     -2.786480   20.998600    1.300960
  C     -1.615260   20.883290    2.087610
  C     -1.258750   19.634750    2.607120
  C     -2.073670   18.565740    2.324150
  C     -1.905650   17.155300    2.721400
  O     -1.051190   16.677410    3.433450
  C     -0.948020   22.133420    2.224010
  C     -1.579760   23.133930    1.572780
  S     -3.018930   22.629680    0.756150
  S     -0.702680   -6.160440    1.189390
  C      0.665840   -5.795880    0.196620
  C      0.555340   -4.626090   -0.470010
  H      1.482110   -6.491520    0.174350
  H     -1.291420   24.165260    1.512330
  H     -0.542700   -2.145060   -1.381120
  H     -3.300950   -4.829940    1.827730
  H     -5.728380    0.046580    1.251710
  H     -3.957430    0.169720   -2.856120
  H     -5.055980    1.195880   -3.782440
  H     -5.903930   -1.114590   -1.955700
  H     -5.932130   -1.096500   -3.718240
  H     -7.013330   -0.040640   -2.806370
  H     -6.234330    7.294320    1.299620
  H     -5.652960    5.645730    1.644910
  H     -8.161740    6.357500    0.037460
  H     -8.146970    5.844370    1.729000
  H     -7.643360    4.723340    0.466220
  H     -3.465750    9.527990    1.528910
  H     -4.250340    7.956760    1.349100
  H     -6.399860    9.071530    2.280690
  H     -5.451790   10.531550    2.519480
  H     -5.042930    9.068530    3.413430
  H     -2.917360   15.098990   -1.941110
  H     -3.230940   16.223920   -0.619310
  H     -5.736880   16.020600   -1.203450
  H     -5.258620   15.064640   -2.598930
  H     -4.741050   16.746360   -2.467390
  H     -2.244380   14.612540    2.661370
  H     -4.499490   20.050490    0.415060
  H     -0.372550   19.511110    3.210010
  H     -0.039610   22.258720    2.784990
  H      1.307670   -4.236870   -1.132040

 Total Charge           Charge          ....    0
 Multiplicity           Mult            ....    1
 Number of Electrons    NEL             ....  550
 Basis Dimension        Dim             .... 1200

ORBITAL ENERGIES
----------------

  NO   OCC          E(Eh)            E(eV)
   0   2.0000     -89.004480     -2421.9350
   1   2.0000     -88.968329     -2420.9513
   2   2.0000     -88.968125     -2420.9458
   3   2.0000     -88.965772     -2420.8817
   4   2.0000     -88.964481     -2420.8466
   5   2.0000     -88.962782     -2420.8004
   6   2.0000     -88.962579     -2420.7948
   7   2.0000     -19.212416      -522.7964
   8   2.0000     -19.211174      -522.7626
   9   2.0000     -14.483831      -394.1251
  10   2.0000     -14.479886      -394.0177
  11   2.0000     -14.427820      -392.6009
  12   2.0000     -14.427341      -392.5879
  13   2.0000     -14.413487      -392.2109
  14   2.0000     -14.411482      -392.1564
  15   2.0000     -14.411013      -392.1436
  16   2.0000     -14.410611      -392.1327
  17   2.0000     -10.362932      -281.9897
  18   2.0000     -10.362376      -281.9746
  19   2.0000     -10.338907      -281.3360
  20   2.0000     -10.338226      -281.3174
  21   2.0000     -10.337241      -281.2906
  22   2.0000     -10.336104      -281.2597
  23   2.0000     -10.336004      -281.2570
  24   2.0000     -10.335740      -281.2498
  25   2.0000     -10.334785      -281.2238
  26   2.0000     -10.332762      -281.1688
  27   2.0000     -10.319858      -280.8176
  28   2.0000     -10.319815      -280.8164
  29   2.0000     -10.319711      -280.8136
  30   2.0000     -10.319542      -280.8090
  31   2.0000     -10.319389      -280.8049
  32   2.0000     -10.318698      -280.7860
  33   2.0000     -10.317845      -280.7628
  34   2.0000     -10.317781      -280.7611
  35   2.0000     -10.317442      -280.7519
  36   2.0000     -10.317161      -280.7442
  37   2.0000     -10.316098      -280.7153
  38   2.0000     -10.314039      -280.6593
  39   2.0000     -10.313814      -280.6531
  40   2.0000     -10.313185      -280.6360
  41   2.0000     -10.312981      -280.6305
  42   2.0000     -10.312825      -280.6262
  43   2.0000     -10.312253      -280.6107
  44   2.0000     -10.311598      -280.5928
  45   2.0000     -10.305562      -280.4286
  46   2.0000     -10.305446      -280.4255
  47   2.0000     -10.305240      -280.4198
  48   2.0000     -10.304866      -280.4097
  49   2.0000     -10.304850      -280.4092
  50   2.0000     -10.304027      -280.3868
  51   2.0000     -10.302625      -280.3487
  52   2.0000     -10.302604      -280.3481
  53   2.0000     -10.302269      -280.3390
  54   2.0000     -10.300581      -280.2931
  55   2.0000     -10.300232      -280.2836
  56   2.0000     -10.299127      -280.2535
  57   2.0000     -10.297761      -280.2163
  58   2.0000     -10.296092      -280.1709
  59   2.0000     -10.292985      -280.0864
  60   2.0000     -10.292810      -280.0816
  61   2.0000     -10.290779      -280.0263
  62   2.0000     -10.289047      -279.9792
  63   2.0000     -10.288855      -279.9740
  64   2.0000     -10.288154      -279.9549
  65   2.0000     -10.287308      -279.9319
  66   2.0000     -10.287188      -279.9286
  67   2.0000     -10.282084      -279.7897
  68   2.0000     -10.282044      -279.7886
  69   2.0000     -10.276197      -279.6295
  70   2.0000     -10.268380      -279.4168
  71   2.0000     -10.262300      -279.2514
  72   2.0000     -10.256199      -279.0854
  73   2.0000      -8.096701      -220.3224
  74   2.0000      -8.062942      -219.4038
  75   2.0000      -8.062913      -219.4030
  76   2.0000      -8.062017      -219.3786
  77   2.0000      -8.060760      -219.3444
  78   2.0000      -8.056838      -219.2377
  79   2.0000      -8.056461      -219.2274
  80   2.0000      -6.068227      -165.1249
  81   2.0000      -6.060563      -164.9163
  82   2.0000      -6.058306      -164.8549
  83   2.0000      -6.032606      -164.1555
  84   2.0000      -6.032568      -164.1545
  85   2.0000      -6.031524      -164.1261
  86   2.0000      -6.030257      -164.0916
  87   2.0000      -6.028458      -164.0427
  88   2.0000      -6.028436      -164.0421
  89   2.0000      -6.027235      -164.0094
  90   2.0000      -6.026693      -163.9947
  91   2.0000      -6.026369      -163.9859
  92   2.0000      -6.025984      -163.9754
  93   2.0000      -6.024472      -163.9342
  94   2.0000      -6.024365      -163.9313
  95   2.0000      -6.023695      -163.9131
  96   2.0000      -6.022693      -163.8858
  97   2.0000      -6.022428      -163.8786
  98   2.0000      -6.022272      -163.8743
  99   2.0000      -6.017839      -163.7537
 100   2.0000      -6.017492      -163.7443
 101   2.0000      -1.126757       -30.6606
 102   2.0000      -1.126117       -30.6432
 103   2.0000      -1.115862       -30.3642
 104   2.0000      -1.107972       -30.1495
 105   2.0000      -1.100668       -29.9507
 106   2.0000      -1.019062       -27.7301
 107   2.0000      -1.016634       -27.6640
 108   2.0000      -1.011793       -27.5323
 109   2.0000      -1.010438       -27.4954
 110   2.0000      -1.005629       -27.3646
 111   2.0000      -1.004867       -27.3438
 112   2.0000      -0.990826       -26.9617
 113   2.0000      -0.989544       -26.9269
 114   2.0000      -0.982761       -26.7423
 115   2.0000      -0.981721       -26.7140
 116   2.0000      -0.969973       -26.3943
 117   2.0000      -0.963937       -26.2301
 118   2.0000      -0.952838       -25.9280
 119   2.0000      -0.945181       -25.7197
 120   2.0000      -0.927934       -25.2504
 121   2.0000      -0.926230       -25.2040
 122   2.0000      -0.908667       -24.7261
 123   2.0000      -0.898373       -24.4460
 124   2.0000      -0.896310       -24.3898
 125   2.0000      -0.893346       -24.3092
 126   2.0000      -0.892126       -24.2760
 127   2.0000      -0.885917       -24.1070
 128   2.0000      -0.880058       -23.9476
 129   2.0000      -0.878489       -23.9049
 130   2.0000      -0.867584       -23.6082
 131   2.0000      -0.865437       -23.5498
 132   2.0000      -0.854671       -23.2568
 133   2.0000      -0.842707       -22.9312
 134   2.0000      -0.829335       -22.5674
 135   2.0000      -0.825612       -22.4660
 136   2.0000      -0.821631       -22.3577
 137   2.0000      -0.820394       -22.3241
 138   2.0000      -0.816123       -22.2078
 139   2.0000      -0.803383       -21.8612
 140   2.0000      -0.801385       -21.8068
 141   2.0000      -0.792771       -21.5724
 142   2.0000      -0.780066       -21.2267
 143   2.0000      -0.761103       -20.7107
 144   2.0000      -0.753768       -20.5111
 145   2.0000      -0.751724       -20.4555
 146   2.0000      -0.748689       -20.3729
 147   2.0000      -0.745900       -20.2970
 148   2.0000      -0.729819       -19.8594
 149   2.0000      -0.723099       -19.6765
 150   2.0000      -0.719327       -19.5739
 151   2.0000      -0.714269       -19.4363
 152   2.0000      -0.705151       -19.1881
 153   2.0000      -0.697216       -18.9722
 154   2.0000      -0.695546       -18.9268
 155   2.0000      -0.687046       -18.6955
 156   2.0000      -0.684860       -18.6360
 157   2.0000      -0.679884       -18.5006
 158   2.0000      -0.672408       -18.2972
 159   2.0000      -0.660848       -17.9826
 160   2.0000      -0.658904       -17.9297
 161   2.0000      -0.657912       -17.9027
 162   2.0000      -0.652666       -17.7599
 163   2.0000      -0.648592       -17.6491
 164   2.0000      -0.636908       -17.3311
 165   2.0000      -0.630425       -17.1547
 166   2.0000      -0.628653       -17.1065
 167   2.0000      -0.617856       -16.8127
 168   2.0000      -0.616678       -16.7807
 169   2.0000      -0.612900       -16.6779
 170   2.0000      -0.605247       -16.4696
 171   2.0000      -0.595530       -16.2052
 172   2.0000      -0.593739       -16.1565
 173   2.0000      -0.591902       -16.1065
 174   2.0000      -0.587515       -15.9871
 175   2.0000      -0.581342       -15.8191
 176   2.0000      -0.579003       -15.7555
 177   2.0000      -0.576902       -15.6983
 178   2.0000      -0.571848       -15.5608
 179   2.0000      -0.566950       -15.4275
 180   2.0000      -0.558428       -15.1956
 181   2.0000      -0.553209       -15.0536
 182   2.0000      -0.551116       -14.9966
 183   2.0000      -0.549266       -14.9463
 184   2.0000      -0.546141       -14.8613
 185   2.0000      -0.543308       -14.7842
 186   2.0000      -0.542540       -14.7633
 187   2.0000      -0.540467       -14.7069
 188   2.0000      -0.534428       -14.5425
 189   2.0000      -0.533725       -14.5234
 190   2.0000      -0.531576       -14.4649
 191   2.0000      -0.530946       -14.4478
 192   2.0000      -0.530227       -14.4282
 193   2.0000      -0.528057       -14.3692
 194   2.0000      -0.526419       -14.3246
 195   2.0000      -0.521543       -14.1919
 196   2.0000      -0.521237       -14.1836
 197   2.0000      -0.515030       -14.0147
 198   2.0000      -0.513178       -13.9643
 199   2.0000      -0.510360       -13.8876
 200   2.0000      -0.505918       -13.7667
 201   2.0000      -0.502510       -13.6740
 202   2.0000      -0.500039       -13.6067
 203   2.0000      -0.499029       -13.5793
 204   2.0000      -0.496575       -13.5125
 205   2.0000      -0.495379       -13.4799
 206   2.0000      -0.490818       -13.3558
 207   2.0000      -0.489678       -13.3248
 208   2.0000      -0.488390       -13.2898
 209   2.0000      -0.486403       -13.2357
 210   2.0000      -0.484357       -13.1800
 211   2.0000      -0.483977       -13.1697
 212   2.0000      -0.482757       -13.1365
 213   2.0000      -0.479158       -13.0385
 214   2.0000      -0.474923       -12.9233
 215   2.0000      -0.470999       -12.8165
 216   2.0000      -0.469368       -12.7721
 217   2.0000      -0.467283       -12.7154
 218   2.0000      -0.465201       -12.6588
 219   2.0000      -0.462023       -12.5723
 220   2.0000      -0.457505       -12.4493
 221   2.0000      -0.456991       -12.4353
 222   2.0000      -0.453389       -12.3373
 223   2.0000      -0.452131       -12.3031
 224   2.0000      -0.451741       -12.2925
 225   2.0000      -0.451022       -12.2729
 226   2.0000      -0.446969       -12.1626
 227   2.0000      -0.445811       -12.1311
 228   2.0000      -0.445345       -12.1184
 229   2.0000      -0.444510       -12.0957
 230   2.0000      -0.443062       -12.0563
 231   2.0000      -0.440638       -11.9904
 232   2.0000      -0.439462       -11.9584
 233   2.0000      -0.437230       -11.8976
 234   2.0000      -0.433850       -11.8057
 235   2.0000      -0.432418       -11.7667
 236   2.0000      -0.430394       -11.7116
 237   2.0000      -0.429686       -11.6924
 238   2.0000      -0.428270       -11.6538
 239   2.0000      -0.425561       -11.5801
 240   2.0000      -0.423927       -11.5356
 241   2.0000      -0.422220       -11.4892
 242   2.0000      -0.419174       -11.4063
 243   2.0000      -0.419006       -11.4017
 244   2.0000      -0.417532       -11.3616
 245   2.0000      -0.415372       -11.3028
 246   2.0000      -0.413130       -11.2418
 247   2.0000      -0.411573       -11.1995
 248   2.0000      -0.406620       -11.0647
 249   2.0000      -0.404511       -11.0073
 250   2.0000      -0.401923       -10.9369
 251   2.0000      -0.399551       -10.8723
 252   2.0000      -0.395866       -10.7721
 253   2.0000      -0.390732       -10.6324
 254   2.0000      -0.389568       -10.6007
 255   2.0000      -0.387042       -10.5319
 256   2.0000      -0.374401       -10.1880
 257   2.0000      -0.372601       -10.1390
 258   2.0000      -0.360256        -9.8031
 259   2.0000      -0.354529        -9.6472
 260   2.0000      -0.353980        -9.6323
 261   2.0000      -0.340904        -9.2765
 262   2.0000      -0.336278        -9.1506
 263   2.0000      -0.333352        -9.0710
 264   2.0000      -0.331362        -9.0168
 265   2.0000      -0.312914        -8.5148
 266   2.0000      -0.312179        -8.4948
 267   2.0000      -0.309957        -8.4344
 268   2.0000      -0.308537        -8.3957
 269   2.0000      -0.294084        -8.0024
 270   2.0000      -0.292255        -7.9527
 271   2.0000      -0.286116        -7.7856
 272   2.0000      -0.275913        -7.5080
 273   2.0000      -0.272056        -7.4030
 274   2.0000      -0.236763        -6.4427
 275   0.0000      -0.091338        -2.4854
 276   0.0000      -0.083648        -2.2762
 277   0.0000      -0.058811        -1.6003
 278   0.0000      -0.054091        -1.4719
 279   0.0000      -0.037784        -1.0281

MULLIKEN ATOMIC CHARGES
-----------------------
   0 C :    0.149409
   1 O :   -0.161227
   2 C :   -0.016959
   3 C :   -0.072708
   4 C :    0.116190
   5 C :   -0.093317
   6 C :   -0.029838
   7 C :    0.020067
   8 C :    0.295360
   9 C :   -0.344461
  10 C :   -0.185018
  11 N :    0.149184
  12 C :   -0.213040
  13 N :    0.163574
  14 C :   -0.106140
  15 C :   -0.012099
  16 C :   -0.139163
  17 S :    0.140644
  18 C :   -0.046013
  19 C :   -0.138324
  20 C :    0.018941
  21 C :    0.066028
  22 C :   -0.002393
  23 S :    0.192503
  24 C :   -0.088369
  25 C :    0.026338
  26 N :   -0.177245
  27 C :    0.091442
  28 C :    0.006619
  29 C :    0.035818
  30 C :   -0.049224
  31 C :   -0.008829
  32 N :   -0.263225
  33 S :    0.464044
  34 N :   -0.262755
  35 C :   -0.017412
  36 C :   -0.043099
  37 C :    0.052903
  38 N :   -0.162697
  39 C :    0.072769
  40 C :   -0.001434
  41 C :    0.050368
  42 C :   -0.090701
  43 S :    0.185045
  44 C :   -0.110112
  45 C :   -0.040444
  46 S :    0.147567
  47 C :   -0.163107
  48 C :   -0.010114
  49 C :    0.061249
  50 C :   -0.003254
  51 C :    0.047487
  52 C :   -0.139481
  53 C :    0.247769
  54 C :   -0.356156
  55 C :   -0.175505
  56 N :    0.157146
  57 C :   -0.199701
  58 N :    0.174460
  59 C :    0.005980
  60 C :   -0.026736
  61 C :   -0.092100
  62 C :    0.108052
  63 C :   -0.072411
  64 C :    0.008168
  65 C :    0.132011
  66 O :   -0.148222
  67 C :    0.029393
  68 C :   -0.052151
  69 S :    0.138349
  70 S :    0.138759
  71 C :   -0.049555
  72 C :    0.022640
  73 H :    0.038698
  74 H :    0.038302
  75 H :   -0.013582
  76 H :   -0.006102
  77 H :    0.034136
  78 H :    0.050225
  79 H :   -0.002690
  80 H :    0.025853
  81 H :    0.017952
  82 H :    0.022385
  83 H :    0.006307
  84 H :    0.034544
  85 H :    0.033278
  86 H :    0.028836
  87 H :    0.037424
  88 H :    0.034186
  89 H :    0.040812
  90 H :    0.037282
  91 H :    0.037173
  92 H :    0.031234
  93 H :    0.029472
  94 H :    0.012514
  95 H :    0.034464
  96 H :    0.026896
  97 H :    0.022266
  98 H :    0.028778
  99 H :   -0.005530
 100 H :   -0.011948
 101 H :   -0.007214
 102 H :   -0.007489
Sum of atomic charges:   -0.0000000

LOEWDIN ATOMIC CHARGES
----------------------
   0 C :    0.082619
   1 O :   -0.144950
   2 C :   -0.051815
   3 C :    0.020759
   4 C :   -0.035745
   5 C :   -0.146637
   6 C :   -0.009443
   7 C :   -0.023034
   8 C :    0.075188
   9 C :   -0.144823
  10 C :   -0.019012
  11 N :   -0.056039
  12 C :   -0.026765
  13 N :   -0.054791
  14 C :   -0.104857
  15 C :    0.045290
  16 C :   -0.177211
  17 S :    0.418744
  18 C :   -0.195988
  19 C :   -0.192181
  20 C :   -0.003343
  21 C :   -0.034193
  22 C :   -0.048789
  23 S :    0.433475
  24 C :   -0.169094
  25 C :   -0.043241
  26 N :    0.030748
  27 C :    0.037094
  28 C :   -0.058429
  29 C :    0.009898
  30 C :   -0.075585
  31 C :   -0.055819
  32 N :   -0.287259
  33 S :    0.599359
  34 N :   -0.288078
  35 C :   -0.054040
  36 C :   -0.078704
  37 C :    0.011077
  38 N :    0.043677
  39 C :    0.037073
  40 C :   -0.062517
  41 C :   -0.039865
  42 C :   -0.172629
  43 S :    0.434526
  44 C :   -0.187795
  45 C :   -0.192410
  46 S :    0.436919
  47 C :   -0.182400
  48 C :   -0.022479
  49 C :   -0.030214
  50 C :   -0.049817
  51 C :    0.043889
  52 C :   -0.102512
  53 C :    0.063154
  54 C :   -0.144090
  55 C :   -0.021773
  56 N :   -0.054445
  57 C :   -0.020805
  58 N :   -0.048281
  59 C :   -0.020730
  60 C :   -0.012731
  61 C :   -0.145340
  62 C :   -0.036845
  63 C :    0.023520
  64 C :   -0.055004
  65 C :    0.082986
  66 O :   -0.147774
  67 C :   -0.057466
  68 C :   -0.150869
  69 S :    0.427789
  70 S :    0.428158
  71 C :   -0.150658
  72 C :   -0.058334
  73 H :    0.029089
  74 H :    0.029160
  75 H :    0.039474
  76 H :    0.040572
  77 H :    0.043596
  78 H :    0.040103
  79 H :    0.023176
  80 H :    0.023081
  81 H :    0.027796
  82 H :    0.027134
  83 H :    0.028568
  84 H :    0.026363
  85 H :    0.033601
  86 H :    0.033922
  87 H :    0.025919
  88 H :    0.030020
  89 H :    0.030960
  90 H :    0.026140
  91 H :    0.024466
  92 H :    0.034995
  93 H :    0.039652
  94 H :    0.030267
  95 H :    0.029240
  96 H :    0.018269
  97 H :    0.030388
  98 H :    0.045047
  99 H :    0.040157
 100 H :    0.040448
 101 H :    0.035162
 102 H :    0.034942

  Mayer bond orders larger than 0.100000
B(  0-C ,  1-O ) :   2.1628 B(  0-C ,  2-C ) :   0.9402 B(  0-C , 14-C ) :   0.9661
B(  2-C ,  3-C ) :   1.4285 B(  2-C ,  7-C ) :   1.2658 B(  3-C ,  4-C ) :   1.2431
B(  3-C , 75-H ) :   1.0166 B(  4-C ,  5-C ) :   1.3045 B(  4-C , 72-C ) :   1.1717
B(  5-C ,  6-C ) :   1.3183 B(  5-C , 70-S ) :   1.0976 B(  6-C ,  7-C ) :   1.4142
B(  6-C , 76-H ) :   0.9844 B(  7-C ,  8-C ) :   1.0064 B(  8-C ,  9-C ) :   1.6392
B(  8-C , 14-C ) :   1.0635 B(  9-C , 10-C ) :   1.1404 B(  9-C , 12-C ) :   1.1439
B( 10-C , 11-N ) :   2.9747 B( 12-C , 13-N ) :   2.9986 B( 14-C , 15-C ) :   1.5832
B( 15-C , 16-C ) :   1.1924 B( 15-C , 77-H ) :   0.9293 B( 16-C , 17-S ) :   1.0337
B( 16-C , 20-C ) :   1.4625 B( 17-S , 18-C ) :   1.0632 B( 18-C , 19-C ) :   1.4386
B( 18-C , 25-C ) :   1.2878 B( 19-C , 20-C ) :   1.3524 B( 19-C , 23-S ) :   1.0368
B( 20-C , 21-C ) :   1.0804 B( 21-C , 22-C ) :   1.0993 B( 21-C , 78-H ) :   0.8870
B( 21-C , 79-H ) :   0.9199 B( 22-C , 80-H ) :   0.9706 B( 22-C , 81-H ) :   0.9651
B( 22-C , 82-H ) :   0.9696 B( 23-S , 24-C ) :   1.0273 B( 24-C , 25-C ) :   1.4316
B( 24-C , 30-C ) :   1.3302 B( 25-C , 26-N ) :   1.1451 B( 26-N , 27-C ) :   0.9436
B( 26-N , 29-C ) :   1.1495 B( 27-C , 28-C ) :   1.1147 B( 27-C , 83-H ) :   0.9454
B( 27-C , 84-H ) :   0.9431 B( 28-C , 85-H ) :   0.9646 B( 28-C , 86-H ) :   0.9628
B( 28-C , 87-H ) :   0.9598 B( 29-C , 30-C ) :   1.3958 B( 29-C , 37-C ) :   1.1326
B( 30-C , 31-C ) :   1.1064 B( 31-C , 32-N ) :   1.6355 B( 31-C , 35-C ) :   1.1456
B( 32-N , 33-S ) :   1.2233 B( 32-N , 34-N ) :   0.1297 B( 33-S , 34-N ) :   1.2229
B( 34-N , 35-C ) :   1.6309 B( 35-C , 36-C ) :   1.1158 B( 36-C , 37-C ) :   1.3687
B( 36-C , 42-C ) :   1.3398 B( 37-C , 38-N ) :   1.1827 B( 37-C , 41-C ) :   0.1027
B( 38-N , 39-C ) :   0.9445 B( 38-N , 41-C ) :   1.1477 B( 39-C , 40-C ) :   1.0951
B( 39-C , 88-H ) :   0.9448 B( 39-C , 89-H ) :   0.9514 B( 40-C , 90-H ) :   0.9597
B( 40-C , 91-H ) :   0.9534 B( 40-C , 92-H ) :   0.9654 B( 41-C , 42-C ) :   1.4167
B( 41-C , 45-C ) :   1.2724 B( 42-C , 43-S ) :   1.0276 B( 43-S , 44-C ) :   1.0398
B( 44-C , 45-C ) :   1.4523 B( 44-C , 48-C ) :   1.3339 B( 45-C , 46-S ) :   1.0707
B( 46-S , 47-C ) :   1.0507 B( 47-C , 48-C ) :   1.4865 B( 47-C , 51-C ) :   1.1143
B( 48-C , 49-C ) :   1.0827 B( 49-C , 50-C ) :   1.0847 B( 49-C , 93-H ) :   0.9210
B( 49-C , 94-H ) :   0.9189 B( 50-C , 95-H ) :   0.9665 B( 50-C , 96-H ) :   0.9622
B( 50-C , 97-H ) :   0.9633 B( 51-C , 52-C ) :   1.6665 B( 51-C , 98-H ) :   0.9230
B( 52-C , 53-C ) :   1.0507 B( 52-C , 65-C ) :   0.9412 B( 53-C , 54-C ) :   1.6462
B( 53-C , 59-C ) :   1.0071 B( 54-C , 55-C ) :   1.1284 B( 54-C , 57-C ) :   1.1726
B( 55-C , 56-N ) :   2.9864 B( 57-C , 58-N ) :   2.9917 B( 59-C , 60-C ) :   1.4178
B( 59-C , 64-C ) :   1.2724 B( 60-C , 61-C ) :   1.3157 B( 60-C , 99-H ) :   0.9881
B( 61-C , 62-C ) :   1.3068 B( 61-C , 69-S ) :   1.0968 B( 62-C , 63-C ) :   1.2464
B( 62-C , 67-C ) :   1.1733 B( 63-C , 64-C ) :   1.4271 B( 63-C ,100-H ) :   1.0170
B( 64-C , 65-C ) :   0.9221 B( 65-C , 66-O ) :   2.2629 B( 67-C , 68-C ) :   1.6280
B( 67-C ,101-H ) :   0.9994 B( 68-C , 69-S ) :   1.1266 B( 68-C , 74-H ) :   0.9689
B( 70-S , 71-C ) :   1.1266 B( 71-C , 72-C ) :   1.6287 B( 71-C , 73-H ) :   0.9684
B( 72-C ,102-H ) :   0.9996

-----------------------------------------------------------------------------
         ABSORPTION SPECTRUM VIA TRANSITION ELECTRIC DIPOLE MOMENTS
-----------------------------------------------------------------------------
State   Energy  Wavelength   fosc         T2         TX        TY        TZ
        (cm-1)    (nm)                  (au**2)     (au)      (au)      (au)
-----------------------------------------------------------------------------
   0   17067.5    585.9   2.182395395  42.09583  -0.03072  -6.48084  -0.30602
   1   19755.1    506.2   0.260073352   4.33403   0.40625  -1.01790   1.76999
   2   24764.1    403.8   0.151086860   2.00854  -0.05600  -1.36249  -0.38604
   3   24992.0    400.1   0.076591444   1.00892   0.07469  -0.12170   0.99425
   4   25789.0    387.8   0.205865549   2.62799  -0.64973  -0.95836  -1.13463
   5   25847.2    386.9   0.043658127   0.55607   0.51055  -0.53896   0.07022
   6   26819.2    372.9   0.023113811   0.28373   0.24040  -0.20736  -0.42771
   7   27201.0    367.6   0.040666245   0.49218   0.08341   0.31544  -0.62106
   8   28273.3    353.7   0.122404270   1.42527  -0.83696   0.84740  -0.08170
   9   28576.2    349.9   0.203014053   2.33882   1.40497   0.59410   0.10922
  10   28883.3    346.2   0.194944876   2.22198   0.09725   1.45916   0.28875
  11   30015.4    333.2   0.056261946   0.61709  -0.63245   0.11060   0.45262
  12   30122.7    332.0   0.022082286   0.24134   0.18303   0.38077   0.25070
  13   30448.4    328.4   0.128505191   1.38942   0.84421  -0.60074   0.56198
  14   30829.1    324.4   0.083424862   0.89086   0.02794  -0.72945   0.59831
  15   31131.4    321.2   0.077794941   0.82267   0.25805  -0.78966   0.36404
  16   31394.2    318.5   0.024727579   0.25930   0.36138   0.33211   0.13570
  17   32927.0    303.7   0.143183759   1.43159  -1.16323   0.25554  -0.11478
  18   33178.9    301.4   0.198645116   1.97102  -0.89986  -0.97613  -0.45658
  19   33616.9    297.5   0.187635776   1.83753   1.17246  -0.29155  -0.61471
  20   33790.3    295.9   0.146409926   1.42644   0.37928  -0.65285   0.92540
  21   33937.6    294.7   0.323971836   3.14269   1.39031  -0.79081  -0.76442
  22   34247.3    292.0   0.310968673   2.98927  -1.35730  -0.96885  -0.45642
  23   34442.8    290.3   0.064327953   0.61486   0.00217  -0.20715  -0.75627
  24   34621.3    288.8   0.326045171   3.10034   1.12139   1.34429  -0.18900
  25   34722.3    288.0   0.129915923   1.23177  -0.35554  -0.95148  -0.44728
  26   35088.0    285.0   0.043429333   0.40747   0.37702  -0.48878   0.16256
  27   35297.5    283.3   0.011867466   0.11069   0.05264  -0.31515  -0.09272
  28   35567.5    281.2   0.023807957   0.22037  -0.30524  -0.25558  -0.24874
  29   36204.0    276.2   0.210003864   1.90962   0.12258   1.37478  -0.06770
  30   36910.7    270.9   0.201728013   1.79924  -0.58174  -0.36800   1.15126
  31   37170.6    269.0   0.004450446   0.03942   0.08965   0.03049   0.17450
  32   37374.7    267.6   0.012731553   0.11214   0.02291   0.14258   0.30214
  33   37868.7    264.1   0.052955211   0.46037   0.03343   0.01390   0.67754
  34   38767.0    258.0   0.048127220   0.40870   0.60909   0.15288   0.11976
  35   38927.3    256.9   0.055143362   0.46635  -0.08656   0.54238  -0.40581
  36   39060.6    256.0   0.003325676   0.02803  -0.14249   0.07006  -0.05308
  37   39314.6    254.4   0.242511964   2.03074  -0.08459  -1.04031   0.97022
  38   39407.3    253.8   0.095029314   0.79388  -0.89016  -0.03059  -0.02373
  39   39711.5    251.8   0.011343817   0.09404  -0.13608  -0.17319  -0.21338
  40   39992.6    250.0   0.000488685   0.00402  -0.05438   0.02181  -0.02428

FINAL SINGLE POINT ENERGY     -5523.456568414505

DIPOLE MOMENT
-------------
                                X             Y             Z
Electronic contribution:      4.45828       1.20819      -8.50322
Nuclear contribution   :     -1.13952      -0.03402       8.29736
                        -----------------------------------------
Total Dipole Moment    :      3.31876       1.17418      -0.20586
                        -----------------------------------------
Magnitude (a.u.)       :      3.52636
Magnitude (Debye)      :      8.96329

Rotational constants in cm-1:     0.002015     0.000211     0.000204
Rotational constants in MHz :    60.410535     6.335785     6.120096

                             ****ORCA TERMINATED NORMALLY****
TOTAL RUN TIME: 0 days 1 hours 8 minutes 4 seconds 167 msec
