                         Program Version 4.2.0 -  RELEASE  -
|  1> # ORCA input file
|  2> # BTTPC-Br.out
|  3> ! CAM-B3LYP def2-SVP def2/J RIJCOSX Grid4 TightSCF
|  4> %maxcore 5000
|  5> %tddft
|  6>     Mode sTDDFT
|  7>     Ethresh 5.0
|  8>     maxcore 5000
|  9> end
| 10> * xyz 0 1
| 11>    C       -3.05815        -1.02164        -0.61355
| 12>    O       -2.61915        -0.13265        -1.31595
| 13>    C       -2.37905        -2.29067        -0.28294
| 14>    C       -1.15919        -2.73533        -0.72976
| 15>    C       -0.70101        -3.96905        -0.25461
| 16>    C       -1.50023        -4.69756         0.65810
| 17>    C       -2.73406        -4.24638         1.11154
| 18>    C       -3.17241        -3.02712         0.63041
| 19>    C       -4.39126        -2.27416         0.89745
| 20>    C       -5.46830        -2.71454         1.62337
| 21>    C       -5.51405        -3.95375         2.29356
| 22>    N       -5.60037        -4.94612         2.86429
| 23>    C       -6.68135        -2.00775         1.75896
| 24>    N       -7.70339        -1.49941         1.88511
| 25>    C       -4.30302        -1.01993         0.17770
| 26>    C       -5.09840         0.07411         0.39295
| 27>    C       -5.15651         1.27900        -0.33722
| 28>    S       -5.49341         2.71335         0.64929
| 29>    C       -5.38188         3.72638        -0.73571
| 30>    C       -5.17930         2.96829        -1.89670
| 31>    C       -5.05438         1.58857        -1.69127
| 32>    C       -4.94597         0.64187        -2.83849
| 33>    C       -5.99744        -0.46559        -2.81149
| 34>    S       -5.08662         3.94396        -3.34687
| 35>    C       -5.27013         5.36239        -2.37662
| 36>    C       -5.41864         5.09479        -1.00984
| 37>    N       -5.51543         6.26885        -0.30592
| 38>    C       -6.22005         6.28692         0.95937
| 39>    C       -7.65130         5.77303         0.80400
| 40>    C       -5.38888         7.30320        -1.21678
| 41>    C       -5.28838         6.75860        -2.52698
| 42>    C       -5.26994         7.59319        -3.66729
| 43>    N       -5.25094         7.24543        -4.94391
| 44>    S       -5.29936         8.58877        -5.84484
| 45>    N       -5.33697         9.66953        -4.64068
| 46>    C       -5.31658         9.01808        -3.48912
| 47>    C       -5.23615         9.54730        -2.18037
| 48>    C       -5.21107         8.69684        -1.03847
| 49>    N       -4.90902         9.45700         0.07262
| 50>    C       -4.46847         9.05585         1.39017
| 51>    C       -5.45809         9.47603         2.47632
| 52>    C       -4.75893        10.75390        -0.33798
| 53>    C       -4.98294        10.84658        -1.71753
| 54>    S       -4.74658        12.43697        -2.35205
| 55>    C       -4.29124        12.98747        -0.75436
| 56>    C       -4.33897        11.96976         0.20831
| 57>    S       -3.76516        12.52935         1.72926
| 58>    C       -3.51102        14.14620         1.07530
| 59>    C       -3.83742        14.22347        -0.27482
| 60>    C       -3.58184        15.38610        -1.18155
| 61>    C       -4.84026        15.84129        -1.92254
| 62>    C       -2.89068        15.06318         1.95504
| 63>    C       -2.91634        16.42486         2.00636
| 64>    C       -3.80759        17.41401         1.44764
| 65>    C       -5.13133        17.21926         1.14509
| 66>    C       -5.99263        18.23976         0.69790
| 67>    N       -6.72498        19.03618         0.31430
| 68>    C       -5.78170        15.98308         1.32628
| 69>    N       -6.35216        15.00074         1.49338
| 70>    C       -3.13362        18.70570         1.52942
| 71>    C       -3.47316        19.93576         1.00145
| 72>    C       -2.62017        20.99759         1.27943
| 73>    C       -1.45430        20.86130         2.07037
| 74>    C       -1.12586        19.60722         2.59677
| 75>    C       -1.96237        18.55546         2.31413
| 76>    C       -1.82578        17.14118         2.71879
| 77>    O       -0.98346        16.65188         3.43660
| 78>    C       -0.75353        22.09059         2.20998
| 79>    C       -1.36625        23.10208         1.55054
| 80>    S       -2.82656        22.63006         0.72228
| 81>    S       -0.73969        -6.18929         1.12356
| 82>    C        0.62215        -5.81870         0.09988
| 83>    C        0.51494        -4.64012        -0.55841
| 84>   Br        2.05819        -7.02066        -0.00107
| 85>   Br       -0.78740        24.88390         1.46312
| 86>    H       -0.57541        -2.15074        -1.42352
| 87>    H       -3.30331        -4.83289         1.81330
| 88>    H       -5.71186         0.06867         1.28809
| 89>    H       -3.94440         0.20318        -2.83606
| 90>    H       -5.05310         1.22173        -3.75812
| 91>    H       -5.87543        -1.10783        -1.94359
| 92>    H       -5.90796        -1.07676        -3.70583
| 93>    H       -6.99781        -0.03894        -2.78394
| 94>    H       -6.26093         7.30593         1.32866
| 95>    H       -5.67531         5.65830         1.67108
| 96>    H       -8.19005         6.37348         0.07378
| 97>    H       -8.16519         5.83970         1.75886
| 98>    H       -7.66351         4.73622         0.48020
| 99>    H       -3.51061         9.55237         1.58354
|100>    H       -4.29069         7.98040         1.39488
|101>    H       -6.46142         9.10818         2.27313
|102>    H       -5.50735        10.55949         2.53950
|103>    H       -5.13165         9.09022         3.43772
|104>    H       -2.84167        15.07078        -1.92405
|105>    H       -3.15179        16.21373        -0.61745
|106>    H       -5.65516        16.04441        -1.23266
|107>    H       -5.17161        15.07251        -2.61523
|108>    H       -4.62992        16.74656        -2.48668
|109>    H       -2.23077        14.60900         2.69090
|110>    H       -4.34865        20.08232         0.39034
|111>    H       -0.24482        19.46821         3.20335
|112>    H        0.15582        22.20380         2.77145
|113>    H        1.26242        -4.25689        -1.22871
|114> *
|115>
|116>                          ****END OF INPUT****

CARTESIAN COORDINATES (ANGSTROEM)
---------------------------------
  C     -3.058150   -1.021640   -0.613550
  O     -2.619150   -0.132650   -1.315950
  C     -2.379050   -2.290670   -0.282940
  C     -1.159190   -2.735330   -0.729760
  C     -0.701010   -3.969050   -0.254610
  C     -1.500230   -4.697560    0.658100
  C     -2.734060   -4.246380    1.111540
  C     -3.172410   -3.027120    0.630410
  C     -4.391260   -2.274160    0.897450
  C     -5.468300   -2.714540    1.623370
  C     -5.514050   -3.953750    2.293560
  N     -5.600370   -4.946120    2.864290
  C     -6.681350   -2.007750    1.758960
  N     -7.703390   -1.499410    1.885110
  C     -4.303020   -1.019930    0.177700
  C     -5.098400    0.074110    0.392950
  C     -5.156510    1.279000   -0.337220
  S     -5.493410    2.713350    0.649290
  C     -5.381880    3.726380   -0.735710
  C     -5.179300    2.968290   -1.896700
  C     -5.054380    1.588570   -1.691270
  C     -4.945970    0.641870   -2.838490
  C     -5.997440   -0.465590   -2.811490
  S     -5.086620    3.943960   -3.346870
  C     -5.270130    5.362390   -2.376620
  C     -5.418640    5.094790   -1.009840
  N     -5.515430    6.268850   -0.305920
  C     -6.220050    6.286920    0.959370
  C     -7.651300    5.773030    0.804000
  C     -5.388880    7.303200   -1.216780
  C     -5.288380    6.758600   -2.526980
  C     -5.269940    7.593190   -3.667290
  N     -5.250940    7.245430   -4.943910
  S     -5.299360    8.588770   -5.844840
  N     -5.336970    9.669530   -4.640680
  C     -5.316580    9.018080   -3.489120
  C     -5.236150    9.547300   -2.180370
  C     -5.211070    8.696840   -1.038470
  N     -4.909020    9.457000    0.072620
  C     -4.468470    9.055850    1.390170
  C     -5.458090    9.476030    2.476320
  C     -4.758930   10.753900   -0.337980
  C     -4.982940   10.846580   -1.717530
  S     -4.746580   12.436970   -2.352050
  C     -4.291240   12.987470   -0.754360
  C     -4.338970   11.969760    0.208310
  S     -3.765160   12.529350    1.729260
  C     -3.511020   14.146200    1.075300
  C     -3.837420   14.223470   -0.274820
  C     -3.581840   15.386100   -1.181550
  C     -4.840260   15.841290   -1.922540
  C     -2.890680   15.063180    1.955040
  C     -2.916340   16.424860    2.006360
  C     -3.807590   17.414010    1.447640
  C     -5.131330   17.219260    1.145090
  C     -5.992630   18.239760    0.697900
  N     -6.724980   19.036180    0.314300
  C     -5.781700   15.983080    1.326280
  N     -6.352160   15.000740    1.493380
  C     -3.133620   18.705700    1.529420
  C     -3.473160   19.935760    1.001450
  C     -2.620170   20.997590    1.279430
  C     -1.454300   20.861300    2.070370
  C     -1.125860   19.607220    2.596770
  C     -1.962370   18.555460    2.314130
  C     -1.825780   17.141180    2.718790
  O     -0.983460   16.651880    3.436600
  C     -0.753530   22.090590    2.209980
  C     -1.366250   23.102080    1.550540
  S     -2.826560   22.630060    0.722280
  S     -0.739690   -6.189290    1.123560
  C      0.622150   -5.818700    0.099880
  C      0.514940   -4.640120   -0.558410
  Br     2.058190   -7.020660   -0.001070
  Br    -0.787400   24.883900    1.463120
  H     -0.575410   -2.150740   -1.423520
  H     -3.303310   -4.832890    1.813300
  H     -5.711860    0.068670    1.288090
  H     -3.944400    0.203180   -2.836060
  H     -5.053100    1.221730   -3.758120
  H     -5.875430   -1.107830   -1.943590
  H     -5.907960   -1.076760   -3.705830
  H     -6.997810   -0.038940   -2.783940
  H     -6.260930    7.305930    1.328660
  H     -5.675310    5.658300    1.671080
  H     -8.190050    6.373480    0.073780
  H     -8.165190    5.839700    1.758860
  H     -7.663510    4.736220    0.480200
  H     -3.510610    9.552370    1.583540
  H     -4.290690    7.980400    1.394880
  H     -6.461420    9.108180    2.273130
  H     -5.507350   10.559490    2.539500
  H     -5.131650    9.090220    3.437720
  H     -2.841670   15.070780   -1.924050
  H     -3.151790   16.213730   -0.617450
  H     -5.655160   16.044410   -1.232660
  H     -5.171610   15.072510   -2.615230
  H     -4.629920   16.746560   -2.486680
  H     -2.230770   14.609000    2.690900
  H     -4.348650   20.082320    0.390340
  H     -0.244820   19.468210    3.203350
  H      0.155820   22.203800    2.771450
  H      1.262420   -4.256890   -1.228710

 Total Charge           Charge          ....    0
 Multiplicity           Mult            ....    1
 Number of Electrons    NEL             ....  618
 Basis Dimension        Dim             .... 1254

ORBITAL ENERGIES
----------------

  NO   OCC          E(Eh)            E(eV)
   0   2.0000    -482.886158    -13140.0004
   1   2.0000    -482.885639    -13139.9863
   2   2.0000     -89.006760     -2421.9971
   3   2.0000     -88.976395     -2421.1708
   4   2.0000     -88.975104     -2421.1357
   5   2.0000     -88.971040     -2421.0251
   6   2.0000     -88.970811     -2421.0189
   7   2.0000     -88.965312     -2420.8692
   8   2.0000     -88.965074     -2420.8627
   9   2.0000     -62.563883     -1702.4498
  10   2.0000     -62.563325     -1702.4346
  11   2.0000     -56.397837     -1534.6632
  12   2.0000     -56.397273     -1534.6478
  13   2.0000     -56.395117     -1534.5891
  14   2.0000     -56.395081     -1534.5882
  15   2.0000     -56.394562     -1534.5741
  16   2.0000     -56.394530     -1534.5732
  17   2.0000     -19.215347      -522.8762
  18   2.0000     -19.214211      -522.8453
  19   2.0000     -14.486477      -394.1971
  20   2.0000     -14.482744      -394.0955
  21   2.0000     -14.430062      -392.6620
  22   2.0000     -14.429588      -392.6490
  23   2.0000     -14.415984      -392.2789
  24   2.0000     -14.414008      -392.2251
  25   2.0000     -14.413440      -392.2096
  26   2.0000     -14.412994      -392.1975
  27   2.0000     -10.365755      -282.0665
  28   2.0000     -10.365394      -282.0567
  29   2.0000     -10.359339      -281.8920
  30   2.0000     -10.358631      -281.8727
  31   2.0000     -10.341580      -281.4087
  32   2.0000     -10.340973      -281.3922
  33   2.0000     -10.339864      -281.3620
  34   2.0000     -10.338984      -281.3381
  35   2.0000     -10.338800      -281.3331
  36   2.0000     -10.338649      -281.3289
  37   2.0000     -10.337201      -281.2895
  38   2.0000     -10.335229      -281.2359
  39   2.0000     -10.326746      -281.0051
  40   2.0000     -10.324812      -280.9524
  41   2.0000     -10.322954      -280.9018
  42   2.0000     -10.322472      -280.8887
  43   2.0000     -10.322239      -280.8824
  44   2.0000     -10.322182      -280.8809
  45   2.0000     -10.321687      -280.8674
  46   2.0000     -10.320755      -280.8420
  47   2.0000     -10.319614      -280.8110
  48   2.0000     -10.319331      -280.8033
  49   2.0000     -10.318599      -280.7834
  50   2.0000     -10.316462      -280.7252
  51   2.0000     -10.316143      -280.7165
  52   2.0000     -10.315892      -280.7097
  53   2.0000     -10.315275      -280.6929
  54   2.0000     -10.314483      -280.6714
  55   2.0000     -10.309344      -280.5315
  56   2.0000     -10.308559      -280.5102
  57   2.0000     -10.308087      -280.4973
  58   2.0000     -10.308055      -280.4964
  59   2.0000     -10.307579      -280.4835
  60   2.0000     -10.307492      -280.4811
  61   2.0000     -10.307142      -280.4716
  62   2.0000     -10.306928      -280.4658
  63   2.0000     -10.306770      -280.4615
  64   2.0000     -10.306700      -280.4596
  65   2.0000     -10.305191      -280.4185
  66   2.0000     -10.304996      -280.4132
  67   2.0000     -10.302019      -280.3322
  68   2.0000     -10.300288      -280.2851
  69   2.0000     -10.297369      -280.2056
  70   2.0000     -10.296366      -280.1784
  71   2.0000     -10.295310      -280.1496
  72   2.0000     -10.295305      -280.1495
  73   2.0000     -10.293235      -280.0932
  74   2.0000     -10.293176      -280.0916
  75   2.0000     -10.291430      -280.0441
  76   2.0000     -10.291345      -280.0417
  77   2.0000     -10.284471      -279.8547
  78   2.0000     -10.284362      -279.8517
  79   2.0000     -10.278503      -279.6923
  80   2.0000     -10.270828      -279.4834
  81   2.0000     -10.264528      -279.3120
  82   2.0000     -10.258623      -279.1513
  83   2.0000      -8.793316      -239.2783
  84   2.0000      -8.792740      -239.2626
  85   2.0000      -8.098970      -220.3842
  86   2.0000      -8.072404      -219.6613
  87   2.0000      -8.071120      -219.6263
  88   2.0000      -8.065642      -219.4773
  89   2.0000      -8.065596      -219.4760
  90   2.0000      -8.059392      -219.3072
  91   2.0000      -8.058964      -219.2956
  92   2.0000      -6.629639      -180.4016
  93   2.0000      -6.629010      -180.3845
  94   2.0000      -6.615031      -180.0041
  95   2.0000      -6.614845      -179.9991
  96   2.0000      -6.614492      -179.9895
  97   2.0000      -6.614282      -179.9838
  98   2.0000      -6.070493      -165.1865
  99   2.0000      -6.062829      -164.9780
 100   2.0000      -6.060583      -164.9169
 101   2.0000      -6.042090      -164.4136
 102   2.0000      -6.040800      -164.3785
 103   2.0000      -6.037821      -164.2975
 104   2.0000      -6.036542      -164.2627
 105   2.0000      -6.035303      -164.2290
 106   2.0000      -6.035247      -164.2274
 107   2.0000      -6.033628      -164.1834
 108   2.0000      -6.032342      -164.1484
 109   2.0000      -6.031140      -164.1157
 110   2.0000      -6.031137      -164.1156
 111   2.0000      -6.029244      -164.0641
 112   2.0000      -6.028872      -164.0539
 113   2.0000      -6.027174      -164.0077
 114   2.0000      -6.027045      -164.0042
 115   2.0000      -6.025244      -163.9552
 116   2.0000      -6.024772      -163.9424
 117   2.0000      -6.020389      -163.8231
 118   2.0000      -6.019994      -163.8124
 119   2.0000      -2.745479       -74.7083
 120   2.0000      -2.744926       -74.6932
 121   2.0000      -2.741430       -74.5981
 122   2.0000      -2.741263       -74.5936
 123   2.0000      -2.740793       -74.5808
 124   2.0000      -2.740651       -74.5769
 125   2.0000      -2.729668       -74.2780
 126   2.0000      -2.729648       -74.2775
 127   2.0000      -2.729103       -74.2627
 128   2.0000      -2.729090       -74.2623
 129   2.0000      -1.129870       -30.7453
 130   2.0000      -1.129407       -30.7327
 131   2.0000      -1.118353       -30.4319
 132   2.0000      -1.110375       -30.2148
 133   2.0000      -1.103289       -30.0220
 134   2.0000      -1.023965       -27.8635
 135   2.0000      -1.022019       -27.8105
 136   2.0000      -1.016275       -27.6542
 137   2.0000      -1.014210       -27.5980
 138   2.0000      -1.011553       -27.5258
 139   2.0000      -1.010976       -27.5101
 140   2.0000      -0.993453       -27.0332
 141   2.0000      -0.992080       -26.9959
 142   2.0000      -0.989577       -26.9278
 143   2.0000      -0.988473       -26.8977
 144   2.0000      -0.972369       -26.4595
 145   2.0000      -0.966708       -26.3055
 146   2.0000      -0.956020       -26.0146
 147   2.0000      -0.949311       -25.8321
 148   2.0000      -0.941434       -25.6177
 149   2.0000      -0.939319       -25.5602
 150   2.0000      -0.911824       -24.8120
 151   2.0000      -0.908953       -24.7339
 152   2.0000      -0.907547       -24.6956
 153   2.0000      -0.899880       -24.4870
 154   2.0000      -0.897248       -24.4153
 155   2.0000      -0.895450       -24.3664
 156   2.0000      -0.891380       -24.2557
 157   2.0000      -0.887453       -24.1488
 158   2.0000      -0.886613       -24.1260
 159   2.0000      -0.885073       -24.0841
 160   2.0000      -0.863206       -23.4890
 161   2.0000      -0.862108       -23.4592
 162   2.0000      -0.856894       -23.3173
 163   2.0000      -0.843777       -22.9603
 164   2.0000      -0.831776       -22.6338
 165   2.0000      -0.830018       -22.5859
 166   2.0000      -0.828609       -22.5476
 167   2.0000      -0.827436       -22.5157
 168   2.0000      -0.815336       -22.1864
 169   2.0000      -0.804296       -21.8860
 170   2.0000      -0.802600       -21.8399
 171   2.0000      -0.791693       -21.5431
 172   2.0000      -0.776365       -21.1260
 173   2.0000      -0.762628       -20.7522
 174   2.0000      -0.758051       -20.6276
 175   2.0000      -0.753828       -20.5127
 176   2.0000      -0.749737       -20.4014
 177   2.0000      -0.747955       -20.3529
 178   2.0000      -0.728456       -19.8223
 179   2.0000      -0.724609       -19.7176
 180   2.0000      -0.719527       -19.5793
 181   2.0000      -0.716539       -19.4980
 182   2.0000      -0.706831       -19.2339
 183   2.0000      -0.700137       -19.0517
 184   2.0000      -0.699041       -19.0219
 185   2.0000      -0.690918       -18.8008
 186   2.0000      -0.688143       -18.7253
 187   2.0000      -0.682790       -18.5797
 188   2.0000      -0.672008       -18.2863
 189   2.0000      -0.664407       -18.0794
 190   2.0000      -0.658438       -17.9170
 191   2.0000      -0.656401       -17.8616
 192   2.0000      -0.654299       -17.8044
 193   2.0000      -0.649877       -17.6841
 194   2.0000      -0.633673       -17.2431
 195   2.0000      -0.630259       -17.1502
 196   2.0000      -0.627124       -17.0649
 197   2.0000      -0.622776       -16.9466
 198   2.0000      -0.620533       -16.8856
 199   2.0000      -0.613665       -16.6987
 200   2.0000      -0.608179       -16.5494
 201   2.0000      -0.597974       -16.2717
 202   2.0000      -0.597406       -16.2563
 203   2.0000      -0.596088       -16.2204
 204   2.0000      -0.588016       -16.0007
 205   2.0000      -0.583992       -15.8912
 206   2.0000      -0.579623       -15.7724
 207   2.0000      -0.577892       -15.7252
 208   2.0000      -0.575486       -15.6598
 209   2.0000      -0.571022       -15.5383
 210   2.0000      -0.560371       -15.2485
 211   2.0000      -0.556297       -15.1376
 212   2.0000      -0.553795       -15.0695
 213   2.0000      -0.552442       -15.0327
 214   2.0000      -0.550094       -14.9688
 215   2.0000      -0.545714       -14.8496
 216   2.0000      -0.545324       -14.8390
 217   2.0000      -0.543854       -14.7990
 218   2.0000      -0.538915       -14.6646
 219   2.0000      -0.537210       -14.6182
 220   2.0000      -0.533798       -14.5254
 221   2.0000      -0.533260       -14.5107
 222   2.0000      -0.532181       -14.4814
 223   2.0000      -0.529596       -14.4110
 224   2.0000      -0.527224       -14.3465
 225   2.0000      -0.524910       -14.2835
 226   2.0000      -0.524191       -14.2640
 227   2.0000      -0.519658       -14.1406
 228   2.0000      -0.517505       -14.0820
 229   2.0000      -0.512605       -13.9487
 230   2.0000      -0.509557       -13.8657
 231   2.0000      -0.508395       -13.8341
 232   2.0000      -0.506525       -13.7833
 233   2.0000      -0.504074       -13.7166
 234   2.0000      -0.501794       -13.6545
 235   2.0000      -0.500560       -13.6209
 236   2.0000      -0.496199       -13.5023
 237   2.0000      -0.493357       -13.4249
 238   2.0000      -0.491537       -13.3754
 239   2.0000      -0.489878       -13.3302
 240   2.0000      -0.487633       -13.2692
 241   2.0000      -0.487007       -13.2521
 242   2.0000      -0.484597       -13.1866
 243   2.0000      -0.481889       -13.1129
 244   2.0000      -0.477584       -12.9957
 245   2.0000      -0.474376       -12.9084
 246   2.0000      -0.473135       -12.8747
 247   2.0000      -0.470933       -12.8147
 248   2.0000      -0.468349       -12.7444
 249   2.0000      -0.464538       -12.6407
 250   2.0000      -0.460407       -12.5283
 251   2.0000      -0.459642       -12.5075
 252   2.0000      -0.458542       -12.4776
 253   2.0000      -0.457913       -12.4604
 254   2.0000      -0.455789       -12.4027
 255   2.0000      -0.454374       -12.3641
 256   2.0000      -0.450135       -12.2488
 257   2.0000      -0.449405       -12.2289
 258   2.0000      -0.448348       -12.2002
 259   2.0000      -0.447821       -12.1858
 260   2.0000      -0.446987       -12.1631
 261   2.0000      -0.446109       -12.1393
 262   2.0000      -0.444651       -12.0996
 263   2.0000      -0.442957       -12.0535
 264   2.0000      -0.442123       -12.0308
 265   2.0000      -0.440299       -11.9812
 266   2.0000      -0.438468       -11.9313
 267   2.0000      -0.437254       -11.8983
 268   2.0000      -0.433070       -11.7844
 269   2.0000      -0.429656       -11.6915
 270   2.0000      -0.427576       -11.6349
 271   2.0000      -0.425090       -11.5673
 272   2.0000      -0.422070       -11.4851
 273   2.0000      -0.421845       -11.4790
 274   2.0000      -0.420799       -11.4505
 275   2.0000      -0.418782       -11.3956
 276   2.0000      -0.417605       -11.3636
 277   2.0000      -0.415774       -11.3138
 278   2.0000      -0.409529       -11.1438
 279   2.0000      -0.407298       -11.0831
 280   2.0000      -0.406213       -11.0536
 281   2.0000      -0.405441       -11.0326
 282   2.0000      -0.403923       -10.9913
 283   2.0000      -0.397749       -10.8233
 284   2.0000      -0.393966       -10.7203
 285   2.0000      -0.392177       -10.6717
 286   2.0000      -0.388107       -10.5609
 287   2.0000      -0.386651       -10.5213
 288   2.0000      -0.375645       -10.2218
 289   2.0000      -0.374981       -10.2038
 290   2.0000      -0.374291       -10.1850
 291   2.0000      -0.371294       -10.1034
 292   2.0000      -0.362392        -9.8612
 293   2.0000      -0.354177        -9.6377
 294   2.0000      -0.351476        -9.5642
 295   2.0000      -0.341485        -9.2923
 296   2.0000      -0.339135        -9.2283
 297   2.0000      -0.335946        -9.1416
 298   2.0000      -0.332179        -9.0391
 299   2.0000      -0.316111        -8.6018
 300   2.0000      -0.315207        -8.5772
 301   2.0000      -0.313234        -8.5235
 302   2.0000      -0.309809        -8.4303
 303   2.0000      -0.294789        -8.0216
 304   2.0000      -0.293369        -7.9830
 305   2.0000      -0.288588        -7.8529
 306   2.0000      -0.278239        -7.5713
 307   2.0000      -0.274434        -7.4677
 308   2.0000      -0.239225        -6.5097
 309   0.0000      -0.094805        -2.5798
 310   0.0000      -0.086942        -2.3658
 311   0.0000      -0.062586        -1.7031
 312   0.0000      -0.057863        -1.5745
 313   0.0000      -0.040272        -1.0959

MULLIKEN ATOMIC CHARGES
-----------------------
   0 C :    0.149013
   1 O :   -0.160860
   2 C :   -0.015891
   3 C :   -0.076513
   4 C :    0.120360
   5 C :   -0.089152
   6 C :   -0.027598
   7 C :    0.020358
   8 C :    0.296312
   9 C :   -0.344132
  10 C :   -0.184203
  11 N :    0.148591
  12 C :   -0.212379
  13 N :    0.164021
  14 C :   -0.107709
  15 C :   -0.007968
  16 C :   -0.139423
  17 S :    0.141925
  18 C :   -0.044939
  19 C :   -0.138765
  20 C :    0.019645
  21 C :    0.064679
  22 C :   -0.002427
  23 S :    0.193957
  24 C :   -0.087336
  25 C :    0.026490
  26 N :   -0.177627
  27 C :    0.091538
  28 C :    0.006212
  29 C :    0.039722
  30 C :   -0.051691
  31 C :   -0.007665
  32 N :   -0.263083
  33 S :    0.465749
  34 N :   -0.262563
  35 C :   -0.016956
  36 C :   -0.043797
  37 C :    0.052501
  38 N :   -0.162728
  39 C :    0.072180
  40 C :   -0.001358
  41 C :    0.050540
  42 C :   -0.089718
  43 S :    0.186283
  44 C :   -0.109480
  45 C :   -0.040284
  46 S :    0.148404
  47 C :   -0.161735
  48 C :   -0.010299
  49 C :    0.060748
  50 C :   -0.003337
  51 C :    0.048968
  52 C :   -0.141638
  53 C :    0.249471
  54 C :   -0.356233
  55 C :   -0.174369
  56 N :    0.157175
  57 C :   -0.200297
  58 N :    0.174859
  59 C :    0.005213
  60 C :   -0.024689
  61 C :   -0.087648
  62 C :    0.112125
  63 C :   -0.076364
  64 C :    0.009666
  65 C :    0.132671
  66 O :   -0.146234
  67 C :    0.042693
  68 C :   -0.125377
  69 S :    0.184887
  70 S :    0.185089
  71 C :   -0.122108
  72 C :    0.036199
  73 Br:    0.022943
  74 Br:    0.023169
  75 H :   -0.011316
  76 H :   -0.005565
  77 H :    0.033507
  78 H :    0.051463
  79 H :   -0.002046
  80 H :    0.025544
  81 H :    0.018628
  82 H :    0.022809
  83 H :    0.006085
  84 H :    0.034905
  85 H :    0.033422
  86 H :    0.029451
  87 H :    0.037625
  88 H :    0.034563
  89 H :    0.040799
  90 H :    0.038119
  91 H :    0.037107
  92 H :    0.031615
  93 H :    0.030343
  94 H :    0.012448
  95 H :    0.034467
  96 H :    0.027354
  97 H :    0.022690
  98 H :    0.029420
  99 H :   -0.004550
 100 H :   -0.009531
 101 H :   -0.003357
 102 H :   -0.003786
Sum of atomic charges:   -0.0000000

LOEWDIN ATOMIC CHARGES
----------------------
   0 C :    0.082398
   1 O :   -0.144232
   2 C :   -0.049198
   3 C :    0.019695
   4 C :   -0.033119
   5 C :   -0.144840
   6 C :   -0.010239
   7 C :   -0.021449
   8 C :    0.074778
   9 C :   -0.144411
  10 C :   -0.018904
  11 N :   -0.055520
  12 C :   -0.026753
  13 N :   -0.053843
  14 C :   -0.107186
  15 C :    0.046277
  16 C :   -0.176864
  17 S :    0.419960
  18 C :   -0.194887
  19 C :   -0.192099
  20 C :   -0.001932
  21 C :   -0.034461
  22 C :   -0.048730
  23 S :    0.434824
  24 C :   -0.168191
  25 C :   -0.043322
  26 N :    0.031334
  27 C :    0.037094
  28 C :   -0.058295
  29 C :    0.010495
  30 C :   -0.075583
  31 C :   -0.055881
  32 N :   -0.287055
  33 S :    0.600917
  34 N :   -0.287848
  35 C :   -0.054143
  36 C :   -0.078449
  37 C :    0.011399
  38 N :    0.044084
  39 C :    0.037035
  40 C :   -0.062511
  41 C :   -0.039902
  42 C :   -0.171908
  43 S :    0.435810
  44 C :   -0.187693
  45 C :   -0.191410
  46 S :    0.437181
  47 C :   -0.182307
  48 C :   -0.020855
  49 C :   -0.030235
  50 C :   -0.049716
  51 C :    0.045282
  52 C :   -0.104497
  53 C :    0.062477
  54 C :   -0.143951
  55 C :   -0.021851
  56 N :   -0.053916
  57 C :   -0.020764
  58 N :   -0.047418
  59 C :   -0.019194
  60 C :   -0.013469
  61 C :   -0.143561
  62 C :   -0.034228
  63 C :    0.022620
  64 C :   -0.052450
  65 C :    0.082832
  66 O :   -0.146137
  67 C :   -0.069801
  68 C :   -0.272400
  69 S :    0.431653
  70 S :    0.431818
  71 C :   -0.271911
  72 C :   -0.070733
  73 Br:    0.136280
  74 Br:    0.136504
  75 H :    0.040346
  76 H :    0.041035
  77 H :    0.043612
  78 H :    0.040453
  79 H :    0.023302
  80 H :    0.023052
  81 H :    0.028162
  82 H :    0.027290
  83 H :    0.028780
  84 H :    0.026582
  85 H :    0.033593
  86 H :    0.034222
  87 H :    0.025980
  88 H :    0.030038
  89 H :    0.030944
  90 H :    0.026377
  91 H :    0.025024
  92 H :    0.035142
  93 H :    0.040118
  94 H :    0.030232
  95 H :    0.029286
  96 H :    0.018378
  97 H :    0.030627
  98 H :    0.045277
  99 H :    0.040679
 100 H :    0.041395
 101 H :    0.038936
 102 H :    0.038641

  Mayer bond orders larger than 0.100000
B(  0-C ,  1-O ) :   2.1620 B(  0-C ,  2-C ) :   0.9368 B(  0-C , 14-C ) :   0.9706
B(  2-C ,  3-C ) :   1.4272 B(  2-C ,  7-C ) :   1.2716 B(  3-C ,  4-C ) :   1.2428
B(  3-C , 75-H ) :   1.0168 B(  4-C ,  5-C ) :   1.3078 B(  4-C , 72-C ) :   1.1626
B(  5-C ,  6-C ) :   1.3254 B(  5-C , 70-S ) :   1.0850 B(  6-C ,  7-C ) :   1.4125
B(  6-C , 76-H ) :   0.9816 B(  7-C ,  8-C ) :   1.0053 B(  8-C ,  9-C ) :   1.6382
B(  8-C , 14-C ) :   1.0680 B(  9-C , 10-C ) :   1.1404 B(  9-C , 12-C ) :   1.1436
B( 10-C , 11-N ) :   2.9724 B( 12-C , 13-N ) :   2.9982 B( 14-C , 15-C ) :   1.5702
B( 15-C , 16-C ) :   1.2046 B( 15-C , 77-H ) :   0.9281 B( 16-C , 17-S ) :   1.0330
B( 16-C , 20-C ) :   1.4520 B( 17-S , 18-C ) :   1.0643 B( 18-C , 19-C ) :   1.4346
B( 18-C , 25-C ) :   1.2893 B( 19-C , 20-C ) :   1.3573 B( 19-C , 23-S ) :   1.0364
B( 20-C , 21-C ) :   1.0813 B( 21-C , 22-C ) :   1.0992 B( 21-C , 78-H ) :   0.8857
B( 21-C , 79-H ) :   0.9198 B( 22-C , 80-H ) :   0.9705 B( 22-C , 81-H ) :   0.9651
B( 22-C , 82-H ) :   0.9696 B( 23-S , 24-C ) :   1.0280 B( 24-C , 25-C ) :   1.4285
B( 24-C , 30-C ) :   1.3339 B( 25-C , 26-N ) :   1.1453 B( 26-N , 27-C ) :   0.9432
B( 26-N , 29-C ) :   1.1504 B( 27-C , 28-C ) :   1.1146 B( 27-C , 83-H ) :   0.9455
B( 27-C , 84-H ) :   0.9429 B( 28-C , 85-H ) :   0.9646 B( 28-C , 86-H ) :   0.9627
B( 28-C , 87-H ) :   0.9600 B( 29-C , 30-C ) :   1.3940 B( 29-C , 37-C ) :   1.1329
B( 30-C , 31-C ) :   1.1064 B( 31-C , 32-N ) :   1.6349 B( 31-C , 35-C ) :   1.1468
B( 32-N , 33-S ) :   1.2239 B( 32-N , 34-N ) :   0.1296 B( 33-S , 34-N ) :   1.2237
B( 34-N , 35-C ) :   1.6303 B( 35-C , 36-C ) :   1.1159 B( 36-C , 37-C ) :   1.3674
B( 36-C , 42-C ) :   1.3421 B( 37-C , 38-N ) :   1.1834 B( 37-C , 41-C ) :   0.1023
B( 38-N , 39-C ) :   0.9445 B( 38-N , 41-C ) :   1.1477 B( 39-C , 40-C ) :   1.0948
B( 39-C , 88-H ) :   0.9446 B( 39-C , 89-H ) :   0.9515 B( 40-C , 90-H ) :   0.9597
B( 40-C , 91-H ) :   0.9536 B( 40-C , 92-H ) :   0.9658 B( 41-C , 42-C ) :   1.4143
B( 41-C , 45-C ) :   1.2744 B( 42-C , 43-S ) :   1.0285 B( 43-S , 44-C ) :   1.0394
B( 44-C , 45-C ) :   1.4487 B( 44-C , 48-C ) :   1.3391 B( 45-C , 46-S ) :   1.0718
B( 46-S , 47-C ) :   1.0499 B( 47-C , 48-C ) :   1.4790 B( 47-C , 51-C ) :   1.1235
B( 48-C , 49-C ) :   1.0822 B( 49-C , 50-C ) :   1.0843 B( 49-C , 93-H ) :   0.9210
B( 49-C , 94-H ) :   0.9192 B( 50-C , 95-H ) :   0.9668 B( 50-C , 96-H ) :   0.9623
B( 50-C , 97-H ) :   0.9633 B( 51-C , 52-C ) :   1.6552 B( 51-C , 98-H ) :   0.9230
B( 52-C , 53-C ) :   1.0552 B( 52-C , 65-C ) :   0.9443 B( 53-C , 54-C ) :   1.6442
B( 53-C , 59-C ) :   1.0064 B( 54-C , 55-C ) :   1.1281 B( 54-C , 57-C ) :   1.1737
B( 55-C , 56-N ) :   2.9850 B( 57-C , 58-N ) :   2.9895 B( 59-C , 60-C ) :   1.4161
B( 59-C , 64-C ) :   1.2780 B( 60-C , 61-C ) :   1.3228 B( 60-C , 99-H ) :   0.9854
B( 61-C , 62-C ) :   1.3104 B( 61-C , 69-S ) :   1.0843 B( 62-C , 63-C ) :   1.2462
B( 62-C , 67-C ) :   1.1642 B( 63-C , 64-C ) :   1.4256 B( 63-C ,100-H ) :   1.0173
B( 64-C , 65-C ) :   0.9188 B( 65-C , 66-O ) :   2.2644 B( 67-C , 68-C ) :   1.6183
B( 67-C ,101-H ) :   1.0002 B( 68-C , 69-S ) :   1.0871 B( 68-C , 74-Br) :   1.0183
B( 70-S , 71-C ) :   1.0862 B( 71-C , 72-C ) :   1.6185 B( 71-C , 73-Br) :   1.0189
B( 72-C ,102-H ) :   1.0006

-----------------------------------------------------------------------------
         ABSORPTION SPECTRUM VIA TRANSITION ELECTRIC DIPOLE MOMENTS
-----------------------------------------------------------------------------
State   Energy  Wavelength   fosc         T2         TX        TY        TZ
        (cm-1)    (nm)                  (au**2)     (au)      (au)      (au)
-----------------------------------------------------------------------------
   0   16862.0    593.1   2.257665687  44.07848  -0.04390  -6.63228  -0.29898
   1   19612.7    509.9   0.262074236   4.39910  -0.47925   1.01537  -1.77156
   2   24543.6    407.4   0.138968160   1.86403   0.07798   1.31509   0.35845
   3   24782.6    403.5   0.077016341   1.02308   0.06297  -0.08578   1.00586
   4   25567.7    391.1   0.202830393   2.61166   0.66818   0.90844   1.15755
   5   25659.3    389.7   0.046223014   0.59305  -0.48442   0.59267  -0.08442
   6   26683.8    374.8   0.034314277   0.42335   0.05489  -0.24892  -0.59865
   7   27148.5    368.3   0.039266430   0.47616  -0.04197  -0.50058   0.47309
   8   28287.7    353.5   0.175467745   2.04209  -1.09023   0.91735   0.10936
   9   28547.1    350.3   0.383395475   4.42141  -1.94646  -0.79259  -0.06717
  10   28715.7    348.2   0.297354250   3.40903  -0.20577   1.80482   0.33062
  11   29892.8    334.5   0.023200563   0.25551   0.11020  -0.04534  -0.49123
  12   30221.8    330.9   0.014533086   0.15831  -0.23086   0.10674  -0.30598
  13   30339.4    329.6   0.048778890   0.52930   0.33108  -0.51205   0.39686
  14   30700.0    325.7   0.049171433   0.52729  -0.09593   0.54783  -0.46687
  15   31028.8    322.3   0.127207818   1.34966   0.38746  -0.98221   0.48455
  16   31268.6    319.8   0.009447172   0.09946  -0.18575  -0.25370  -0.02443
  17   32807.7    304.8   0.124142979   1.24572  -1.07311   0.27606  -0.13396
  18   33073.6    302.4   0.171411360   1.70621  -0.89495  -0.83481  -0.45646
  19   33428.1    299.1   0.235611295   2.32038   1.28309  -0.26787  -0.77609
  20   33574.8    297.8   0.138486589   1.35791  -0.84035   0.77925  -0.21090
  21   33665.6    297.0   0.186758841   1.82629   0.87814  -0.06488  -1.02516
  22   33961.4    294.5   0.304432463   2.95108   1.30106   1.06900   0.33997
  23   34237.2    292.1   0.166397381   1.60002   0.92838   0.35104   0.78415
  24   34403.1    290.7   0.222445019   2.12863   0.84716   1.18480  -0.08477
  25   34532.4    289.6   0.093997671   0.89612   0.45322  -0.34957  -0.75400
  26   34871.0    286.8   0.041299412   0.38990   0.28738  -0.44593   0.32933
  27   35092.3    285.0   0.003301803   0.03098  -0.08368   0.15026   0.03735
  28   35343.8    282.9   0.040192856   0.37438   0.14205   0.50618   0.31301
  29   35866.9    278.8   0.259778473   2.38443  -0.15272  -1.53389   0.09103
  30   36696.2    272.5   0.195008171   1.74947   0.59889   0.42235  -1.10110
  31   37090.4    269.6   0.009772345   0.08674   0.25590   0.12234  -0.07927
  32   37128.9    269.3   0.045537112   0.40377  -0.21756   0.15749   0.57587
  33   37722.3    265.1   0.026163548   0.22834  -0.11668  -0.03474  -0.46208
  34   38351.9    260.7   0.012669145   0.10875   0.29056   0.08551   0.13044
  35   38446.2    260.1   0.012005012   0.10280  -0.02279  -0.25860   0.18816
  36   38777.9    257.9   0.004539900   0.03854  -0.00186   0.18196  -0.07368
  37   39152.3    255.4   0.204045207   1.71571  -0.21051   1.07003  -0.72556
  38   39257.1    254.7   0.063738549   0.53451   0.47011   0.37521  -0.41561
  39   39459.5    253.4   0.018852241   0.15728  -0.22484  -0.21823  -0.24312
  40   39711.8    251.8   0.007954335   0.06594  -0.05274   0.24253  -0.06589
  41   40120.0    249.3   0.048913791   0.40137  -0.00158  -0.14139   0.61756

FINAL SINGLE POINT ENERGY    -10670.183003127189

DIPOLE MOMENT
-------------
                                X             Y             Z
Electronic contribution:    104.83917      22.66584      10.71516
Nuclear contribution   :   -102.16695     -21.68917     -10.99563
                        -----------------------------------------
Total Dipole Moment    :      2.67222       0.97667      -0.28047
                        -----------------------------------------
Magnitude (a.u.)       :      2.85890
Magnitude (Debye)      :      7.26674

Rotational constants in cm-1:     0.001422     0.000139     0.000134
Rotational constants in MHz :    42.637937     4.168398     4.025650

                             ****ORCA TERMINATED NORMALLY****
TOTAL RUN TIME: 0 days 1 hours 12 minutes 8 seconds 974 msec
