                         Program Version 4.2.0 -  RELEASE  -
|  1> # ORCA input file
|  2> # BTTPC-Br.out: Geometry 93
|  3> ! CAM-B3LYP def2-SVP def2/J RIJCOSX Grid4 TightSCF
|  4> %maxcore 5000
|  5> %tddft
|  6>     Mode sTDDFT
|  7>     Ethresh 5.0
|  8>     maxcore 5000
|  9> end
| 10> * xyz 0 1
| 11>    C       -3.41386        -1.38753        -0.65858
| 12>    O       -2.96078        -0.59725        -1.46209
| 13>    C       -2.74576        -2.62331        -0.16900
| 14>    C       -1.47224        -3.06169        -0.47769
| 15>    C       -1.01387        -4.24383         0.13954
| 16>    C       -1.88973        -4.93852         1.03019
| 17>    C       -3.18297        -4.49616         1.33479
| 18>    C       -3.60740        -3.31300         0.72815
| 19>    C       -4.86275        -2.54723         0.85654
| 20>    C       -6.01591        -2.96052         1.49801
| 21>    C       -6.10251        -4.20722         2.19138
| 22>    N       -6.16665        -5.21804         2.76144
| 23>    C       -7.22715        -2.19832         1.48033
| 24>    N       -8.22541        -1.60294         1.47693
| 25>    C       -4.69430        -1.29622         0.11655
| 26>    C       -5.35439        -0.11655         0.36773
| 27>    C       -5.22058         1.11276        -0.34855
| 28>    S       -5.13854         2.60019         0.62207
| 29>    C       -4.95690         3.55303        -0.80896
| 30>    C       -5.03002         2.75637        -1.96890
| 31>    C       -5.16249         1.36784        -1.72528
| 32>    C       -5.38935         0.35023        -2.80625
| 33>    C       -6.74507         0.52898        -3.50690
| 34>    S       -4.90860         3.69971        -3.45763
| 35>    C       -4.73880         5.15396        -2.50645
| 36>    C       -4.75021         4.91418        -1.12556
| 37>    N       -4.62476         6.10769        -0.43243
| 38>    C       -5.19359         6.19593         0.91356
| 39>    C       -6.70497         6.38799         0.89479
| 40>    C       -4.55757         7.13368        -1.38355
| 41>    C       -4.65429         6.55634        -2.68581
| 42>    C       -4.76481         7.38608        -3.84933
| 43>    N       -4.90295         6.98764        -5.10656
| 44>    S       -5.09387         8.35132        -6.02624
| 45>    N       -5.00070         9.48705        -4.82441
| 46>    C       -4.81860         8.83020        -3.68720
| 47>    C       -4.62101         9.39563        -2.38607
| 48>    C       -4.42445         8.55598        -1.24607
| 49>    N       -4.10709         9.36325        -0.15265
| 50>    C       -3.40828         8.99656         1.07982
| 51>    C       -4.22226         9.24304         2.34833
| 52>    C       -4.14043        10.68092        -0.57907
| 53>    C       -4.46530        10.72912        -1.94394
| 54>    S       -4.47694        12.34775        -2.59367
| 55>    C       -4.01396        12.97391        -1.00669
| 56>    C       -3.84931        11.95496        -0.04395
| 57>    S       -3.32243        12.60397         1.46678
| 58>    C       -3.36706        14.25765         0.81687
| 59>    C       -3.75550        14.28277        -0.53697
| 60>    C       -3.74547        15.49044        -1.43549
| 61>    C       -5.06508        15.74983        -2.18073
| 62>    C       -2.89446        15.26153         1.70973
| 63>    C       -3.08809        16.61723         1.84420
| 64>    C       -4.05647        17.58464         1.34924
| 65>    C       -5.34006        17.30575         0.90551
| 66>    C       -6.22086        18.31464         0.40985
| 67>    N       -6.93159        19.12724        -0.02205
| 68>    C       -5.91190        16.00428         1.01689
| 69>    N       -6.39947        14.95425         1.12248
| 70>    C       -3.52945        18.93945         1.64810
| 71>    C       -3.98686        20.21107         1.29838
| 72>    C       -3.30656        21.30836         1.84839
| 73>    C       -2.20305        21.17400         2.74660
| 74>    C       -1.74731        19.88113         3.07125
| 75>    C       -2.40394        18.80363         2.50852
| 76>    C       -2.09657        17.36467         2.69141
| 77>    O       -1.20216        16.88489         3.35829
| 78>    C       -1.70555        22.44423         3.19563
| 79>    C       -2.39776        23.48687         2.64922
| 80>    S       -3.68718        22.99481         1.56866
| 81>    S       -1.12615        -6.37120         1.68187
| 82>    C        0.33607        -6.02391         0.78099
| 83>    C        0.26150        -4.89326         0.01762
| 84>   Br        1.80930        -7.17066         0.94760
| 85>   Br       -2.09633        25.31141         2.94938
| 86>    H       -0.84675        -2.49212        -1.16856
| 87>    H       -3.81020        -5.05426         2.02784
| 88>    H       -5.97561        -0.07128         1.26804
| 89>    H       -5.32937        -0.65778        -2.38267
| 90>    H       -4.56390         0.42675        -3.53299
| 91>    H       -7.57075         0.38548        -2.79310
| 92>    H       -6.86159        -0.21086        -4.31343
| 93>    H       -6.85273         1.52984        -3.95176
| 94>    H       -4.70946         6.99890         1.46677
| 95>    H       -4.91946         5.26649         1.43410
| 96>    H       -6.97228         7.32706         0.38602
| 97>    H       -7.10005         6.42900         1.92118
| 98>    H       -7.20075         5.55867         0.36919
| 99>    H       -2.47795         9.58628         1.11838
|100>    H       -3.09363         7.94941         0.98728
|101>    H       -5.18395         8.71110         2.33060
|102>    H       -4.44535        10.31161         2.48034
|103>    H       -3.65255         8.90466         3.22787
|104>    H       -2.94865        15.32888        -2.18370
|105>    H       -3.44568        16.37632        -0.86415
|106>    H       -5.91774        15.82400        -1.49449
|107>    H       -5.29405        14.94193        -2.89154
|108>    H       -5.00119        16.68665        -2.75395
|109>    H       -2.16858        14.89752         2.45225
|110>    H       -4.83787        20.36298         0.63667
|111>    H       -0.90449        19.71930         3.74607
|112>    H       -0.87263        22.56710         3.88728
|113>    H        1.07995        -4.52634        -0.60081
|114> *
|115>
|116>                          ****END OF INPUT****

CARTESIAN COORDINATES (ANGSTROEM)
---------------------------------
  C     -3.413860   -1.387530   -0.658580
  O     -2.960780   -0.597250   -1.462090
  C     -2.745760   -2.623310   -0.169000
  C     -1.472240   -3.061690   -0.477690
  C     -1.013870   -4.243830    0.139540
  C     -1.889730   -4.938520    1.030190
  C     -3.182970   -4.496160    1.334790
  C     -3.607400   -3.313000    0.728150
  C     -4.862750   -2.547230    0.856540
  C     -6.015910   -2.960520    1.498010
  C     -6.102510   -4.207220    2.191380
  N     -6.166650   -5.218040    2.761440
  C     -7.227150   -2.198320    1.480330
  N     -8.225410   -1.602940    1.476930
  C     -4.694300   -1.296220    0.116550
  C     -5.354390   -0.116550    0.367730
  C     -5.220580    1.112760   -0.348550
  S     -5.138540    2.600190    0.622070
  C     -4.956900    3.553030   -0.808960
  C     -5.030020    2.756370   -1.968900
  C     -5.162490    1.367840   -1.725280
  C     -5.389350    0.350230   -2.806250
  C     -6.745070    0.528980   -3.506900
  S     -4.908600    3.699710   -3.457630
  C     -4.738800    5.153960   -2.506450
  C     -4.750210    4.914180   -1.125560
  N     -4.624760    6.107690   -0.432430
  C     -5.193590    6.195930    0.913560
  C     -6.704970    6.387990    0.894790
  C     -4.557570    7.133680   -1.383550
  C     -4.654290    6.556340   -2.685810
  C     -4.764810    7.386080   -3.849330
  N     -4.902950    6.987640   -5.106560
  S     -5.093870    8.351320   -6.026240
  N     -5.000700    9.487050   -4.824410
  C     -4.818600    8.830200   -3.687200
  C     -4.621010    9.395630   -2.386070
  C     -4.424450    8.555980   -1.246070
  N     -4.107090    9.363250   -0.152650
  C     -3.408280    8.996560    1.079820
  C     -4.222260    9.243040    2.348330
  C     -4.140430   10.680920   -0.579070
  C     -4.465300   10.729120   -1.943940
  S     -4.476940   12.347750   -2.593670
  C     -4.013960   12.973910   -1.006690
  C     -3.849310   11.954960   -0.043950
  S     -3.322430   12.603970    1.466780
  C     -3.367060   14.257650    0.816870
  C     -3.755500   14.282770   -0.536970
  C     -3.745470   15.490440   -1.435490
  C     -5.065080   15.749830   -2.180730
  C     -2.894460   15.261530    1.709730
  C     -3.088090   16.617230    1.844200
  C     -4.056470   17.584640    1.349240
  C     -5.340060   17.305750    0.905510
  C     -6.220860   18.314640    0.409850
  N     -6.931590   19.127240   -0.022050
  C     -5.911900   16.004280    1.016890
  N     -6.399470   14.954250    1.122480
  C     -3.529450   18.939450    1.648100
  C     -3.986860   20.211070    1.298380
  C     -3.306560   21.308360    1.848390
  C     -2.203050   21.174000    2.746600
  C     -1.747310   19.881130    3.071250
  C     -2.403940   18.803630    2.508520
  C     -2.096570   17.364670    2.691410
  O     -1.202160   16.884890    3.358290
  C     -1.705550   22.444230    3.195630
  C     -2.397760   23.486870    2.649220
  S     -3.687180   22.994810    1.568660
  S     -1.126150   -6.371200    1.681870
  C      0.336070   -6.023910    0.780990
  C      0.261500   -4.893260    0.017620
  Br     1.809300   -7.170660    0.947600
  Br    -2.096330   25.311410    2.949380
  H     -0.846750   -2.492120   -1.168560
  H     -3.810200   -5.054260    2.027840
  H     -5.975610   -0.071280    1.268040
  H     -5.329370   -0.657780   -2.382670
  H     -4.563900    0.426750   -3.532990
  H     -7.570750    0.385480   -2.793100
  H     -6.861590   -0.210860   -4.313430
  H     -6.852730    1.529840   -3.951760
  H     -4.709460    6.998900    1.466770
  H     -4.919460    5.266490    1.434100
  H     -6.972280    7.327060    0.386020
  H     -7.100050    6.429000    1.921180
  H     -7.200750    5.558670    0.369190
  H     -2.477950    9.586280    1.118380
  H     -3.093630    7.949410    0.987280
  H     -5.183950    8.711100    2.330600
  H     -4.445350   10.311610    2.480340
  H     -3.652550    8.904660    3.227870
  H     -2.948650   15.328880   -2.183700
  H     -3.445680   16.376320   -0.864150
  H     -5.917740   15.824000   -1.494490
  H     -5.294050   14.941930   -2.891540
  H     -5.001190   16.686650   -2.753950
  H     -2.168580   14.897520    2.452250
  H     -4.837870   20.362980    0.636670
  H     -0.904490   19.719300    3.746070
  H     -0.872630   22.567100    3.887280
  H      1.079950   -4.526340   -0.600810

 Total Charge           Charge          ....    0
 Multiplicity           Mult            ....    1
 Number of Electrons    NEL             ....  618
 Basis Dimension        Dim             .... 1254

ORBITAL ENERGIES
----------------

  NO   OCC          E(Eh)            E(eV)
   0   2.0000    -482.887755    -13140.0438
   1   2.0000    -482.886500    -13140.0097
   2   2.0000     -89.003805     -2421.9167
   3   2.0000     -88.976899     -2421.1845
   4   2.0000     -88.975759     -2421.1535
   5   2.0000     -88.973265     -2421.0856
   6   2.0000     -88.972368     -2421.0612
   7   2.0000     -88.966448     -2420.9001
   8   2.0000     -88.965513     -2420.8747
   9   2.0000     -62.565449     -1702.4924
  10   2.0000     -62.564188     -1702.4581
  11   2.0000     -56.399405     -1534.7058
  12   2.0000     -56.398145     -1534.6715
  13   2.0000     -56.396678     -1534.6316
  14   2.0000     -56.396650     -1534.6309
  15   2.0000     -56.395417     -1534.5973
  16   2.0000     -56.395392     -1534.5966
  17   2.0000     -19.218628      -522.9655
  18   2.0000     -19.215365      -522.8767
  19   2.0000     -14.486787      -394.2055
  20   2.0000     -14.482980      -394.1019
  21   2.0000     -14.436922      -392.8486
  22   2.0000     -14.436383      -392.8340
  23   2.0000     -14.421184      -392.4204
  24   2.0000     -14.420396      -392.3989
  25   2.0000     -14.418763      -392.3545
  26   2.0000     -14.417928      -392.3318
  27   2.0000     -10.371490      -282.2226
  28   2.0000     -10.366606      -282.0897
  29   2.0000     -10.362320      -281.9731
  30   2.0000     -10.360621      -281.9268
  31   2.0000     -10.349590      -281.6267
  32   2.0000     -10.347285      -281.5639
  33   2.0000     -10.346805      -281.5509
  34   2.0000     -10.346782      -281.5503
  35   2.0000     -10.342957      -281.4462
  36   2.0000     -10.340987      -281.3926
  37   2.0000     -10.340259      -281.3727
  38   2.0000     -10.334650      -281.2201
  39   2.0000     -10.330045      -281.0948
  40   2.0000     -10.329425      -281.0779
  41   2.0000     -10.328020      -281.0397
  42   2.0000     -10.326665      -281.0028
  43   2.0000     -10.326236      -280.9912
  44   2.0000     -10.325435      -280.9694
  45   2.0000     -10.325232      -280.9638
  46   2.0000     -10.325191      -280.9627
  47   2.0000     -10.325132      -280.9611
  48   2.0000     -10.324888      -280.9545
  49   2.0000     -10.324128      -280.9338
  50   2.0000     -10.324061      -280.9320
  51   2.0000     -10.322639      -280.8933
  52   2.0000     -10.321289      -280.8565
  53   2.0000     -10.320025      -280.8222
  54   2.0000     -10.316794      -280.7342
  55   2.0000     -10.315088      -280.6878
  56   2.0000     -10.313581      -280.6468
  57   2.0000     -10.313427      -280.6426
  58   2.0000     -10.313356      -280.6407
  59   2.0000     -10.312394      -280.6145
  60   2.0000     -10.311220      -280.5826
  61   2.0000     -10.310641      -280.5668
  62   2.0000     -10.310410      -280.5605
  63   2.0000     -10.309928      -280.5474
  64   2.0000     -10.309399      -280.5330
  65   2.0000     -10.309211      -280.5279
  66   2.0000     -10.309102      -280.5249
  67   2.0000     -10.305640      -280.4307
  68   2.0000     -10.304276      -280.3936
  69   2.0000     -10.304170      -280.3907
  70   2.0000     -10.302316      -280.3403
  71   2.0000     -10.300761      -280.2980
  72   2.0000     -10.299847      -280.2731
  73   2.0000     -10.297891      -280.2199
  74   2.0000     -10.296949      -280.1942
  75   2.0000     -10.296185      -280.1734
  76   2.0000     -10.294568      -280.1294
  77   2.0000     -10.289826      -280.0004
  78   2.0000     -10.287546      -279.9384
  79   2.0000     -10.283147      -279.8186
  80   2.0000     -10.276672      -279.6425
  81   2.0000     -10.266696      -279.3710
  82   2.0000     -10.262548      -279.2581
  83   2.0000      -8.794872      -239.3206
  84   2.0000      -8.793603      -239.2861
  85   2.0000      -8.095501      -220.2898
  86   2.0000      -8.072530      -219.6647
  87   2.0000      -8.071270      -219.6304
  88   2.0000      -8.067485      -219.5274
  89   2.0000      -8.066699      -219.5061
  90   2.0000      -8.059806      -219.3185
  91   2.0000      -8.058875      -219.2932
  92   2.0000      -6.631187      -180.4438
  93   2.0000      -6.629922      -180.4094
  94   2.0000      -6.616596      -180.0467
  95   2.0000      -6.616396      -180.0413
  96   2.0000      -6.615345      -180.0127
  97   2.0000      -6.615105      -180.0062
  98   2.0000      -6.067128      -165.0950
  99   2.0000      -6.059703      -164.8929
 100   2.0000      -6.056709      -164.8114
 101   2.0000      -6.042272      -164.4186
 102   2.0000      -6.041011      -164.3843
 103   2.0000      -6.038012      -164.3027
 104   2.0000      -6.037169      -164.2797
 105   2.0000      -6.036767      -164.2688
 106   2.0000      -6.036427      -164.2595
 107   2.0000      -6.033691      -164.1851
 108   2.0000      -6.033046      -164.1675
 109   2.0000      -6.032454      -164.1514
 110   2.0000      -6.032302      -164.1473
 111   2.0000      -6.029797      -164.0791
 112   2.0000      -6.028989      -164.0571
 113   2.0000      -6.028834      -164.0529
 114   2.0000      -6.028119      -164.0335
 115   2.0000      -6.025727      -163.9684
 116   2.0000      -6.024808      -163.9434
 117   2.0000      -6.020720      -163.8321
 118   2.0000      -6.019819      -163.8076
 119   2.0000      -2.747076       -74.7517
 120   2.0000      -2.745808       -74.7172
 121   2.0000      -2.742966       -74.6399
 122   2.0000      -2.742790       -74.6351
 123   2.0000      -2.741664       -74.6045
 124   2.0000      -2.741562       -74.6017
 125   2.0000      -2.731204       -74.3198
 126   2.0000      -2.731194       -74.3196
 127   2.0000      -2.729935       -74.2853
 128   2.0000      -2.729934       -74.2853
 129   2.0000      -1.130637       -30.7662
 130   2.0000      -1.127568       -30.6827
 131   2.0000      -1.107962       -30.1492
 132   2.0000      -1.098701       -29.8972
 133   2.0000      -1.093548       -29.7569
 134   2.0000      -1.017495       -27.6874
 135   2.0000      -1.015957       -27.6456
 136   2.0000      -1.009257       -27.4633
 137   2.0000      -1.007947       -27.4276
 138   2.0000      -1.005935       -27.3729
 139   2.0000      -1.004793       -27.3418
 140   2.0000      -0.989936       -26.9375
 141   2.0000      -0.988624       -26.9018
 142   2.0000      -0.984677       -26.7944
 143   2.0000      -0.982506       -26.7354
 144   2.0000      -0.971523       -26.4365
 145   2.0000      -0.959577       -26.1114
 146   2.0000      -0.950950       -25.8767
 147   2.0000      -0.943411       -25.6715
 148   2.0000      -0.938080       -25.5265
 149   2.0000      -0.935073       -25.4446
 150   2.0000      -0.907092       -24.6832
 151   2.0000      -0.906042       -24.6547
 152   2.0000      -0.904701       -24.6182
 153   2.0000      -0.895218       -24.3601
 154   2.0000      -0.893556       -24.3149
 155   2.0000      -0.890575       -24.2338
 156   2.0000      -0.887106       -24.1394
 157   2.0000      -0.882478       -24.0135
 158   2.0000      -0.881679       -23.9917
 159   2.0000      -0.880566       -23.9614
 160   2.0000      -0.858705       -23.3665
 161   2.0000      -0.857852       -23.3434
 162   2.0000      -0.850867       -23.1533
 163   2.0000      -0.840763       -22.8783
 164   2.0000      -0.827335       -22.5129
 165   2.0000      -0.826159       -22.4809
 166   2.0000      -0.825098       -22.4520
 167   2.0000      -0.822618       -22.3846
 168   2.0000      -0.811667       -22.0866
 169   2.0000      -0.801646       -21.8139
 170   2.0000      -0.798669       -21.7329
 171   2.0000      -0.789956       -21.4958
 172   2.0000      -0.773428       -21.0460
 173   2.0000      -0.758561       -20.6415
 174   2.0000      -0.753632       -20.5074
 175   2.0000      -0.749250       -20.3881
 176   2.0000      -0.746195       -20.3050
 177   2.0000      -0.745674       -20.2908
 178   2.0000      -0.724617       -19.7178
 179   2.0000      -0.719435       -19.5768
 180   2.0000      -0.716814       -19.5055
 181   2.0000      -0.712927       -19.3997
 182   2.0000      -0.702452       -19.1147
 183   2.0000      -0.695972       -18.9384
 184   2.0000      -0.693541       -18.8722
 185   2.0000      -0.688441       -18.7334
 186   2.0000      -0.684004       -18.6127
 187   2.0000      -0.679605       -18.4930
 188   2.0000      -0.667901       -18.1745
 189   2.0000      -0.660686       -17.9782
 190   2.0000      -0.655871       -17.8472
 191   2.0000      -0.654169       -17.8008
 192   2.0000      -0.651832       -17.7372
 193   2.0000      -0.647560       -17.6210
 194   2.0000      -0.632570       -17.2131
 195   2.0000      -0.625510       -17.0210
 196   2.0000      -0.625154       -17.0113
 197   2.0000      -0.618765       -16.8375
 198   2.0000      -0.617661       -16.8074
 199   2.0000      -0.608680       -16.5630
 200   2.0000      -0.606157       -16.4944
 201   2.0000      -0.595489       -16.2041
 202   2.0000      -0.593896       -16.1607
 203   2.0000      -0.591935       -16.1074
 204   2.0000      -0.587171       -15.9777
 205   2.0000      -0.580316       -15.7912
 206   2.0000      -0.577048       -15.7023
 207   2.0000      -0.576204       -15.6793
 208   2.0000      -0.570883       -15.5345
 209   2.0000      -0.568510       -15.4699
 210   2.0000      -0.557524       -15.1710
 211   2.0000      -0.552407       -15.0318
 212   2.0000      -0.549700       -14.9581
 213   2.0000      -0.548203       -14.9174
 214   2.0000      -0.544706       -14.8222
 215   2.0000      -0.540945       -14.7199
 216   2.0000      -0.539526       -14.6812
 217   2.0000      -0.538435       -14.6516
 218   2.0000      -0.534775       -14.5520
 219   2.0000      -0.534482       -14.5440
 220   2.0000      -0.530721       -14.4416
 221   2.0000      -0.529761       -14.4155
 222   2.0000      -0.527908       -14.3651
 223   2.0000      -0.526648       -14.3308
 224   2.0000      -0.524993       -14.2858
 225   2.0000      -0.523604       -14.2480
 226   2.0000      -0.516703       -14.0602
 227   2.0000      -0.515833       -14.0365
 228   2.0000      -0.510120       -13.8811
 229   2.0000      -0.509852       -13.8738
 230   2.0000      -0.506684       -13.7876
 231   2.0000      -0.505239       -13.7482
 232   2.0000      -0.502513       -13.6741
 233   2.0000      -0.500739       -13.6258
 234   2.0000      -0.499630       -13.5956
 235   2.0000      -0.496301       -13.5050
 236   2.0000      -0.494712       -13.4618
 237   2.0000      -0.493539       -13.4299
 238   2.0000      -0.491519       -13.3749
 239   2.0000      -0.488523       -13.2934
 240   2.0000      -0.485704       -13.2167
 241   2.0000      -0.483987       -13.1700
 242   2.0000      -0.483562       -13.1584
 243   2.0000      -0.480072       -13.0634
 244   2.0000      -0.479187       -13.0393
 245   2.0000      -0.474127       -12.9017
 246   2.0000      -0.472077       -12.8459
 247   2.0000      -0.471018       -12.8171
 248   2.0000      -0.466135       -12.6842
 249   2.0000      -0.463005       -12.5990
 250   2.0000      -0.461167       -12.5490
 251   2.0000      -0.459296       -12.4981
 252   2.0000      -0.457770       -12.4566
 253   2.0000      -0.456125       -12.4118
 254   2.0000      -0.454404       -12.3650
 255   2.0000      -0.451038       -12.2734
 256   2.0000      -0.450930       -12.2704
 257   2.0000      -0.449208       -12.2236
 258   2.0000      -0.448790       -12.2122
 259   2.0000      -0.447123       -12.1668
 260   2.0000      -0.445328       -12.1180
 261   2.0000      -0.444767       -12.1027
 262   2.0000      -0.444088       -12.0843
 263   2.0000      -0.442479       -12.0405
 264   2.0000      -0.437993       -11.9184
 265   2.0000      -0.436463       -11.8768
 266   2.0000      -0.435599       -11.8532
 267   2.0000      -0.434058       -11.8113
 268   2.0000      -0.428835       -11.6692
 269   2.0000      -0.426011       -11.5923
 270   2.0000      -0.424615       -11.5544
 271   2.0000      -0.423579       -11.5262
 272   2.0000      -0.422578       -11.4989
 273   2.0000      -0.419112       -11.4046
 274   2.0000      -0.418511       -11.3883
 275   2.0000      -0.417027       -11.3479
 276   2.0000      -0.415682       -11.3113
 277   2.0000      -0.413677       -11.2567
 278   2.0000      -0.411736       -11.2039
 279   2.0000      -0.409486       -11.1427
 280   2.0000      -0.406373       -11.0580
 281   2.0000      -0.404140       -10.9972
 282   2.0000      -0.402437       -10.9509
 283   2.0000      -0.397619       -10.8198
 284   2.0000      -0.393630       -10.7112
 285   2.0000      -0.391602       -10.6560
 286   2.0000      -0.386408       -10.5147
 287   2.0000      -0.385261       -10.4835
 288   2.0000      -0.376584       -10.2474
 289   2.0000      -0.375381       -10.2146
 290   2.0000      -0.373731       -10.1697
 291   2.0000      -0.371400       -10.1063
 292   2.0000      -0.368038       -10.0148
 293   2.0000      -0.352196        -9.5837
 294   2.0000      -0.350054        -9.5254
 295   2.0000      -0.342861        -9.3297
 296   2.0000      -0.339890        -9.2489
 297   2.0000      -0.334881        -9.1126
 298   2.0000      -0.331726        -9.0267
 299   2.0000      -0.315966        -8.5979
 300   2.0000      -0.314304        -8.5527
 301   2.0000      -0.313154        -8.5213
 302   2.0000      -0.309732        -8.4282
 303   2.0000      -0.294786        -8.0215
 304   2.0000      -0.293368        -7.9829
 305   2.0000      -0.288887        -7.8610
 306   2.0000      -0.279147        -7.5960
 307   2.0000      -0.276350        -7.5199
 308   2.0000      -0.240788        -6.5522
 309   0.0000      -0.095375        -2.5953
 310   0.0000      -0.088553        -2.4097
 311   0.0000      -0.063370        -1.7244
 312   0.0000      -0.058237        -1.5847
 313   0.0000      -0.043580        -1.1859

MULLIKEN ATOMIC CHARGES
-----------------------
   0 C :    0.147946
   1 O :   -0.151790
   2 C :   -0.025028
   3 C :   -0.065794
   4 C :    0.105559
   5 C :   -0.094642
   6 C :   -0.022094
   7 C :    0.024395
   8 C :    0.234839
   9 C :   -0.305707
  10 C :   -0.161707
  11 N :    0.123030
  12 C :   -0.185623
  13 N :    0.137500
  14 C :   -0.099955
  15 C :    0.003118
  16 C :   -0.149064
  17 S :    0.137688
  18 C :   -0.050167
  19 C :   -0.126878
  20 C :    0.007293
  21 C :    0.072023
  22 C :   -0.004813
  23 S :    0.200483
  24 C :   -0.106166
  25 C :    0.047032
  26 N :   -0.184901
  27 C :    0.104571
  28 C :   -0.007703
  29 C :    0.032592
  30 C :   -0.026407
  31 C :   -0.009826
  32 N :   -0.263293
  33 S :    0.444483
  34 N :   -0.264649
  35 C :   -0.011056
  36 C :   -0.038119
  37 C :    0.061055
  38 N :   -0.194846
  39 C :    0.069035
  40 C :   -0.003717
  41 C :    0.060782
  42 C :   -0.098631
  43 S :    0.191051
  44 C :   -0.116396
  45 C :   -0.036559
  46 S :    0.146211
  47 C :   -0.148084
  48 C :   -0.001179
  49 C :    0.049829
  50 C :   -0.022041
  51 C :    0.033901
  52 C :   -0.132537
  53 C :    0.240685
  54 C :   -0.339314
  55 C :   -0.147153
  56 N :    0.123699
  57 C :   -0.179197
  58 N :    0.148937
  59 C :    0.000451
  60 C :   -0.019338
  61 C :   -0.095135
  62 C :    0.102032
  63 C :   -0.066080
  64 C :    0.001267
  65 C :    0.127451
  66 O :   -0.155467
  67 C :    0.039985
  68 C :   -0.131392
  69 S :    0.180928
  70 S :    0.183914
  71 C :   -0.128964
  72 C :    0.036930
  73 Br:    0.027510
  74 Br:    0.026136
  75 H :    0.001066
  76 H :    0.005108
  77 H :    0.042768
  78 H :    0.008772
  79 H :    0.030343
  80 H :    0.027576
  81 H :    0.026369
  82 H :    0.021642
  83 H :   -0.009485
  84 H :    0.029559
  85 H :    0.040909
  86 H :    0.034603
  87 H :    0.042068
  88 H :    0.038000
  89 H :    0.043811
  90 H :    0.034684
  91 H :    0.036435
  92 H :    0.035546
  93 H :    0.035841
  94 H :    0.012557
  95 H :    0.037858
  96 H :    0.029935
  97 H :    0.029349
  98 H :    0.039415
  99 H :    0.004794
 100 H :    0.000706
 101 H :    0.008715
 102 H :    0.008128
Sum of atomic charges:   -0.0000000

LOEWDIN ATOMIC CHARGES
----------------------
   0 C :    0.084232
   1 O :   -0.138539
   2 C :   -0.050717
   3 C :    0.017027
   4 C :   -0.031286
   5 C :   -0.142959
   6 C :   -0.012107
   7 C :   -0.021853
   8 C :    0.075996
   9 C :   -0.140743
  10 C :   -0.012811
  11 N :   -0.058604
  12 C :   -0.023485
  13 N :   -0.055866
  14 C :   -0.099580
  15 C :    0.045655
  16 C :   -0.181573
  17 S :    0.410256
  18 C :   -0.196858
  19 C :   -0.186556
  20 C :   -0.004531
  21 C :   -0.031990
  22 C :   -0.055781
  23 S :    0.423501
  24 C :   -0.172030
  25 C :   -0.037083
  26 N :    0.022690
  27 C :    0.038013
  28 C :   -0.064572
  29 C :    0.008888
  30 C :   -0.072289
  31 C :   -0.052903
  32 N :   -0.276159
  33 S :    0.574991
  34 N :   -0.277366
  35 C :   -0.051510
  36 C :   -0.078652
  37 C :    0.014903
  38 N :    0.027389
  39 C :    0.038225
  40 C :   -0.070742
  41 C :   -0.037183
  42 C :   -0.168482
  43 S :    0.425904
  44 C :   -0.184434
  45 C :   -0.190546
  46 S :    0.429875
  47 C :   -0.179736
  48 C :   -0.013880
  49 C :   -0.034428
  50 C :   -0.056347
  51 C :    0.042894
  52 C :   -0.108699
  53 C :    0.066979
  54 C :   -0.144379
  55 C :   -0.015289
  56 N :   -0.060478
  57 C :   -0.017629
  58 N :   -0.051658
  59 C :   -0.017719
  60 C :   -0.016140
  61 C :   -0.141371
  62 C :   -0.033569
  63 C :    0.019389
  64 C :   -0.055080
  65 C :    0.087069
  66 O :   -0.150173
  67 C :   -0.072806
  68 C :   -0.272965
  69 S :    0.423102
  70 S :    0.425222
  71 C :   -0.271853
  72 C :   -0.072920
  73 Br:    0.139753
  74 Br:    0.139286
  75 H :    0.044312
  76 H :    0.043801
  77 H :    0.046751
  78 H :    0.032371
  79 H :    0.040624
  80 H :    0.030252
  81 H :    0.030371
  82 H :    0.020127
  83 H :    0.024982
  84 H :    0.026861
  85 H :    0.034106
  86 H :    0.036323
  87 H :    0.035485
  88 H :    0.032681
  89 H :    0.031725
  90 H :    0.029220
  91 H :    0.025695
  92 H :    0.038934
  93 H :    0.043817
  94 H :    0.031475
  95 H :    0.030932
  96 H :    0.020752
  97 H :    0.033415
  98 H :    0.047971
  99 H :    0.043140
 100 H :    0.044487
 101 H :    0.042548
 102 H :    0.042510

  Mayer bond orders larger than 0.100000
B(  0-C ,  1-O ) :   2.1994 B(  0-C ,  2-C ) :   0.9450 B(  0-C , 14-C ) :   0.9405
B(  2-C ,  3-C ) :   1.4374 B(  2-C ,  7-C ) :   1.2731 B(  3-C ,  4-C ) :   1.2470
B(  3-C , 75-H ) :   1.0077 B(  4-C ,  5-C ) :   1.3017 B(  4-C , 72-C ) :   1.1634
B(  5-C ,  6-C ) :   1.3320 B(  5-C , 70-S ) :   1.0852 B(  6-C ,  7-C ) :   1.4122
B(  6-C , 76-H ) :   0.9767 B(  7-C ,  8-C ) :   1.0158 B(  8-C ,  9-C ) :   1.6571
B(  8-C , 14-C ) :   1.0569 B(  9-C , 10-C ) :   1.1199 B(  9-C , 12-C ) :   1.1209
B( 10-C , 11-N ) :   2.9679 B( 12-C , 13-N ) :   3.0057 B( 14-C , 15-C ) :   1.6309
B( 15-C , 16-C ) :   1.1549 B( 15-C , 77-H ) :   0.9377 B( 16-C , 17-S ) :   1.0348
B( 16-C , 20-C ) :   1.5047 B( 17-S , 18-C ) :   1.0695 B( 18-C , 19-C ) :   1.4464
B( 18-C , 25-C ) :   1.2709 B( 19-C , 20-C ) :   1.3241 B( 19-C , 23-S ) :   1.0381
B( 20-C , 21-C ) :   1.0811 B( 21-C , 22-C ) :   1.0896 B( 21-C , 78-H ) :   0.9189
B( 21-C , 79-H ) :   0.9148 B( 22-C , 80-H ) :   0.9681 B( 22-C , 81-H ) :   0.9678
B( 22-C , 82-H ) :   0.9693 B( 23-S , 24-C ) :   1.0282 B( 24-C , 25-C ) :   1.4355
B( 24-C , 30-C ) :   1.3281 B( 25-C , 26-N ) :   1.1382 B( 26-N , 27-C ) :   0.9543
B( 26-N , 29-C ) :   1.1550 B( 27-C , 28-C ) :   1.1050 B( 27-C , 83-H ) :   0.9441
B( 27-C , 84-H ) :   0.9378 B( 28-C , 85-H ) :   0.9643 B( 28-C , 86-H ) :   0.9640
B( 28-C , 87-H ) :   0.9635 B( 29-C , 30-C ) :   1.4134 B( 29-C , 37-C ) :   1.1201
B( 30-C , 31-C ) :   1.0983 B( 31-C , 32-N ) :   1.6492 B( 31-C , 35-C ) :   1.1127
B( 32-N , 33-S ) :   1.1976 B( 32-N , 34-N ) :   0.1334 B( 33-S , 34-N ) :   1.1959
B( 34-N , 35-C ) :   1.6492 B( 35-C , 36-C ) :   1.1020 B( 36-C , 37-C ) :   1.3935
B( 36-C , 42-C ) :   1.3377 B( 37-C , 38-N ) :   1.1689 B( 38-N , 39-C ) :   0.9363
B( 38-N , 41-C ) :   1.1358 B( 39-C , 40-C ) :   1.0970 B( 39-C , 88-H ) :   0.9448
B( 39-C , 89-H ) :   0.9532 B( 40-C , 90-H ) :   0.9587 B( 40-C , 91-H ) :   0.9532
B( 40-C , 92-H ) :   0.9643 B( 41-C , 42-C ) :   1.4228 B( 41-C , 45-C ) :   1.2656
B( 42-C , 43-S ) :   1.0281 B( 43-S , 44-C ) :   1.0395 B( 44-C , 45-C ) :   1.4404
B( 44-C , 48-C ) :   1.3366 B( 45-C , 46-S ) :   1.0737 B( 46-S , 47-C ) :   1.0515
B( 47-C , 48-C ) :   1.4673 B( 47-C , 51-C ) :   1.1344 B( 48-C , 49-C ) :   1.0763
B( 49-C , 50-C ) :   1.0854 B( 49-C , 93-H ) :   0.9208 B( 49-C , 94-H ) :   0.9221
B( 50-C , 95-H ) :   0.9689 B( 50-C , 96-H ) :   0.9626 B( 50-C , 97-H ) :   0.9640
B( 51-C , 52-C ) :   1.6544 B( 51-C , 98-H ) :   0.9082 B( 52-C , 53-C ) :   1.0575
B( 52-C , 65-C ) :   0.9468 B( 53-C , 54-C ) :   1.6256 B( 53-C , 59-C ) :   1.0127
B( 54-C , 55-C ) :   1.1105 B( 54-C , 57-C ) :   1.1713 B( 55-C , 56-N ) :   2.9711
B( 57-C , 58-N ) :   2.9631 B( 59-C , 60-C ) :   1.4209 B( 59-C , 64-C ) :   1.2803
B( 60-C , 61-C ) :   1.3273 B( 60-C , 99-H ) :   0.9786 B( 61-C , 62-C ) :   1.3055
B( 61-C , 69-S ) :   1.0835 B( 62-C , 63-C ) :   1.2506 B( 62-C , 67-C ) :   1.1615
B( 63-C , 64-C ) :   1.4328 B( 63-C ,100-H ) :   1.0086 B( 64-C , 65-C ) :   0.9296
B( 65-C , 66-O ) :   2.2328 B( 67-C , 68-C ) :   1.6185 B( 67-C ,101-H ) :   0.9949
B( 68-C , 69-S ) :   1.0871 B( 68-C , 74-Br) :   1.0217 B( 70-S , 71-C ) :   1.0874
B( 71-C , 72-C ) :   1.6188 B( 71-C , 73-Br) :   1.0225 B( 72-C ,102-H ) :   0.9945

-----------------------------------------------------------------------------
         ABSORPTION SPECTRUM VIA TRANSITION ELECTRIC DIPOLE MOMENTS
-----------------------------------------------------------------------------
State   Energy  Wavelength   fosc         T2         TX        TY        TZ
        (cm-1)    (nm)                  (au**2)     (au)      (au)      (au)
-----------------------------------------------------------------------------
   0   17148.0    583.2   2.204410132  42.32084   0.03210   6.48641   0.49632
   1   19777.1    505.6   0.269275054   4.48239   0.01878   1.02329  -1.85335
   2   24565.9    407.1   0.156331124   2.09502  -0.15708  -1.41372  -0.26787
   3   24935.8    401.0   0.068333537   0.90216   0.24078  -0.36221   0.84439
   4   25653.0    389.8   0.103405648   1.32703  -0.52874  -0.41526  -0.93543
   5   26054.2    383.8   0.091219556   1.15262   0.06242  -0.83854  -0.66751
   6   26582.7    376.2   0.015788287   0.19553   0.17941  -0.39948   0.06129
   7   27057.4    369.6   0.048817094   0.59397  -0.24171  -0.08729   0.72659
   8   28018.9    356.9   0.321827384   3.78136   0.72769   1.73071   0.50644
   9   28306.6    353.3   0.239989155   2.79113   1.58415   0.30359   0.43524
  10   28540.1    350.4   0.347071090   4.00348   1.22937  -1.55522  -0.27092
  11   29839.2    335.1   0.011536680   0.12728   0.33417   0.07916  -0.09669
  12   30140.8    331.8   0.083791582   0.91521   0.22261  -0.24592   0.89732
  13   30268.5    330.4   0.035202560   0.38288   0.56896  -0.24322   0.00188
  14   30969.6    322.9   0.007528136   0.08003  -0.12755   0.10507  -0.22960
  15   30998.0    322.6   0.014406170   0.15300  -0.13037  -0.35580  -0.09701
  16   31392.2    318.6   0.140061808   1.46884  -0.06864  -1.02197   0.64784
  17   32576.6    307.0   0.121380633   1.22665  -0.98942   0.03323  -0.49659
  18   32961.7    303.4   0.205128601   2.04877  -0.70349  -1.14097  -0.50206
  19   33390.3    299.5   0.119435712   1.17758   0.65741   0.06544  -0.86087
  20   33544.5    298.1   0.133697171   1.31213  -0.07416   1.11530  -0.25046
  21   33688.4    296.8   0.293972673   2.87278  -1.07016   0.84195   1.00928
  22   33749.2    296.3   0.483883730   4.72013  -1.91344  -0.68201  -0.77054
  23   33996.0    294.2   0.058480549   0.56632   0.47380  -0.32064   0.48890
  24   34188.6    292.5   0.085016395   0.81865   0.12743   0.79139   0.41966
  25   34640.3    288.7   0.076776840   0.72967   0.81026   0.09168  -0.25444
  26   34953.1    286.1   0.019286033   0.18165   0.00774  -0.41762   0.08476
  27   35124.5    284.7   0.067469023   0.63237  -0.29934  -0.71163   0.19064
  28   35389.5    282.6   0.020268109   0.18854  -0.20444  -0.29977  -0.23851
  29   36108.3    276.9   0.311822352   2.84300  -0.03450  -1.67567   0.18420
  30   36577.7    273.4   0.015339068   0.13806   0.32044   0.06974  -0.17467
  31   36679.3    272.6   0.139178858   1.24919   0.73780   0.06598  -0.83695
  32   36969.8    270.5   0.011053891   0.09843   0.13725   0.27651  -0.05601
  33   37510.9    266.6   0.071921205   0.63121   0.04470  -0.09527   0.78749
  34   38181.0    261.9   0.032138879   0.27711   0.42888  -0.24173   0.18639
  35   38320.2    261.0   0.005970469   0.05129  -0.10398   0.19231  -0.05914
  36   38685.3    258.5   0.009122924   0.07764  -0.05455   0.20010   0.18607
  37   38878.2    257.2   0.080242473   0.67948   0.37739  -0.57857   0.44980
  38   39321.2    254.3   0.147862645   1.23796  -0.31212  -0.78389   0.72530
  39   39367.2    254.0   0.023630028   0.19761  -0.11120  -0.35324  -0.24589
  40   39619.5    252.4   0.007289292   0.06057   0.13732  -0.16622   0.11866
  41   39989.2    250.1   0.033072834   0.27227   0.15885  -0.41117   0.27925
  42   40250.9    248.4   0.058849350   0.48133  -0.04281   0.46639   0.51184

FINAL SINGLE POINT ENERGY    -10670.195470758479

DIPOLE MOMENT
-------------
                                X             Y             Z
Electronic contribution:     86.93220      21.63834      36.46899
Nuclear contribution   :    -83.85990     -20.95568     -36.03758
                        -----------------------------------------
Total Dipole Moment    :      3.07230       0.68266       0.43140
                        -----------------------------------------
Magnitude (a.u.)       :      3.17666
Magnitude (Debye)      :      8.07442

Rotational constants in cm-1:     0.001472     0.000134     0.000129
Rotational constants in MHz :    44.118479     4.028049     3.880075

                             ****ORCA TERMINATED NORMALLY****
TOTAL RUN TIME: 0 days 1 hours 10 minutes 16 seconds 230 msec
