                         Program Version 4.2.0 -  RELEASE  -
|  1> # ORCA input file
|  2> # BTTPC.out: Geometry 42
|  3> ! CAM-B3LYP def2-SVP def2/J RIJCOSX Grid4 TightSCF
|  4> %maxcore 5000
|  5> %tddft
|  6>     Mode sTDDFT
|  7>     Ethresh 5.0
|  8>     maxcore 5000
|  9> end
| 10> * xyz 0 1
| 11>    C       -2.96553        -1.58001        -0.69591
| 12>    O       -2.55069        -0.91975        -1.63091
| 13>    C       -2.42565        -2.89196        -0.25895
| 14>    C       -1.38429        -3.59567        -0.83290
| 15>    C       -1.03607        -4.83936        -0.26785
| 16>    C       -1.77059        -5.30937         0.86379
| 17>    C       -2.82098        -4.58721         1.44808
| 18>    C       -3.14798        -3.35716         0.87357
| 19>    C       -4.17891        -2.35318         1.21672
| 20>    C       -5.13384        -2.49338         2.21165
| 21>    C       -5.18478        -3.63343         3.07299
| 22>    N       -5.23155        -4.55493         3.78028
| 23>    C       -6.17051        -1.53884         2.45716
| 24>    N       -7.02492        -0.78206         2.67890
| 25>    C       -4.04083        -1.23003         0.27976
| 26>    C       -4.60901         0.01452         0.45746
| 27>    C       -4.66859         1.19335        -0.34407
| 28>    S       -4.79266         2.69498         0.61812
| 29>    C       -4.91267         3.64961        -0.81062
| 30>    C       -4.90367         2.84004        -1.96524
| 31>    C       -4.77387         1.45184        -1.72574
| 32>    C       -4.96210         0.43266        -2.81405
| 33>    C       -6.44178         0.05322        -2.99242
| 34>    S       -5.04960         3.77990        -3.45721
| 35>    C       -5.09571         5.25085        -2.51343
| 36>    C       -4.99499         5.02065        -1.13499
| 37>    N       -5.03472         6.22213        -0.43958
| 38>    C       -5.68028         6.21979         0.87966
| 39>    C       -7.19916         6.13762         0.78223
| 40>    C       -5.12975         7.24303        -1.39767
| 41>    C       -5.20798         6.65422        -2.69520
| 42>    C       -5.39980         7.47413        -3.85636
| 43>    N       -5.55823         7.06478        -5.10776
| 44>    S       -5.80256         8.41640        -6.03173
| 45>    N       -5.70504         9.56261        -4.84107
| 46>    C       -5.48395         8.91920        -3.70296
| 47>    C       -5.26856         9.50190        -2.41203
| 48>    C       -5.06751         8.67056        -1.26528
| 49>    N       -4.73528         9.48647        -0.18480
| 50>    C       -4.07133         9.12954         1.06845
| 51>    C       -4.92766         9.38056         2.30730
| 52>    C       -4.73687        10.79681        -0.62923
| 53>    C       -5.06374        10.83800        -1.99310
| 54>    S       -4.93764        12.44230        -2.67595
| 55>    C       -4.41133        13.06377        -1.10357
| 56>    C       -4.35981        12.05653        -0.11603
| 57>    S       -3.81376        12.68103         1.39627
| 58>    C       -3.67917        14.31665         0.71294
| 59>    C       -4.00674        14.34610        -0.65724
| 60>    C       -3.72197        15.50414        -1.57742
| 61>    C       -4.85424        15.93286        -2.51762
| 62>    C       -3.19617        15.28723         1.63465
| 63>    C       -3.26974        16.65472         1.77860
| 64>    C       -4.05773        17.73655         1.20646
| 65>    C       -5.28588        17.61152         0.57379
| 66>    C       -5.96811        18.71801        -0.01713
| 67>    N       -6.51459        19.60874        -0.52685
| 68>    C       -6.00722        16.38278         0.56588
| 69>    N       -6.61202        15.39006         0.57920
| 70>    C       -3.43788        19.01799         1.62983
| 71>    C       -3.73267        20.34361         1.30730
| 72>    C       -3.00592        21.34147         1.97775
| 73>    C       -2.00680        21.05450         2.95902
| 74>    C       -1.72066        19.71025         3.26297
| 75>    C       -2.42993        18.73257         2.59428
| 76>    C       -2.30753        17.26779         2.75915
| 77>    O       -1.56280        16.67592         3.51473
| 78>    C       -1.43163        22.25120         3.50843
| 79>    C       -1.96661        23.38364         2.96948
| 80>    S       -3.19136        23.06703         1.76804
| 81>    S       -1.18227        -6.86986         1.39024
| 82>    C        0.01821        -6.88253         0.12527
| 83>    C       -0.01315        -5.76908        -0.66330
| 84>    H        0.68870        -7.73714         0.03763
| 85>    H       -1.70914        24.41420         3.21266
| 86>    H       -0.86027        -3.18810        -1.69968
| 87>    H       -3.34030        -4.98636         2.31558
| 88>    H       -5.06523         0.16946         1.43802
| 89>    H       -4.35240        -0.45118        -2.60698
| 90>    H       -4.57223         0.86050        -3.75269
| 91>    H       -6.85114        -0.38029        -2.06689
| 92>    H       -6.55850        -0.69086        -3.79560
| 93>    H       -7.05166         0.93170        -3.25423
| 94>    H       -5.38100         7.10478         1.44070
| 95>    H       -5.27241         5.35919         1.43016
| 96>    H       -7.60791         7.02627         0.27716
| 97>    H       -7.64424         6.07621         1.78658
| 98>    H       -7.51132         5.24769         0.21552
| 99>    H       -3.14796         9.72747         1.13116
|100>    H       -3.74677         8.08468         0.99199
|101>    H       -5.88200         8.83592         2.26545
|102>    H       -5.16717        10.44843         2.41614
|103>    H       -4.38304         9.06086         3.20945
|104>    H       -2.85833        15.19655        -2.19491
|105>    H       -3.37324        16.36263        -0.99036
|106>    H       -5.73909        16.28196        -1.97074
|107>    H       -5.17980        15.10881        -3.16956
|108>    H       -4.50713        16.75030        -3.16720
|109>    H       -2.58497        14.85836         2.44313
|110>    H       -4.49127        20.61137         0.57334
|111>    H       -0.97170        19.43291         4.00760
|112>    H       -0.65492        22.25101         4.27403
|113>    H        0.66169        -5.60125        -1.50326
|114> *
|115>
|116>                          ****END OF INPUT****

CARTESIAN COORDINATES (ANGSTROEM)
---------------------------------
  C     -2.965530   -1.580010   -0.695910
  O     -2.550690   -0.919750   -1.630910
  C     -2.425650   -2.891960   -0.258950
  C     -1.384290   -3.595670   -0.832900
  C     -1.036070   -4.839360   -0.267850
  C     -1.770590   -5.309370    0.863790
  C     -2.820980   -4.587210    1.448080
  C     -3.147980   -3.357160    0.873570
  C     -4.178910   -2.353180    1.216720
  C     -5.133840   -2.493380    2.211650
  C     -5.184780   -3.633430    3.072990
  N     -5.231550   -4.554930    3.780280
  C     -6.170510   -1.538840    2.457160
  N     -7.024920   -0.782060    2.678900
  C     -4.040830   -1.230030    0.279760
  C     -4.609010    0.014520    0.457460
  C     -4.668590    1.193350   -0.344070
  S     -4.792660    2.694980    0.618120
  C     -4.912670    3.649610   -0.810620
  C     -4.903670    2.840040   -1.965240
  C     -4.773870    1.451840   -1.725740
  C     -4.962100    0.432660   -2.814050
  C     -6.441780    0.053220   -2.992420
  S     -5.049600    3.779900   -3.457210
  C     -5.095710    5.250850   -2.513430
  C     -4.994990    5.020650   -1.134990
  N     -5.034720    6.222130   -0.439580
  C     -5.680280    6.219790    0.879660
  C     -7.199160    6.137620    0.782230
  C     -5.129750    7.243030   -1.397670
  C     -5.207980    6.654220   -2.695200
  C     -5.399800    7.474130   -3.856360
  N     -5.558230    7.064780   -5.107760
  S     -5.802560    8.416400   -6.031730
  N     -5.705040    9.562610   -4.841070
  C     -5.483950    8.919200   -3.702960
  C     -5.268560    9.501900   -2.412030
  C     -5.067510    8.670560   -1.265280
  N     -4.735280    9.486470   -0.184800
  C     -4.071330    9.129540    1.068450
  C     -4.927660    9.380560    2.307300
  C     -4.736870   10.796810   -0.629230
  C     -5.063740   10.838000   -1.993100
  S     -4.937640   12.442300   -2.675950
  C     -4.411330   13.063770   -1.103570
  C     -4.359810   12.056530   -0.116030
  S     -3.813760   12.681030    1.396270
  C     -3.679170   14.316650    0.712940
  C     -4.006740   14.346100   -0.657240
  C     -3.721970   15.504140   -1.577420
  C     -4.854240   15.932860   -2.517620
  C     -3.196170   15.287230    1.634650
  C     -3.269740   16.654720    1.778600
  C     -4.057730   17.736550    1.206460
  C     -5.285880   17.611520    0.573790
  C     -5.968110   18.718010   -0.017130
  N     -6.514590   19.608740   -0.526850
  C     -6.007220   16.382780    0.565880
  N     -6.612020   15.390060    0.579200
  C     -3.437880   19.017990    1.629830
  C     -3.732670   20.343610    1.307300
  C     -3.005920   21.341470    1.977750
  C     -2.006800   21.054500    2.959020
  C     -1.720660   19.710250    3.262970
  C     -2.429930   18.732570    2.594280
  C     -2.307530   17.267790    2.759150
  O     -1.562800   16.675920    3.514730
  C     -1.431630   22.251200    3.508430
  C     -1.966610   23.383640    2.969480
  S     -3.191360   23.067030    1.768040
  S     -1.182270   -6.869860    1.390240
  C      0.018210   -6.882530    0.125270
  C     -0.013150   -5.769080   -0.663300
  H      0.688700   -7.737140    0.037630
  H     -1.709140   24.414200    3.212660
  H     -0.860270   -3.188100   -1.699680
  H     -3.340300   -4.986360    2.315580
  H     -5.065230    0.169460    1.438020
  H     -4.352400   -0.451180   -2.606980
  H     -4.572230    0.860500   -3.752690
  H     -6.851140   -0.380290   -2.066890
  H     -6.558500   -0.690860   -3.795600
  H     -7.051660    0.931700   -3.254230
  H     -5.381000    7.104780    1.440700
  H     -5.272410    5.359190    1.430160
  H     -7.607910    7.026270    0.277160
  H     -7.644240    6.076210    1.786580
  H     -7.511320    5.247690    0.215520
  H     -3.147960    9.727470    1.131160
  H     -3.746770    8.084680    0.991990
  H     -5.882000    8.835920    2.265450
  H     -5.167170   10.448430    2.416140
  H     -4.383040    9.060860    3.209450
  H     -2.858330   15.196550   -2.194910
  H     -3.373240   16.362630   -0.990360
  H     -5.739090   16.281960   -1.970740
  H     -5.179800   15.108810   -3.169560
  H     -4.507130   16.750300   -3.167200
  H     -2.584970   14.858360    2.443130
  H     -4.491270   20.611370    0.573340
  H     -0.971700   19.432910    4.007600
  H     -0.654920   22.251010    4.274030
  H      0.661690   -5.601250   -1.503260

 Total Charge           Charge          ....    0
 Multiplicity           Mult            ....    1
 Number of Electrons    NEL             ....  550
 Basis Dimension        Dim             .... 1200

ORBITAL ENERGIES
----------------

  NO   OCC          E(Eh)            E(eV)
   0   2.0000     -89.003778     -2421.9159
   1   2.0000     -88.971793     -2421.0456
   2   2.0000     -88.971186     -2421.0291
   3   2.0000     -88.966529     -2420.9023
   4   2.0000     -88.965712     -2420.8801
   5   2.0000     -88.965548     -2420.8756
   6   2.0000     -88.965010     -2420.8610
   7   2.0000     -19.213575      -522.8280
   8   2.0000     -19.212415      -522.7964
   9   2.0000     -14.485968      -394.1832
  10   2.0000     -14.480542      -394.0356
  11   2.0000     -14.436978      -392.8502
  12   2.0000     -14.435980      -392.8230
  13   2.0000     -14.418044      -392.3349
  14   2.0000     -14.417071      -392.3085
  15   2.0000     -14.416490      -392.2926
  16   2.0000     -14.415826      -392.2746
  17   2.0000     -10.366177      -282.0780
  18   2.0000     -10.362980      -281.9910
  19   2.0000     -10.344752      -281.4950
  20   2.0000     -10.344476      -281.4875
  21   2.0000     -10.344185      -281.4796
  22   2.0000     -10.343758      -281.4680
  23   2.0000     -10.341992      -281.4199
  24   2.0000     -10.341244      -281.3996
  25   2.0000     -10.338203      -281.3168
  26   2.0000     -10.333746      -281.1955
  27   2.0000     -10.325748      -280.9779
  28   2.0000     -10.325717      -280.9770
  29   2.0000     -10.325229      -280.9638
  30   2.0000     -10.325212      -280.9633
  31   2.0000     -10.325048      -280.9588
  32   2.0000     -10.324821      -280.9527
  33   2.0000     -10.324626      -280.9473
  34   2.0000     -10.322775      -280.8970
  35   2.0000     -10.322445      -280.8880
  36   2.0000     -10.321775      -280.8698
  37   2.0000     -10.321370      -280.8587
  38   2.0000     -10.321317      -280.8573
  39   2.0000     -10.320796      -280.8431
  40   2.0000     -10.320030      -280.8223
  41   2.0000     -10.319363      -280.8041
  42   2.0000     -10.317781      -280.7611
  43   2.0000     -10.316546      -280.7275
  44   2.0000     -10.316189      -280.7178
  45   2.0000     -10.314477      -280.6712
  46   2.0000     -10.311971      -280.6030
  47   2.0000     -10.311892      -280.6009
  48   2.0000     -10.311868      -280.6002
  49   2.0000     -10.311592      -280.5927
  50   2.0000     -10.309190      -280.5273
  51   2.0000     -10.308834      -280.5176
  52   2.0000     -10.307369      -280.4778
  53   2.0000     -10.304837      -280.4089
  54   2.0000     -10.303782      -280.3802
  55   2.0000     -10.303603      -280.3753
  56   2.0000     -10.303212      -280.3647
  57   2.0000     -10.300343      -280.2866
  58   2.0000     -10.299552      -280.2651
  59   2.0000     -10.299377      -280.2603
  60   2.0000     -10.298952      -280.2487
  61   2.0000     -10.297718      -280.2151
  62   2.0000     -10.296019      -280.1689
  63   2.0000     -10.291864      -280.0559
  64   2.0000     -10.291743      -280.0526
  65   2.0000     -10.289643      -279.9954
  66   2.0000     -10.289582      -279.9938
  67   2.0000     -10.288645      -279.9683
  68   2.0000     -10.286150      -279.9004
  69   2.0000     -10.281024      -279.7609
  70   2.0000     -10.272695      -279.5343
  71   2.0000     -10.265253      -279.3317
  72   2.0000     -10.263225      -279.2765
  73   2.0000      -8.095486      -220.2894
  74   2.0000      -8.066070      -219.4889
  75   2.0000      -8.065584      -219.4757
  76   2.0000      -8.061310      -219.3594
  77   2.0000      -8.061055      -219.3525
  78   2.0000      -8.059888      -219.3207
  79   2.0000      -8.058210      -219.2750
  80   2.0000      -6.067111      -165.0945
  81   2.0000      -6.059675      -164.8921
  82   2.0000      -6.056706      -164.8114
  83   2.0000      -6.035722      -164.2403
  84   2.0000      -6.035247      -164.2274
  85   2.0000      -6.031619      -164.1287
  86   2.0000      -6.031169      -164.1165
  87   2.0000      -6.030891      -164.1089
  88   2.0000      -6.030647      -164.1022
  89   2.0000      -6.029824      -164.0799
  90   2.0000      -6.028257      -164.0372
  91   2.0000      -6.027610      -164.0196
  92   2.0000      -6.027040      -164.0041
  93   2.0000      -6.026626      -163.9928
  94   2.0000      -6.026370      -163.9859
  95   2.0000      -6.025854      -163.9718
  96   2.0000      -6.024150      -163.9255
  97   2.0000      -6.022937      -163.8925
  98   2.0000      -6.022718      -163.8865
  99   2.0000      -6.020824      -163.8349
 100   2.0000      -6.019073      -163.7873
 101   2.0000      -1.125310       -30.6212
 102   2.0000      -1.124644       -30.6031
 103   2.0000      -1.107368       -30.1330
 104   2.0000      -1.098515       -29.8921
 105   2.0000      -1.092466       -29.7275
 106   2.0000      -1.011257       -27.5177
 107   2.0000      -1.010598       -27.4998
 108   2.0000      -1.006575       -27.3903
 109   2.0000      -1.005069       -27.3493
 110   2.0000      -0.998682       -27.1755
 111   2.0000      -0.998522       -27.1712
 112   2.0000      -0.987190       -26.8628
 113   2.0000      -0.986544       -26.8452
 114   2.0000      -0.975146       -26.5351
 115   2.0000      -0.974769       -26.5248
 116   2.0000      -0.971167       -26.4268
 117   2.0000      -0.958189       -26.0737
 118   2.0000      -0.948884       -25.8205
 119   2.0000      -0.939668       -25.5697
 120   2.0000      -0.922213       -25.0947
 121   2.0000      -0.920849       -25.0576
 122   2.0000      -0.903944       -24.5976
 123   2.0000      -0.893552       -24.3148
 124   2.0000      -0.891630       -24.2625
 125   2.0000      -0.890007       -24.2183
 126   2.0000      -0.887773       -24.1575
 127   2.0000      -0.880881       -23.9700
 128   2.0000      -0.874193       -23.7880
 129   2.0000      -0.873387       -23.7661
 130   2.0000      -0.862865       -23.4797
 131   2.0000      -0.861114       -23.4321
 132   2.0000      -0.850379       -23.1400
 133   2.0000      -0.840787       -22.8790
 134   2.0000      -0.826306       -22.4849
 135   2.0000      -0.822820       -22.3901
 136   2.0000      -0.816681       -22.2230
 137   2.0000      -0.816292       -22.2124
 138   2.0000      -0.813604       -22.1393
 139   2.0000      -0.802152       -21.8277
 140   2.0000      -0.799644       -21.7594
 141   2.0000      -0.790949       -21.5228
 142   2.0000      -0.776584       -21.1319
 143   2.0000      -0.758443       -20.6383
 144   2.0000      -0.748529       -20.3685
 145   2.0000      -0.747868       -20.3505
 146   2.0000      -0.744751       -20.2657
 147   2.0000      -0.744188       -20.2504
 148   2.0000      -0.727268       -19.7900
 149   2.0000      -0.718698       -19.5568
 150   2.0000      -0.717398       -19.5214
 151   2.0000      -0.713028       -19.4025
 152   2.0000      -0.701907       -19.0999
 153   2.0000      -0.693232       -18.8638
 154   2.0000      -0.691191       -18.8083
 155   2.0000      -0.683344       -18.5947
 156   2.0000      -0.680073       -18.5057
 157   2.0000      -0.676802       -18.4167
 158   2.0000      -0.668726       -18.1970
 159   2.0000      -0.657246       -17.8846
 160   2.0000      -0.656379       -17.8610
 161   2.0000      -0.654929       -17.8215
 162   2.0000      -0.652624       -17.7588
 163   2.0000      -0.646492       -17.5919
 164   2.0000      -0.635375       -17.2894
 165   2.0000      -0.629094       -17.1185
 166   2.0000      -0.626641       -17.0518
 167   2.0000      -0.613224       -16.6867
 168   2.0000      -0.612515       -16.6674
 169   2.0000      -0.608757       -16.5651
 170   2.0000      -0.603678       -16.4269
 171   2.0000      -0.593074       -16.1384
 172   2.0000      -0.589961       -16.0537
 173   2.0000      -0.587804       -15.9950
 174   2.0000      -0.585277       -15.9262
 175   2.0000      -0.578119       -15.7314
 176   2.0000      -0.576793       -15.6953
 177   2.0000      -0.573001       -15.5922
 178   2.0000      -0.568481       -15.4692
 179   2.0000      -0.564891       -15.3715
 180   2.0000      -0.555948       -15.1281
 181   2.0000      -0.550077       -14.9684
 182   2.0000      -0.547037       -14.8856
 183   2.0000      -0.543051       -14.7772
 184   2.0000      -0.541201       -14.7268
 185   2.0000      -0.539309       -14.6753
 186   2.0000      -0.535804       -14.5800
 187   2.0000      -0.533197       -14.5090
 188   2.0000      -0.531597       -14.4655
 189   2.0000      -0.530042       -14.4232
 190   2.0000      -0.529642       -14.4123
 191   2.0000      -0.528514       -14.3816
 192   2.0000      -0.526968       -14.3395
 193   2.0000      -0.525648       -14.3036
 194   2.0000      -0.523220       -14.2375
 195   2.0000      -0.520060       -14.1515
 196   2.0000      -0.515998       -14.0410
 197   2.0000      -0.511665       -13.9231
 198   2.0000      -0.509950       -13.8764
 199   2.0000      -0.507799       -13.8179
 200   2.0000      -0.503974       -13.7138
 201   2.0000      -0.500043       -13.6069
 202   2.0000      -0.498944       -13.5769
 203   2.0000      -0.495502       -13.4833
 204   2.0000      -0.492495       -13.4015
 205   2.0000      -0.489838       -13.3292
 206   2.0000      -0.488809       -13.3012
 207   2.0000      -0.487442       -13.2640
 208   2.0000      -0.486934       -13.2502
 209   2.0000      -0.485350       -13.2071
 210   2.0000      -0.482784       -13.1372
 211   2.0000      -0.482086       -13.1182
 212   2.0000      -0.480885       -13.0856
 213   2.0000      -0.478309       -13.0154
 214   2.0000      -0.474409       -12.9093
 215   2.0000      -0.471814       -12.8387
 216   2.0000      -0.469501       -12.7758
 217   2.0000      -0.466798       -12.7022
 218   2.0000      -0.462813       -12.5938
 219   2.0000      -0.460933       -12.5426
 220   2.0000      -0.459445       -12.5021
 221   2.0000      -0.458747       -12.4831
 222   2.0000      -0.453281       -12.3344
 223   2.0000      -0.449951       -12.2438
 224   2.0000      -0.449319       -12.2266
 225   2.0000      -0.449035       -12.2189
 226   2.0000      -0.447871       -12.1872
 227   2.0000      -0.447619       -12.1803
 228   2.0000      -0.445857       -12.1324
 229   2.0000      -0.444352       -12.0914
 230   2.0000      -0.442461       -12.0400
 231   2.0000      -0.441237       -12.0067
 232   2.0000      -0.437219       -11.8973
 233   2.0000      -0.432531       -11.7698
 234   2.0000      -0.431147       -11.7321
 235   2.0000      -0.428978       -11.6731
 236   2.0000      -0.428095       -11.6491
 237   2.0000      -0.427062       -11.6210
 238   2.0000      -0.425307       -11.5732
 239   2.0000      -0.423706       -11.5296
 240   2.0000      -0.421889       -11.4802
 241   2.0000      -0.420575       -11.4444
 242   2.0000      -0.419424       -11.4131
 243   2.0000      -0.416669       -11.3381
 244   2.0000      -0.416128       -11.3234
 245   2.0000      -0.413747       -11.2586
 246   2.0000      -0.412117       -11.2143
 247   2.0000      -0.410334       -11.1658
 248   2.0000      -0.406091       -11.0503
 249   2.0000      -0.403958       -10.9923
 250   2.0000      -0.402533       -10.9535
 251   2.0000      -0.401511       -10.9257
 252   2.0000      -0.396141       -10.7795
 253   2.0000      -0.393726       -10.7138
 254   2.0000      -0.389676       -10.6036
 255   2.0000      -0.386239       -10.5101
 256   2.0000      -0.372258       -10.1297
 257   2.0000      -0.371136       -10.0991
 258   2.0000      -0.367873       -10.0103
 259   2.0000      -0.355946        -9.6858
 260   2.0000      -0.352731        -9.5983
 261   2.0000      -0.340990        -9.2788
 262   2.0000      -0.335374        -9.1260
 263   2.0000      -0.334689        -9.1073
 264   2.0000      -0.332855        -9.0575
 265   2.0000      -0.313272        -8.5246
 266   2.0000      -0.311284        -8.4705
 267   2.0000      -0.309440        -8.4203
 268   2.0000      -0.308279        -8.3887
 269   2.0000      -0.292790        -7.9672
 270   2.0000      -0.291924        -7.9436
 271   2.0000      -0.288226        -7.8430
 272   2.0000      -0.277885        -7.5616
 273   2.0000      -0.275476        -7.4961
 274   2.0000      -0.240587        -6.5467
 275   0.0000      -0.094397        -2.5687
 276   0.0000      -0.086409        -2.3513
 277   0.0000      -0.060565        -1.6481
 278   0.0000      -0.055174        -1.5014
 279   0.0000      -0.042638        -1.1602

MULLIKEN ATOMIC CHARGES
-----------------------
   0 C :    0.149869
   1 O :   -0.162631
   2 C :   -0.037438
   3 C :   -0.061303
   4 C :    0.106274
   5 C :   -0.103539
   6 C :   -0.018288
   7 C :    0.023835
   8 C :    0.255435
   9 C :   -0.320137
  10 C :   -0.159929
  11 N :    0.120768
  12 C :   -0.180755
  13 N :    0.125660
  14 C :   -0.080412
  15 C :    0.002025
  16 C :   -0.139997
  17 S :    0.136189
  18 C :   -0.034068
  19 C :   -0.131543
  20 C :   -0.011681
  21 C :    0.061896
  22 C :    0.007221
  23 S :    0.197805
  24 C :   -0.099640
  25 C :    0.036515
  26 N :   -0.193139
  27 C :    0.104332
  28 C :   -0.008843
  29 C :    0.037435
  30 C :   -0.025411
  31 C :   -0.009996
  32 N :   -0.263107
  33 S :    0.445643
  34 N :   -0.263666
  35 C :   -0.013361
  36 C :   -0.034895
  37 C :    0.060470
  38 N :   -0.193363
  39 C :    0.065965
  40 C :   -0.002933
  41 C :    0.061353
  42 C :   -0.092913
  43 S :    0.186066
  44 C :   -0.113070
  45 C :   -0.035174
  46 S :    0.141915
  47 C :   -0.147511
  48 C :   -0.000847
  49 C :    0.043633
  50 C :   -0.015170
  51 C :    0.033752
  52 C :   -0.127769
  53 C :    0.247799
  54 C :   -0.344787
  55 C :   -0.147134
  56 N :    0.123326
  57 C :   -0.182923
  58 N :    0.150448
  59 C :    0.005350
  60 C :   -0.026302
  61 C :   -0.097987
  62 C :    0.102443
  63 C :   -0.063652
  64 C :    0.000960
  65 C :    0.123270
  66 O :   -0.158174
  67 C :    0.018229
  68 C :   -0.064706
  69 S :    0.135450
  70 S :    0.137600
  71 C :   -0.064238
  72 C :    0.018786
  73 H :    0.050303
  74 H :    0.049635
  75 H :   -0.003244
  76 H :    0.000183
  77 H :    0.035804
  78 H :    0.026281
  79 H :    0.010957
  80 H :    0.023098
  81 H :    0.028088
  82 H :    0.017443
  83 H :   -0.008868
  84 H :    0.031222
  85 H :    0.039898
  86 H :    0.035192
  87 H :    0.044057
  88 H :    0.037581
  89 H :    0.045196
  90 H :    0.037511
  91 H :    0.035672
  92 H :    0.036482
  93 H :    0.038008
  94 H :    0.012818
  95 H :    0.037201
  96 H :    0.028279
  97 H :    0.026152
  98 H :    0.037730
  99 H :    0.003692
 100 H :   -0.002184
 101 H :    0.005717
 102 H :    0.004813
Sum of atomic charges:    0.0000000

LOEWDIN ATOMIC CHARGES
----------------------
   0 C :    0.084786
   1 O :   -0.148666
   2 C :   -0.054297
   3 C :    0.017749
   4 C :   -0.034249
   5 C :   -0.144729
   6 C :   -0.010956
   7 C :   -0.023932
   8 C :    0.080516
   9 C :   -0.146658
  10 C :   -0.011917
  11 N :   -0.062338
  12 C :   -0.021182
  13 N :   -0.061106
  14 C :   -0.105650
  15 C :    0.043620
  16 C :   -0.173790
  17 S :    0.418846
  18 C :   -0.196061
  19 C :   -0.188607
  20 C :   -0.002836
  21 C :   -0.034280
  22 C :   -0.051630
  23 S :    0.419260
  24 C :   -0.167778
  25 C :   -0.039252
  26 N :    0.014198
  27 C :    0.039681
  28 C :   -0.064222
  29 C :    0.011726
  30 C :   -0.071038
  31 C :   -0.053440
  32 N :   -0.275923
  33 S :    0.576051
  34 N :   -0.276751
  35 C :   -0.051014
  36 C :   -0.077792
  37 C :    0.014614
  38 N :    0.031324
  39 C :    0.037198
  40 C :   -0.069798
  41 C :   -0.036850
  42 C :   -0.168344
  43 S :    0.422665
  44 C :   -0.182365
  45 C :   -0.191826
  46 S :    0.429735
  47 C :   -0.179202
  48 C :   -0.012631
  49 C :   -0.033694
  50 C :   -0.055302
  51 C :    0.040120
  52 C :   -0.108425
  53 C :    0.068601
  54 C :   -0.146497
  55 C :   -0.015555
  56 N :   -0.061441
  57 C :   -0.017069
  58 N :   -0.051434
  59 C :   -0.019165
  60 C :   -0.015520
  61 C :   -0.143658
  62 C :   -0.036326
  63 C :    0.020398
  64 C :   -0.057868
  65 C :    0.086863
  66 O :   -0.152155
  67 C :   -0.060816
  68 C :   -0.153050
  69 S :    0.418211
  70 S :    0.418738
  71 C :   -0.152415
  72 C :   -0.061106
  73 H :    0.034694
  74 H :    0.034617
  75 H :    0.042666
  76 H :    0.042263
  77 H :    0.044796
  78 H :    0.034051
  79 H :    0.032324
  80 H :    0.028004
  81 H :    0.030132
  82 H :    0.024738
  83 H :    0.025145
  84 H :    0.026939
  85 H :    0.033675
  86 H :    0.037226
  87 H :    0.035892
  88 H :    0.031646
  89 H :    0.031960
  90 H :    0.028624
  91 H :    0.026823
  92 H :    0.038959
  93 H :    0.045779
  94 H :    0.032233
  95 H :    0.030496
  96 H :    0.020237
  97 H :    0.033392
  98 H :    0.046757
  99 H :    0.042689
 100 H :    0.043481
 101 H :    0.038897
 102 H :    0.038568

  Mayer bond orders larger than 0.100000
B(  0-C ,  1-O ) :   2.1744 B(  0-C ,  2-C ) :   0.9416 B(  0-C , 14-C ) :   0.9577
B(  2-C ,  3-C ) :   1.4388 B(  2-C ,  7-C ) :   1.2693 B(  3-C ,  4-C ) :   1.2435
B(  3-C , 75-H ) :   1.0075 B(  4-C ,  5-C ) :   1.3014 B(  4-C , 72-C ) :   1.1700
B(  5-C ,  6-C ) :   1.3281 B(  5-C , 70-S ) :   1.0962 B(  6-C ,  7-C ) :   1.4099
B(  6-C , 76-H ) :   0.9780 B(  7-C ,  8-C ) :   1.0099 B(  8-C ,  9-C ) :   1.6304
B(  8-C , 14-C ) :   1.0706 B(  9-C , 10-C ) :   1.1254 B(  9-C , 12-C ) :   1.1268
B( 10-C , 11-N ) :   2.9625 B( 12-C , 13-N ) :   2.9808 B( 14-C , 15-C ) :   1.5945
B( 15-C , 16-C ) :   1.1942 B( 15-C , 77-H ) :   0.9163 B( 16-C , 17-S ) :   1.0450
B( 16-C , 20-C ) :   1.4639 B( 17-S , 18-C ) :   1.0763 B( 18-C , 19-C ) :   1.4300
B( 18-C , 25-C ) :   1.2723 B( 19-C , 20-C ) :   1.3404 B( 19-C , 23-S ) :   1.0339
B( 20-C , 21-C ) :   1.0843 B( 21-C , 22-C ) :   1.0936 B( 21-C , 78-H ) :   0.9056
B( 21-C , 79-H ) :   0.9152 B( 22-C , 80-H ) :   0.9701 B( 22-C , 81-H ) :   0.9696
B( 22-C , 82-H ) :   0.9686 B( 23-S , 24-C ) :   1.0272 B( 24-C , 25-C ) :   1.4423
B( 24-C , 30-C ) :   1.3172 B( 25-C , 26-N ) :   1.1337 B( 26-N , 27-C ) :   0.9493
B( 26-N , 29-C ) :   1.1402 B( 27-C , 28-C ) :   1.1033 B( 27-C , 83-H ) :   0.9456
B( 27-C , 84-H ) :   0.9401 B( 28-C , 85-H ) :   0.9649 B( 28-C , 86-H ) :   0.9642
B( 28-C , 87-H ) :   0.9646 B( 29-C , 30-C ) :   1.4269 B( 29-C , 37-C ) :   1.1285
B( 30-C , 31-C ) :   1.0925 B( 31-C , 32-N ) :   1.6518 B( 31-C , 35-C ) :   1.1097
B( 32-N , 33-S ) :   1.1981 B( 32-N , 34-N ) :   0.1332 B( 33-S , 34-N ) :   1.1968
B( 34-N , 35-C ) :   1.6485 B( 35-C , 36-C ) :   1.1049 B( 36-C , 37-C ) :   1.3819
B( 36-C , 42-C ) :   1.3357 B( 37-C , 38-N ) :   1.1760 B( 38-N , 39-C ) :   0.9373
B( 38-N , 41-C ) :   1.1405 B( 39-C , 40-C ) :   1.0975 B( 39-C , 88-H ) :   0.9439
B( 39-C , 89-H ) :   0.9520 B( 40-C , 90-H ) :   0.9578 B( 40-C , 91-H ) :   0.9535
B( 40-C , 92-H ) :   0.9655 B( 41-C , 42-C ) :   1.4214 B( 41-C , 45-C ) :   1.2582
B( 42-C , 43-S ) :   1.0262 B( 43-S , 44-C ) :   1.0406 B( 44-C , 45-C ) :   1.4440
B( 44-C , 48-C ) :   1.3316 B( 45-C , 46-S ) :   1.0748 B( 46-S , 47-C ) :   1.0530
B( 47-C , 48-C ) :   1.4615 B( 47-C , 51-C ) :   1.1407 B( 48-C , 49-C ) :   1.0743
B( 49-C , 50-C ) :   1.0893 B( 49-C , 93-H ) :   0.9223 B( 49-C , 94-H ) :   0.9222
B( 50-C , 95-H ) :   0.9692 B( 50-C , 96-H ) :   0.9638 B( 50-C , 97-H ) :   0.9622
B( 51-C , 52-C ) :   1.6530 B( 51-C , 98-H ) :   0.9014 B( 52-C , 53-C ) :   1.0593
B( 52-C , 65-C ) :   0.9456 B( 53-C , 54-C ) :   1.6178 B( 53-C , 59-C ) :   1.0166
B( 54-C , 55-C ) :   1.1091 B( 54-C , 57-C ) :   1.1762 B( 55-C , 56-N ) :   2.9699
B( 57-C , 58-N ) :   2.9609 B( 59-C , 60-C ) :   1.4220 B( 59-C , 64-C ) :   1.2721
B( 60-C , 61-C ) :   1.3198 B( 60-C , 99-H ) :   0.9804 B( 61-C , 62-C ) :   1.3018
B( 61-C , 69-S ) :   1.0958 B( 62-C , 63-C ) :   1.2500 B( 62-C , 67-C ) :   1.1690
B( 63-C , 64-C ) :   1.4345 B( 63-C ,100-H ) :   1.0087 B( 64-C , 65-C ) :   0.9349
B( 65-C , 66-O ) :   2.2243 B( 67-C , 68-C ) :   1.6348 B( 67-C ,101-H ) :   0.9943
B( 68-C , 69-S ) :   1.1237 B( 68-C , 74-H ) :   0.9653 B( 70-S , 71-C ) :   1.1240
B( 71-C , 72-C ) :   1.6354 B( 71-C , 73-H ) :   0.9651 B( 72-C ,102-H ) :   0.9934

-----------------------------------------------------------------------------
         ABSORPTION SPECTRUM VIA TRANSITION ELECTRIC DIPOLE MOMENTS
-----------------------------------------------------------------------------
State   Energy  Wavelength   fosc         T2         TX        TY        TZ
        (cm-1)    (nm)                  (au**2)     (au)      (au)      (au)
-----------------------------------------------------------------------------
   0   17251.2    579.7   2.344992327  44.75056   0.08904  -6.68651  -0.18228
   1   20063.0    498.4   0.293584337   4.81740  -0.39587   0.76505  -2.01876
   2   24960.2    400.6   0.079175889   1.04429  -0.14543   0.75090  -0.67770
   3   25118.3    398.1   0.130982694   1.71672  -0.21412  -0.95868  -0.86707
   4   26025.6    384.2   0.110909986   1.40296  -0.07365  -0.97191  -0.67300
   5   26329.5    379.8   0.060304660   0.75402   0.44675  -0.01443   0.74447
   6   26794.7    373.2   0.043647873   0.53628  -0.29495   0.40803   0.53178
   7   27040.4    369.8   0.060499848   0.73657  -0.14890  -0.12374   0.83612
   8   27807.7    359.6   0.198415600   2.34901  -0.49243   1.43230   0.23463
   9   28054.7    356.4   0.233274501   2.73739   1.32620   0.65937   0.73743
  10   28890.6    346.1   0.130285884   1.48463   0.12073  -1.20205  -0.15850
  11   29747.1    336.2   0.076358346   0.84506   0.75988   0.42971   0.28808
  12   29902.3    334.4   0.117821806   1.29717  -0.41556   0.82274   0.66902
  13   30179.9    331.3   0.094921835   1.03544  -0.87980   0.34742  -0.37510
  14   30553.7    327.3   0.179790251   1.93721  -0.37649   1.03869  -0.84652
  15   31064.8    321.9   0.015598962   0.16531   0.08092  -0.38983  -0.08243
  16   31216.2    320.3   0.017127143   0.18063   0.28015   0.18044   0.26378
  17   33029.7    302.8   0.274698672   2.73796  -1.17691  -0.97065  -0.64084
  18   33126.9    301.9   0.139139627   1.38276  -0.76481   0.76365   0.46331
  19   33605.1    297.6   0.415717348   4.07257  -1.48261   1.27960   0.48689
  20   33685.9    296.9   0.193629903   1.89235   0.49625  -0.42196  -1.21162
  21   33823.3    295.7   0.137955152   1.34276  -0.40648   0.02220  -1.08491
  22   34079.9    293.4   0.433740444   4.18994   1.22912   1.53886   0.55776
  23   34376.1    290.9   0.020625471   0.19753   0.23535   0.09262   0.36545
  24   34579.4    289.2   0.043491976   0.41406  -0.06121  -0.33447  -0.54630
  25   34769.0    287.6   0.010334183   0.09785   0.10367   0.04834   0.29115
  26   34983.6    285.8   0.021641726   0.20366  -0.31129   0.32674  -0.00052
  27   35222.5    283.9   0.020552883   0.19210  -0.10134   0.37190  -0.20862
  28   35510.2    281.6   0.041474117   0.38450  -0.10951  -0.59351   0.14234
  29   36450.3    274.3   0.151685344   1.36999   0.01528  -1.16052  -0.15151
  30   36672.9    272.7   0.021912288   0.19671   0.15162   0.20717  -0.36166
  31   36846.4    271.4   0.087182363   0.77895   0.27124   0.69234  -0.47544
  32   36919.4    270.9   0.005986265   0.05338  -0.00984  -0.21450   0.08527
  33   37947.3    263.5   0.104896826   0.91003   0.17084   0.06797   0.93607
  34   38068.4    262.7   0.019984448   0.17282   0.40422  -0.09604   0.01424
  35   38359.3    260.7   0.045926994   0.39416   0.08390   0.45318  -0.42632
  36   38601.5    259.1   0.136994553   1.16836  -0.42486   0.69146  -0.71396
  37   38881.4    257.2   0.218815049   1.85273   0.74869   0.48274  -1.02915
  38   39163.4    255.3   0.043464889   0.36537  -0.33189   0.07676  -0.49933
  39   39566.9    252.7   0.005184412   0.04314  -0.02870   0.05669  -0.19774
  40   39907.2    250.6   0.026428690   0.21802  -0.05398  -0.05626  -0.46037

FINAL SINGLE POINT ENERGY     -5523.466007500807

DIPOLE MOMENT
-------------
                                X             Y             Z
Electronic contribution:      3.40450       0.41976      -7.69457
Nuclear contribution   :     -0.45389       0.08694       7.72422
                        -----------------------------------------
Total Dipole Moment    :      2.95061       0.50670       0.02965
                        -----------------------------------------
Magnitude (a.u.)       :      2.99395
Magnitude (Debye)      :      7.61001

Rotational constants in cm-1:     0.001982     0.000202     0.000192
Rotational constants in MHz :    59.407612     6.064395     5.760381

                             ****ORCA TERMINATED NORMALLY****
TOTAL RUN TIME: 0 days 1 hours 4 minutes 19 seconds 474 msec
