                         Program Version 4.2.0 -  RELEASE  -
|  1> # ORCA input file
|  2> # CH1007.out
|  3> ! CAM-B3LYP def2-SVP def2/J RIJCOSX Grid4 TightSCF
|  4> %maxcore 5000
|  5> %tddft
|  6>     Mode sTDDFT
|  7>     Ethresh 5.0
|  8>     maxcore 5000
|  9> end
| 10> * xyz 0 1
| 11>    C        5.54516         2.90251        -1.76395
| 12>    O        6.65977         2.39299        -1.76954
| 13>    C        5.01277         3.82663        -2.78320
| 14>    C        5.62726         4.30199        -3.92398
| 15>    C        4.90344         5.16802        -4.72857
| 16>    F        5.45905         5.65451        -5.84548
| 17>    C        3.60299         5.53633        -4.38620
| 18>    F        2.92654         6.37230        -5.18240
| 19>    C        2.98687         5.05872        -3.23759
| 20>    C        3.70333         4.19385        -2.42704
| 21>    C        3.35343         3.52334        -1.17134
| 22>    C        2.14910         3.64487        -0.52564
| 23>    C        1.79043         3.00320         0.67802
| 24>    N        1.41519         2.52056         1.65117
| 25>    C        1.08122         4.44332        -0.98705
| 26>    N        0.17336         5.07104        -1.30213
| 27>    C        4.49779         2.73225        -0.77436
| 28>    C        4.57918         1.94862         0.36100
| 29>    C        5.59666         1.12882         0.84274
| 30>   Se        7.30024         0.83239         0.03046
| 31>    C        7.64617        -0.34213         1.43672
| 32>    C        6.55488        -0.40724         2.32700
| 33>    C        5.45329         0.37967         2.03045
| 34>    C        4.22597         0.34706         2.88427
| 35>    C        3.20760        -0.65614         2.33489
| 36>    S        6.79986        -1.51781         3.66768
| 37>    C        8.35701        -1.89483         3.02850
| 38>    C        8.67094        -1.19206         1.85866
| 39>    N        9.91742        -1.55674         1.41803
| 40>    C       10.32738        -1.21168         0.07548
| 41>    C       10.33093        -2.42984        -0.84348
| 42>    C       10.41534        -2.50956         2.28519
| 43>    C        9.43213        -2.74973         3.29566
| 44>    C        9.58103        -3.76914         4.25968
| 45>    N        8.75477        -4.12446         5.23181
| 46>    S        9.36906        -5.41788         5.98388
| 47>    N       10.71504        -5.57873         5.10072
| 48>    C       10.73137        -4.61904         4.18797
| 49>    C       11.73356        -4.33291         3.23822
| 50>    C       11.63582        -3.22973         2.33368
| 51>    N       12.82933        -3.13445         1.60182
| 52>    C       13.40109        -2.01295         0.88201
| 53>    C       13.45225        -0.76264         1.75289
| 54>    C       13.60812        -4.16580         1.98925
| 55>    C       12.95861        -4.94128         2.95394
| 56>    S       16.50450        -3.59119         0.06649
| 57>    C       16.02416        -4.83459         1.06862
| 58>    C       14.84468        -4.84323         1.77091
| 59>   Se       14.46333        -6.10319         3.26037
| 60>    C       15.97093        -7.13001         0.96213
| 61>    C       16.77616        -6.11911         1.17998
| 62>    C       18.22526        -6.13081         1.52313
| 63>    C       18.80471        -7.53758         1.53557
| 64>    C       14.98845        -7.83661         0.47071
| 65>    C       13.78776        -8.29624         1.23989
| 66>    C       13.26114        -9.71747         0.96880
| 67>    C       13.81236       -10.92998         1.18414
| 68>    C       13.14335       -12.12596         0.83523
| 69>    N       12.59230       -13.08776         0.54706
| 70>    C       15.09750       -11.03302         1.76739
| 71>    N       16.14262       -11.07661         2.23436
| 72>    C       12.03163        -9.17653         0.42274
| 73>    C       10.80625        -9.48760        -0.13502
| 74>    C       10.02296        -8.38690        -0.46697
| 75>    F        8.81596        -8.59050        -1.00456
| 76>    C       10.44727        -7.06938        -0.26309
| 77>    F        9.63578        -6.06261        -0.60756
| 78>    C       11.68962        -6.75909         0.29539
| 79>    C       12.44533        -7.84763         0.62734
| 80>    C       13.73726        -7.94416         2.68454
| 81>    O       13.26450        -8.55868         3.57753
| 82>    H        6.63286         4.01362        -4.18530
| 83>    H        1.98021         5.37540        -3.01972
| 84>    H        3.69900         1.95991         0.99005
| 85>    H        3.76361         1.33261         2.95291
| 86>    H        4.51808         0.03867         3.89048
| 87>    H        2.90075        -0.38355         1.32774
| 88>    H        2.32679        -0.66916         2.97017
| 89>    H        3.63682        -1.65509         2.30963
| 90>    H        9.59541        -0.48526        -0.29696
| 91>    H       11.29561        -0.71025         0.08606
| 92>    H        9.33680        -2.86887        -0.88894
| 93>    H       11.02003        -3.19225        -0.48798
| 94>    H       10.62391        -2.13307        -1.84672
| 95>    H       12.86303        -1.83552        -0.04899
| 96>    H       14.41956        -2.31566         0.61524
| 97>    H       12.46011        -0.46446         2.08532
| 98>    H       13.89606         0.05428         1.19073
| 99>    H       14.06522        -0.94746         2.63224
|100>    H       18.35906        -5.65265         2.49898
|101>    H       18.74095        -5.50516         0.78813
|102>    H       18.28411        -8.16059         2.26023
|103>    H       19.85868        -7.50769         1.79821
|104>    H       18.70355        -7.99921         0.55606
|105>    H       14.97401        -8.10619        -0.57885
|106>    H       10.45099       -10.49012        -0.30907
|107>    H       11.98891        -5.73379         0.43458
|108> *
|109>
|110>                          ****END OF INPUT****

CARTESIAN COORDINATES (ANGSTROEM)
---------------------------------
  C      5.545160    2.902510   -1.763950
  O      6.659770    2.392990   -1.769540
  C      5.012770    3.826630   -2.783200
  C      5.627260    4.301990   -3.923980
  C      4.903440    5.168020   -4.728570
  F      5.459050    5.654510   -5.845480
  C      3.602990    5.536330   -4.386200
  F      2.926540    6.372300   -5.182400
  C      2.986870    5.058720   -3.237590
  C      3.703330    4.193850   -2.427040
  C      3.353430    3.523340   -1.171340
  C      2.149100    3.644870   -0.525640
  C      1.790430    3.003200    0.678020
  N      1.415190    2.520560    1.651170
  C      1.081220    4.443320   -0.987050
  N      0.173360    5.071040   -1.302130
  C      4.497790    2.732250   -0.774360
  C      4.579180    1.948620    0.361000
  C      5.596660    1.128820    0.842740
  Se     7.300240    0.832390    0.030460
  C      7.646170   -0.342130    1.436720
  C      6.554880   -0.407240    2.327000
  C      5.453290    0.379670    2.030450
  C      4.225970    0.347060    2.884270
  C      3.207600   -0.656140    2.334890
  S      6.799860   -1.517810    3.667680
  C      8.357010   -1.894830    3.028500
  C      8.670940   -1.192060    1.858660
  N      9.917420   -1.556740    1.418030
  C     10.327380   -1.211680    0.075480
  C     10.330930   -2.429840   -0.843480
  C     10.415340   -2.509560    2.285190
  C      9.432130   -2.749730    3.295660
  C      9.581030   -3.769140    4.259680
  N      8.754770   -4.124460    5.231810
  S      9.369060   -5.417880    5.983880
  N     10.715040   -5.578730    5.100720
  C     10.731370   -4.619040    4.187970
  C     11.733560   -4.332910    3.238220
  C     11.635820   -3.229730    2.333680
  N     12.829330   -3.134450    1.601820
  C     13.401090   -2.012950    0.882010
  C     13.452250   -0.762640    1.752890
  C     13.608120   -4.165800    1.989250
  C     12.958610   -4.941280    2.953940
  S     16.504500   -3.591190    0.066490
  C     16.024160   -4.834590    1.068620
  C     14.844680   -4.843230    1.770910
  Se    14.463330   -6.103190    3.260370
  C     15.970930   -7.130010    0.962130
  C     16.776160   -6.119110    1.179980
  C     18.225260   -6.130810    1.523130
  C     18.804710   -7.537580    1.535570
  C     14.988450   -7.836610    0.470710
  C     13.787760   -8.296240    1.239890
  C     13.261140   -9.717470    0.968800
  C     13.812360  -10.929980    1.184140
  C     13.143350  -12.125960    0.835230
  N     12.592300  -13.087760    0.547060
  C     15.097500  -11.033020    1.767390
  N     16.142620  -11.076610    2.234360
  C     12.031630   -9.176530    0.422740
  C     10.806250   -9.487600   -0.135020
  C     10.022960   -8.386900   -0.466970
  F      8.815960   -8.590500   -1.004560
  C     10.447270   -7.069380   -0.263090
  F      9.635780   -6.062610   -0.607560
  C     11.689620   -6.759090    0.295390
  C     12.445330   -7.847630    0.627340
  C     13.737260   -7.944160    2.684540
  O     13.264500   -8.558680    3.577530
  H      6.632860    4.013620   -4.185300
  H      1.980210    5.375400   -3.019720
  H      3.699000    1.959910    0.990050
  H      3.763610    1.332610    2.952910
  H      4.518080    0.038670    3.890480
  H      2.900750   -0.383550    1.327740
  H      2.326790   -0.669160    2.970170
  H      3.636820   -1.655090    2.309630
  H      9.595410   -0.485260   -0.296960
  H     11.295610   -0.710250    0.086060
  H      9.336800   -2.868870   -0.888940
  H     11.020030   -3.192250   -0.487980
  H     10.623910   -2.133070   -1.846720
  H     12.863030   -1.835520   -0.048990
  H     14.419560   -2.315660    0.615240
  H     12.460110   -0.464460    2.085320
  H     13.896060    0.054280    1.190730
  H     14.065220   -0.947460    2.632240
  H     18.359060   -5.652650    2.498980
  H     18.740950   -5.505160    0.788130
  H     18.284110   -8.160590    2.260230
  H     19.858680   -7.507690    1.798210
  H     18.703550   -7.999210    0.556060
  H     14.974010   -8.106190   -0.578850
  H     10.450990  -10.490120   -0.309070
  H     11.988910   -5.733790    0.434580

 Total Charge           Charge          ....    0
 Multiplicity           Mult            ....    1
 Number of Electrons    NEL             ....  562
 Basis Dimension        Dim             .... 1172

ORBITAL ENERGIES
----------------

  NO   OCC          E(Eh)            E(eV)
   0   2.0000    -454.012540    -12354.3093
   1   2.0000    -453.932896    -12352.1421
   2   2.0000     -89.017190     -2422.2809
   3   2.0000     -88.964933     -2420.8589
   4   2.0000     -88.861093     -2418.0333
   5   2.0000     -58.224573     -1584.3712
   6   2.0000     -58.146106     -1582.2360
   7   2.0000     -52.294244     -1422.9987
   8   2.0000     -52.293911     -1422.9897
   9   2.0000     -52.292899     -1422.9621
  10   2.0000     -52.216417     -1420.8809
  11   2.0000     -52.215092     -1420.8449
  12   2.0000     -52.214065     -1420.8169
  13   2.0000     -24.825757      -675.5432
  14   2.0000     -24.818590      -675.3482
  15   2.0000     -24.800910      -674.8671
  16   2.0000     -24.799114      -674.8182
  17   2.0000     -19.302127      -525.2376
  18   2.0000     -19.226225      -523.1722
  19   2.0000     -14.499281      -394.5455
  20   2.0000     -14.487767      -394.2322
  21   2.0000     -14.441457      -392.9720
  22   2.0000     -14.438319      -392.8866
  23   2.0000     -14.437625      -392.8677
  24   2.0000     -14.437404      -392.8617
  25   2.0000     -14.419774      -392.3820
  26   2.0000     -14.413266      -392.2049
  27   2.0000     -10.448949      -284.3304
  28   2.0000     -10.413354      -283.3618
  29   2.0000     -10.408327      -283.2250
  30   2.0000     -10.385321      -282.5989
  31   2.0000     -10.384831      -282.5856
  32   2.0000     -10.375534      -282.3326
  33   2.0000     -10.373068      -282.2655
  34   2.0000     -10.373010      -282.2640
  35   2.0000     -10.372208      -282.2421
  36   2.0000     -10.347566      -281.5716
  37   2.0000     -10.347088      -281.5586
  38   2.0000     -10.344179      -281.4794
  39   2.0000     -10.343545      -281.4622
  40   2.0000     -10.343051      -281.4487
  41   2.0000     -10.341170      -281.3975
  42   2.0000     -10.338923      -281.3364
  43   2.0000     -10.338116      -281.3144
  44   2.0000     -10.337204      -281.2896
  45   2.0000     -10.337065      -281.2858
  46   2.0000     -10.336632      -281.2740
  47   2.0000     -10.334921      -281.2275
  48   2.0000     -10.327762      -281.0327
  49   2.0000     -10.327016      -281.0124
  50   2.0000     -10.325703      -280.9767
  51   2.0000     -10.323166      -280.9076
  52   2.0000     -10.322304      -280.8842
  53   2.0000     -10.321449      -280.8609
  54   2.0000     -10.320798      -280.8432
  55   2.0000     -10.318747      -280.7874
  56   2.0000     -10.317035      -280.7408
  57   2.0000     -10.316761      -280.7333
  58   2.0000     -10.315322      -280.6942
  59   2.0000     -10.314667      -280.6764
  60   2.0000     -10.314494      -280.6717
  61   2.0000     -10.313972      -280.6574
  62   2.0000     -10.312578      -280.6195
  63   2.0000     -10.312482      -280.6169
  64   2.0000     -10.311141      -280.5804
  65   2.0000     -10.310707      -280.5686
  66   2.0000     -10.309902      -280.5467
  67   2.0000     -10.309095      -280.5247
  68   2.0000     -10.307305      -280.4760
  69   2.0000     -10.306815      -280.4627
  70   2.0000     -10.302025      -280.3324
  71   2.0000     -10.294375      -280.1242
  72   2.0000     -10.292010      -280.0598
  73   2.0000     -10.286154      -279.9005
  74   2.0000     -10.282835      -279.8102
  75   2.0000     -10.282560      -279.8027
  76   2.0000     -10.279103      -279.7086
  77   2.0000     -10.262677      -279.2616
  78   2.0000     -10.261899      -279.2405
  79   2.0000      -8.109381      -220.6675
  80   2.0000      -8.059150      -219.3006
  81   2.0000      -7.998355      -217.6463
  82   2.0000      -7.957146      -216.5249
  83   2.0000      -7.919939      -215.5125
  84   2.0000      -6.080849      -165.4683
  85   2.0000      -6.073166      -165.2592
  86   2.0000      -6.071096      -165.2029
  87   2.0000      -6.028959      -164.0563
  88   2.0000      -6.025008      -163.9488
  89   2.0000      -6.020176      -163.8173
  90   2.0000      -5.945241      -161.7782
  91   2.0000      -5.944037      -161.7455
  92   2.0000      -5.939066      -161.6102
  93   2.0000      -5.927413      -161.2931
  94   2.0000      -5.922296      -161.1539
  95   2.0000      -5.918351      -161.0465
  96   2.0000      -5.869511      -159.7175
  97   2.0000      -5.864792      -159.5891
  98   2.0000      -5.858809      -159.4263
  99   2.0000      -2.300196       -62.5915
 100   2.0000      -2.299963       -62.5852
 101   2.0000      -2.296106       -62.4802
 102   2.0000      -2.295021       -62.4507
 103   2.0000      -2.293722       -62.4153
 104   2.0000      -2.224277       -60.5257
 105   2.0000      -2.223362       -60.5007
 106   2.0000      -2.217945       -60.3534
 107   2.0000      -2.214174       -60.2508
 108   2.0000      -2.213601       -60.2351
 109   2.0000      -1.346904       -36.6511
 110   2.0000      -1.330055       -36.1926
 111   2.0000      -1.323596       -36.0169
 112   2.0000      -1.308373       -35.6026
 113   2.0000      -1.222625       -33.2693
 114   2.0000      -1.138553       -30.9816
 115   2.0000      -1.126050       -30.6414
 116   2.0000      -1.119256       -30.4565
 117   2.0000      -1.108700       -30.1693
 118   2.0000      -1.063258       -28.9327
 119   2.0000      -1.028922       -27.9984
 120   2.0000      -1.021598       -27.7991
 121   2.0000      -1.015409       -27.6307
 122   2.0000      -1.004207       -27.3259
 123   2.0000      -1.001705       -27.2578
 124   2.0000      -0.996489       -27.1158
 125   2.0000      -0.994561       -27.0634
 126   2.0000      -0.981896       -26.7187
 127   2.0000      -0.979042       -26.6411
 128   2.0000      -0.967356       -26.3231
 129   2.0000      -0.959125       -26.0991
 130   2.0000      -0.952064       -25.9070
 131   2.0000      -0.944368       -25.6976
 132   2.0000      -0.937364       -25.5070
 133   2.0000      -0.912200       -24.8222
 134   2.0000      -0.905330       -24.6353
 135   2.0000      -0.903289       -24.5797
 136   2.0000      -0.893938       -24.3253
 137   2.0000      -0.893104       -24.3026
 138   2.0000      -0.887059       -24.1381
 139   2.0000      -0.877833       -23.8871
 140   2.0000      -0.873807       -23.7775
 141   2.0000      -0.867332       -23.6013
 142   2.0000      -0.863034       -23.4844
 143   2.0000      -0.848293       -23.0832
 144   2.0000      -0.837470       -22.7887
 145   2.0000      -0.828988       -22.5579
 146   2.0000      -0.827596       -22.5200
 147   2.0000      -0.817258       -22.2387
 148   2.0000      -0.806662       -21.9504
 149   2.0000      -0.795851       -21.6562
 150   2.0000      -0.789350       -21.4793
 151   2.0000      -0.776507       -21.1298
 152   2.0000      -0.774126       -21.0650
 153   2.0000      -0.762679       -20.7535
 154   2.0000      -0.758544       -20.6410
 155   2.0000      -0.757871       -20.6227
 156   2.0000      -0.756427       -20.5834
 157   2.0000      -0.736547       -20.0425
 158   2.0000      -0.732171       -19.9234
 159   2.0000      -0.720886       -19.6163
 160   2.0000      -0.720533       -19.6067
 161   2.0000      -0.713235       -19.4081
 162   2.0000      -0.709904       -19.3175
 163   2.0000      -0.708708       -19.2849
 164   2.0000      -0.704035       -19.1578
 165   2.0000      -0.701101       -19.0779
 166   2.0000      -0.695466       -18.9246
 167   2.0000      -0.686592       -18.6831
 168   2.0000      -0.672146       -18.2900
 169   2.0000      -0.668179       -18.1821
 170   2.0000      -0.663057       -18.0427
 171   2.0000      -0.660779       -17.9807
 172   2.0000      -0.656779       -17.8719
 173   2.0000      -0.648890       -17.6572
 174   2.0000      -0.644154       -17.5283
 175   2.0000      -0.641069       -17.4444
 176   2.0000      -0.632977       -17.2242
 177   2.0000      -0.622727       -16.9453
 178   2.0000      -0.620333       -16.8801
 179   2.0000      -0.619106       -16.8467
 180   2.0000      -0.615187       -16.7401
 181   2.0000      -0.613442       -16.6926
 182   2.0000      -0.609823       -16.5941
 183   2.0000      -0.606654       -16.5079
 184   2.0000      -0.602283       -16.3889
 185   2.0000      -0.594188       -16.1687
 186   2.0000      -0.591691       -16.1007
 187   2.0000      -0.591279       -16.0895
 188   2.0000      -0.588803       -16.0221
 189   2.0000      -0.585146       -15.9226
 190   2.0000      -0.583185       -15.8693
 191   2.0000      -0.578763       -15.7490
 192   2.0000      -0.575560       -15.6618
 193   2.0000      -0.570240       -15.5170
 194   2.0000      -0.569477       -15.4963
 195   2.0000      -0.559983       -15.2379
 196   2.0000      -0.557197       -15.1621
 197   2.0000      -0.555748       -15.1227
 198   2.0000      -0.551583       -15.0093
 199   2.0000      -0.549047       -14.9403
 200   2.0000      -0.548687       -14.9305
 201   2.0000      -0.546449       -14.8696
 202   2.0000      -0.546215       -14.8633
 203   2.0000      -0.540425       -14.7057
 204   2.0000      -0.540053       -14.6956
 205   2.0000      -0.536819       -14.6076
 206   2.0000      -0.535419       -14.5695
 207   2.0000      -0.530598       -14.4383
 208   2.0000      -0.528705       -14.3868
 209   2.0000      -0.527195       -14.3457
 210   2.0000      -0.526871       -14.3369
 211   2.0000      -0.523208       -14.2372
 212   2.0000      -0.521600       -14.1935
 213   2.0000      -0.515544       -14.0287
 214   2.0000      -0.509756       -13.8712
 215   2.0000      -0.509411       -13.8618
 216   2.0000      -0.505955       -13.7677
 217   2.0000      -0.501349       -13.6424
 218   2.0000      -0.498102       -13.5540
 219   2.0000      -0.496888       -13.5210
 220   2.0000      -0.496124       -13.5002
 221   2.0000      -0.493930       -13.4405
 222   2.0000      -0.490982       -13.3603
 223   2.0000      -0.488980       -13.3058
 224   2.0000      -0.484990       -13.1973
 225   2.0000      -0.483487       -13.1564
 226   2.0000      -0.481576       -13.1043
 227   2.0000      -0.479461       -13.0468
 228   2.0000      -0.471330       -12.8255
 229   2.0000      -0.470077       -12.7915
 230   2.0000      -0.467610       -12.7243
 231   2.0000      -0.465418       -12.6647
 232   2.0000      -0.464823       -12.6485
 233   2.0000      -0.463454       -12.6112
 234   2.0000      -0.462459       -12.5841
 235   2.0000      -0.459872       -12.5138
 236   2.0000      -0.457786       -12.4570
 237   2.0000      -0.456590       -12.4244
 238   2.0000      -0.455265       -12.3884
 239   2.0000      -0.451699       -12.2914
 240   2.0000      -0.448947       -12.2165
 241   2.0000      -0.448608       -12.2072
 242   2.0000      -0.448490       -12.2040
 243   2.0000      -0.445745       -12.1293
 244   2.0000      -0.443138       -12.0584
 245   2.0000      -0.442581       -12.0432
 246   2.0000      -0.438184       -11.9236
 247   2.0000      -0.436441       -11.8762
 248   2.0000      -0.435287       -11.8448
 249   2.0000      -0.433561       -11.7978
 250   2.0000      -0.430322       -11.7097
 251   2.0000      -0.429387       -11.6842
 252   2.0000      -0.425588       -11.5808
 253   2.0000      -0.422230       -11.4895
 254   2.0000      -0.420313       -11.4373
 255   2.0000      -0.415806       -11.3147
 256   2.0000      -0.411256       -11.1908
 257   2.0000      -0.410557       -11.1718
 258   2.0000      -0.406489       -11.0611
 259   2.0000      -0.403511       -10.9801
 260   2.0000      -0.398915       -10.8550
 261   2.0000      -0.398014       -10.8305
 262   2.0000      -0.392948       -10.6927
 263   2.0000      -0.389944       -10.6109
 264   2.0000      -0.377654       -10.2765
 265   2.0000      -0.371684       -10.1140
 266   2.0000      -0.365698        -9.9511
 267   2.0000      -0.361607        -9.8398
 268   2.0000      -0.351801        -9.5730
 269   2.0000      -0.347380        -9.4527
 270   2.0000      -0.341194        -9.2844
 271   2.0000      -0.340940        -9.2774
 272   2.0000      -0.336040        -9.1441
 273   2.0000      -0.333041        -9.0625
 274   2.0000      -0.318568        -8.6687
 275   2.0000      -0.309362        -8.4182
 276   2.0000      -0.304568        -8.2877
 277   2.0000      -0.279831        -7.6146
 278   2.0000      -0.268454        -7.3050
 279   2.0000      -0.263393        -7.1673
 280   2.0000      -0.229867        -6.2550
 281   0.0000      -0.097066        -2.6413
 282   0.0000      -0.093660        -2.5486
 283   0.0000      -0.068190        -1.8555
 284   0.0000      -0.064532        -1.7560
 285   0.0000      -0.050096        -1.3632

MULLIKEN ATOMIC CHARGES
-----------------------
   0 C :    0.166849
   1 O :   -0.212023
   2 C :    0.002711
   3 C :   -0.104379
   4 C :    0.234034
   5 F :   -0.170564
   6 C :    0.232436
   7 F :   -0.166357
   8 C :   -0.087836
   9 C :    0.034368
  10 C :    0.322395
  11 C :   -0.357870
  12 C :   -0.184613
  13 N :    0.142809
  14 C :   -0.195321
  15 N :    0.152920
  16 C :   -0.102920
  17 C :   -0.026566
  18 C :   -0.104562
  19 Se:    0.269474
  20 C :   -0.097738
  21 C :   -0.108100
  22 C :   -0.069679
  23 C :    0.045152
  24 C :    0.036265
  25 S :    0.179276
  26 C :   -0.082424
  27 C :    0.051344
  28 N :   -0.171816
  29 C :    0.104682
  30 C :    0.006149
  31 C :    0.054249
  32 C :   -0.061943
  33 C :    0.006798
  34 N :   -0.264818
  35 S :    0.476813
  36 N :   -0.252512
  37 C :   -0.006924
  38 C :   -0.031175
  39 C :    0.026026
  40 N :   -0.169501
  41 C :    0.105930
  42 C :   -0.001345
  43 C :    0.186052
  44 C :   -0.249997
  45 S :   -0.251839
  46 C :   -0.056015
  47 C :   -0.185746
  48 Se:    0.478325
  49 C :    0.123013
  50 C :   -0.187388
  51 C :    0.102350
  52 C :    0.018904
  53 C :   -0.070275
  54 C :   -0.069961
  55 C :    0.159236
  56 C :   -0.270447
  57 C :   -0.192284
  58 N :    0.191005
  59 C :   -0.207170
  60 N :    0.192366
  61 C :    0.079870
  62 C :   -0.099247
  63 C :    0.230966
  64 F :   -0.165918
  65 C :    0.231620
  66 F :   -0.162442
  67 C :   -0.094611
  68 C :    0.094135
  69 C :    0.055512
  70 O :   -0.067940
  71 H :    0.006472
  72 H :    0.015268
  73 H :   -0.013739
  74 H :    0.036939
  75 H :    0.014429
  76 H :    0.013224
  77 H :    0.034822
  78 H :    0.013633
  79 H :    0.028636
  80 H :    0.025406
  81 H :    0.033668
  82 H :    0.020572
  83 H :    0.033273
  84 H :    0.015732
  85 H :    0.026489
  86 H :    0.025136
  87 H :    0.035075
  88 H :    0.028263
  89 H :    0.018608
  90 H :    0.039615
  91 H :    0.019518
  92 H :    0.021015
  93 H :    0.021061
  94 H :    0.030455
  95 H :    0.022671
  96 H :    0.001991
Sum of atomic charges:   -0.0000000

LOEWDIN ATOMIC CHARGES
----------------------
   0 C :    0.090819
   1 O :   -0.168963
   2 C :   -0.043034
   3 C :   -0.007730
   4 C :    0.068471
   5 F :   -0.047386
   6 C :    0.072187
   7 F :   -0.044685
   8 C :   -0.017838
   9 C :   -0.013131
  10 C :    0.078895
  11 C :   -0.149059
  12 C :   -0.018178
  13 N :   -0.058659
  14 C :   -0.021079
  15 N :   -0.054450
  16 C :   -0.130908
  17 C :    0.059966
  18 C :   -0.172733
  19 Se:    0.407696
  20 C :   -0.173725
  21 C :   -0.195002
  22 C :   -0.000846
  23 C :   -0.031222
  24 C :   -0.041241
  25 S :    0.421982
  26 C :   -0.164213
  27 C :   -0.046022
  28 N :    0.041715
  29 C :    0.041649
  30 C :   -0.059282
  31 C :    0.019456
  32 C :   -0.088315
  33 C :   -0.050701
  34 N :   -0.288211
  35 S :    0.610824
  36 N :   -0.284459
  37 C :   -0.064571
  38 C :   -0.053817
  39 C :   -0.015646
  40 N :    0.053408
  41 C :    0.033371
  42 C :   -0.060040
  43 C :   -0.000172
  44 C :   -0.207761
  45 S :   -0.109783
  46 C :   -0.163110
  47 C :   -0.216523
  48 Se:    0.707499
  49 C :   -0.010652
  50 C :   -0.037791
  51 C :   -0.022779
  52 C :   -0.052264
  53 C :   -0.066264
  54 C :   -0.051538
  55 C :    0.087310
  56 C :   -0.114118
  57 C :   -0.023373
  58 N :   -0.023686
  59 C :   -0.024278
  60 N :   -0.025251
  61 C :   -0.023109
  62 C :   -0.006357
  63 C :    0.070074
  64 F :   -0.042342
  65 C :    0.086020
  66 F :   -0.039381
  67 C :   -0.024990
  68 C :    0.021827
  69 C :    0.028757
  70 O :   -0.045081
  71 H :    0.050288
  72 H :    0.051521
  73 H :    0.046572
  74 H :    0.036947
  75 H :    0.029499
  76 H :    0.023859
  77 H :    0.033516
  78 H :    0.024225
  79 H :    0.030149
  80 H :    0.025250
  81 H :    0.035482
  82 H :    0.020688
  83 H :    0.036320
  84 H :    0.020255
  85 H :    0.012878
  86 H :    0.022444
  87 H :    0.037609
  88 H :    0.033820
  89 H :    0.037464
  90 H :    0.044323
  91 H :    0.026557
  92 H :    0.029230
  93 H :    0.028430
  94 H :    0.048198
  95 H :    0.056165
  96 H :    0.052139

  Mayer bond orders larger than 0.100000
B(  0-C ,  1-O ) :   2.0586 B(  0-C ,  2-C ) :   0.9751 B(  0-C , 16-C ) :   1.0131
B(  1-O , 19-Se) :   0.1357 B(  2-C ,  3-C ) :   1.3217 B(  2-C ,  9-C ) :   1.3431
B(  3-C ,  4-C ) :   1.3080 B(  3-C ,  8-C ) :   0.1041 B(  3-C , 71-H ) :   1.0211
B(  4-C ,  5-F ) :   1.1289 B(  4-C ,  6-C ) :   1.2995 B(  6-C ,  7-F ) :   1.1440
B(  6-C ,  8-C ) :   1.3267 B(  8-C ,  9-C ) :   1.3237 B(  8-C , 72-H ) :   0.9915
B(  9-C , 10-C ) :   0.9946 B( 10-C , 11-C ) :   1.6065 B( 10-C , 16-C ) :   1.1056
B( 11-C , 12-C ) :   1.1552 B( 11-C , 14-C ) :   1.1456 B( 12-C , 13-N ) :   2.9588
B( 14-C , 15-N ) :   2.9748 B( 16-C , 17-C ) :   1.4337 B( 17-C , 18-C ) :   1.3309
B( 17-C , 73-H ) :   0.9279 B( 18-C , 19-Se) :   1.0056 B( 18-C , 22-C ) :   1.3578
B( 19-Se, 20-C ) :   0.9980 B( 20-C , 21-C ) :   1.3833 B( 20-C , 27-C ) :   1.2846
B( 21-C , 22-C ) :   1.4354 B( 21-C , 25-S ) :   1.0169 B( 22-C , 23-C ) :   1.0724
B( 23-C , 24-C ) :   1.1020 B( 23-C , 74-H ) :   0.9051 B( 23-C , 75-H ) :   0.9213
B( 24-C , 76-H ) :   0.9692 B( 24-C , 77-H ) :   0.9663 B( 24-C , 78-H ) :   0.9658
B( 25-S , 26-C ) :   1.0290 B( 26-C , 27-C ) :   1.4037 B( 26-C , 32-C ) :   1.3504
B( 27-C , 28-N ) :   1.1276 B( 28-N , 29-C ) :   0.9528 B( 28-N , 31-C ) :   1.1830
B( 29-C , 30-C ) :   1.1152 B( 29-C , 79-H ) :   0.9366 B( 29-C , 80-H ) :   0.9391
B( 30-C , 81-H ) :   0.9596 B( 30-C , 82-H ) :   0.9635 B( 30-C , 83-H ) :   0.9618
B( 31-C , 32-C ) :   1.3679 B( 31-C , 39-C ) :   1.1628 B( 32-C , 33-C ) :   1.1108
B( 32-C , 38-C ) :   0.1054 B( 33-C , 34-N ) :   1.6210 B( 33-C , 37-C ) :   1.1377
B( 34-N , 35-S ) :   1.2270 B( 34-N , 36-N ) :   0.1320 B( 35-S , 36-N ) :   1.2333
B( 36-N , 37-C ) :   1.6445 B( 37-C , 38-C ) :   1.0961 B( 38-C , 39-C ) :   1.4152
B( 38-C , 44-C ) :   1.3799 B( 39-C , 40-N ) :   1.1034 B( 40-N , 41-C ) :   0.9269
B( 40-N , 43-C ) :   1.2606 B( 41-C , 42-C ) :   1.1175 B( 41-C , 84-H ) :   0.9388
B( 41-C , 85-H ) :   0.8907 B( 42-C , 86-H ) :   0.9618 B( 42-C , 87-H ) :   0.9652
B( 42-C , 88-H ) :   0.9609 B( 43-C , 44-C ) :   1.3352 B( 43-C , 47-C ) :   1.0122
B( 44-C , 48-Se) :   0.9322 B( 45-S , 46-C ) :   1.5103 B( 45-S , 47-C ) :   0.1001
B( 45-S , 85-H ) :   0.1637 B( 46-C , 47-C ) :   1.4491 B( 46-C , 50-C ) :   0.9236
B( 47-C , 48-Se) :   0.9400 B( 48-Se, 69-C ) :   0.8362 B( 49-C , 50-C ) :   1.7078
B( 49-C , 53-C ) :   1.7215 B( 50-C , 51-C ) :   1.0017 B( 51-C , 52-C ) :   1.1372
B( 51-C , 89-H ) :   0.9207 B( 51-C , 90-H ) :   0.9090 B( 52-C , 91-H ) :   0.9597
B( 52-C , 92-H ) :   0.9651 B( 52-C , 93-H ) :   0.9647 B( 53-C , 54-C ) :   0.9502
B( 53-C , 94-H ) :   0.9820 B( 54-C , 55-C ) :   0.8790 B( 54-C , 68-C ) :   0.9041
B( 54-C , 69-C ) :   0.7834 B( 55-C , 56-C ) :   1.7566 B( 55-C , 61-C ) :   1.0198
B( 56-C , 57-C ) :   1.1198 B( 56-C , 59-C ) :   1.1261 B( 57-C , 58-N ) :   3.0490
B( 59-C , 60-N ) :   3.0395 B( 61-C , 62-C ) :   1.2881 B( 61-C , 68-C ) :   1.3396
B( 62-C , 63-C ) :   1.3477 B( 62-C , 67-C ) :   0.1220 B( 62-C , 95-H ) :   1.0218
B( 63-C , 64-F ) :   1.1277 B( 63-C , 65-C ) :   1.2900 B( 65-C , 66-F ) :   1.1311
B( 65-C , 67-C ) :   1.3221 B( 67-C , 68-C ) :   1.3655 B( 67-C , 96-H ) :   1.0317
B( 69-C , 70-O ) :   2.2930

-----------------------------------------------------------------------------
         ABSORPTION SPECTRUM VIA TRANSITION ELECTRIC DIPOLE MOMENTS
-----------------------------------------------------------------------------
State   Energy  Wavelength   fosc         T2         TX        TY        TZ
        (cm-1)    (nm)                  (au**2)     (au)      (au)      (au)
-----------------------------------------------------------------------------
   0   14103.6    709.0   0.001530026   0.03571   0.04812   0.17719  -0.04474
   1   16101.6    621.1   1.055547864  21.58160   3.47280  -2.84985   1.18304
   2   16741.6    597.3   0.531323671  10.44811   2.24533  -2.09995   0.99841
   3   21199.7    471.7   0.011153027   0.17320   0.29872   0.03224  -0.28796
   4   21688.0    461.1   0.013265871   0.20137   0.11486   0.05611   0.43015
   5   22009.4    454.4   0.009202314   0.13765   0.32103   0.05288  -0.17830
   6   22824.8    438.1   0.110674557   1.59631   0.19349  -0.76092   0.98988
   7   23536.7    424.9   0.071525056   1.00044  -0.77908   0.02012   0.62694
   8   23707.9    421.8   0.086867144   1.20625   1.00966  -0.35494  -0.24668
   9   24487.5    408.4   0.232470829   3.12536  -0.51937   1.14545  -1.24240
  10   24844.1    402.5   0.003780387   0.05009   0.02777   0.22185   0.01022
  11   26147.9    382.4   0.000855765   0.01077   0.06955   0.07705  -0.00004
  12   27256.6    366.9   0.038267317   0.46220   0.42859  -0.45716  -0.26367
  13   28010.9    357.0   0.000841316   0.00989   0.02575   0.00515  -0.09591
  14   28115.7    355.7   0.018165685   0.21271   0.33292  -0.04819  -0.31551
  15   28651.2    349.0   0.000865753   0.00995   0.07271  -0.05467  -0.04090
  16   29452.9    339.5   0.035204654   0.39350   0.12473   0.35215  -0.50392
  17   30007.5    333.2   0.116701395   1.28033  -0.86042   0.00888   0.73480
  18   30254.6    330.5   0.084452946   0.91896   0.90493  -0.29137  -0.12319
  19   30380.2    329.2   0.086189163   0.93398   0.85325  -0.02625  -0.45305
  20   30887.8    323.8   0.038704613   0.41253  -0.15289  -0.23082   0.57955
  21   31123.1    321.3   0.010682772   0.11300   0.02009   0.28113  -0.18320
  22   31327.7    319.2   0.184512377   1.93898  -0.00360   0.92494  -1.04089
  23   31660.6    315.8   0.069444179   0.72209  -0.78769   0.21548   0.23494
  24   31969.5    312.8   0.013457305   0.13858   0.07846  -0.02470  -0.36306
  25   32253.1    310.0   0.026806617   0.27362   0.38709  -0.35007   0.03511
  26   32536.9    307.3   0.133951640   1.35534   0.58847   0.24190  -0.97495
  27   32982.3    303.2   0.019743639   0.19707  -0.01425   0.23413  -0.37689
  28   33003.4    303.0   0.110308228   1.10033  -0.00840  -0.64240   0.82920
  29   33081.1    302.3   0.004553893   0.04532   0.16392  -0.01125  -0.13536
  30   33654.5    297.1   0.001457290   0.01426   0.07620  -0.06329   0.06665
  31   33912.0    294.9   0.012746898   0.12374   0.13148  -0.32609   0.01110
  32   34359.1    291.0   0.246737697   2.36412   0.88243  -1.16854   0.46900
  33   34478.1    290.0   0.080210347   0.76588  -0.19432  -0.44934   0.72541
  34   34755.8    287.7   0.176220174   1.66918   0.51452  -1.17458   0.15755
  35   35136.1    284.6   0.040127724   0.37598  -0.23675  -0.45885   0.33074
  36   35157.6    284.4   0.035900529   0.33617  -0.21472   0.53789   0.02710
  37   35426.9    282.3   0.008824332   0.08200  -0.19950  -0.16782   0.11849
  38   35555.6    281.2   0.216947774   2.00874  -0.82966  -0.01209   1.14902
  39   35646.2    280.5   0.366408668   3.38398   1.62195  -0.05690  -0.86604
  40   36124.8    276.8   0.004524163   0.04123   0.12988   0.04929   0.14809
  41   36776.3    271.9   0.013541107   0.12122  -0.26892  -0.01564   0.22057
  42   37083.4    269.7   0.050028131   0.44413  -0.26850   0.59798   0.12021
  43   37203.3    268.8   0.090683300   0.80246  -0.50508   0.71227  -0.20006
  44   37552.9    266.3   0.097957551   0.85876   0.05271   0.54578  -0.74706
  45   37601.1    265.9   0.097755140   0.85588  -0.64277   0.57020  -0.34293
  46   37879.9    264.0   0.068750246   0.59750  -0.71567   0.03417   0.29008
  47   38081.7    262.6   0.055065700   0.47604  -0.15340  -0.19647   0.64335
  48   38274.8    261.3   0.138197262   1.18867   0.92111  -0.57705   0.08506
  49   38504.3    259.7   0.072140088   0.61680   0.73158  -0.12880  -0.25496
  50   38582.2    259.2   0.007241653   0.06179   0.19785   0.06348   0.13644
  51   38716.1    258.3   0.003157651   0.02685  -0.13708  -0.02881   0.08502
  52   39318.7    254.3   0.106222401   0.88939  -0.74797   0.16916   0.54892
  53   39592.9    252.6   0.028391418   0.23607   0.13883   0.12324  -0.44901
  54   39694.6    251.9   0.000559093   0.00464   0.06447   0.01326  -0.01744
  55   39882.4    250.7   0.022648492   0.18695  -0.13496   0.40703  -0.05535
  56   40113.5    249.3   0.004069029   0.03339   0.10455  -0.03896  -0.14472

FINAL SINGLE POINT ENERGY     -8978.000122654035

DIPOLE MOMENT
-------------
                                X             Y             Z
Electronic contribution:    -10.86311       2.23139       5.79107
Nuclear contribution   :     13.09535      -3.11091      -5.76826
                        -----------------------------------------
Total Dipole Moment    :      2.23224      -0.87951       0.02281
                        -----------------------------------------
Magnitude (a.u.)       :      2.39937
Magnitude (Debye)      :      6.09870

Rotational constants in cm-1:     0.001724     0.000334     0.000321
Rotational constants in MHz :    51.688977    10.010354     9.623701

                             ****ORCA TERMINATED NORMALLY****
TOTAL RUN TIME: 0 days 1 hours 11 minutes 42 seconds 459 msec
