                         Program Version 4.2.0 -  RELEASE  -
|  1> # ORCA input file
|  2> # CH1007.out
|  3> ! CAM-B3LYP def2-SVP def2/J RIJCOSX Grid4 TightSCF
|  4> %maxcore 5000
|  5> %tddft
|  6>     Mode sTDDFT
|  7>     Ethresh 5.0
|  8>     maxcore 5000
|  9> end
| 10> * xyz 0 1
| 11>   C      4.277649    0.555285    0.949728
| 12>   O      3.780347    0.948559    1.988019
| 13>   C      5.505862    1.108644    0.323662
| 14>   C      6.301227    2.142530    0.804676
| 15>   C      7.455812    2.446334    0.092022
| 16>   F      8.275921    3.410199    0.501904
| 17>   C      7.786160    1.725835   -1.070671
| 18>   F      8.916159    2.029803   -1.702401
| 19>   C      6.976125    0.705053   -1.561022
| 20>   C      5.814033    0.388037   -0.845570
| 21>   C      4.779040   -0.654190   -1.046719
| 22>   C      4.671667   -1.471674   -2.155763
| 23>   C      3.632900   -2.443564   -2.306936
| 24>   N      2.796377   -3.238895   -2.443216
| 25>   C      5.574081   -1.388540   -3.261583
| 26>   N      6.302594   -1.320719   -4.164483
| 27>   C      3.876881   -0.608089    0.105634
| 28>   C      3.014646   -1.608109    0.510990
| 29>   C      2.118026   -1.603872    1.614022
| 30>   Se     2.066066   -3.264844    2.602871
| 31>   C      1.055075   -2.352526    3.881217
| 32>   C      0.786087   -1.036853    3.450619
| 33>   C      1.317961   -0.617362    2.208580
| 34>   C      0.910246    0.705988    1.608621
| 35>   C      0.539547    0.659268    0.122277
| 36>   S     -0.105655   -0.083060    4.638098
| 37>   C     -0.083686   -1.445742    5.712832
| 38>   C      0.553595   -2.576296    5.184903
| 39>   N      0.512603   -3.615237    6.111295
| 40>   C      0.505075   -4.989305    5.597214
| 41>   C     -0.882311   -5.438519    5.148282
| 42>   C     -0.147576   -3.128114    7.256717
| 43>   C     -0.531936   -1.773855    7.007959
| 44>   C     -1.256233   -0.995704    7.965533
| 45>   N     -1.632601    0.271993    7.853030
| 46>   S     -2.456108    0.648660    9.239258
| 47>   N     -2.344952   -0.813336   10.010287
| 48>   C     -1.667340   -1.620174    9.203493
| 49>   C     -1.264204   -2.967857    9.462575
| 50>   C     -0.449564   -3.706110    8.542216
| 51>   N     -0.081933   -4.902641    9.164003
| 52>   C      0.925757   -5.881765    8.772719
| 53>   C      0.333640   -7.200756    8.277078
| 54>   C     -0.678880   -4.942689   10.414528
| 55>   C     -1.426104   -3.770832   10.607448
| 56>   S     -2.216188   -3.694377   12.150308
| 57>   C     -1.511916   -5.260411   12.575846
| 58>   C     -0.709915   -5.794224   11.541902
| 59>   Se     0.008425   -7.443381   12.041309
| 60>   C     -0.878151   -7.199825   13.733134
| 61>   C     -1.649914   -6.027826   13.759413
| 62>   C     -2.704190   -5.736641   14.798952
| 63>   C     -2.714394   -4.318747   15.381853
| 64>   C     -0.690383   -8.252968   14.670816
| 65>   C     -0.623671   -8.212877   16.049035
| 66>   C     -0.505815   -9.369964   16.939337
| 67>   C     -0.714979  -10.700288   16.621452
| 68>   C     -0.559450  -11.754048   17.575660
| 69>   N     -0.431463  -12.620851   18.339199
| 70>   C     -1.125352  -11.156505   15.328813
| 71>   N     -1.468016  -11.571334   14.298255
| 72>   C     -0.159993   -8.861174   18.289146
| 73>   C      0.071926   -9.514797   19.507691
| 74>   C      0.361126   -8.735626   20.624316
| 75>   F      0.591310   -9.319632   21.797646
| 76>   C      0.417844   -7.331135   20.555649
| 77>   F      0.682719   -6.647804   21.664620
| 78>   C      0.199893   -6.674636   19.349952
| 79>   C     -0.088094   -7.456028   18.237320
| 80>   C     -0.372044   -6.982613   16.858409
| 81>   O     -0.331059   -5.825516   16.487478
| 82>   H      6.040662    2.685733    1.714339
| 83>   H      7.292423    0.189519   -2.465224
| 84>   H      3.110396   -2.570525   -0.000200
| 85>   H      1.719812    1.430266    1.782810
| 86>   H      0.040941    1.071236    2.179055
| 87>   H      1.405822    0.427642   -0.512671
| 88>   H      0.139841    1.632961   -0.200496
| 89>   H     -0.229456   -0.103341   -0.073805
| 90>   H      0.918265   -5.671589    6.341902
| 91>   H      1.210577   -5.014505    4.753904
| 92>   H     -1.591506   -5.423765    5.990326
| 93>   H     -0.841802   -6.463204    4.747436
| 94>   H     -1.271709   -4.776990    4.359882
| 95>   H      1.563512   -6.065408    9.652634
| 96>   H      1.579484   -5.410041    8.029165
| 97>   H     -0.210211   -7.717148    9.082477
| 98>   H      1.135067   -7.868707    7.925192
| 99>   H     -0.375076   -7.042938    7.452118
|100>   H     -2.624312   -6.469908   15.608566
|101>   H     -3.674264   -5.931097   14.302442
|102>   H     -1.736761   -4.064685   15.809159
|103>   H     -3.466775   -4.250314   16.182420
|104>   H     -2.978837   -3.561527   14.629598
|105>   H     -0.503854   -9.227118   14.211611
|106>   H      0.041176  -10.595761   19.630565
|107>   H      0.249907   -5.586289   19.283172
|108> *
|109>
|110>                          ****END OF INPUT****

CARTESIAN COORDINATES (ANGSTROEM)
---------------------------------
  C      4.277649    0.555285    0.949728
  O      3.780347    0.948559    1.988019
  C      5.505862    1.108644    0.323662
  C      6.301227    2.142530    0.804676
  C      7.455812    2.446334    0.092022
  F      8.275921    3.410199    0.501904
  C      7.786160    1.725835   -1.070671
  F      8.916159    2.029803   -1.702401
  C      6.976125    0.705053   -1.561022
  C      5.814033    0.388037   -0.845570
  C      4.779040   -0.654190   -1.046719
  C      4.671667   -1.471674   -2.155763
  C      3.632900   -2.443564   -2.306936
  N      2.796377   -3.238895   -2.443216
  C      5.574081   -1.388540   -3.261583
  N      6.302594   -1.320719   -4.164483
  C      3.876881   -0.608089    0.105634
  C      3.014646   -1.608109    0.510990
  C      2.118026   -1.603872    1.614022
  Se     2.066066   -3.264844    2.602871
  C      1.055075   -2.352526    3.881217
  C      0.786087   -1.036853    3.450619
  C      1.317961   -0.617362    2.208580
  C      0.910246    0.705988    1.608621
  C      0.539547    0.659268    0.122277
  S     -0.105655   -0.083060    4.638098
  C     -0.083686   -1.445742    5.712832
  C      0.553595   -2.576296    5.184903
  N      0.512603   -3.615237    6.111295
  C      0.505075   -4.989305    5.597214
  C     -0.882311   -5.438519    5.148282
  C     -0.147576   -3.128114    7.256717
  C     -0.531936   -1.773855    7.007959
  C     -1.256233   -0.995704    7.965533
  N     -1.632601    0.271993    7.853030
  S     -2.456108    0.648660    9.239258
  N     -2.344952   -0.813336   10.010287
  C     -1.667340   -1.620174    9.203493
  C     -1.264204   -2.967857    9.462575
  C     -0.449564   -3.706110    8.542216
  N     -0.081933   -4.902641    9.164003
  C      0.925757   -5.881765    8.772719
  C      0.333640   -7.200756    8.277078
  C     -0.678880   -4.942689   10.414528
  C     -1.426104   -3.770832   10.607448
  S     -2.216188   -3.694377   12.150308
  C     -1.511916   -5.260411   12.575846
  C     -0.709915   -5.794224   11.541902
  Se     0.008425   -7.443381   12.041309
  C     -0.878151   -7.199825   13.733134
  C     -1.649914   -6.027826   13.759413
  C     -2.704190   -5.736641   14.798952
  C     -2.714394   -4.318747   15.381853
  C     -0.690383   -8.252968   14.670816
  C     -0.623671   -8.212877   16.049035
  C     -0.505815   -9.369964   16.939337
  C     -0.714979  -10.700288   16.621452
  C     -0.559450  -11.754048   17.575660
  N     -0.431463  -12.620851   18.339199
  C     -1.125352  -11.156505   15.328813
  N     -1.468016  -11.571334   14.298255
  C     -0.159993   -8.861174   18.289146
  C      0.071926   -9.514797   19.507691
  C      0.361126   -8.735626   20.624316
  F      0.591310   -9.319632   21.797646
  C      0.417844   -7.331135   20.555649
  F      0.682719   -6.647804   21.664620
  C      0.199893   -6.674636   19.349952
  C     -0.088094   -7.456028   18.237320
  C     -0.372044   -6.982613   16.858409
  O     -0.331059   -5.825516   16.487478
  H      6.040662    2.685733    1.714339
  H      7.292423    0.189519   -2.465224
  H      3.110396   -2.570525   -0.000200
  H      1.719812    1.430266    1.782810
  H      0.040941    1.071236    2.179055
  H      1.405822    0.427642   -0.512671
  H      0.139841    1.632961   -0.200496
  H     -0.229456   -0.103341   -0.073805
  H      0.918265   -5.671589    6.341902
  H      1.210577   -5.014505    4.753904
  H     -1.591506   -5.423765    5.990326
  H     -0.841802   -6.463204    4.747436
  H     -1.271709   -4.776990    4.359882
  H      1.563512   -6.065408    9.652634
  H      1.579484   -5.410041    8.029165
  H     -0.210211   -7.717148    9.082477
  H      1.135067   -7.868707    7.925192
  H     -0.375076   -7.042938    7.452118
  H     -2.624312   -6.469908   15.608566
  H     -3.674264   -5.931097   14.302442
  H     -1.736761   -4.064685   15.809159
  H     -3.466775   -4.250314   16.182420
  H     -2.978837   -3.561527   14.629598
  H     -0.503854   -9.227118   14.211611
  H      0.041176  -10.595761   19.630565
  H      0.249907   -5.586289   19.283172

 Total Charge           Charge          ....    0
 Multiplicity           Mult            ....    1
 Number of Electrons    NEL             ....  562
 Basis Dimension        Dim             .... 1172

ORBITAL ENERGIES
----------------

  NO   OCC          E(Eh)            E(eV)
   0   2.0000    -453.946422    -12352.5101
   1   2.0000    -453.945473    -12352.4843
   2   2.0000     -89.009535     -2422.0726
   3   2.0000     -88.969989     -2420.9965
   4   2.0000     -88.969797     -2420.9913
   5   2.0000     -58.160685     -1582.6327
   6   2.0000     -58.159947     -1582.6126
   7   2.0000     -52.230764     -1421.2714
   8   2.0000     -52.230026     -1421.2513
   9   2.0000     -52.229902     -1421.2479
  10   2.0000     -52.229182     -1421.2283
  11   2.0000     -52.228735     -1421.2161
  12   2.0000     -52.227959     -1421.1950
  13   2.0000     -24.806870      -675.0293
  14   2.0000     -24.806723      -675.0253
  15   2.0000     -24.804612      -674.9678
  16   2.0000     -24.804384      -674.9616
  17   2.0000     -19.225611      -523.1555
  18   2.0000     -19.224813      -523.1338
  19   2.0000     -14.493718      -394.3941
  20   2.0000     -14.488886      -394.2626
  21   2.0000     -14.442859      -393.0102
  22   2.0000     -14.441813      -392.9817
  23   2.0000     -14.426376      -392.5616
  24   2.0000     -14.425886      -392.5483
  25   2.0000     -14.425547      -392.5391
  26   2.0000     -14.424516      -392.5110
  27   2.0000     -10.390964      -282.7525
  28   2.0000     -10.390745      -282.7465
  29   2.0000     -10.389915      -282.7240
  30   2.0000     -10.389732      -282.7190
  31   2.0000     -10.377838      -282.3953
  32   2.0000     -10.377640      -282.3899
  33   2.0000     -10.355995      -281.8009
  34   2.0000     -10.354901      -281.7712
  35   2.0000     -10.354211      -281.7524
  36   2.0000     -10.353930      -281.7447
  37   2.0000     -10.351173      -281.6697
  38   2.0000     -10.349535      -281.6252
  39   2.0000     -10.346340      -281.5382
  40   2.0000     -10.342726      -281.4399
  41   2.0000     -10.333210      -281.1809
  42   2.0000     -10.332792      -281.1696
  43   2.0000     -10.331918      -281.1458
  44   2.0000     -10.331296      -281.1288
  45   2.0000     -10.331017      -281.1213
  46   2.0000     -10.329805      -281.0883
  47   2.0000     -10.329498      -281.0799
  48   2.0000     -10.329423      -281.0779
  49   2.0000     -10.329377      -281.0766
  50   2.0000     -10.329102      -281.0692
  51   2.0000     -10.329059      -281.0680
  52   2.0000     -10.328273      -281.0466
  53   2.0000     -10.323913      -280.9280
  54   2.0000     -10.323810      -280.9251
  55   2.0000     -10.322462      -280.8885
  56   2.0000     -10.322278      -280.8835
  57   2.0000     -10.319917      -280.8192
  58   2.0000     -10.317971      -280.7663
  59   2.0000     -10.317804      -280.7617
  60   2.0000     -10.316163      -280.7171
  61   2.0000     -10.314178      -280.6630
  62   2.0000     -10.314045      -280.6594
  63   2.0000     -10.313898      -280.6554
  64   2.0000     -10.313542      -280.6457
  65   2.0000     -10.313198      -280.6364
  66   2.0000     -10.312694      -280.6227
  67   2.0000     -10.308666      -280.5131
  68   2.0000     -10.307917      -280.4927
  69   2.0000     -10.307851      -280.4909
  70   2.0000     -10.307484      -280.4809
  71   2.0000     -10.302300      -280.3398
  72   2.0000     -10.300409      -280.2884
  73   2.0000     -10.296814      -280.1905
  74   2.0000     -10.291184      -280.0373
  75   2.0000     -10.284839      -279.8647
  76   2.0000     -10.280751      -279.7534
  77   2.0000     -10.267474      -279.3922
  78   2.0000     -10.261514      -279.2300
  79   2.0000      -8.101280      -220.4470
  80   2.0000      -8.063470      -219.4182
  81   2.0000      -8.063449      -219.4176
  82   2.0000      -7.934334      -215.9042
  83   2.0000      -7.933543      -215.8827
  84   2.0000      -6.072883      -165.2515
  85   2.0000      -6.065454      -165.0494
  86   2.0000      -6.062492      -164.9688
  87   2.0000      -6.033351      -164.1758
  88   2.0000      -6.033293      -164.1742
  89   2.0000      -6.029345      -164.0668
  90   2.0000      -6.029294      -164.0654
  91   2.0000      -6.024548      -163.9363
  92   2.0000      -6.024466      -163.9341
  93   2.0000      -5.883652      -160.1023
  94   2.0000      -5.882895      -160.0817
  95   2.0000      -5.879685      -159.9944
  96   2.0000      -5.878973      -159.9750
  97   2.0000      -5.873330      -159.8214
  98   2.0000      -5.872414      -159.7965
  99   2.0000      -2.238498       -60.9126
 100   2.0000      -2.237912       -60.8967
 101   2.0000      -2.237777       -60.8930
 102   2.0000      -2.237231       -60.8781
 103   2.0000      -2.232220       -60.7418
 104   2.0000      -2.231327       -60.7175
 105   2.0000      -2.229034       -60.6551
 106   2.0000      -2.228188       -60.6321
 107   2.0000      -2.228183       -60.6319
 108   2.0000      -2.227295       -60.6078
 109   2.0000      -1.332630       -36.2627
 110   2.0000      -1.332507       -36.2593
 111   2.0000      -1.316584       -35.8261
 112   2.0000      -1.316316       -35.8188
 113   2.0000      -1.137821       -30.9617
 114   2.0000      -1.137105       -30.9422
 115   2.0000      -1.112205       -30.2646
 116   2.0000      -1.103925       -30.0393
 117   2.0000      -1.097284       -29.8586
 118   2.0000      -1.019987       -27.7553
 119   2.0000      -1.019188       -27.7335
 120   2.0000      -1.001924       -27.2637
 121   2.0000      -1.001453       -27.2509
 122   2.0000      -1.000870       -27.2351
 123   2.0000      -0.999868       -27.2078
 124   2.0000      -0.995853       -27.0985
 125   2.0000      -0.995033       -27.0762
 126   2.0000      -0.976122       -26.5616
 127   2.0000      -0.963053       -26.2060
 128   2.0000      -0.959145       -26.0997
 129   2.0000      -0.956651       -26.0318
 130   2.0000      -0.945520       -25.7289
 131   2.0000      -0.938270       -25.5316
 132   2.0000      -0.911195       -24.7949
 133   2.0000      -0.903384       -24.5823
 134   2.0000      -0.900546       -24.5051
 135   2.0000      -0.892354       -24.2822
 136   2.0000      -0.885573       -24.0977
 137   2.0000      -0.884128       -24.0584
 138   2.0000      -0.880407       -23.9571
 139   2.0000      -0.877445       -23.8765
 140   2.0000      -0.874202       -23.7882
 141   2.0000      -0.873753       -23.7760
 142   2.0000      -0.854856       -23.2618
 143   2.0000      -0.847172       -23.0527
 144   2.0000      -0.830150       -22.5895
 145   2.0000      -0.829028       -22.5590
 146   2.0000      -0.822522       -22.3820
 147   2.0000      -0.812331       -22.1047
 148   2.0000      -0.800012       -21.7694
 149   2.0000      -0.792757       -21.5720
 150   2.0000      -0.787360       -21.4252
 151   2.0000      -0.772458       -21.0197
 152   2.0000      -0.772050       -21.0086
 153   2.0000      -0.765225       -20.8228
 154   2.0000      -0.755089       -20.5470
 155   2.0000      -0.753357       -20.4999
 156   2.0000      -0.743578       -20.2338
 157   2.0000      -0.731354       -19.9011
 158   2.0000      -0.725133       -19.7319
 159   2.0000      -0.715906       -19.4808
 160   2.0000      -0.711608       -19.3638
 161   2.0000      -0.708574       -19.2813
 162   2.0000      -0.707729       -19.2583
 163   2.0000      -0.701406       -19.0862
 164   2.0000      -0.697590       -18.9824
 165   2.0000      -0.690636       -18.7932
 166   2.0000      -0.681460       -18.5435
 167   2.0000      -0.670728       -18.2514
 168   2.0000      -0.665704       -18.1147
 169   2.0000      -0.664094       -18.0709
 170   2.0000      -0.659898       -17.9567
 171   2.0000      -0.653443       -17.7811
 172   2.0000      -0.645272       -17.5587
 173   2.0000      -0.644929       -17.5494
 174   2.0000      -0.640280       -17.4229
 175   2.0000      -0.635901       -17.3037
 176   2.0000      -0.630495       -17.1566
 177   2.0000      -0.617722       -16.8091
 178   2.0000      -0.616390       -16.7728
 179   2.0000      -0.612342       -16.6627
 180   2.0000      -0.606123       -16.4934
 181   2.0000      -0.598363       -16.2823
 182   2.0000      -0.596358       -16.2277
 183   2.0000      -0.594464       -16.1762
 184   2.0000      -0.594312       -16.1721
 185   2.0000      -0.593294       -16.1443
 186   2.0000      -0.586109       -15.9488
 187   2.0000      -0.580702       -15.8017
 188   2.0000      -0.578052       -15.7296
 189   2.0000      -0.574522       -15.6335
 190   2.0000      -0.568638       -15.4734
 191   2.0000      -0.558785       -15.2053
 192   2.0000      -0.556830       -15.1521
 193   2.0000      -0.555234       -15.1087
 194   2.0000      -0.555018       -15.1028
 195   2.0000      -0.554773       -15.0961
 196   2.0000      -0.552678       -15.0391
 197   2.0000      -0.552500       -15.0343
 198   2.0000      -0.547081       -14.8868
 199   2.0000      -0.546653       -14.8752
 200   2.0000      -0.542379       -14.7589
 201   2.0000      -0.538552       -14.6548
 202   2.0000      -0.537481       -14.6256
 203   2.0000      -0.536424       -14.5968
 204   2.0000      -0.534739       -14.5510
 205   2.0000      -0.533257       -14.5107
 206   2.0000      -0.532196       -14.4818
 207   2.0000      -0.529788       -14.4163
 208   2.0000      -0.527743       -14.3606
 209   2.0000      -0.523672       -14.2498
 210   2.0000      -0.521720       -14.1967
 211   2.0000      -0.513196       -13.9648
 212   2.0000      -0.512772       -13.9532
 213   2.0000      -0.505988       -13.7686
 214   2.0000      -0.504058       -13.7161
 215   2.0000      -0.501500       -13.6465
 216   2.0000      -0.499846       -13.6015
 217   2.0000      -0.499318       -13.5871
 218   2.0000      -0.495350       -13.4792
 219   2.0000      -0.494802       -13.4642
 220   2.0000      -0.494188       -13.4475
 221   2.0000      -0.492752       -13.4085
 222   2.0000      -0.489245       -13.3130
 223   2.0000      -0.485030       -13.1983
 224   2.0000      -0.482874       -13.1397
 225   2.0000      -0.481229       -13.0949
 226   2.0000      -0.478107       -13.0100
 227   2.0000      -0.471116       -12.8197
 228   2.0000      -0.467786       -12.7291
 229   2.0000      -0.465469       -12.6661
 230   2.0000      -0.461387       -12.5550
 231   2.0000      -0.460738       -12.5373
 232   2.0000      -0.459607       -12.5065
 233   2.0000      -0.459386       -12.5005
 234   2.0000      -0.457751       -12.4560
 235   2.0000      -0.456359       -12.4182
 236   2.0000      -0.455999       -12.4084
 237   2.0000      -0.455471       -12.3940
 238   2.0000      -0.455350       -12.3907
 239   2.0000      -0.451448       -12.2845
 240   2.0000      -0.450655       -12.2629
 241   2.0000      -0.449983       -12.2447
 242   2.0000      -0.448035       -12.1916
 243   2.0000      -0.444224       -12.0880
 244   2.0000      -0.441384       -12.0107
 245   2.0000      -0.433417       -11.7939
 246   2.0000      -0.430783       -11.7222
 247   2.0000      -0.430484       -11.7141
 248   2.0000      -0.428697       -11.6654
 249   2.0000      -0.427974       -11.6458
 250   2.0000      -0.426208       -11.5977
 251   2.0000      -0.423783       -11.5317
 252   2.0000      -0.422366       -11.4932
 253   2.0000      -0.417290       -11.3550
 254   2.0000      -0.416132       -11.3235
 255   2.0000      -0.414651       -11.2832
 256   2.0000      -0.412893       -11.2354
 257   2.0000      -0.408630       -11.1194
 258   2.0000      -0.407693       -11.0939
 259   2.0000      -0.405322       -11.0294
 260   2.0000      -0.403360       -10.9760
 261   2.0000      -0.398342       -10.8394
 262   2.0000      -0.395339       -10.7577
 263   2.0000      -0.394764       -10.7421
 264   2.0000      -0.373601       -10.1662
 265   2.0000      -0.364718        -9.9245
 266   2.0000      -0.358856        -9.7650
 267   2.0000      -0.354162        -9.6372
 268   2.0000      -0.351898        -9.5756
 269   2.0000      -0.347520        -9.4565
 270   2.0000      -0.347489        -9.4557
 271   2.0000      -0.342543        -9.3211
 272   2.0000      -0.333782        -9.0827
 273   2.0000      -0.322686        -8.7807
 274   2.0000      -0.319160        -8.6848
 275   2.0000      -0.312860        -8.5134
 276   2.0000      -0.310028        -8.4363
 277   2.0000      -0.290360        -7.9011
 278   2.0000      -0.282838        -7.6964
 279   2.0000      -0.280214        -7.6250
 280   2.0000      -0.245813        -6.6889
 281   0.0000      -0.102000        -2.7755
 282   0.0000      -0.093197        -2.5360
 283   0.0000      -0.071396        -1.9428
 284   0.0000      -0.067136        -1.8269
 285   0.0000      -0.050114        -1.3637

MULLIKEN ATOMIC CHARGES
-----------------------
   0 C :    0.146858
   1 O :   -0.154307
   2 C :   -0.021517
   3 C :   -0.099236
   4 C :    0.230056
   5 F :   -0.160829
   6 C :    0.225298
   7 F :   -0.157903
   8 C :   -0.090389
   9 C :    0.055356
  10 C :    0.239311
  11 C :   -0.306238
  12 C :   -0.182785
  13 N :    0.137945
  14 C :   -0.167814
  15 N :    0.134613
  16 C :   -0.097200
  17 C :    0.000773
  18 C :   -0.170917
  19 Se:    0.186435
  20 C :   -0.083526
  21 C :   -0.152969
  22 C :    0.038304
  23 C :    0.047878
  24 C :   -0.017531
  25 S :    0.195431
  26 C :   -0.092912
  27 C :    0.066123
  28 N :   -0.198097
  29 C :    0.095809
  30 C :   -0.012154
  31 C :    0.067439
  32 C :   -0.048398
  33 C :    0.006800
  34 N :   -0.264537
  35 S :    0.451271
  36 N :   -0.264565
  37 C :   -0.006225
  38 C :   -0.050844
  39 C :    0.057615
  40 N :   -0.195006
  41 C :    0.072209
  42 C :   -0.006923
  43 C :    0.081783
  44 C :   -0.088824
  45 S :    0.184984
  46 C :   -0.123296
  47 C :   -0.089566
  48 Se:    0.190045
  49 C :   -0.157671
  50 C :    0.012402
  51 C :    0.056023
  52 C :   -0.029590
  53 C :   -0.006319
  54 C :   -0.091472
  55 C :    0.253448
  56 C :   -0.317090
  57 C :   -0.167968
  58 N :    0.132286
  59 C :   -0.180832
  60 N :    0.135776
  61 C :    0.057000
  62 C :   -0.097248
  63 C :    0.228534
  64 F :   -0.158305
  65 C :    0.230185
  66 F :   -0.159610
  67 C :   -0.102527
  68 C :   -0.026618
  69 C :    0.139819
  70 O :   -0.148688
  71 H :    0.020574
  72 H :    0.023132
  73 H :    0.039513
  74 H :    0.054988
  75 H :    0.009119
  76 H :    0.027100
  77 H :    0.023975
  78 H :    0.028479
  79 H :    0.005434
  80 H :    0.026927
  81 H :    0.044097
  82 H :    0.037293
  83 H :    0.043527
  84 H :    0.040855
  85 H :    0.040465
  86 H :    0.037176
  87 H :    0.037756
  88 H :    0.028931
  89 H :    0.006503
  90 H :    0.035184
  91 H :    0.049602
  92 H :    0.019654
  93 H :    0.026916
  94 H :    0.037015
  95 H :    0.025477
  96 H :    0.020946
Sum of atomic charges:   -0.0000000

LOEWDIN ATOMIC CHARGES
----------------------
   0 C :    0.086858
   1 O :   -0.138164
   2 C :   -0.045027
   3 C :   -0.011776
   4 C :    0.067559
   5 F :   -0.037862
   6 C :    0.068667
   7 F :   -0.036861
   8 C :   -0.022434
   9 C :   -0.015996
  10 C :    0.077243
  11 C :   -0.138197
  12 C :   -0.019723
  13 N :   -0.053380
  14 C :   -0.014722
  15 N :   -0.052991
  16 C :   -0.107116
  17 C :    0.047803
  18 C :   -0.158022
  19 Se:    0.363874
  20 C :   -0.176133
  21 C :   -0.183792
  22 C :    0.003929
  23 C :   -0.037350
  24 C :   -0.054915
  25 S :    0.433720
  26 C :   -0.170932
  27 C :   -0.033843
  28 N :    0.015543
  29 C :    0.040066
  30 C :   -0.066111
  31 C :    0.012221
  32 C :   -0.072000
  33 C :   -0.054002
  34 N :   -0.275780
  35 S :    0.580613
  36 N :   -0.277400
  37 C :   -0.051949
  38 C :   -0.079710
  39 C :    0.016566
  40 N :    0.030994
  41 C :    0.037487
  42 C :   -0.071278
  43 C :   -0.035184
  44 C :   -0.170476
  45 S :    0.437753
  46 C :   -0.184143
  47 C :   -0.172576
  48 Se:    0.370279
  49 C :   -0.161839
  50 C :    0.004664
  51 C :   -0.029828
  52 C :   -0.061700
  53 C :    0.050162
  54 C :   -0.111029
  55 C :    0.077638
  56 C :   -0.139896
  57 C :   -0.013817
  58 N :   -0.054714
  59 C :   -0.020435
  60 N :   -0.054556
  61 C :   -0.015589
  62 C :   -0.023316
  63 C :    0.069478
  64 F :   -0.037447
  65 C :    0.067249
  66 F :   -0.037010
  67 C :   -0.012662
  68 C :   -0.045906
  69 C :    0.084443
  70 O :   -0.137891
  71 H :    0.054767
  72 H :    0.053186
  73 H :    0.045506
  74 H :    0.042909
  75 H :    0.025842
  76 H :    0.024299
  77 H :    0.031237
  78 H :    0.029435
  79 H :    0.024604
  80 H :    0.028552
  81 H :    0.031825
  82 H :    0.036963
  83 H :    0.037453
  84 H :    0.033373
  85 H :    0.030966
  86 H :    0.029434
  87 H :    0.038628
  88 H :    0.031166
  89 H :    0.030678
  90 H :    0.041959
  91 H :    0.032168
  92 H :    0.031157
  93 H :    0.013006
  94 H :    0.045076
  95 H :    0.053676
  96 H :    0.054807

  Mayer bond orders larger than 0.100000
B(  0-C ,  1-O ) :   2.1658 B(  0-C ,  2-C ) :   0.9577 B(  0-C , 16-C ) :   0.9672
B(  2-C ,  3-C ) :   1.3217 B(  2-C ,  9-C ) :   1.3500 B(  3-C ,  4-C ) :   1.3231
B(  3-C ,  8-C ) :   0.1030 B(  3-C , 71-H ) :   1.0119 B(  4-C ,  5-F ) :   1.1381
B(  4-C ,  6-C ) :   1.2778 B(  6-C ,  7-F ) :   1.1488 B(  6-C ,  8-C ) :   1.3533
B(  8-C ,  9-C ) :   1.3024 B(  8-C , 72-H ) :   0.9877 B(  9-C , 10-C ) :   1.0117
B( 10-C , 11-C ) :   1.6585 B( 10-C , 16-C ) :   1.0717 B( 11-C , 12-C ) :   1.1248
B( 11-C , 14-C ) :   1.1203 B( 12-C , 13-N ) :   2.9875 B( 14-C , 15-N ) :   2.9782
B( 16-C , 17-C ) :   1.5793 B( 17-C , 18-C ) :   1.2115 B( 17-C , 73-H ) :   0.9283
B( 18-C , 19-Se) :   0.9986 B( 18-C , 22-C ) :   1.4897 B( 19-Se, 20-C ) :   1.0520
B( 20-C , 21-C ) :   1.4350 B( 20-C , 27-C ) :   1.2557 B( 21-C , 22-C ) :   1.3312
B( 21-C , 25-S ) :   1.0437 B( 22-C , 23-C ) :   1.0625 B( 23-C , 24-C ) :   1.1040
B( 23-C , 74-H ) :   0.8926 B( 23-C , 75-H ) :   0.9251 B( 24-C , 76-H ) :   0.9678
B( 24-C , 77-H ) :   0.9658 B( 24-C , 78-H ) :   0.9725 B( 25-S , 26-C ) :   1.0375
B( 26-C , 27-C ) :   1.4315 B( 26-C , 32-C ) :   1.3310 B( 27-C , 28-N ) :   1.1263
B( 28-N , 29-C ) :   0.9590 B( 28-N , 31-C ) :   1.1420 B( 29-C , 30-C ) :   1.1054
B( 29-C , 79-H ) :   0.9440 B( 29-C , 80-H ) :   0.9408 B( 30-C , 81-H ) :   0.9603
B( 30-C , 82-H ) :   0.9637 B( 30-C , 83-H ) :   0.9614 B( 31-C , 32-C ) :   1.4178
B( 31-C , 39-C ) :   1.1224 B( 32-C , 33-C ) :   1.0986 B( 33-C , 34-N ) :   1.6410
B( 33-C , 37-C ) :   1.1177 B( 34-N , 35-S ) :   1.2000 B( 34-N , 36-N ) :   0.1353
B( 35-S , 36-N ) :   1.1982 B( 36-N , 37-C ) :   1.6431 B( 37-C , 38-C ) :   1.1100
B( 38-C , 39-C ) :   1.3821 B( 38-C , 44-C ) :   1.3434 B( 39-C , 40-N ) :   1.1749
B( 40-N , 41-C ) :   0.9407 B( 40-N , 43-C ) :   1.1275 B( 41-C , 42-C ) :   1.0976
B( 41-C , 84-H ) :   0.9430 B( 41-C , 85-H ) :   0.9523 B( 42-C , 86-H ) :   0.9550
B( 42-C , 87-H ) :   0.9628 B( 42-C , 88-H ) :   0.9618 B( 43-C , 44-C ) :   1.4154
B( 43-C , 47-C ) :   1.2576 B( 44-C , 45-S ) :   1.0317 B( 45-S , 46-C ) :   1.0438
B( 46-C , 47-C ) :   1.4297 B( 46-C , 50-C ) :   1.3183 B( 47-C , 48-Se) :   1.0538
B( 48-Se, 49-C ) :   1.0065 B( 49-C , 50-C ) :   1.5031 B( 49-C , 53-C ) :   1.1969
B( 50-C , 51-C ) :   1.0677 B( 51-C , 52-C ) :   1.0886 B( 51-C , 89-H ) :   0.9207
B( 51-C , 90-H ) :   0.9264 B( 52-C , 91-H ) :   0.9690 B( 52-C , 92-H ) :   0.9621
B( 52-C , 93-H ) :   0.9618 B( 53-C , 54-C ) :   1.5750 B( 53-C , 94-H ) :   0.9255
B( 54-C , 55-C ) :   1.0830 B( 54-C , 69-C ) :   0.9595 B( 55-C , 56-C ) :   1.6413
B( 55-C , 61-C ) :   1.0097 B( 56-C , 57-C ) :   1.1249 B( 56-C , 59-C ) :   1.1269
B( 57-C , 58-N ) :   2.9723 B( 59-C , 60-N ) :   2.9824 B( 61-C , 62-C ) :   1.2993
B( 61-C , 68-C ) :   1.3514 B( 62-C , 63-C ) :   1.3520 B( 62-C , 67-C ) :   0.1037
B( 62-C , 95-H ) :   0.9859 B( 63-C , 64-F ) :   1.1498 B( 63-C , 65-C ) :   1.2779
B( 65-C , 66-F ) :   1.1391 B( 65-C , 67-C ) :   1.3240 B( 67-C , 68-C ) :   1.3211
B( 67-C , 96-H ) :   1.0119 B( 68-C , 69-C ) :   0.9516 B( 69-C , 70-O ) :   2.1880

-----------------------------------------------------------------------------
         ABSORPTION SPECTRUM VIA TRANSITION ELECTRIC DIPOLE MOMENTS
-----------------------------------------------------------------------------
State   Energy  Wavelength   fosc         T2         TX        TY        TZ
        (cm-1)    (nm)                  (au**2)     (au)      (au)      (au)
-----------------------------------------------------------------------------
   0   16766.8    596.4   2.292290750  45.00859   1.63390   2.90096  -5.82438
   1   19784.0    505.5   0.329193721   5.47789  -1.83594   1.42592   0.27202
   2   23925.1    418.0   0.052321419   0.71995   0.27364   0.30738  -0.74201
   3   23994.5    416.8   0.093703748   1.28564  -0.72311   0.69084   0.53431
   4   24493.0    408.3   0.053606876   0.72053  -0.60733  -0.15588  -0.57217
   5   24679.2    405.2   0.100119413   1.33556  -0.37806  -0.77625   0.76815
   6   26003.2    384.6   0.004731089   0.05990   0.04409  -0.05571  -0.23420
   7   26290.3    380.4   0.060970345   0.76348   0.60889  -0.62647  -0.01635
   8   28054.3    356.5   0.030446890   0.35729   0.35342   0.23520  -0.42079
   9   28965.2    345.2   0.071754046   0.81554   0.38329  -0.79541  -0.18961
  10   30009.6    333.2   0.010825736   0.11876  -0.06374  -0.12288   0.31559
  11   30799.3    324.7   0.155875830   1.66615  -0.46160  -0.26585  -1.17575
  12   30891.0    323.7   0.102300126   1.09024   0.95174   0.40791   0.13428
  13   31193.2    320.6   0.117586719   1.24101  -0.28051  -1.07200  -0.11463
  14   31634.0    316.1   0.010163640   0.10577  -0.19067   0.19922   0.17242
  15   31763.1    314.8   0.033483407   0.34704   0.27059  -0.51452   0.09533
  16   31991.6    312.6   0.117115582   1.20519   0.09305  -0.18047  -1.07887
  17   32325.0    309.4   0.099176329   1.01006  -0.39955  -0.71419  -0.58340
  18   32715.7    305.7   0.000643456   0.00647   0.05306  -0.03421  -0.04989
  19   32799.8    304.9   0.080653344   0.80952   0.47623  -0.67536  -0.35582
  20   32991.8    303.1   0.054918162   0.54801  -0.07549   0.72015  -0.15391
  21   33809.8    295.8   0.038938565   0.37915   0.56564  -0.19955  -0.13923
  22   33975.2    294.3   0.144807939   1.40315  -0.18237  -0.88000   0.77168
  23   34086.8    293.4   0.140730204   1.35918   0.12387  -0.61346  -0.98362
  24   34670.8    288.4   0.019292390   0.18319  -0.15302  -0.24360   0.31691
  25   35186.6    284.2   0.113876509   1.06545  -0.40065  -0.08485   0.94749
  26   35580.7    281.1   0.076877385   0.71131  -0.05543  -0.31694   0.77961
  27   35710.6    280.0   0.011716017   0.10801   0.16331   0.19450   0.20859
  28   35785.5    279.4   0.062348765   0.57358  -0.23659  -0.45684  -0.55579
  29   36342.5    275.2   0.026867026   0.24338   0.26706  -0.37923  -0.16805
  30   36548.9    273.6   0.039495111   0.35575  -0.05578  -0.44379  -0.39458
  31   36625.8    273.0   0.052821974   0.47479   0.36650   0.46188   0.35656
  32   36893.8    271.0   0.526901198   4.70166   1.02671   1.46225   1.22855
  33   37228.3    268.6   0.363194046   3.21174   0.13968   1.48271   0.99689
  34   37500.9    266.7   0.006281795   0.05515  -0.19346   0.12276   0.05145
  35   37879.9    264.0   0.118981978   1.03407   0.12406   0.88671  -0.48210
  36   38077.2    262.6   0.312234942   2.69956  -0.11713   1.59170   0.39029
  37   38200.8    261.8   0.106517402   0.91796   0.26875  -0.03913  -0.91881
  38   38243.0    261.5   0.088479357   0.76167  -0.30248   0.61002   0.54594
  39   38500.4    259.7   0.098397625   0.84139   0.24193  -0.60690  -0.64384
  40   40004.1    250.0   0.004385071   0.03609  -0.17841   0.05984   0.02601
  41   40284.5    248.2   0.008316519   0.06796  -0.19127  -0.17631  -0.01713

FINAL SINGLE POINT ENERGY     -8978.223582072082

DIPOLE MOMENT
-------------
                                X             Y             Z
Electronic contribution:     31.53098     -19.40623       3.14630
Nuclear contribution   :    -31.82787      20.29941      -2.74322
                        -----------------------------------------
Total Dipole Moment    :     -0.29690       0.89318       0.40308
                        -----------------------------------------
Magnitude (a.u.)       :      1.02391
Magnitude (Debye)      :      2.60258

Rotational constants in cm-1:     0.001803     0.000222     0.000218
Rotational constants in MHz :    54.064781     6.643127     6.527228

                             ****ORCA TERMINATED NORMALLY****
TOTAL RUN TIME: 0 days 1 hours 3 minutes 51 seconds 173 msec
