                         Program Version 4.2.0 -  RELEASE  -
|  1> # ORCA input file
|  2> # CPDT-4F.out
|  3> ! CAM-B3LYP def2-SVP def2/J RIJCOSX Grid4 TightSCF
|  4> %maxcore 5000
|  5> %tddft
|  6>     Mode sTDDFT
|  7>     Ethresh 5.0
|  8>     maxcore 5000
|  9> end
| 10> * xyz 0 1
| 11>    C       -1.09716         4.47660         1.38562
| 12>    C       -2.18496         3.65483         1.64420
| 13>    C       -2.05078         2.27049         1.74858
| 14>    C       -0.81211         1.66834         1.59500
| 15>    C        0.26841         2.48690         1.33515
| 16>    C        0.14474         3.88220         1.22844
| 17>    C        1.67915         2.10418         1.11656
| 18>    C        2.39745         3.34921         0.84506
| 19>    C        1.46340         4.45108         0.93903
| 20>    C        3.72814         3.44919         0.50542
| 21>    C        4.69399         2.45909         0.31509
| 22>    C        5.98593         2.76845        -0.15161
| 23>    C        6.76186         1.65591        -0.36094
| 24>    C        6.08335         0.47228        -0.00399
| 25>    S        4.48482         0.72625         0.54035
| 26>    C        8.14677         1.34800        -0.88293
| 27>    C        8.14947        -0.15900        -0.76978
| 28>    C        6.93867        -0.61979        -0.24759
| 29>    C        9.01083        -1.18812        -1.11959
| 30>    C        8.47220        -2.43802        -0.85013
| 31>    S        6.87519        -2.33159        -0.13529
| 32>    C        9.01658        -3.70440        -1.17351
| 33>    S       10.36777        -3.82253        -2.28386
| 34>    C       10.24566        -5.53557        -2.24913
| 35>    C        9.24062        -5.98732        -1.39014
| 36>    C        8.54238        -4.95029        -0.79002
| 37>    C       10.83078        -6.64057        -2.89570
| 38>    C       10.20403        -7.81760        -2.44406
| 39>    C        9.14472        -7.49455        -1.41681
| 40>    S       12.01626        -6.93310        -4.08476
| 41>    C       11.65968        -8.66664        -4.02373
| 42>    C       10.68672        -8.94997        -3.06272
| 43>    C       12.35016        -9.46810        -4.94065
| 44>    C       12.17788       -10.78152        -5.31333
| 45>    C       12.98334       -11.43001        -6.33249
| 46>    C       12.35635       -12.71419        -6.64614
| 47>    C       11.25208       -12.89033        -5.79876
| 48>    C       11.11123       -11.71632        -4.90843
| 49>    C       12.67060       -13.68933        -7.57999
| 50>    C       11.86625       -14.81793        -7.63848
| 51>    C       10.77294       -14.98517        -6.78833
| 52>    C       10.45324       -14.01516        -5.85249
| 53>    F       10.02430       -16.09137        -6.87998
| 54>    F       12.14869       -15.76758        -8.53756
| 55>    O       10.26290       -11.59420        -4.04762
| 56>    C       14.14973       -10.97508        -6.89081
| 57>    C       14.87002       -11.66838        -7.88729
| 58>    C       14.82733        -9.78365        -6.55333
| 59>    C        9.47718        -8.11217        -0.04726
| 60>    C        7.72729        -7.88304        -1.89154
| 61>    C        7.47302        -9.37767        -2.03319
| 62>    C       10.80124        -7.61416         0.52075
| 63>    C        9.24136         1.99215        -0.01614
| 64>    C        8.30753         1.71316        -2.37514
| 65>    C        8.18099         3.19506        -2.69978
| 66>    C        9.19749         1.52159         1.43303
| 67>    O        2.12990         0.97345         1.16130
| 68>    F       -3.39299         4.20978         1.79386
| 69>    F       -3.12859         1.51605         1.99611
| 70>    C        1.72567         5.78886         0.79020
| 71>    C        0.75026         6.80287         0.89908
| 72>    C        2.98681         6.35687         0.51389
| 73>    N        3.97523         6.89825         0.28990
| 74>    N        0.00935         7.67644         0.97235
| 75>    N       15.50067       -12.17298        -8.70260
| 76>    N       15.45671        -8.84815        -6.33431
| 77>    H       -1.25682         5.53975         1.31331
| 78>    H       -0.70286         0.59838         1.67307
| 79>    H        4.10231         4.44736         0.31332
| 80>    H        6.28746         3.78719        -0.31866
| 81>    H        9.98650        -1.06740        -1.55532
| 82>    H        7.71929        -5.06277        -0.10738
| 83>    H       10.37300        -9.95684        -2.86339
| 84>    H       13.11476        -8.92558        -5.48424
| 85>    H       13.50108       -13.60928        -8.26161
| 86>    H        9.60850       -14.13774        -5.19357
| 87>    H        9.52477        -9.19524        -0.15944
| 88>    H        8.66928        -7.87206         0.64660
| 89>    H        7.55212        -7.39882        -2.85567
| 90>    H        7.01484        -7.46436        -1.17720
| 91>    H        8.14776        -9.82744        -2.75486
| 92>    H        6.45453        -9.53323        -2.38179
| 93>    H        7.58296        -9.88973        -1.08154
| 94>    H       11.62176        -7.84215        -0.15595
| 95>    H       11.00065        -8.09848         1.47341
| 96>    H       10.77751        -6.53879         0.68270
| 97>    H        9.11383         3.07452        -0.04142
| 98>    H       10.21429         1.75125        -0.44886
| 99>    H        7.55154         1.16169        -2.93993
|100>    H        9.28771         1.35621        -2.69833
|101>    H        7.19186         3.56531        -2.44702
|102>    H        8.33341         3.34216        -3.76649
|103>    H        8.92483         3.78301        -2.16983
|104>    H        8.23193         1.74460         1.88160
|105>    H        9.96781         2.02680         2.01041
|106>    H        9.36793         0.44940         1.49946
|107> *
|108>
|109>                          ****END OF INPUT****

CARTESIAN COORDINATES (ANGSTROEM)
---------------------------------
  C     -1.097160    4.476600    1.385620
  C     -2.184960    3.654830    1.644200
  C     -2.050780    2.270490    1.748580
  C     -0.812110    1.668340    1.595000
  C      0.268410    2.486900    1.335150
  C      0.144740    3.882200    1.228440
  C      1.679150    2.104180    1.116560
  C      2.397450    3.349210    0.845060
  C      1.463400    4.451080    0.939030
  C      3.728140    3.449190    0.505420
  C      4.693990    2.459090    0.315090
  C      5.985930    2.768450   -0.151610
  C      6.761860    1.655910   -0.360940
  C      6.083350    0.472280   -0.003990
  S      4.484820    0.726250    0.540350
  C      8.146770    1.348000   -0.882930
  C      8.149470   -0.159000   -0.769780
  C      6.938670   -0.619790   -0.247590
  C      9.010830   -1.188120   -1.119590
  C      8.472200   -2.438020   -0.850130
  S      6.875190   -2.331590   -0.135290
  C      9.016580   -3.704400   -1.173510
  S     10.367770   -3.822530   -2.283860
  C     10.245660   -5.535570   -2.249130
  C      9.240620   -5.987320   -1.390140
  C      8.542380   -4.950290   -0.790020
  C     10.830780   -6.640570   -2.895700
  C     10.204030   -7.817600   -2.444060
  C      9.144720   -7.494550   -1.416810
  S     12.016260   -6.933100   -4.084760
  C     11.659680   -8.666640   -4.023730
  C     10.686720   -8.949970   -3.062720
  C     12.350160   -9.468100   -4.940650
  C     12.177880  -10.781520   -5.313330
  C     12.983340  -11.430010   -6.332490
  C     12.356350  -12.714190   -6.646140
  C     11.252080  -12.890330   -5.798760
  C     11.111230  -11.716320   -4.908430
  C     12.670600  -13.689330   -7.579990
  C     11.866250  -14.817930   -7.638480
  C     10.772940  -14.985170   -6.788330
  C     10.453240  -14.015160   -5.852490
  F     10.024300  -16.091370   -6.879980
  F     12.148690  -15.767580   -8.537560
  O     10.262900  -11.594200   -4.047620
  C     14.149730  -10.975080   -6.890810
  C     14.870020  -11.668380   -7.887290
  C     14.827330   -9.783650   -6.553330
  C      9.477180   -8.112170   -0.047260
  C      7.727290   -7.883040   -1.891540
  C      7.473020   -9.377670   -2.033190
  C     10.801240   -7.614160    0.520750
  C      9.241360    1.992150   -0.016140
  C      8.307530    1.713160   -2.375140
  C      8.180990    3.195060   -2.699780
  C      9.197490    1.521590    1.433030
  O      2.129900    0.973450    1.161300
  F     -3.392990    4.209780    1.793860
  F     -3.128590    1.516050    1.996110
  C      1.725670    5.788860    0.790200
  C      0.750260    6.802870    0.899080
  C      2.986810    6.356870    0.513890
  N      3.975230    6.898250    0.289900
  N      0.009350    7.676440    0.972350
  N     15.500670  -12.172980   -8.702600
  N     15.456710   -8.848150   -6.334310
  H     -1.256820    5.539750    1.313310
  H     -0.702860    0.598380    1.673070
  H      4.102310    4.447360    0.313320
  H      6.287460    3.787190   -0.318660
  H      9.986500   -1.067400   -1.555320
  H      7.719290   -5.062770   -0.107380
  H     10.373000   -9.956840   -2.863390
  H     13.114760   -8.925580   -5.484240
  H     13.501080  -13.609280   -8.261610
  H      9.608500  -14.137740   -5.193570
  H      9.524770   -9.195240   -0.159440
  H      8.669280   -7.872060    0.646600
  H      7.552120   -7.398820   -2.855670
  H      7.014840   -7.464360   -1.177200
  H      8.147760   -9.827440   -2.754860
  H      6.454530   -9.533230   -2.381790
  H      7.582960   -9.889730   -1.081540
  H     11.621760   -7.842150   -0.155950
  H     11.000650   -8.098480    1.473410
  H     10.777510   -6.538790    0.682700
  H      9.113830    3.074520   -0.041420
  H     10.214290    1.751250   -0.448860
  H      7.551540    1.161690   -2.939930
  H      9.287710    1.356210   -2.698330
  H      7.191860    3.565310   -2.447020
  H      8.333410    3.342160   -3.766490
  H      8.924830    3.783010   -2.169830
  H      8.231930    1.744600    1.881600
  H      9.967810    2.026800    2.010410
  H      9.367930    0.449400    1.499460

 Total Charge           Charge          ....    0
 Multiplicity           Mult            ....    1
 Number of Electrons    NEL             ....  486
 Basis Dimension        Dim             .... 1090

ORBITAL ENERGIES
----------------

  NO   OCC          E(Eh)            E(eV)
   0   2.0000     -88.985627     -2421.4220
   1   2.0000     -88.984018     -2421.3782
   2   2.0000     -88.982035     -2421.3243
   3   2.0000     -88.976767     -2421.1809
   4   2.0000     -24.802141      -674.9006
   5   2.0000     -24.801889      -674.8937
   6   2.0000     -24.800338      -674.8515
   7   2.0000     -24.800206      -674.8479
   8   2.0000     -19.225230      -523.1451
   9   2.0000     -19.224035      -523.1126
  10   2.0000     -14.420044      -392.3894
  11   2.0000     -14.418186      -392.3388
  12   2.0000     -14.415359      -392.2619
  13   2.0000     -14.415073      -392.2541
  14   2.0000     -10.386740      -282.6376
  15   2.0000     -10.386537      -282.6320
  16   2.0000     -10.386117      -282.6206
  17   2.0000     -10.385908      -282.6149
  18   2.0000     -10.375455      -282.3305
  19   2.0000     -10.373904      -282.2883
  20   2.0000     -10.345113      -281.5048
  21   2.0000     -10.344510      -281.4884
  22   2.0000     -10.343634      -281.4646
  23   2.0000     -10.343459      -281.4598
  24   2.0000     -10.334935      -281.2279
  25   2.0000     -10.334127      -281.2059
  26   2.0000     -10.333315      -281.1838
  27   2.0000     -10.326304      -280.9930
  28   2.0000     -10.324822      -280.9527
  29   2.0000     -10.323170      -280.9077
  30   2.0000     -10.322942      -280.9015
  31   2.0000     -10.322216      -280.8818
  32   2.0000     -10.321147      -280.8527
  33   2.0000     -10.320681      -280.8400
  34   2.0000     -10.320070      -280.8234
  35   2.0000     -10.319773      -280.8153
  36   2.0000     -10.318622      -280.7840
  37   2.0000     -10.318231      -280.7734
  38   2.0000     -10.316695      -280.7316
  39   2.0000     -10.316215      -280.7185
  40   2.0000     -10.309832      -280.5448
  41   2.0000     -10.309337      -280.5313
  42   2.0000     -10.308539      -280.5096
  43   2.0000     -10.308270      -280.5023
  44   2.0000     -10.306647      -280.4581
  45   2.0000     -10.306295      -280.4485
  46   2.0000     -10.303728      -280.3787
  47   2.0000     -10.302775      -280.3528
  48   2.0000     -10.302182      -280.3366
  49   2.0000     -10.300332      -280.2863
  50   2.0000     -10.300204      -280.2828
  51   2.0000     -10.299572      -280.2656
  52   2.0000     -10.299356      -280.2597
  53   2.0000     -10.298695      -280.2417
  54   2.0000     -10.296213      -280.1742
  55   2.0000     -10.295389      -280.1518
  56   2.0000     -10.292422      -280.0710
  57   2.0000     -10.291090      -280.0348
  58   2.0000     -10.282367      -279.7974
  59   2.0000     -10.281755      -279.7808
  60   2.0000     -10.281210      -279.7659
  61   2.0000     -10.280620      -279.7499
  62   2.0000     -10.266565      -279.3674
  63   2.0000     -10.262732      -279.2631
  64   2.0000     -10.262435      -279.2551
  65   2.0000     -10.261769      -279.2369
  66   2.0000      -8.080456      -219.8804
  67   2.0000      -8.078929      -219.8388
  68   2.0000      -8.077134      -219.7900
  69   2.0000      -8.069700      -219.5877
  70   2.0000      -6.049875      -164.6255
  71   2.0000      -6.048330      -164.5834
  72   2.0000      -6.046292      -164.5280
  73   2.0000      -6.045767      -164.5137
  74   2.0000      -6.044201      -164.4711
  75   2.0000      -6.042382      -164.4216
  76   2.0000      -6.042348      -164.4207
  77   2.0000      -6.040886      -164.3809
  78   2.0000      -6.039331      -164.3385
  79   2.0000      -6.039211      -164.3353
  80   2.0000      -6.034567      -164.2089
  81   2.0000      -6.031895      -164.1362
  82   2.0000      -1.324892       -36.0521
  83   2.0000      -1.324662       -36.0459
  84   2.0000      -1.309679       -35.6382
  85   2.0000      -1.309434       -35.6315
  86   2.0000      -1.141032       -31.0491
  87   2.0000      -1.138724       -30.9862
  88   2.0000      -1.036312       -28.1995
  89   2.0000      -1.030351       -28.0373
  90   2.0000      -1.022868       -27.8337
  91   2.0000      -1.022371       -27.8201
  92   2.0000      -1.005016       -27.3479
  93   2.0000      -1.004164       -27.3247
  94   2.0000      -1.001964       -27.2648
  95   2.0000      -0.996079       -27.1047
  96   2.0000      -0.995227       -27.0815
  97   2.0000      -0.987585       -26.8735
  98   2.0000      -0.960967       -26.1492
  99   2.0000      -0.958507       -26.0823
 100   2.0000      -0.949822       -25.8460
 101   2.0000      -0.940239       -25.5852
 102   2.0000      -0.909158       -24.7394
 103   2.0000      -0.907661       -24.6987
 104   2.0000      -0.901446       -24.5296
 105   2.0000      -0.897272       -24.4160
 106   2.0000      -0.881099       -23.9759
 107   2.0000      -0.875383       -23.8204
 108   2.0000      -0.874771       -23.8037
 109   2.0000      -0.863656       -23.5013
 110   2.0000      -0.860869       -23.4254
 111   2.0000      -0.852688       -23.2028
 112   2.0000      -0.851048       -23.1582
 113   2.0000      -0.850599       -23.1460
 114   2.0000      -0.849698       -23.1215
 115   2.0000      -0.845640       -23.0110
 116   2.0000      -0.828866       -22.5546
 117   2.0000      -0.812918       -22.1206
 118   2.0000      -0.794639       -21.6232
 119   2.0000      -0.777382       -21.1536
 120   2.0000      -0.775564       -21.1042
 121   2.0000      -0.774922       -21.0867
 122   2.0000      -0.772713       -21.0266
 123   2.0000      -0.760586       -20.6966
 124   2.0000      -0.745661       -20.2905
 125   2.0000      -0.723353       -19.6834
 126   2.0000      -0.711262       -19.3544
 127   2.0000      -0.709878       -19.3168
 128   2.0000      -0.709229       -19.2991
 129   2.0000      -0.707969       -19.2648
 130   2.0000      -0.704481       -19.1699
 131   2.0000      -0.698772       -19.0145
 132   2.0000      -0.694665       -18.9028
 133   2.0000      -0.690439       -18.7878
 134   2.0000      -0.679920       -18.5016
 135   2.0000      -0.666267       -18.1300
 136   2.0000      -0.662956       -18.0400
 137   2.0000      -0.653239       -17.7755
 138   2.0000      -0.650672       -17.7057
 139   2.0000      -0.646446       -17.5907
 140   2.0000      -0.645191       -17.5565
 141   2.0000      -0.643062       -17.4986
 142   2.0000      -0.641678       -17.4609
 143   2.0000      -0.637837       -17.3564
 144   2.0000      -0.632200       -17.2030
 145   2.0000      -0.625737       -17.0272
 146   2.0000      -0.617146       -16.7934
 147   2.0000      -0.612832       -16.6760
 148   2.0000      -0.601909       -16.3788
 149   2.0000      -0.596197       -16.2233
 150   2.0000      -0.594247       -16.1703
 151   2.0000      -0.590237       -16.0612
 152   2.0000      -0.589984       -16.0543
 153   2.0000      -0.589741       -16.0477
 154   2.0000      -0.576847       -15.6968
 155   2.0000      -0.571308       -15.5461
 156   2.0000      -0.570191       -15.5157
 157   2.0000      -0.559843       -15.2341
 158   2.0000      -0.557399       -15.1676
 159   2.0000      -0.555359       -15.1121
 160   2.0000      -0.553520       -15.0620
 161   2.0000      -0.552401       -15.0316
 162   2.0000      -0.549892       -14.9633
 163   2.0000      -0.549667       -14.9572
 164   2.0000      -0.548611       -14.9285
 165   2.0000      -0.544943       -14.8287
 166   2.0000      -0.541212       -14.7271
 167   2.0000      -0.540954       -14.7201
 168   2.0000      -0.539740       -14.6871
 169   2.0000      -0.539328       -14.6759
 170   2.0000      -0.537077       -14.6146
 171   2.0000      -0.534984       -14.5576
 172   2.0000      -0.528421       -14.3791
 173   2.0000      -0.526871       -14.3369
 174   2.0000      -0.524566       -14.2742
 175   2.0000      -0.517236       -14.0747
 176   2.0000      -0.514555       -14.0018
 177   2.0000      -0.513432       -13.9712
 178   2.0000      -0.510908       -13.9025
 179   2.0000      -0.501517       -13.6470
 180   2.0000      -0.500200       -13.6111
 181   2.0000      -0.498246       -13.5580
 182   2.0000      -0.497679       -13.5425
 183   2.0000      -0.497110       -13.5270
 184   2.0000      -0.496612       -13.5135
 185   2.0000      -0.491113       -13.3639
 186   2.0000      -0.490592       -13.3497
 187   2.0000      -0.489661       -13.3244
 188   2.0000      -0.487882       -13.2759
 189   2.0000      -0.485010       -13.1978
 190   2.0000      -0.482175       -13.1206
 191   2.0000      -0.477679       -12.9983
 192   2.0000      -0.474176       -12.9030
 193   2.0000      -0.470462       -12.8019
 194   2.0000      -0.467220       -12.7137
 195   2.0000      -0.462252       -12.5785
 196   2.0000      -0.458899       -12.4873
 197   2.0000      -0.458280       -12.4704
 198   2.0000      -0.458058       -12.4644
 199   2.0000      -0.456405       -12.4194
 200   2.0000      -0.455843       -12.4041
 201   2.0000      -0.454334       -12.3631
 202   2.0000      -0.452321       -12.3083
 203   2.0000      -0.450646       -12.2627
 204   2.0000      -0.450106       -12.2480
 205   2.0000      -0.449317       -12.2265
 206   2.0000      -0.445180       -12.1140
 207   2.0000      -0.445080       -12.1112
 208   2.0000      -0.441974       -12.0267
 209   2.0000      -0.439780       -11.9670
 210   2.0000      -0.436963       -11.8904
 211   2.0000      -0.432279       -11.7629
 212   2.0000      -0.430067       -11.7027
 213   2.0000      -0.429575       -11.6893
 214   2.0000      -0.428990       -11.6734
 215   2.0000      -0.426802       -11.6139
 216   2.0000      -0.425222       -11.5709
 217   2.0000      -0.422514       -11.4972
 218   2.0000      -0.419686       -11.4202
 219   2.0000      -0.413611       -11.2549
 220   2.0000      -0.413347       -11.2477
 221   2.0000      -0.411179       -11.1887
 222   2.0000      -0.410535       -11.1712
 223   2.0000      -0.407612       -11.0917
 224   2.0000      -0.407067       -11.0768
 225   2.0000      -0.403059       -10.9678
 226   2.0000      -0.402646       -10.9565
 227   2.0000      -0.396870       -10.7994
 228   2.0000      -0.380803       -10.3622
 229   2.0000      -0.358912        -9.7665
 230   2.0000      -0.352144        -9.5823
 231   2.0000      -0.349798        -9.5185
 232   2.0000      -0.347490        -9.4557
 233   2.0000      -0.346427        -9.4268
 234   2.0000      -0.342144        -9.3102
 235   2.0000      -0.340937        -9.2774
 236   2.0000      -0.338048        -9.1988
 237   2.0000      -0.335713        -9.1352
 238   2.0000      -0.324025        -8.8172
 239   2.0000      -0.316830        -8.6214
 240   2.0000      -0.310411        -8.4467
 241   2.0000      -0.277665        -7.5557
 242   2.0000      -0.244039        -6.6406
 243   0.0000      -0.106659        -2.9023
 244   0.0000      -0.088821        -2.4169
 245   0.0000      -0.069825        -1.9000
 246   0.0000      -0.064834        -1.7642
 247   0.0000      -0.041176        -1.1205

MULLIKEN ATOMIC CHARGES
-----------------------
   0 C :   -0.093578
   1 C :    0.235707
   2 C :    0.233502
   3 C :   -0.106083
   4 C :   -0.006004
   5 C :    0.043234
   6 C :    0.159329
   7 C :   -0.103970
   8 C :    0.318104
   9 C :   -0.024408
  10 C :   -0.056441
  11 C :   -0.076731
  12 C :    0.042219
  13 C :   -0.041497
  14 S :    0.209552
  15 C :   -0.090256
  16 C :    0.023076
  17 C :   -0.094673
  18 C :   -0.061734
  19 C :   -0.052747
  20 S :    0.163413
  21 C :   -0.052947
  22 S :    0.162923
  23 C :   -0.089058
  24 C :    0.032634
  25 C :   -0.069146
  26 C :   -0.057601
  27 C :   -0.001466
  28 C :   -0.098852
  29 S :    0.173297
  30 C :   -0.123654
  31 C :   -0.016622
  32 C :    0.045377
  33 C :   -0.101456
  34 C :    0.300117
  35 C :    0.044108
  36 C :   -0.002868
  37 C :    0.150266
  38 C :   -0.090653
  39 C :    0.234983
  40 C :    0.235217
  41 C :   -0.108240
  42 F :   -0.170048
  43 F :   -0.165872
  44 O :   -0.163066
  45 C :   -0.355437
  46 C :   -0.188652
  47 C :   -0.194375
  48 C :    0.051079
  49 C :    0.062404
  50 C :    0.026636
  51 C :    0.019839
  52 C :    0.054266
  53 C :    0.065338
  54 C :    0.029529
  55 C :    0.020297
  56 O :   -0.181713
  57 F :   -0.165466
  58 F :   -0.169616
  59 C :   -0.356136
  60 C :   -0.194608
  61 C :   -0.186461
  62 N :    0.141695
  63 N :    0.158656
  64 N :    0.152405
  65 N :    0.154788
  66 H :    0.016765
  67 H :    0.009696
  68 H :    0.004440
  69 H :    0.007597
  70 H :   -0.010984
  71 H :   -0.008193
  72 H :    0.022658
  73 H :    0.007918
  74 H :    0.017226
  75 H :    0.008290
  76 H :    0.021735
  77 H :    0.004300
  78 H :    0.009013
  79 H :   -0.000970
  80 H :    0.027006
  81 H :    0.016200
  82 H :    0.012180
  83 H :    0.023076
  84 H :    0.016595
  85 H :    0.021790
  86 H :    0.017224
  87 H :    0.002900
  88 H :    0.010761
  89 H :    0.000601
  90 H :    0.014738
  91 H :    0.020960
  92 H :    0.013396
  93 H :    0.022218
  94 H :    0.017363
  95 H :    0.021645
Sum of atomic charges:   -0.0000000

LOEWDIN ATOMIC CHARGES
----------------------
   0 C :   -0.018292
   1 C :    0.072313
   2 C :    0.069283
   3 C :   -0.007700
   4 C :   -0.043959
   5 C :   -0.014174
   6 C :    0.082694
   7 C :   -0.125432
   8 C :    0.077470
   9 C :    0.053817
  10 C :   -0.186196
  11 C :   -0.011766
  12 C :   -0.044532
  13 C :   -0.169136
  14 S :    0.512122
  15 C :   -0.032722
  16 C :   -0.013516
  17 C :   -0.203619
  18 C :   -0.059805
  19 C :   -0.168076
  20 S :    0.451507
  21 C :   -0.167035
  22 S :    0.449627
  23 C :   -0.204852
  24 C :   -0.011915
  25 C :   -0.060156
  26 C :   -0.162488
  27 C :   -0.041872
  28 C :   -0.032341
  29 S :    0.461774
  30 C :   -0.180130
  31 C :   -0.003998
  32 C :    0.045753
  33 C :   -0.114517
  34 C :    0.076692
  35 C :   -0.015098
  36 C :   -0.044231
  37 C :    0.087713
  38 C :   -0.018409
  39 C :    0.072564
  40 C :    0.069632
  41 C :   -0.007942
  42 F :   -0.046761
  43 F :   -0.044445
  44 O :   -0.150974
  45 C :   -0.144283
  46 C :   -0.019938
  47 C :   -0.025010
  48 C :   -0.010917
  49 C :   -0.009383
  50 C :   -0.057132
  51 C :   -0.055944
  52 C :   -0.012066
  53 C :   -0.009309
  54 C :   -0.056639
  55 C :   -0.055622
  56 O :   -0.170288
  57 F :   -0.044317
  58 F :   -0.046657
  59 C :   -0.145519
  60 C :   -0.020814
  61 C :   -0.019898
  62 N :   -0.056641
  63 N :   -0.052516
  64 N :   -0.052467
  65 N :   -0.051919
  66 H :    0.051563
  67 H :    0.051089
  68 H :    0.050369
  69 H :    0.038025
  70 H :    0.028982
  71 H :    0.029346
  72 H :    0.034451
  73 H :    0.043006
  74 H :    0.051482
  75 H :    0.050473
  76 H :    0.026486
  77 H :    0.022782
  78 H :    0.027228
  79 H :    0.020509
  80 H :    0.029189
  81 H :    0.030161
  82 H :    0.022981
  83 H :    0.026316
  84 H :    0.027661
  85 H :    0.024491
  86 H :    0.024551
  87 H :    0.022570
  88 H :    0.027876
  89 H :    0.021164
  90 H :    0.024134
  91 H :    0.031565
  92 H :    0.023238
  93 H :    0.026216
  94 H :    0.027724
  95 H :    0.024782

  Mayer bond orders larger than 0.100000
B(  0-C ,  1-C ) :   1.3300 B(  0-C ,  3-C ) :   0.1047 B(  0-C ,  5-C ) :   1.3187
B(  0-C , 66-H ) :   0.9920 B(  1-C ,  2-C ) :   1.2961 B(  1-C , 57-F ) :   1.1461
B(  2-C ,  3-C ) :   1.3104 B(  2-C , 58-F ) :   1.1306 B(  3-C ,  4-C ) :   1.3224
B(  3-C , 67-H ) :   1.0207 B(  4-C ,  5-C ) :   1.3438 B(  4-C ,  6-C ) :   0.9655
B(  5-C ,  8-C ) :   0.9964 B(  6-C ,  7-C ) :   0.9924 B(  6-C , 56-O ) :   2.1315
B(  7-C ,  8-C ) :   1.1046 B(  7-C ,  9-C ) :   1.4391 B(  8-C , 59-C ) :   1.6155
B(  9-C , 10-C ) :   1.3143 B(  9-C , 68-H ) :   0.9396 B( 10-C , 11-C ) :   1.2885
B( 10-C , 14-S ) :   1.0684 B( 11-C , 12-C ) :   1.3864 B( 11-C , 69-H ) :   1.0152
B( 12-C , 13-C ) :   1.4117 B( 12-C , 15-C ) :   0.9125 B( 13-C , 14-S ) :   1.0955
B( 13-C , 17-C ) :   1.2063 B( 15-C , 16-C ) :   0.9316 B( 15-C , 52-C ) :   1.0245
B( 15-C , 53-C ) :   1.0272 B( 16-C , 17-C ) :   1.4992 B( 16-C , 18-C ) :   1.3270
B( 17-C , 20-S ) :   1.0709 B( 18-C , 19-C ) :   1.4340 B( 18-C , 70-H ) :   1.0003
B( 19-C , 20-S ) :   1.1259 B( 19-C , 21-C ) :   1.1685 B( 21-C , 22-S ) :   1.1250
B( 21-C , 25-C ) :   1.4348 B( 22-S , 23-C ) :   1.0690 B( 23-C , 24-C ) :   1.4992
B( 23-C , 26-C ) :   1.2030 B( 24-C , 25-C ) :   1.3245 B( 24-C , 28-C ) :   0.9341
B( 25-C , 71-H ) :   1.0017 B( 26-C , 27-C ) :   1.4350 B( 26-C , 29-S ) :   1.1368
B( 27-C , 28-C ) :   0.9194 B( 27-C , 31-C ) :   1.3664 B( 28-C , 48-C ) :   1.0229
B( 28-C , 49-C ) :   1.0280 B( 29-S , 30-C ) :   1.0659 B( 30-C , 31-C ) :   1.3569
B( 30-C , 32-C ) :   1.2742 B( 31-C , 72-H ) :   0.9811 B( 32-C , 33-C ) :   1.5275
B( 32-C , 73-H ) :   0.9128 B( 33-C , 34-C ) :   1.0999 B( 33-C , 37-C ) :   0.9622
B( 34-C , 35-C ) :   0.9965 B( 34-C , 45-C ) :   1.6215 B( 35-C , 36-C ) :   1.3437
B( 35-C , 38-C ) :   1.3141 B( 36-C , 37-C ) :   0.9637 B( 36-C , 41-C ) :   1.3209
B( 37-C , 44-O ) :   2.1570 B( 38-C , 39-C ) :   1.3343 B( 38-C , 41-C ) :   0.1048
B( 38-C , 74-H ) :   0.9921 B( 39-C , 40-C ) :   1.2928 B( 39-C , 43-F ) :   1.1450
B( 40-C , 41-C ) :   1.3137 B( 40-C , 42-F ) :   1.1300 B( 41-C , 75-H ) :   1.0209
B( 45-C , 46-C ) :   1.1427 B( 45-C , 47-C ) :   1.1391 B( 46-C , 64-N ) :   2.9761
B( 47-C , 65-N ) :   2.9782 B( 48-C , 51-C ) :   1.1005 B( 48-C , 76-H ) :   0.9417
B( 48-C , 77-H ) :   0.9434 B( 49-C , 50-C ) :   1.1101 B( 49-C , 78-H ) :   0.9418
B( 49-C , 79-H ) :   0.9363 B( 50-C , 80-H ) :   0.9639 B( 50-C , 81-H ) :   0.9598
B( 50-C , 82-H ) :   0.9624 B( 51-C , 83-H ) :   0.9675 B( 51-C , 84-H ) :   0.9640
B( 51-C , 85-H ) :   0.9635 B( 52-C , 55-C ) :   1.0997 B( 52-C , 86-H ) :   0.9422
B( 52-C , 87-H ) :   0.9430 B( 53-C , 54-C ) :   1.1121 B( 53-C , 88-H ) :   0.9409
B( 53-C , 89-H ) :   0.9367 B( 54-C , 90-H ) :   0.9642 B( 54-C , 91-H ) :   0.9601
B( 54-C , 92-H ) :   0.9638 B( 55-C , 93-H ) :   0.9675 B( 55-C , 94-H ) :   0.9644
B( 55-C , 95-H ) :   0.9639 B( 59-C , 60-C ) :   1.1438 B( 59-C , 61-C ) :   1.1478
B( 60-C , 63-N ) :   2.9779 B( 61-C , 62-N ) :   2.9560

-----------------------------------------------------------------------------
         ABSORPTION SPECTRUM VIA TRANSITION ELECTRIC DIPOLE MOMENTS
-----------------------------------------------------------------------------
State   Energy  Wavelength   fosc         T2         TX        TY        TZ
        (cm-1)    (nm)                  (au**2)     (au)      (au)      (au)
-----------------------------------------------------------------------------
   0   15569.6    642.3   2.816883270  59.56167   4.27106  -5.84870  -2.66691
   1   20591.0    485.6   0.125332336   2.00383   0.86672   0.16117   1.10755
   2   23848.3    419.3   0.013547890   0.18702   0.34729  -0.25769   0.00215
   3   24628.4    406.0   0.114933332   1.53633  -0.92897  -0.69771  -0.43191
   4   24682.8    405.1   0.043429572   0.57925   0.51919   0.50395  -0.23606
   5   28721.3    348.2   0.080973837   0.92815   0.83671  -0.19055  -0.43789
   6   30156.8    331.6   0.003128842   0.03416  -0.11035  -0.11965  -0.08754
   7   30239.0    330.7   0.007329892   0.07980   0.19670  -0.14760   0.13900
   8   30573.2    327.1   0.098665433   1.06243   0.07900  -0.97175  -0.33449
   9   30978.4    322.8   0.022688446   0.24111   0.29594  -0.31454  -0.23366
  10   31050.0    322.1   0.246145230   2.60979   1.11108   1.17273  -0.00162
  11   32878.7    304.1   0.023780421   0.23811   0.40356   0.27202  -0.03546
  12   33009.8    302.9   0.059498494   0.59339   0.46789   0.61012  -0.04716
  13   33447.4    299.0   0.045764253   0.45044  -0.54972  -0.37685   0.07895
  14   33672.6    297.0   0.012032921   0.11764  -0.28565  -0.18939  -0.01342
  15   34223.4    292.2   0.003085808   0.02968   0.08435   0.14842   0.02324
  16   34821.1    287.2   0.035193626   0.33273  -0.00579  -0.57276  -0.06812
  17   35230.6    283.8   0.173346275   1.61983  -1.05488  -0.54875   0.45379
  18   35381.4    282.6   0.014134062   0.13151  -0.12911  -0.13722   0.30986
  19   36137.8    276.7   0.140717863   1.28193   0.55679   0.97001  -0.17604
  20   36498.2    274.0   0.044053844   0.39736  -0.42592  -0.45187   0.10848
  21   36708.7    272.4   0.030274663   0.27151  -0.45681   0.24861   0.03206
  22   37195.6    268.8   0.372694600   3.29865  -0.76728  -1.60362   0.37193
  23   37428.7    267.2   0.788135426   6.93220  -1.72875  -1.87732   0.64752
  24   38158.6    262.1   0.014998141   0.12940   0.18142   0.08709   0.29816
  25   38285.2    261.2   0.166962740   1.43570   0.99302  -0.41590  -0.52596
  26   38579.6    259.2   0.040763939   0.34785  -0.30516  -0.50284  -0.04340
  27   40212.6    248.7   0.095469016   0.78158  -0.71965   0.27015   0.43670

FINAL SINGLE POINT ENERGY     -4357.170662436091

DIPOLE MOMENT
-------------
                                X             Y             Z
Electronic contribution:    -37.26097     -22.09965     -22.68760
Nuclear contribution   :     36.96376      21.19967      24.16799
                        -----------------------------------------
Total Dipole Moment    :     -0.29721      -0.89997       1.48039
                        -----------------------------------------
Magnitude (a.u.)       :      1.75779
Magnitude (Debye)      :      4.46796

Rotational constants in cm-1:     0.002259     0.000244     0.000229
Rotational constants in MHz :    67.730725     7.318716     6.872844

                             ****ORCA TERMINATED NORMALLY****
TOTAL RUN TIME: 0 days 0 hours 52 minutes 27 seconds 662 msec
