                         Program Version 4.2.0 -  RELEASE  -
|  1> # ORCA input file
|  2> # CPDT-4Cl.out
|  3> ! CAM-B3LYP def2-SVP def2/J RIJCOSX Grid4 TightSCF
|  4> %maxcore 5000
|  5> %tddft
|  6>     Mode sTDDFT
|  7>     Ethresh 5.0
|  8>     maxcore 5000
|  9> end
| 10> * xyz 0 1
| 11>    C       -0.47958         2.35315         1.88131
| 12>    C       -1.44729         2.66122         2.83175
| 13>    C       -1.22389         3.64691         3.79941
| 14>    C       -0.01640         4.33437         3.83725
| 15>    C        0.94626         4.01869         2.90080
| 16>    C        0.72261         3.03719         1.91756
| 17>    C        2.31003         4.57564         2.74314
| 18>    C        2.93464         3.75527         1.67607
| 19>    C        1.89700         2.96695         1.05113
| 20>    C        4.28613         3.78857         1.48512
| 21>    C        5.11109         2.82754         0.86824
| 22>    C        6.38294         3.05212         0.34867
| 23>    C        6.94888         1.91203        -0.19087
| 24>    C        6.14286         0.77918        -0.01336
| 25>    S        4.65508         1.13130         0.75126
| 26>    C        8.22098         1.54799        -0.91642
| 27>    C        8.04904         0.05240        -1.03998
| 28>    C        6.81768        -0.34978        -0.51712
| 29>    C        8.77270        -0.99972        -1.58022
| 30>    C        8.10891        -2.21219        -1.46057
| 31>    S        6.55465        -2.03966        -0.66714
| 32>    C        8.53923        -3.47924        -1.92007
| 33>    S       10.00773        -3.61990        -2.86665
| 34>    C        9.75062        -5.31152        -3.01589
| 35>    C        8.59815        -5.74178        -2.35349
| 36>    C        7.91194        -4.70399        -1.74111
| 37>    C       10.36916        -6.41561        -3.63267
| 38>    C        9.61215        -7.57117        -3.36247
| 39>    C        8.39969        -7.22888        -2.52950
| 40>    S       11.74686        -6.73299        -4.58464
| 41>    C       11.32464        -8.45236        -4.63766
| 42>    C       10.15994        -8.71005        -3.91140
| 43>    C       12.18073        -9.26842        -5.38775
| 44>    C       12.13407       -10.60602        -5.70608
| 45>    C       13.12969       -11.25978        -6.53869
| 46>    C       12.68939       -12.63620        -6.76153
| 47>    C       11.49466       -12.84472        -6.05533
| 48>    C       11.10230       -11.60213        -5.35732
| 49>    C       13.23445       -13.67188        -7.50281
| 50>    C       12.57711       -14.89749        -7.52062
| 51>    C       11.39050       -15.09630        -6.80721
| 52>    C       10.83998       -14.05894        -6.06560
| 53>   Cl       10.60861       -16.62479        -6.84791
| 54>   Cl       13.24475       -16.18506        -8.44093
| 55>    O       10.11778       -11.47928        -4.65563
| 56>    C       14.29714       -10.73106        -7.02751
| 57>    C       15.20687       -11.44249        -7.83948
| 58>    C       14.79593        -9.43011        -6.80293
| 59>    C        8.40160        -7.97577        -1.18573
| 60>    C        7.08268        -7.44958        -3.30683
| 61>    C        6.77539        -8.89891        -3.65787
| 62>    C        9.62103        -7.64849        -0.33160
| 63>    C        9.47990         1.92588        -0.12186
| 64>    C        8.24248         2.13887        -2.34570
| 65>    C        8.13406         3.65558        -2.41510
| 66>    C        9.52881         1.26277         1.24984
| 67>    O        2.82552         5.46938         3.37366
| 68>   Cl       -2.93853         1.81049         2.80865
| 69>   Cl       -2.44568         4.01076         4.95011
| 70>    C        1.90366         2.49990        -0.23837
| 71>    C        0.82096         1.82455        -0.83533
| 72>    C        2.96435         2.73717        -1.13684
| 73>    N        3.78880         2.95667        -1.90528
| 74>    N       -0.02579         1.25352        -1.35912
| 75>    N       15.99193       -11.95168        -8.50442
| 76>    N       15.29439        -8.40318        -6.67117
| 77>    H       -0.67980         1.58710         1.14972
| 78>    H        0.16470         5.09629         4.57876
| 79>    H        4.79831         4.63545         1.93227
| 80>    H        6.83046         4.02937         0.35544
| 81>    H        9.74081        -0.92049        -2.04142
| 82>    H        6.99906        -4.80222        -1.18137
| 83>    H        9.77207        -9.70668        -3.81257
| 84>    H       13.01692        -8.72141        -5.80648
| 85>    H       14.14544       -13.56016        -8.06678
| 86>    H        9.92476       -14.19497        -5.51147
| 87>    H        8.38658        -9.04705        -1.38568
| 88>    H        7.49282        -7.71355        -0.64055
| 89>    H        7.13446        -6.86337        -4.22796
| 90>    H        6.26867        -7.04384        -2.70205
| 91>    H        7.56149        -9.32985        -4.27041
| 92>    H        5.84604        -8.94032        -4.22131
| 93>    H        6.65408        -9.50574        -2.76529
| 94>    H       10.53867        -7.90146        -0.85798
| 95>    H        9.58987        -8.21932         0.59307
| 96>    H        9.64900        -6.59062        -0.07969
| 97>    H        9.50387         3.00852         0.00436
| 98>    H       10.35728         1.63094        -0.70058
| 99>    H        7.40826         1.70588        -2.90231
|100>    H        9.16889         1.81343        -2.82371
|101>    H        7.16750         3.98777        -2.04726
|102>    H        8.22631         3.97300        -3.45096
|103>    H        8.92076         4.14002        -1.84293
|104>    H        8.66609         1.54879         1.84741
|105>    H       10.42817         1.56777         1.77892
|106>    H        9.53758         0.17915         1.15631
|107> *
|108>
|109>                          ****END OF INPUT****

CARTESIAN COORDINATES (ANGSTROEM)
---------------------------------
  C     -0.479580    2.353150    1.881310
  C     -1.447290    2.661220    2.831750
  C     -1.223890    3.646910    3.799410
  C     -0.016400    4.334370    3.837250
  C      0.946260    4.018690    2.900800
  C      0.722610    3.037190    1.917560
  C      2.310030    4.575640    2.743140
  C      2.934640    3.755270    1.676070
  C      1.897000    2.966950    1.051130
  C      4.286130    3.788570    1.485120
  C      5.111090    2.827540    0.868240
  C      6.382940    3.052120    0.348670
  C      6.948880    1.912030   -0.190870
  C      6.142860    0.779180   -0.013360
  S      4.655080    1.131300    0.751260
  C      8.220980    1.547990   -0.916420
  C      8.049040    0.052400   -1.039980
  C      6.817680   -0.349780   -0.517120
  C      8.772700   -0.999720   -1.580220
  C      8.108910   -2.212190   -1.460570
  S      6.554650   -2.039660   -0.667140
  C      8.539230   -3.479240   -1.920070
  S     10.007730   -3.619900   -2.866650
  C      9.750620   -5.311520   -3.015890
  C      8.598150   -5.741780   -2.353490
  C      7.911940   -4.703990   -1.741110
  C     10.369160   -6.415610   -3.632670
  C      9.612150   -7.571170   -3.362470
  C      8.399690   -7.228880   -2.529500
  S     11.746860   -6.732990   -4.584640
  C     11.324640   -8.452360   -4.637660
  C     10.159940   -8.710050   -3.911400
  C     12.180730   -9.268420   -5.387750
  C     12.134070  -10.606020   -5.706080
  C     13.129690  -11.259780   -6.538690
  C     12.689390  -12.636200   -6.761530
  C     11.494660  -12.844720   -6.055330
  C     11.102300  -11.602130   -5.357320
  C     13.234450  -13.671880   -7.502810
  C     12.577110  -14.897490   -7.520620
  C     11.390500  -15.096300   -6.807210
  C     10.839980  -14.058940   -6.065600
  Cl    10.608610  -16.624790   -6.847910
  Cl    13.244750  -16.185060   -8.440930
  O     10.117780  -11.479280   -4.655630
  C     14.297140  -10.731060   -7.027510
  C     15.206870  -11.442490   -7.839480
  C     14.795930   -9.430110   -6.802930
  C      8.401600   -7.975770   -1.185730
  C      7.082680   -7.449580   -3.306830
  C      6.775390   -8.898910   -3.657870
  C      9.621030   -7.648490   -0.331600
  C      9.479900    1.925880   -0.121860
  C      8.242480    2.138870   -2.345700
  C      8.134060    3.655580   -2.415100
  C      9.528810    1.262770    1.249840
  O      2.825520    5.469380    3.373660
  Cl    -2.938530    1.810490    2.808650
  Cl    -2.445680    4.010760    4.950110
  C      1.903660    2.499900   -0.238370
  C      0.820960    1.824550   -0.835330
  C      2.964350    2.737170   -1.136840
  N      3.788800    2.956670   -1.905280
  N     -0.025790    1.253520   -1.359120
  N     15.991930  -11.951680   -8.504420
  N     15.294390   -8.403180   -6.671170
  H     -0.679800    1.587100    1.149720
  H      0.164700    5.096290    4.578760
  H      4.798310    4.635450    1.932270
  H      6.830460    4.029370    0.355440
  H      9.740810   -0.920490   -2.041420
  H      6.999060   -4.802220   -1.181370
  H      9.772070   -9.706680   -3.812570
  H     13.016920   -8.721410   -5.806480
  H     14.145440  -13.560160   -8.066780
  H      9.924760  -14.194970   -5.511470
  H      8.386580   -9.047050   -1.385680
  H      7.492820   -7.713550   -0.640550
  H      7.134460   -6.863370   -4.227960
  H      6.268670   -7.043840   -2.702050
  H      7.561490   -9.329850   -4.270410
  H      5.846040   -8.940320   -4.221310
  H      6.654080   -9.505740   -2.765290
  H     10.538670   -7.901460   -0.857980
  H      9.589870   -8.219320    0.593070
  H      9.649000   -6.590620   -0.079690
  H      9.503870    3.008520    0.004360
  H     10.357280    1.630940   -0.700580
  H      7.408260    1.705880   -2.902310
  H      9.168890    1.813430   -2.823710
  H      7.167500    3.987770   -2.047260
  H      8.226310    3.973000   -3.450960
  H      8.920760    4.140020   -1.842930
  H      8.666090    1.548790    1.847410
  H     10.428170    1.567770    1.778920
  H      9.537580    0.179150    1.156310

 Total Charge           Charge          ....    0
 Multiplicity           Mult            ....    1
 Number of Electrons    NEL             ....  518
 Basis Dimension        Dim             .... 1106

ORBITAL ENERGIES
----------------

  NO   OCC          E(Eh)            E(eV)
   0   2.0000    -101.600314     -2764.6851
   1   2.0000    -101.599680     -2764.6678
   2   2.0000    -101.598683     -2764.6407
   3   2.0000    -101.596338     -2764.5769
   4   2.0000     -88.983099     -2421.3532
   5   2.0000     -88.983000     -2421.3505
   6   2.0000     -88.981162     -2421.3005
   7   2.0000     -88.979485     -2421.2549
   8   2.0000     -19.221360      -523.0398
   9   2.0000     -19.218222      -522.9544
  10   2.0000     -14.417762      -392.3273
  11   2.0000     -14.417042      -392.3076
  12   2.0000     -14.416929      -392.3046
  13   2.0000     -14.412463      -392.1831
  14   2.0000     -10.372471      -282.2493
  15   2.0000     -10.370443      -282.1941
  16   2.0000     -10.356661      -281.8191
  17   2.0000     -10.355923      -281.7990
  18   2.0000     -10.353604      -281.7359
  19   2.0000     -10.353065      -281.7212
  20   2.0000     -10.345956      -281.5278
  21   2.0000     -10.345347      -281.5112
  22   2.0000     -10.342176      -281.4249
  23   2.0000     -10.341063      -281.3946
  24   2.0000     -10.333129      -281.1787
  25   2.0000     -10.331508      -281.1346
  26   2.0000     -10.331272      -281.1282
  27   2.0000     -10.329134      -281.0700
  28   2.0000     -10.324502      -280.9440
  29   2.0000     -10.323521      -280.9173
  30   2.0000     -10.320593      -280.8376
  31   2.0000     -10.320229      -280.8277
  32   2.0000     -10.320112      -280.8245
  33   2.0000     -10.319909      -280.8190
  34   2.0000     -10.319797      -280.8159
  35   2.0000     -10.319374      -280.8044
  36   2.0000     -10.318482      -280.7802
  37   2.0000     -10.316475      -280.7256
  38   2.0000     -10.315744      -280.7057
  39   2.0000     -10.312359      -280.6136
  40   2.0000     -10.309860      -280.5456
  41   2.0000     -10.309726      -280.5419
  42   2.0000     -10.306860      -280.4639
  43   2.0000     -10.305882      -280.4373
  44   2.0000     -10.304431      -280.3978
  45   2.0000     -10.304187      -280.3912
  46   2.0000     -10.303918      -280.3839
  47   2.0000     -10.302147      -280.3357
  48   2.0000     -10.298275      -280.2303
  49   2.0000     -10.298210      -280.2286
  50   2.0000     -10.298116      -280.2260
  51   2.0000     -10.297525      -280.2099
  52   2.0000     -10.296918      -280.1934
  53   2.0000     -10.296897      -280.1928
  54   2.0000     -10.296149      -280.1725
  55   2.0000     -10.292432      -280.0713
  56   2.0000     -10.291582      -280.0482
  57   2.0000     -10.290089      -280.0076
  58   2.0000     -10.280746      -279.7533
  59   2.0000     -10.278903      -279.7032
  60   2.0000     -10.278892      -279.7029
  61   2.0000     -10.277549      -279.6663
  62   2.0000     -10.262470      -279.2560
  63   2.0000     -10.260583      -279.2047
  64   2.0000     -10.260551      -279.2038
  65   2.0000     -10.260511      -279.2027
  66   2.0000      -9.555365      -260.0147
  67   2.0000      -9.554721      -259.9972
  68   2.0000      -9.553663      -259.9684
  69   2.0000      -9.551404      -259.9069
  70   2.0000      -8.077937      -219.8118
  71   2.0000      -8.077804      -219.8082
  72   2.0000      -8.075740      -219.7521
  73   2.0000      -8.074591      -219.7208
  74   2.0000      -7.325744      -199.3436
  75   2.0000      -7.325132      -199.3270
  76   2.0000      -7.324054      -199.2976
  77   2.0000      -7.321801      -199.2363
  78   2.0000      -7.315614      -199.0680
  79   2.0000      -7.314965      -199.0503
  80   2.0000      -7.314911      -199.0489
  81   2.0000      -7.314246      -199.0307
  82   2.0000      -7.313928      -199.0221
  83   2.0000      -7.313208      -199.0025
  84   2.0000      -7.311644      -198.9600
  85   2.0000      -7.310932      -198.9406
  86   2.0000      -6.047378      -164.5575
  87   2.0000      -6.047237      -164.5537
  88   2.0000      -6.045142      -164.4967
  89   2.0000      -6.043772      -164.4594
  90   2.0000      -6.043263      -164.4456
  91   2.0000      -6.043136      -164.4421
  92   2.0000      -6.040998      -164.3839
  93   2.0000      -6.039807      -164.3515
  94   2.0000      -6.039788      -164.3510
  95   2.0000      -6.039688      -164.3483
  96   2.0000      -6.037733      -164.2951
  97   2.0000      -6.036761      -164.2686
  98   2.0000      -1.135858       -30.9083
  99   2.0000      -1.133624       -30.8475
 100   2.0000      -1.035284       -28.1715
 101   2.0000      -1.032086       -28.0845
 102   2.0000      -1.029813       -28.0226
 103   2.0000      -1.028702       -27.9924
 104   2.0000      -1.016907       -27.6715
 105   2.0000      -1.014727       -27.6121
 106   2.0000      -1.001776       -27.2597
 107   2.0000      -0.995667       -27.0935
 108   2.0000      -0.993523       -27.0351
 109   2.0000      -0.992005       -26.9938
 110   2.0000      -0.989164       -26.9165
 111   2.0000      -0.984946       -26.8017
 112   2.0000      -0.962136       -26.1811
 113   2.0000      -0.959461       -26.1083
 114   2.0000      -0.952533       -25.9197
 115   2.0000      -0.941272       -25.6133
 116   2.0000      -0.932534       -25.3755
 117   2.0000      -0.930691       -25.3254
 118   2.0000      -0.907999       -24.7079
 119   2.0000      -0.904949       -24.6249
 120   2.0000      -0.894233       -24.3333
 121   2.0000      -0.885297       -24.0902
 122   2.0000      -0.869452       -23.6590
 123   2.0000      -0.861366       -23.4390
 124   2.0000      -0.859084       -23.3769
 125   2.0000      -0.858361       -23.3572
 126   2.0000      -0.854994       -23.2656
 127   2.0000      -0.851212       -23.1627
 128   2.0000      -0.849439       -23.1144
 129   2.0000      -0.848926       -23.1005
 130   2.0000      -0.848102       -23.0780
 131   2.0000      -0.843734       -22.9592
 132   2.0000      -0.819839       -22.3090
 133   2.0000      -0.798949       -21.7405
 134   2.0000      -0.785042       -21.3621
 135   2.0000      -0.774343       -21.0709
 136   2.0000      -0.770451       -20.9650
 137   2.0000      -0.767305       -20.8794
 138   2.0000      -0.765274       -20.8242
 139   2.0000      -0.749817       -20.4036
 140   2.0000      -0.733500       -19.9596
 141   2.0000      -0.715504       -19.4699
 142   2.0000      -0.707595       -19.2546
 143   2.0000      -0.706579       -19.2270
 144   2.0000      -0.703359       -19.1394
 145   2.0000      -0.697570       -18.9819
 146   2.0000      -0.695975       -18.9384
 147   2.0000      -0.689989       -18.7755
 148   2.0000      -0.689002       -18.7487
 149   2.0000      -0.682190       -18.5633
 150   2.0000      -0.674282       -18.3481
 151   2.0000      -0.657658       -17.8958
 152   2.0000      -0.650577       -17.7031
 153   2.0000      -0.647936       -17.6312
 154   2.0000      -0.643476       -17.5099
 155   2.0000      -0.637106       -17.3365
 156   2.0000      -0.634504       -17.2657
 157   2.0000      -0.625714       -17.0265
 158   2.0000      -0.622300       -16.9336
 159   2.0000      -0.616837       -16.7850
 160   2.0000      -0.613206       -16.6862
 161   2.0000      -0.604273       -16.4431
 162   2.0000      -0.596593       -16.2341
 163   2.0000      -0.586901       -15.9704
 164   2.0000      -0.580878       -15.8065
 165   2.0000      -0.575688       -15.6653
 166   2.0000      -0.570775       -15.5316
 167   2.0000      -0.564843       -15.3702
 168   2.0000      -0.561565       -15.2810
 169   2.0000      -0.557283       -15.1644
 170   2.0000      -0.556286       -15.1373
 171   2.0000      -0.552268       -15.0280
 172   2.0000      -0.549234       -14.9454
 173   2.0000      -0.549027       -14.9398
 174   2.0000      -0.544011       -14.8033
 175   2.0000      -0.543826       -14.7983
 176   2.0000      -0.543061       -14.7774
 177   2.0000      -0.541052       -14.7228
 178   2.0000      -0.536000       -14.5853
 179   2.0000      -0.535450       -14.5703
 180   2.0000      -0.534818       -14.5531
 181   2.0000      -0.529189       -14.4000
 182   2.0000      -0.527100       -14.3431
 183   2.0000      -0.521048       -14.1784
 184   2.0000      -0.517802       -14.0901
 185   2.0000      -0.515483       -14.0270
 186   2.0000      -0.513318       -13.9681
 187   2.0000      -0.510137       -13.8815
 188   2.0000      -0.509360       -13.8604
 189   2.0000      -0.506607       -13.7855
 190   2.0000      -0.505170       -13.7464
 191   2.0000      -0.503610       -13.7039
 192   2.0000      -0.498110       -13.5543
 193   2.0000      -0.495174       -13.4744
 194   2.0000      -0.493275       -13.4227
 195   2.0000      -0.489881       -13.3303
 196   2.0000      -0.488191       -13.2844
 197   2.0000      -0.486418       -13.2361
 198   2.0000      -0.484537       -13.1849
 199   2.0000      -0.480047       -13.0627
 200   2.0000      -0.479560       -13.0495
 201   2.0000      -0.474178       -12.9030
 202   2.0000      -0.473867       -12.8946
 203   2.0000      -0.470145       -12.7933
 204   2.0000      -0.466038       -12.6816
 205   2.0000      -0.465018       -12.6538
 206   2.0000      -0.463129       -12.6024
 207   2.0000      -0.459661       -12.5080
 208   2.0000      -0.456320       -12.4171
 209   2.0000      -0.452500       -12.3131
 210   2.0000      -0.451730       -12.2922
 211   2.0000      -0.448769       -12.2116
 212   2.0000      -0.448050       -12.1921
 213   2.0000      -0.447421       -12.1749
 214   2.0000      -0.445027       -12.1098
 215   2.0000      -0.443157       -12.0589
 216   2.0000      -0.441476       -12.0132
 217   2.0000      -0.439104       -11.9486
 218   2.0000      -0.437056       -11.8929
 219   2.0000      -0.436425       -11.8757
 220   2.0000      -0.436261       -11.8713
 221   2.0000      -0.433343       -11.7919
 222   2.0000      -0.429837       -11.6965
 223   2.0000      -0.428223       -11.6525
 224   2.0000      -0.428125       -11.6499
 225   2.0000      -0.426862       -11.6155
 226   2.0000      -0.426537       -11.6067
 227   2.0000      -0.426119       -11.5953
 228   2.0000      -0.423536       -11.5250
 229   2.0000      -0.421898       -11.4804
 230   2.0000      -0.414999       -11.2927
 231   2.0000      -0.412568       -11.2265
 232   2.0000      -0.410815       -11.1788
 233   2.0000      -0.410222       -11.1627
 234   2.0000      -0.408993       -11.1293
 235   2.0000      -0.408640       -11.1197
 236   2.0000      -0.405746       -11.0409
 237   2.0000      -0.403838       -10.9890
 238   2.0000      -0.401311       -10.9202
 239   2.0000      -0.400737       -10.9046
 240   2.0000      -0.400421       -10.8960
 241   2.0000      -0.386379       -10.5139
 242   2.0000      -0.382066       -10.3965
 243   2.0000      -0.379672       -10.3314
 244   2.0000      -0.371322       -10.1042
 245   2.0000      -0.352536        -9.5930
 246   2.0000      -0.347513        -9.4563
 247   2.0000      -0.343225        -9.3396
 248   2.0000      -0.343077        -9.3356
 249   2.0000      -0.341793        -9.3007
 250   2.0000      -0.341290        -9.2870
 251   2.0000      -0.336528        -9.1574
 252   2.0000      -0.335044        -9.1170
 253   2.0000      -0.334214        -9.0944
 254   2.0000      -0.318222        -8.6593
 255   2.0000      -0.310810        -8.4576
 256   2.0000      -0.307043        -8.3551
 257   2.0000      -0.276988        -7.5372
 258   2.0000      -0.241810        -6.5800
 259   0.0000      -0.106067        -2.8862
 260   0.0000      -0.089729        -2.4417
 261   0.0000      -0.069565        -1.8930
 262   0.0000      -0.064296        -1.7496
 263   0.0000      -0.042111        -1.1459

MULLIKEN ATOMIC CHARGES
-----------------------
   0 C :   -0.018231
   1 C :    0.052116
   2 C :    0.060295
   3 C :   -0.035678
   4 C :   -0.001371
   5 C :    0.019092
   6 C :    0.141862
   7 C :   -0.144479
   8 C :    0.248996
   9 C :    0.047063
  10 C :   -0.109520
  11 C :    0.002779
  12 C :    0.017619
  13 C :   -0.055812
  14 S :    0.173670
  15 C :   -0.097096
  16 C :    0.019125
  17 C :   -0.087315
  18 C :   -0.065646
  19 C :   -0.050181
  20 S :    0.160174
  21 C :   -0.048277
  22 S :    0.159960
  23 C :   -0.089617
  24 C :    0.026977
  25 C :   -0.071448
  26 C :   -0.052951
  27 C :   -0.004677
  28 C :   -0.088905
  29 S :    0.173125
  30 C :   -0.119161
  31 C :   -0.029889
  32 C :    0.046145
  33 C :   -0.101182
  34 C :    0.317725
  35 C :    0.029042
  36 C :   -0.008773
  37 C :    0.156266
  38 C :   -0.013117
  39 C :    0.045505
  40 C :    0.064525
  41 C :   -0.036233
  42 Cl:   -0.046717
  43 Cl:   -0.037517
  44 O :   -0.164506
  45 C :   -0.360881
  46 C :   -0.189883
  47 C :   -0.183607
  48 C :    0.047433
  49 C :    0.064178
  50 C :    0.030361
  51 C :    0.023841
  52 C :    0.056233
  53 C :    0.073533
  54 C :    0.023005
  55 C :    0.021193
  56 O :   -0.140806
  57 Cl:   -0.038967
  58 Cl:   -0.045135
  59 C :   -0.324677
  60 C :   -0.177564
  61 C :   -0.198971
  62 N :    0.164553
  63 N :    0.157541
  64 N :    0.150926
  65 N :    0.147554
  66 H :    0.003962
  67 H :    0.001054
  68 H :    0.027806
  69 H :   -0.007186
  70 H :   -0.010377
  71 H :   -0.009896
  72 H :    0.021458
  73 H :   -0.001085
  74 H :   -0.001015
  75 H :   -0.005200
  76 H :    0.022669
  77 H :    0.002738
  78 H :    0.009054
  79 H :    0.000843
  80 H :    0.023875
  81 H :    0.017611
  82 H :    0.013041
  83 H :    0.022514
  84 H :    0.015568
  85 H :    0.019755
  86 H :    0.011482
  87 H :    0.003224
  88 H :    0.020631
  89 H :   -0.001074
  90 H :    0.032684
  91 H :    0.019784
  92 H :    0.003807
  93 H :    0.020393
  94 H :    0.015847
  95 H :    0.022413
Sum of atomic charges:   -0.0000000

LOEWDIN ATOMIC CHARGES
----------------------
   0 C :   -0.015609
   1 C :   -0.130739
   2 C :   -0.135988
   3 C :    0.000218
   4 C :   -0.044981
   5 C :   -0.010953
   6 C :    0.082019
   7 C :   -0.113817
   8 C :    0.060225
   9 C :    0.053517
  10 C :   -0.183630
  11 C :   -0.004778
  12 C :   -0.037482
  13 C :   -0.159085
  14 S :    0.470345
  15 C :   -0.032149
  16 C :   -0.015170
  17 C :   -0.200569
  18 C :   -0.057766
  19 C :   -0.170188
  20 S :    0.448805
  21 C :   -0.164628
  22 S :    0.449016
  23 C :   -0.205774
  24 C :   -0.011422
  25 C :   -0.061283
  26 C :   -0.161302
  27 C :   -0.042486
  28 C :   -0.032419
  29 S :    0.462316
  30 C :   -0.180040
  31 C :   -0.005651
  32 C :    0.045327
  33 C :   -0.115309
  34 C :    0.076582
  35 C :   -0.013962
  36 C :   -0.042725
  37 C :    0.087955
  38 C :   -0.012814
  39 C :   -0.131768
  40 C :   -0.135471
  41 C :   -0.001910
  42 Cl:    0.155954
  43 Cl:    0.159685
  44 O :   -0.150913
  45 C :   -0.144524
  46 C :   -0.019888
  47 C :   -0.023758
  48 C :   -0.011854
  49 C :   -0.008457
  50 C :   -0.056575
  51 C :   -0.055407
  52 C :   -0.012775
  53 C :   -0.005834
  54 C :   -0.057151
  55 C :   -0.056032
  56 O :   -0.142649
  57 Cl:    0.160509
  58 Cl:    0.156894
  59 C :   -0.144314
  60 C :   -0.022762
  61 C :   -0.029533
  62 N :   -0.053534
  63 N :   -0.049936
  64 N :   -0.053081
  65 N :   -0.053101
  66 H :    0.044303
  67 H :    0.046055
  68 H :    0.051805
  69 H :    0.037141
  70 H :    0.028736
  71 H :    0.028718
  72 H :    0.033788
  73 H :    0.042237
  74 H :    0.044099
  75 H :    0.044040
  76 H :    0.026895
  77 H :    0.022325
  78 H :    0.027466
  79 H :    0.021111
  80 H :    0.028374
  81 H :    0.030327
  82 H :    0.023340
  83 H :    0.026299
  84 H :    0.027299
  85 H :    0.024056
  86 H :    0.022941
  87 H :    0.022987
  88 H :    0.032443
  89 H :    0.020431
  90 H :    0.029008
  91 H :    0.031842
  92 H :    0.018981
  93 H :    0.025309
  94 H :    0.026998
  95 H :    0.025224

  Mayer bond orders larger than 0.100000
B(  0-C ,  1-C ) :   1.3533 B(  0-C ,  5-C ) :   1.3492 B(  0-C , 66-H ) :   0.9919
B(  1-C ,  2-C ) :   1.4112 B(  1-C , 57-Cl) :   1.0659 B(  2-C ,  3-C ) :   1.3417
B(  2-C , 58-Cl) :   1.0450 B(  3-C ,  4-C ) :   1.3504 B(  3-C , 67-H ) :   1.0175
B(  4-C ,  5-C ) :   1.3316 B(  4-C ,  6-C ) :   0.9167 B(  5-C ,  8-C ) :   1.0037
B(  6-C ,  7-C ) :   0.9535 B(  6-C , 56-O ) :   2.2734 B(  7-C ,  8-C ) :   1.0576
B(  7-C ,  9-C ) :   1.5879 B(  8-C , 59-C ) :   1.6479 B(  9-C , 10-C ) :   1.1748
B(  9-C , 68-H ) :   0.9498 B( 10-C , 11-C ) :   1.3597 B( 10-C , 14-S ) :   1.0874
B( 11-C , 12-C ) :   1.3500 B( 11-C , 69-H ) :   1.0085 B( 12-C , 13-C ) :   1.4697
B( 12-C , 15-C ) :   0.9188 B( 13-C , 14-S ) :   1.1162 B( 13-C , 17-C ) :   1.2065
B( 15-C , 16-C ) :   0.9335 B( 15-C , 52-C ) :   1.0322 B( 15-C , 53-C ) :   1.0161
B( 16-C , 17-C ) :   1.5033 B( 16-C , 18-C ) :   1.3288 B( 17-C , 20-S ) :   1.0704
B( 18-C , 19-C ) :   1.4355 B( 18-C , 70-H ) :   0.9986 B( 19-C , 20-S ) :   1.1209
B( 19-C , 21-C ) :   1.1786 B( 21-C , 22-S ) :   1.1244 B( 21-C , 25-C ) :   1.4353
B( 22-S , 23-C ) :   1.0662 B( 23-C , 24-C ) :   1.5037 B( 23-C , 26-C ) :   1.2009
B( 24-C , 25-C ) :   1.3277 B( 24-C , 28-C ) :   0.9333 B( 25-C , 71-H ) :   0.9991
B( 26-C , 27-C ) :   1.4357 B( 26-C , 29-S ) :   1.1354 B( 27-C , 28-C ) :   0.9178
B( 27-C , 31-C ) :   1.3598 B( 28-C , 48-C ) :   1.0249 B( 28-C , 49-C ) :   1.0221
B( 29-S , 30-C ) :   1.0665 B( 30-C , 31-C ) :   1.3551 B( 30-C , 32-C ) :   1.2812
B( 31-C , 72-H ) :   0.9757 B( 32-C , 33-C ) :   1.5261 B( 32-C , 73-H ) :   0.9039
B( 33-C , 34-C ) :   1.1060 B( 33-C , 37-C ) :   0.9576 B( 34-C , 35-C ) :   0.9782
B( 34-C , 45-C ) :   1.6107 B( 35-C , 36-C ) :   1.3343 B( 35-C , 38-C ) :   1.3436
B( 36-C , 37-C ) :   0.9544 B( 36-C , 41-C ) :   1.3456 B( 37-C , 44-O ) :   2.1473
B( 38-C , 39-C ) :   1.3559 B( 38-C , 74-H ) :   0.9859 B( 39-C , 40-C ) :   1.4126
B( 39-C , 43-Cl) :   1.0755 B( 40-C , 41-C ) :   1.3352 B( 40-C , 42-Cl) :   1.0434
B( 41-C , 75-H ) :   1.0179 B( 45-C , 46-C ) :   1.1465 B( 45-C , 47-C ) :   1.1416
B( 46-C , 64-N ) :   2.9677 B( 47-C , 65-N ) :   2.9600 B( 48-C , 51-C ) :   1.1014
B( 48-C , 76-H ) :   0.9417 B( 48-C , 77-H ) :   0.9430 B( 49-C , 50-C ) :   1.1118
B( 49-C , 78-H ) :   0.9408 B( 49-C , 79-H ) :   0.9377 B( 50-C , 80-H ) :   0.9640
B( 50-C , 81-H ) :   0.9598 B( 50-C , 82-H ) :   0.9626 B( 51-C , 83-H ) :   0.9673
B( 51-C , 84-H ) :   0.9643 B( 51-C , 85-H ) :   0.9634 B( 52-C , 55-C ) :   1.0979
B( 52-C , 86-H ) :   0.9409 B( 52-C , 87-H ) :   0.9421 B( 53-C , 54-C ) :   1.1149
B( 53-C , 88-H ) :   0.9394 B( 53-C , 89-H ) :   0.9383 B( 54-C , 90-H ) :   0.9619
B( 54-C , 91-H ) :   0.9589 B( 54-C , 92-H ) :   0.9640 B( 55-C , 93-H ) :   0.9668
B( 55-C , 94-H ) :   0.9652 B( 55-C , 95-H ) :   0.9647 B( 59-C , 60-C ) :   1.1331
B( 59-C , 61-C ) :   1.1556 B( 60-C , 63-N ) :   2.9927 B( 61-C , 62-N ) :   3.0146

-----------------------------------------------------------------------------
         ABSORPTION SPECTRUM VIA TRANSITION ELECTRIC DIPOLE MOMENTS
-----------------------------------------------------------------------------
State   Energy  Wavelength   fosc         T2         TX        TY        TZ
        (cm-1)    (nm)                  (au**2)     (au)      (au)      (au)
-----------------------------------------------------------------------------
   0   14886.8    671.7   2.191364417  48.46059  -4.10030   5.01345   2.55215
   1   19282.8    518.6   0.416743754   7.11499  -0.24743   2.15120   1.55759
   2   23672.8    422.4   0.168893899   2.34877  -0.03030  -1.44862  -0.49935
   3   24281.4    411.8   0.039713467   0.53844  -0.23447  -0.47634  -0.50652
   4   24755.0    404.0   0.035295207   0.46938  -0.62522  -0.08901   0.26563
   5   27900.0    358.4   0.041227780   0.48648  -0.48707  -0.30345  -0.39643
   6   29179.0    342.7   0.206681495   2.33188  -1.14131   0.23524   0.98689
   7   29674.1    337.0   0.024300020   0.26959  -0.23482   0.43594   0.15623
   8   30063.3    332.6   0.172317721   1.88699  -0.46058  -1.29070  -0.09457
   9   30627.2    326.5   0.002826773   0.03039   0.12810   0.11568  -0.02435
  10   30881.3    323.8   0.058801258   0.62685   0.61972   0.08614  -0.48517
  11   32334.6    309.3   0.102622138   1.04484  -0.58840   0.16880   0.81862
  12   32640.5    306.4   0.056863519   0.57353  -0.64235  -0.40114  -0.00167
  13   32921.0    303.8   0.005520008   0.05520  -0.13700  -0.10762   0.15763
  14   33146.3    301.7   0.013580338   0.13488   0.23917   0.00015  -0.27871
  15   33774.9    296.1   0.020956437   0.20427   0.43018   0.12378   0.06238
  16   34528.8    289.6   0.174977729   1.66831  -0.06456  -1.18053  -0.52009
  17   34694.7    288.2   0.006075904   0.05765   0.21018   0.06851  -0.09373
  18   34756.9    287.7   0.156428306   1.48166  -0.85306  -0.35591   0.79202
  19   35149.2    284.5   0.118876802   1.11342  -0.18572   0.85640   0.58780
  20   35417.1    282.3   0.090824765   0.84424  -0.17080  -0.86403  -0.26178
  21   36019.5    277.6   0.053424140   0.48829   0.25027   0.51918   0.39510
  22   36565.2    273.5   0.655644133   5.90305  -1.93645  -1.41695   0.38141
  23   36622.5    273.1   0.459969762   4.13483   1.04020  -0.27316  -1.72574
  24   36879.0    271.2   0.019727791   0.17611  -0.08489  -0.18768   0.36562
  25   37180.9    269.0   0.018759164   0.16610   0.02563  -0.31504  -0.25727
  26   38024.7    263.0   0.007065766   0.06117   0.16387   0.18121   0.03851
  27   39111.1    255.7   0.003542991   0.02982   0.01922  -0.16604  -0.04341
  28   39296.9    254.5   0.047524887   0.39814   0.53719   0.32159  -0.07839
  29   39718.4    251.8   0.089908946   0.74522   0.81959   0.27038  -0.01970
  30   40265.4    248.4   0.048107386   0.39333   0.12950   0.57314   0.21925

FINAL SINGLE POINT ENERGY     -5798.474744607181

DIPOLE MOMENT
-------------
                                X             Y             Z
Electronic contribution:    -36.97442     -37.24832     -10.40198
Nuclear contribution   :     36.32375      37.93612      12.70522
                        -----------------------------------------
Total Dipole Moment    :     -0.65067       0.68779       2.30325
                        -----------------------------------------
Magnitude (a.u.)       :      2.49026
Magnitude (Debye)      :      6.32973

Rotational constants in cm-1:     0.002134     0.000213     0.000199
Rotational constants in MHz :    63.983756     6.391502     5.957991

                             ****ORCA TERMINATED NORMALLY****
TOTAL RUN TIME: 0 days 0 hours 58 minutes 23 seconds 39 msec
