                         Program Version 4.2.0 -  RELEASE  -
|  1> # ORCA input file
|  2> # CPDT-4Cl.out: Geometry 103
|  3> ! CAM-B3LYP def2-SVP def2/J RIJCOSX Grid4 TightSCF
|  4> %maxcore 5000
|  5> %tddft
|  6>     Mode sTDDFT
|  7>     Ethresh 5.0
|  8>     maxcore 5000
|  9> end
| 10> * xyz 0 1
| 11>    C       -0.57575         2.01495         1.56806
| 12>    C       -1.63919         2.35525         2.41426
| 13>    C       -1.58080         3.50067         3.23958
| 14>    C       -0.43707         4.30746         3.23674
| 15>    C        0.61909         3.95079         2.41249
| 16>    C        0.56491         2.81932         1.57077
| 17>    C        1.94214         4.62201         2.26629
| 18>    C        2.73638         3.73034         1.35969
| 19>    C        1.81397         2.76246         0.77645
| 20>    C        4.10419         3.85762         1.30100
| 21>    C        5.08317         2.90612         0.90263
| 22>    C        6.38165         3.17481         0.43648
| 23>    C        7.07001         2.02268         0.03556
| 24>    C        6.32059         0.85707         0.27332
| 25>    S        4.77190         1.16547         0.94235
| 26>    C        8.39493         1.67089        -0.64947
| 27>    C        8.27667         0.14835        -0.70435
| 28>    C        7.06119        -0.27946        -0.16322
| 29>    C        9.03152        -0.91045        -1.23774
| 30>    C        8.38983        -2.14586        -1.10492
| 31>    S        6.82955        -1.98278        -0.29876
| 32>    C        8.80459        -3.43495        -1.57563
| 33>    S       10.26741        -3.60426        -2.54570
| 34>    C        9.96871        -5.29677        -2.73325
| 35>    C        8.80557        -5.70978        -2.07522
| 36>    C        8.14736        -4.65895        -1.41914
| 37>    C       10.54718        -6.41772        -3.40268
| 38>    C        9.74597        -7.55668        -3.16031
| 39>    C        8.55523        -7.19935        -2.27415
| 40>    S       11.88036        -6.74985        -4.42109
| 41>    C       11.38381        -8.45918        -4.55660
| 42>    C       10.22655        -8.70183        -3.78667
| 43>    C       12.15476        -9.25753        -5.43116
| 44>    C       12.04198       -10.57541        -5.84800
| 45>    C       12.90823       -11.21885        -6.84312
| 46>    C       12.41502       -12.60683        -7.03326
| 47>    C       11.33174       -12.82034        -6.16269
| 48>    C       11.04241       -11.58327        -5.39883
| 49>    C       12.81388       -13.64066        -7.88555
| 50>    C       12.12825       -14.86148        -7.83068
| 51>    C       11.06334       -15.06653        -6.92704
| 52>    C       10.65406       -14.02620        -6.08710
| 53>   Cl       10.25007       -16.59199        -6.85112
| 54>   Cl       12.61171       -16.12926        -8.90510
| 55>    O       10.14403       -11.48036        -4.57847
| 56>    C       14.00059       -10.68767        -7.51174
| 57>    C       14.78857       -11.45121        -8.42930
| 58>    C       14.46715        -9.34550        -7.35171
| 59>    C        8.58529        -7.94970        -0.91822
| 60>    C        7.19965        -7.40528        -3.01001
| 61>    C        6.88549        -8.83620        -3.44390
| 62>    C        9.88607        -7.79491        -0.13216
| 63>    C        9.64223         2.12920         0.14243
| 64>    C        8.43392         2.20452        -2.11194
| 65>    C        8.39597         3.72131        -2.27976
| 66>    C        9.73385         1.60118         1.57198
| 67>    O        2.31173         5.63995         2.81252
| 68>   Cl       -3.04096         1.33928         2.42651
| 69>   Cl       -2.91082         3.92047         4.26505
| 70>    C        1.95871         2.10698        -0.43386
| 71>    C        1.00243         1.16039        -0.91226
| 72>    C        3.03246         2.39606        -1.33224
| 73>    N        3.87306         2.65770        -2.09058
| 74>    N        0.24256         0.36515        -1.28840
| 75>    N       15.44654       -12.06183        -9.16782
| 76>    N       14.86557        -8.25848        -7.24175
| 77>    H       -0.66849         1.12669         0.94723
| 78>    H       -0.37909         5.19605         3.86647
| 79>    H        4.48843         4.80925         1.68986
| 80>    H        6.75841         4.19507         0.36484
| 81>    H       10.00227        -0.80376        -1.72321
| 82>    H        7.21784        -4.75878        -0.85787
| 83>    H        9.80052        -9.70120        -3.74205
| 84>    H       12.97634        -8.70100        -5.88084
| 85>    H       13.63130       -13.54299        -8.59454
| 86>    H        9.82220       -14.15379        -5.39362
| 87>    H        8.39269        -9.01749        -1.10702
| 88>    H        7.73472        -7.58442        -0.31694
| 89>    H        7.19121        -6.74672        -3.89356
| 90>    H        6.40320        -7.03241        -2.34289
| 91>    H        7.61742        -9.21162        -4.17266
| 92>    H        5.89638        -8.87752        -3.92645
| 93>    H        6.86599        -9.53706        -2.59590
| 94>    H       10.74557        -8.17188        -0.70760
| 95>    H        9.83954        -8.36345         0.80819
| 96>    H       10.08698        -6.74247         0.12069
| 97>    H        9.65749         3.23062         0.15340
| 98>    H       10.53152         1.81676        -0.43271
| 99>    H        7.58591         1.76005        -2.65627
|100>    H        9.34865         1.80068        -2.57836
|101>    H        7.42396         4.13443        -1.97189
|102>    H        8.54080         3.98668        -3.33811
|103>    H        9.18346         4.23296        -1.70737
|104>    H        8.84386         1.88043         2.15825
|105>    H       10.61268         2.01972         2.08564
|106>    H        9.82011         0.50353         1.59552
|107> *
|108>
|109>                          ****END OF INPUT****

CARTESIAN COORDINATES (ANGSTROEM)
---------------------------------
  C     -0.575750    2.014950    1.568060
  C     -1.639190    2.355250    2.414260
  C     -1.580800    3.500670    3.239580
  C     -0.437070    4.307460    3.236740
  C      0.619090    3.950790    2.412490
  C      0.564910    2.819320    1.570770
  C      1.942140    4.622010    2.266290
  C      2.736380    3.730340    1.359690
  C      1.813970    2.762460    0.776450
  C      4.104190    3.857620    1.301000
  C      5.083170    2.906120    0.902630
  C      6.381650    3.174810    0.436480
  C      7.070010    2.022680    0.035560
  C      6.320590    0.857070    0.273320
  S      4.771900    1.165470    0.942350
  C      8.394930    1.670890   -0.649470
  C      8.276670    0.148350   -0.704350
  C      7.061190   -0.279460   -0.163220
  C      9.031520   -0.910450   -1.237740
  C      8.389830   -2.145860   -1.104920
  S      6.829550   -1.982780   -0.298760
  C      8.804590   -3.434950   -1.575630
  S     10.267410   -3.604260   -2.545700
  C      9.968710   -5.296770   -2.733250
  C      8.805570   -5.709780   -2.075220
  C      8.147360   -4.658950   -1.419140
  C     10.547180   -6.417720   -3.402680
  C      9.745970   -7.556680   -3.160310
  C      8.555230   -7.199350   -2.274150
  S     11.880360   -6.749850   -4.421090
  C     11.383810   -8.459180   -4.556600
  C     10.226550   -8.701830   -3.786670
  C     12.154760   -9.257530   -5.431160
  C     12.041980  -10.575410   -5.848000
  C     12.908230  -11.218850   -6.843120
  C     12.415020  -12.606830   -7.033260
  C     11.331740  -12.820340   -6.162690
  C     11.042410  -11.583270   -5.398830
  C     12.813880  -13.640660   -7.885550
  C     12.128250  -14.861480   -7.830680
  C     11.063340  -15.066530   -6.927040
  C     10.654060  -14.026200   -6.087100
  Cl    10.250070  -16.591990   -6.851120
  Cl    12.611710  -16.129260   -8.905100
  O     10.144030  -11.480360   -4.578470
  C     14.000590  -10.687670   -7.511740
  C     14.788570  -11.451210   -8.429300
  C     14.467150   -9.345500   -7.351710
  C      8.585290   -7.949700   -0.918220
  C      7.199650   -7.405280   -3.010010
  C      6.885490   -8.836200   -3.443900
  C      9.886070   -7.794910   -0.132160
  C      9.642230    2.129200    0.142430
  C      8.433920    2.204520   -2.111940
  C      8.395970    3.721310   -2.279760
  C      9.733850    1.601180    1.571980
  O      2.311730    5.639950    2.812520
  Cl    -3.040960    1.339280    2.426510
  Cl    -2.910820    3.920470    4.265050
  C      1.958710    2.106980   -0.433860
  C      1.002430    1.160390   -0.912260
  C      3.032460    2.396060   -1.332240
  N      3.873060    2.657700   -2.090580
  N      0.242560    0.365150   -1.288400
  N     15.446540  -12.061830   -9.167820
  N     14.865570   -8.258480   -7.241750
  H     -0.668490    1.126690    0.947230
  H     -0.379090    5.196050    3.866470
  H      4.488430    4.809250    1.689860
  H      6.758410    4.195070    0.364840
  H     10.002270   -0.803760   -1.723210
  H      7.217840   -4.758780   -0.857870
  H      9.800520   -9.701200   -3.742050
  H     12.976340   -8.701000   -5.880840
  H     13.631300  -13.542990   -8.594540
  H      9.822200  -14.153790   -5.393620
  H      8.392690   -9.017490   -1.107020
  H      7.734720   -7.584420   -0.316940
  H      7.191210   -6.746720   -3.893560
  H      6.403200   -7.032410   -2.342890
  H      7.617420   -9.211620   -4.172660
  H      5.896380   -8.877520   -3.926450
  H      6.865990   -9.537060   -2.595900
  H     10.745570   -8.171880   -0.707600
  H      9.839540   -8.363450    0.808190
  H     10.086980   -6.742470    0.120690
  H      9.657490    3.230620    0.153400
  H     10.531520    1.816760   -0.432710
  H      7.585910    1.760050   -2.656270
  H      9.348650    1.800680   -2.578360
  H      7.423960    4.134430   -1.971890
  H      8.540800    3.986680   -3.338110
  H      9.183460    4.232960   -1.707370
  H      8.843860    1.880430    2.158250
  H     10.612680    2.019720    2.085640
  H      9.820110    0.503530    1.595520

 Total Charge           Charge          ....    0
 Multiplicity           Mult            ....    1
 Number of Electrons    NEL             ....  518
 Basis Dimension        Dim             .... 1106

ORBITAL ENERGIES
----------------

  NO   OCC          E(Eh)            E(eV)
   0   2.0000    -101.601099     -2764.7065
   1   2.0000    -101.599922     -2764.6744
   2   2.0000    -101.598779     -2764.6433
   3   2.0000    -101.596150     -2764.5718
   4   2.0000     -88.983149     -2421.3546
   5   2.0000     -88.982317     -2421.3319
   6   2.0000     -88.981972     -2421.3225
   7   2.0000     -88.979935     -2421.2671
   8   2.0000     -19.222537      -523.0718
   9   2.0000     -19.220708      -523.0220
  10   2.0000     -14.423647      -392.4874
  11   2.0000     -14.422733      -392.4625
  12   2.0000     -14.421302      -392.4236
  13   2.0000     -14.418424      -392.3453
  14   2.0000     -10.374436      -282.3028
  15   2.0000     -10.374352      -282.3005
  16   2.0000     -10.360415      -281.9212
  17   2.0000     -10.359873      -281.9065
  18   2.0000     -10.356815      -281.8233
  19   2.0000     -10.356024      -281.8017
  20   2.0000     -10.352917      -281.7172
  21   2.0000     -10.351617      -281.6818
  22   2.0000     -10.349483      -281.6238
  23   2.0000     -10.348391      -281.5940
  24   2.0000     -10.336797      -281.2785
  25   2.0000     -10.335373      -281.2398
  26   2.0000     -10.334761      -281.2231
  27   2.0000     -10.331949      -281.1466
  28   2.0000     -10.330539      -281.1083
  29   2.0000     -10.327292      -281.0199
  30   2.0000     -10.327017      -281.0124
  31   2.0000     -10.326690      -281.0035
  32   2.0000     -10.325316      -280.9661
  33   2.0000     -10.324347      -280.9398
  34   2.0000     -10.323092      -280.9056
  35   2.0000     -10.322713      -280.8953
  36   2.0000     -10.322409      -280.8870
  37   2.0000     -10.322400      -280.8868
  38   2.0000     -10.321309      -280.8571
  39   2.0000     -10.316752      -280.7331
  40   2.0000     -10.313250      -280.6378
  41   2.0000     -10.313071      -280.6329
  42   2.0000     -10.311457      -280.5890
  43   2.0000     -10.310583      -280.5652
  44   2.0000     -10.309485      -280.5354
  45   2.0000     -10.309069      -280.5240
  46   2.0000     -10.308777      -280.5161
  47   2.0000     -10.305362      -280.4232
  48   2.0000     -10.303498      -280.3724
  49   2.0000     -10.303029      -280.3597
  50   2.0000     -10.302495      -280.3451
  51   2.0000     -10.301819      -280.3268
  52   2.0000     -10.300086      -280.2796
  53   2.0000     -10.299897      -280.2745
  54   2.0000     -10.299467      -280.2627
  55   2.0000     -10.296872      -280.1921
  56   2.0000     -10.296682      -280.1869
  57   2.0000     -10.293785      -280.1081
  58   2.0000     -10.284045      -279.8431
  59   2.0000     -10.282428      -279.7991
  60   2.0000     -10.282013      -279.7878
  61   2.0000     -10.281515      -279.7742
  62   2.0000     -10.267322      -279.3880
  63   2.0000     -10.266830      -279.3746
  64   2.0000     -10.265468      -279.3376
  65   2.0000     -10.264550      -279.3126
  66   2.0000      -9.555768      -260.0257
  67   2.0000      -9.554596      -259.9938
  68   2.0000      -9.553441      -259.9623
  69   2.0000      -9.550865      -259.8923
  70   2.0000      -8.077535      -219.8009
  71   2.0000      -8.076842      -219.7820
  72   2.0000      -8.076277      -219.7667
  73   2.0000      -8.074593      -219.7208
  74   2.0000      -7.326258      -199.3576
  75   2.0000      -7.325084      -199.3257
  76   2.0000      -7.323918      -199.2939
  77   2.0000      -7.321356      -199.2242
  78   2.0000      -7.315997      -199.0784
  79   2.0000      -7.315327      -199.0602
  80   2.0000      -7.314821      -199.0464
  81   2.0000      -7.314150      -199.0281
  82   2.0000      -7.313691      -199.0157
  83   2.0000      -7.313001      -198.9969
  84   2.0000      -7.311076      -198.9445
  85   2.0000      -7.310426      -198.9268
  86   2.0000      -6.047056      -164.5488
  87   2.0000      -6.046339      -164.5292
  88   2.0000      -6.045724      -164.5125
  89   2.0000      -6.043823      -164.4608
  90   2.0000      -6.042928      -164.4364
  91   2.0000      -6.042211      -164.4169
  92   2.0000      -6.041541      -164.3987
  93   2.0000      -6.039831      -164.3521
  94   2.0000      -6.039350      -164.3391
  95   2.0000      -6.038678      -164.3208
  96   2.0000      -6.038292      -164.3103
  97   2.0000      -6.036762      -164.2687
  98   2.0000      -1.133203       -30.8360
  99   2.0000      -1.133037       -30.8315
 100   2.0000      -1.028381       -27.9837
 101   2.0000      -1.025829       -27.9142
 102   2.0000      -1.023231       -27.8435
 103   2.0000      -1.022450       -27.8223
 104   2.0000      -1.010751       -27.5039
 105   2.0000      -1.009204       -27.4618
 106   2.0000      -0.995959       -27.1014
 107   2.0000      -0.991352       -26.9760
 108   2.0000      -0.991095       -26.9691
 109   2.0000      -0.986554       -26.8455
 110   2.0000      -0.983494       -26.7622
 111   2.0000      -0.979589       -26.6560
 112   2.0000      -0.959390       -26.1063
 113   2.0000      -0.956246       -26.0208
 114   2.0000      -0.946274       -25.7494
 115   2.0000      -0.935548       -25.4576
 116   2.0000      -0.928149       -25.2562
 117   2.0000      -0.926128       -25.2012
 118   2.0000      -0.903714       -24.5913
 119   2.0000      -0.900393       -24.5009
 120   2.0000      -0.889208       -24.1966
 121   2.0000      -0.880268       -23.9533
 122   2.0000      -0.865270       -23.5452
 123   2.0000      -0.858230       -23.3536
 124   2.0000      -0.854936       -23.2640
 125   2.0000      -0.854030       -23.2393
 126   2.0000      -0.850879       -23.1536
 127   2.0000      -0.847967       -23.0744
 128   2.0000      -0.845180       -22.9985
 129   2.0000      -0.844500       -22.9800
 130   2.0000      -0.843629       -22.9563
 131   2.0000      -0.839271       -22.8377
 132   2.0000      -0.816700       -22.2235
 133   2.0000      -0.796754       -21.6808
 134   2.0000      -0.781630       -21.2692
 135   2.0000      -0.771561       -20.9952
 136   2.0000      -0.767421       -20.8826
 137   2.0000      -0.762853       -20.7583
 138   2.0000      -0.759961       -20.6796
 139   2.0000      -0.747742       -20.3471
 140   2.0000      -0.730091       -19.8668
 141   2.0000      -0.713332       -19.4107
 142   2.0000      -0.704904       -19.1814
 143   2.0000      -0.702655       -19.1202
 144   2.0000      -0.700970       -19.0744
 145   2.0000      -0.694676       -18.9031
 146   2.0000      -0.692310       -18.8387
 147   2.0000      -0.687533       -18.7087
 148   2.0000      -0.686313       -18.6755
 149   2.0000      -0.680223       -18.5098
 150   2.0000      -0.673031       -18.3141
 151   2.0000      -0.656242       -17.8572
 152   2.0000      -0.648169       -17.6376
 153   2.0000      -0.643909       -17.5217
 154   2.0000      -0.639360       -17.3979
 155   2.0000      -0.633150       -17.2289
 156   2.0000      -0.630110       -17.1462
 157   2.0000      -0.622994       -16.9525
 158   2.0000      -0.619968       -16.8702
 159   2.0000      -0.613800       -16.7024
 160   2.0000      -0.609580       -16.5875
 161   2.0000      -0.601568       -16.3695
 162   2.0000      -0.593314       -16.1449
 163   2.0000      -0.583180       -15.8691
 164   2.0000      -0.578424       -15.7397
 165   2.0000      -0.573566       -15.6075
 166   2.0000      -0.567492       -15.4422
 167   2.0000      -0.560793       -15.2600
 168   2.0000      -0.558543       -15.1987
 169   2.0000      -0.553477       -15.0609
 170   2.0000      -0.551716       -15.0129
 171   2.0000      -0.549102       -14.9418
 172   2.0000      -0.547163       -14.8891
 173   2.0000      -0.546687       -14.8761
 174   2.0000      -0.540164       -14.6986
 175   2.0000      -0.539716       -14.6864
 176   2.0000      -0.539040       -14.6680
 177   2.0000      -0.537565       -14.6279
 178   2.0000      -0.533480       -14.5167
 179   2.0000      -0.531960       -14.4754
 180   2.0000      -0.530694       -14.4409
 181   2.0000      -0.527255       -14.3473
 182   2.0000      -0.524232       -14.2651
 183   2.0000      -0.518498       -14.1090
 184   2.0000      -0.514847       -14.0097
 185   2.0000      -0.512726       -13.9520
 186   2.0000      -0.510024       -13.8785
 187   2.0000      -0.508419       -13.8348
 188   2.0000      -0.504376       -13.7248
 189   2.0000      -0.503211       -13.6931
 190   2.0000      -0.501858       -13.6563
 191   2.0000      -0.500039       -13.6068
 192   2.0000      -0.494960       -13.4685
 193   2.0000      -0.492058       -13.3896
 194   2.0000      -0.491046       -13.3620
 195   2.0000      -0.486907       -13.2494
 196   2.0000      -0.486213       -13.2305
 197   2.0000      -0.483573       -13.1587
 198   2.0000      -0.482039       -13.1169
 199   2.0000      -0.478162       -13.0115
 200   2.0000      -0.476964       -12.9789
 201   2.0000      -0.472069       -12.8457
 202   2.0000      -0.471328       -12.8255
 203   2.0000      -0.468302       -12.7431
 204   2.0000      -0.464826       -12.6486
 205   2.0000      -0.463545       -12.6137
 206   2.0000      -0.461625       -12.5615
 207   2.0000      -0.458835       -12.4855
 208   2.0000      -0.456438       -12.4203
 209   2.0000      -0.453407       -12.3378
 210   2.0000      -0.452120       -12.3028
 211   2.0000      -0.451761       -12.2930
 212   2.0000      -0.447799       -12.1852
 213   2.0000      -0.446469       -12.1490
 214   2.0000      -0.445804       -12.1309
 215   2.0000      -0.444367       -12.0918
 216   2.0000      -0.439813       -11.9679
 217   2.0000      -0.436616       -11.8809
 218   2.0000      -0.434802       -11.8316
 219   2.0000      -0.434240       -11.8163
 220   2.0000      -0.433664       -11.8006
 221   2.0000      -0.429991       -11.7006
 222   2.0000      -0.427755       -11.6398
 223   2.0000      -0.426783       -11.6134
 224   2.0000      -0.425734       -11.5848
 225   2.0000      -0.425001       -11.5649
 226   2.0000      -0.424436       -11.5495
 227   2.0000      -0.423947       -11.5362
 228   2.0000      -0.420073       -11.4308
 229   2.0000      -0.419576       -11.4172
 230   2.0000      -0.414525       -11.2798
 231   2.0000      -0.411819       -11.2062
 232   2.0000      -0.409647       -11.1471
 233   2.0000      -0.409044       -11.1306
 234   2.0000      -0.407877       -11.0989
 235   2.0000      -0.407456       -11.0874
 236   2.0000      -0.404044       -10.9946
 237   2.0000      -0.403467       -10.9789
 238   2.0000      -0.399699       -10.8764
 239   2.0000      -0.399552       -10.8724
 240   2.0000      -0.398273       -10.8376
 241   2.0000      -0.384972       -10.4756
 242   2.0000      -0.383727       -10.4418
 243   2.0000      -0.380708       -10.3596
 244   2.0000      -0.369927       -10.0662
 245   2.0000      -0.351926        -9.5764
 246   2.0000      -0.345173        -9.3926
 247   2.0000      -0.343379        -9.3438
 248   2.0000      -0.342925        -9.3315
 249   2.0000      -0.340627        -9.2689
 250   2.0000      -0.340045        -9.2531
 251   2.0000      -0.336218        -9.1490
 252   2.0000      -0.334016        -9.0890
 253   2.0000      -0.333365        -9.0713
 254   2.0000      -0.318190        -8.6584
 255   2.0000      -0.310973        -8.4620
 256   2.0000      -0.307431        -8.3656
 257   2.0000      -0.278086        -7.5671
 258   2.0000      -0.244360        -6.6494
 259   0.0000      -0.106276        -2.8919
 260   0.0000      -0.091853        -2.4995
 261   0.0000      -0.070393        -1.9155
 262   0.0000      -0.065191        -1.7739
 263   0.0000      -0.043306        -1.1784

MULLIKEN ATOMIC CHARGES
-----------------------
   0 C :   -0.012872
   1 C :    0.038498
   2 C :    0.053054
   3 C :   -0.029629
   4 C :   -0.006089
   5 C :    0.029567
   6 C :    0.143831
   7 C :   -0.147597
   8 C :    0.218281
   9 C :    0.059476
  10 C :   -0.123894
  11 C :    0.008303
  12 C :    0.020322
  13 C :   -0.064593
  14 S :    0.175046
  15 C :   -0.100841
  16 C :    0.011294
  17 C :   -0.083239
  18 C :   -0.048691
  19 C :   -0.062995
  20 S :    0.157582
  21 C :   -0.057194
  22 S :    0.162580
  23 C :   -0.090351
  24 C :    0.015944
  25 C :   -0.054330
  26 C :   -0.052876
  27 C :   -0.010722
  28 C :   -0.088078
  29 S :    0.173180
  30 C :   -0.140024
  31 C :   -0.018172
  32 C :    0.058855
  33 C :   -0.099296
  34 C :    0.278483
  35 C :    0.035796
  36 C :   -0.014990
  37 C :    0.158233
  38 C :   -0.013906
  39 C :    0.037020
  40 C :    0.059281
  41 C :   -0.032984
  42 Cl:   -0.047884
  43 Cl:   -0.039569
  44 O :   -0.170490
  45 C :   -0.328864
  46 C :   -0.159184
  47 C :   -0.157520
  48 C :    0.043039
  49 C :    0.055109
  50 C :    0.006465
  51 C :    0.005521
  52 C :    0.041630
  53 C :    0.057885
  54 C :    0.006612
  55 C :    0.007938
  56 O :   -0.144737
  57 Cl:   -0.039095
  58 Cl:   -0.045674
  59 C :   -0.303641
  60 C :   -0.153705
  61 C :   -0.175027
  62 N :    0.142582
  63 N :    0.123737
  64 N :    0.124871
  65 N :    0.115084
  66 H :    0.011394
  67 H :    0.011350
  68 H :    0.036809
  69 H :    0.004703
  70 H :   -0.000256
  71 H :    0.001988
  72 H :    0.031438
  73 H :    0.001313
  74 H :    0.008013
  75 H :    0.006273
  76 H :    0.021404
  77 H :    0.005394
  78 H :    0.014975
  79 H :    0.005172
  80 H :    0.030885
  81 H :    0.022146
  82 H :    0.018259
  83 H :    0.028088
  84 H :    0.020548
  85 H :    0.024422
  86 H :    0.015142
  87 H :    0.006264
  88 H :    0.027795
  89 H :    0.003264
  90 H :    0.030366
  91 H :    0.025322
  92 H :    0.011060
  93 H :    0.023287
  94 H :    0.020834
  95 H :    0.025999
Sum of atomic charges:   -0.0000000

LOEWDIN ATOMIC CHARGES
----------------------
   0 C :   -0.017509
   1 C :   -0.124891
   2 C :   -0.130285
   3 C :   -0.001706
   4 C :   -0.046887
   5 C :   -0.010646
   6 C :    0.087095
   7 C :   -0.113005
   8 C :    0.063576
   9 C :    0.053145
  10 C :   -0.186097
  11 C :   -0.006919
  12 C :   -0.039280
  13 C :   -0.158971
  14 S :    0.462047
  15 C :   -0.025920
  16 C :   -0.017692
  17 C :   -0.198646
  18 C :   -0.059188
  19 C :   -0.168148
  20 S :    0.442547
  21 C :   -0.164925
  22 S :    0.440770
  23 C :   -0.203086
  24 C :   -0.013984
  25 C :   -0.063285
  26 C :   -0.159519
  27 C :   -0.043445
  28 C :   -0.028510
  29 S :    0.457346
  30 C :   -0.179006
  31 C :   -0.006359
  32 C :    0.045893
  33 C :   -0.116861
  34 C :    0.081155
  35 C :   -0.014009
  36 C :   -0.044925
  37 C :    0.093113
  38 C :   -0.014113
  39 C :   -0.126760
  40 C :   -0.129833
  41 C :   -0.003534
  42 Cl:    0.148654
  43 Cl:    0.152010
  44 O :   -0.154827
  45 C :   -0.145122
  46 C :   -0.013441
  47 C :   -0.015047
  48 C :   -0.016115
  49 C :   -0.013178
  50 C :   -0.062475
  51 C :   -0.061555
  52 C :   -0.018985
  53 C :   -0.011259
  54 C :   -0.062779
  55 C :   -0.061964
  56 O :   -0.144010
  57 Cl:    0.152700
  58 Cl:    0.149690
  59 C :   -0.141549
  60 C :   -0.015687
  61 C :   -0.025429
  62 N :   -0.056215
  63 N :   -0.055664
  64 N :   -0.058105
  65 N :   -0.059451
  66 H :    0.046318
  67 H :    0.049436
  68 H :    0.054518
  69 H :    0.040004
  70 H :    0.032778
  71 H :    0.032231
  72 H :    0.037668
  73 H :    0.043272
  74 H :    0.045865
  75 H :    0.047579
  76 H :    0.027037
  77 H :    0.023836
  78 H :    0.029637
  79 H :    0.023159
  80 H :    0.030031
  81 H :    0.032597
  82 H :    0.025109
  83 H :    0.028302
  84 H :    0.029830
  85 H :    0.026142
  86 H :    0.024418
  87 H :    0.024878
  88 H :    0.035124
  89 H :    0.022163
  90 H :    0.029318
  91 H :    0.034516
  92 H :    0.021389
  93 H :    0.027105
  94 H :    0.029685
  95 H :    0.027120

  Mayer bond orders larger than 0.100000
B(  0-C ,  1-C ) :   1.3627 B(  0-C ,  5-C ) :   1.3465 B(  0-C , 66-H ) :   0.9838
B(  1-C ,  2-C ) :   1.4025 B(  1-C , 57-Cl) :   1.0674 B(  2-C ,  3-C ) :   1.3470
B(  2-C , 58-Cl) :   1.0455 B(  3-C ,  4-C ) :   1.3554 B(  3-C , 67-H ) :   1.0082
B(  4-C ,  5-C ) :   1.3344 B(  4-C ,  6-C ) :   0.9189 B(  5-C ,  8-C ) :   1.0089
B(  6-C ,  7-C ) :   0.9491 B(  6-C , 56-O ) :   2.2607 B(  7-C ,  8-C ) :   1.0506
B(  7-C ,  9-C ) :   1.6129 B(  8-C , 59-C ) :   1.6542 B(  9-C , 10-C ) :   1.1754
B(  9-C , 68-H ) :   0.9409 B( 10-C , 11-C ) :   1.3714 B( 10-C , 14-S ) :   1.0882
B( 11-C , 12-C ) :   1.3463 B( 11-C , 69-H ) :   0.9987 B( 12-C , 13-C ) :   1.4778
B( 12-C , 15-C ) :   0.9223 B( 13-C , 14-S ) :   1.1210 B( 13-C , 17-C ) :   1.1889
B( 15-C , 16-C ) :   0.9356 B( 15-C , 52-C ) :   1.0223 B( 15-C , 53-C ) :   1.0194
B( 16-C , 17-C ) :   1.5136 B( 16-C , 18-C ) :   1.3203 B( 17-C , 20-S ) :   1.0771
B( 18-C , 19-C ) :   1.4538 B( 18-C , 70-H ) :   0.9910 B( 19-C , 20-S ) :   1.1225
B( 19-C , 21-C ) :   1.1597 B( 21-C , 22-S ) :   1.1246 B( 21-C , 25-C ) :   1.4478
B( 22-S , 23-C ) :   1.0701 B( 23-C , 24-C ) :   1.5125 B( 23-C , 26-C ) :   1.1862
B( 24-C , 25-C ) :   1.3246 B( 24-C , 28-C ) :   0.9341 B( 25-C , 71-H ) :   0.9897
B( 26-C , 27-C ) :   1.4383 B( 26-C , 29-S ) :   1.1410 B( 27-C , 28-C ) :   0.9216
B( 27-C , 31-C ) :   1.3554 B( 28-C , 48-C ) :   1.0187 B( 28-C , 49-C ) :   1.0229
B( 29-S , 30-C ) :   1.0692 B( 30-C , 31-C ) :   1.3542 B( 30-C , 32-C ) :   1.2803
B( 31-C , 72-H ) :   0.9678 B( 32-C , 33-C ) :   1.5252 B( 32-C , 73-H ) :   0.9015
B( 33-C , 34-C ) :   1.1089 B( 33-C , 37-C ) :   0.9624 B( 34-C , 35-C ) :   0.9819
B( 34-C , 45-C ) :   1.6169 B( 35-C , 36-C ) :   1.3398 B( 35-C , 38-C ) :   1.3408
B( 36-C , 37-C ) :   0.9581 B( 36-C , 41-C ) :   1.3483 B( 37-C , 44-O ) :   2.1380
B( 38-C , 39-C ) :   1.3621 B( 38-C , 74-H ) :   0.9803 B( 39-C , 40-C ) :   1.4021
B( 39-C , 43-Cl) :   1.0732 B( 40-C , 41-C ) :   1.3380 B( 40-C , 42-Cl) :   1.0435
B( 41-C , 75-H ) :   1.0104 B( 45-C , 46-C ) :   1.1288 B( 45-C , 47-C ) :   1.1290
B( 46-C , 64-N ) :   2.9614 B( 47-C , 65-N ) :   2.9412 B( 48-C , 51-C ) :   1.0982
B( 48-C , 76-H ) :   0.9426 B( 48-C , 77-H ) :   0.9443 B( 49-C , 50-C ) :   1.1090
B( 49-C , 78-H ) :   0.9423 B( 49-C , 79-H ) :   0.9394 B( 50-C , 80-H ) :   0.9632
B( 50-C , 81-H ) :   0.9604 B( 50-C , 82-H ) :   0.9651 B( 51-C , 83-H ) :   0.9657
B( 51-C , 84-H ) :   0.9654 B( 51-C , 85-H ) :   0.9674 B( 52-C , 55-C ) :   1.0971
B( 52-C , 86-H ) :   0.9422 B( 52-C , 87-H ) :   0.9438 B( 53-C , 54-C ) :   1.1092
B( 53-C , 88-H ) :   0.9417 B( 53-C , 89-H ) :   0.9391 B( 54-C , 90-H ) :   0.9643
B( 54-C , 91-H ) :   0.9603 B( 54-C , 92-H ) :   0.9647 B( 55-C , 93-H ) :   0.9669
B( 55-C , 94-H ) :   0.9662 B( 55-C , 95-H ) :   0.9664 B( 59-C , 60-C ) :   1.1129
B( 59-C , 61-C ) :   1.1436 B( 60-C , 63-N ) :   2.9762 B( 61-C , 62-N ) :   3.0150

-----------------------------------------------------------------------------
         ABSORPTION SPECTRUM VIA TRANSITION ELECTRIC DIPOLE MOMENTS
-----------------------------------------------------------------------------
State   Energy  Wavelength   fosc         T2         TX        TY        TZ
        (cm-1)    (nm)                  (au**2)     (au)      (au)      (au)
-----------------------------------------------------------------------------
   0   15281.6    654.4   2.025705507  43.63972  -3.97203   4.69921   2.40418
   1   19311.7    517.8   0.532812561   9.08298  -0.06110   2.29588   1.95146
   2   23927.2    417.9   0.191972302   2.64133   0.03755  -1.57702  -0.39104
   3   24500.6    408.2   0.063183465   0.84899  -0.35359  -0.52010  -0.67340
   4   25051.5    399.2   0.040635184   0.53400  -0.71771   0.03899   0.13181
   5   27713.0    360.8   0.023800501   0.28273  -0.25027  -0.36666  -0.29267
   6   29006.3    344.8   0.246103990   2.79320  -1.33991   0.32396   0.94492
   7   29828.4    335.3   0.029499706   0.32558   0.18761  -0.50998  -0.17409
   8   29988.5    333.5   0.199204794   2.18686  -0.62220  -1.34152  -0.00709
   9   30674.5    326.0   0.000166410   0.00179  -0.01344  -0.03100  -0.02538
  10   30758.5    325.1   0.052014113   0.55671  -0.63264  -0.10647   0.38098
  11   32241.6    310.2   0.126519503   1.29186  -0.80115   0.23127   0.77235
  12   32572.0    307.0   0.045864692   0.46356   0.42174   0.48227   0.23048
  13   32833.4    304.6   0.000215347   0.00216   0.04528   0.00793   0.00679
  14   32969.9    303.3   0.032000617   0.31953   0.44025   0.18365  -0.30329
  15   33584.0    297.8   0.021442206   0.21019   0.33963   0.26280   0.16056
  16   34222.7    292.2   0.074149630   0.71330  -0.56473  -0.50812   0.36905
  17   34504.7    289.8   0.122083904   1.16481  -0.55802  -0.91902   0.09390
  18   34548.5    289.4   0.083092458   0.79179   0.39050  -0.57744  -0.55305
  19   34763.0    287.7   0.196409968   1.86004   0.37886  -1.14901  -0.62951
  20   35021.5    285.5   0.018235635   0.17142   0.12992   0.38812  -0.06246
  21   35698.7    280.1   0.092134074   0.84966  -0.53431   0.25737   0.70564
  22   36253.3    275.8   0.628947330   5.71139  -1.79898  -1.45417   0.60038
  23   36374.6    274.9   0.196707689   1.78032   0.75209  -0.44614  -1.00779
  24   36525.1    273.8   0.156411486   1.40979  -0.50370   0.28547   1.03662
  25   36784.7    271.9   0.033621153   0.30090  -0.03496   0.28134   0.46960
  26   37964.3    263.4   0.016721838   0.14501   0.17978   0.29091   0.16750
  27   38902.1    257.1   0.012816241   0.10846  -0.09774  -0.29293  -0.11444
  28   39144.7    255.5   0.037849285   0.31832  -0.49327  -0.21225   0.17306
  29   39663.4    252.1   0.054859961   0.45535   0.62154   0.25454  -0.06514
  30   40014.0    249.9   0.045718548   0.37615   0.10159   0.54189   0.26867

FINAL SINGLE POINT ENERGY     -5798.485012735726

DIPOLE MOMENT
-------------
                                X             Y             Z
Electronic contribution:    -42.52579     -40.04034     -17.02816
Nuclear contribution   :     42.18295      41.06498      19.65509
                        -----------------------------------------
Total Dipole Moment    :     -0.34284       1.02464       2.62693
                        -----------------------------------------
Magnitude (a.u.)       :      2.84045
Magnitude (Debye)      :      7.21986

Rotational constants in cm-1:     0.001911     0.000217     0.000201
Rotational constants in MHz :    57.296606     6.512111     6.023367

                             ****ORCA TERMINATED NORMALLY****
TOTAL RUN TIME: 0 days 0 hours 51 minutes 10 seconds 446 msec
