                         Program Version 4.2.0 -  RELEASE  -
|  1> # ORCA input file
|  2> # CPDT-4F.out: Geometry 22
|  3> ! CAM-B3LYP def2-SVP def2/J RIJCOSX Grid4 TightSCF
|  4> %maxcore 5000
|  5> %tddft
|  6>     Mode sTDDFT
|  7>     Ethresh 5.0
|  8>     maxcore 5000
|  9> end
| 10> * xyz 0 1
| 11>    C       -0.99898         5.03151         1.95528
| 12>    C       -2.15001         4.29619         2.22677
| 13>    C       -2.13921         2.89017         2.26939
| 14>    C       -0.95885         2.18759         2.05091
| 15>    C        0.18826         2.92488         1.78189
| 16>    C        0.19338         4.33225         1.72441
| 17>    C        1.55237         2.41287         1.49732
| 18>    C        2.39922         3.59881         1.23801
| 19>    C        1.56697         4.79321         1.39287
| 20>    C        3.72803         3.56360         0.85543
| 21>    C        4.64053         2.52429         0.56151
| 22>    C        5.93146         2.82144         0.05400
| 23>    C        6.66894         1.69331        -0.28882
| 24>    C        5.95467         0.50979        -0.00506
| 25>    S        4.38728         0.76744         0.64665
| 26>    C        8.02133         1.36997        -0.93351
| 27>    C        7.95509        -0.15655        -0.93767
| 28>    C        6.74815        -0.60889        -0.39629
| 29>    C        8.76661        -1.20627        -1.40156
| 30>    C        8.17753        -2.46101        -1.21560
| 31>    S        6.59551        -2.32685        -0.44783
| 32>    C        8.66122        -3.75331        -1.60926
| 33>    S       10.09727        -3.89920        -2.62323
| 34>    C        9.91114        -5.61712        -2.67070
| 35>    C        8.80341        -6.05513        -1.93985
| 36>    C        8.09684        -5.00273        -1.33680
| 37>    C       10.54364        -6.74493        -3.27661
| 38>    C        9.83909        -7.91648        -2.91804
| 39>    C        8.64455        -7.56865        -2.02787
| 40>    S       11.86996        -7.05639        -4.30751
| 41>    C       11.51954        -8.80516        -4.27522
| 42>    C       10.39958        -9.07256        -3.45878
| 43>    C       12.36337        -9.59947        -5.08692
| 44>    C       12.43546       -10.95799        -5.34409
| 45>    C       13.37468       -11.58557        -6.28057
| 46>    C       13.16482       -13.05310        -6.20615
| 47>    C       12.13920       -13.31461        -5.27881
| 48>    C       11.62629       -12.03819        -4.71800
| 49>    C       13.78854       -14.12401        -6.86189
| 50>    C       13.36629       -15.41455        -6.55520
| 51>    C       12.34151       -15.65809        -5.62119
| 52>    C       11.71146       -14.60143        -4.97200
| 53>    F       11.98569       -16.91517        -5.37117
| 54>    F       13.94408       -16.45450        -7.15203
| 55>    O       10.72199       -11.95007        -3.90351
| 56>    C       14.29714       -10.97431        -7.11520
| 57>    C       15.15393       -11.71229        -7.99060
| 58>    C       14.48924        -9.56005        -7.20291
| 59>    C        8.73526        -8.21734        -0.62516
| 60>    C        7.28979        -7.89083        -2.72341
| 61>    C        7.04989        -9.35660        -3.07789
| 62>    C       10.05818        -7.97488         0.10038
| 63>    C        9.22855         1.89731        -0.12091
| 64>    C        8.09213         1.86401        -2.40763
| 65>    C        8.03818         3.37520        -2.62037
| 66>    C        9.31086         1.39997         1.31957
| 67>    O        1.88776         1.23958         1.48232
| 68>    F       -3.29951         4.92831         2.45237
| 69>    F       -3.27671         2.24794         2.52153
| 70>    C        1.93646         6.12115         1.24863
| 71>    C        1.01447         7.20427         1.39245
| 72>    C        3.26693         6.54037         0.93356
| 73>    N        4.34557         6.89061         0.67596
| 74>    N        0.28011         8.09886         1.50066
| 75>    N       15.85444       -12.29753        -8.71016
| 76>    N       14.66910        -8.41456        -7.29063
| 77>    H       -1.07943         6.11649         1.93087
| 78>    H       -0.93968         1.09684         2.08750
| 79>    H        4.19785         4.53308         0.69491
| 80>    H        6.26054         3.85528        -0.05641
| 81>    H        9.74491        -1.08084        -1.86728
| 82>    H        7.19858        -5.12004        -0.72952
| 83>    H       10.05982       -10.09509        -3.30869
| 84>    H       13.09683        -8.99559        -5.62031
| 85>    H       14.58666       -14.00765        -7.59171
| 86>    H       10.91335       -14.78089        -4.24965
| 87>    H        8.56044        -9.30017        -0.72779
| 88>    H        7.89656        -7.82653        -0.02348
| 89>    H        7.23015        -7.28076        -3.63901
| 90>    H        6.48517        -7.52786        -2.06054
| 91>    H        7.79986        -9.72921        -3.78981
| 92>    H        6.06327        -9.47485        -3.55282
| 93>    H        7.07086       -10.01149        -2.19406
| 94>    H       10.90545        -8.38299        -0.47145
| 95>    H       10.05480        -8.46412         1.08542
| 96>    H       10.24584        -6.90098         0.25721
| 97>    H        9.19244         2.99811        -0.12873
| 98>    H       10.14461         1.61676        -0.67008
| 99>    H        7.27063         1.38620        -2.96508
|100>    H        9.02620         1.46511        -2.83868
|101>    H        7.06416         3.79340        -2.32546
|102>    H        8.18725         3.61338        -3.68482
|103>    H        8.81713         3.90922        -2.05776
|104>    H        8.39713         1.65146         1.88120
|105>    H       10.15879         1.86686         1.84274
|106>    H        9.44541         0.30804         1.36649
|107> *
|108>
|109>                          ****END OF INPUT****

CARTESIAN COORDINATES (ANGSTROEM)
---------------------------------
  C     -0.998980    5.031510    1.955280
  C     -2.150010    4.296190    2.226770
  C     -2.139210    2.890170    2.269390
  C     -0.958850    2.187590    2.050910
  C      0.188260    2.924880    1.781890
  C      0.193380    4.332250    1.724410
  C      1.552370    2.412870    1.497320
  C      2.399220    3.598810    1.238010
  C      1.566970    4.793210    1.392870
  C      3.728030    3.563600    0.855430
  C      4.640530    2.524290    0.561510
  C      5.931460    2.821440    0.054000
  C      6.668940    1.693310   -0.288820
  C      5.954670    0.509790   -0.005060
  S      4.387280    0.767440    0.646650
  C      8.021330    1.369970   -0.933510
  C      7.955090   -0.156550   -0.937670
  C      6.748150   -0.608890   -0.396290
  C      8.766610   -1.206270   -1.401560
  C      8.177530   -2.461010   -1.215600
  S      6.595510   -2.326850   -0.447830
  C      8.661220   -3.753310   -1.609260
  S     10.097270   -3.899200   -2.623230
  C      9.911140   -5.617120   -2.670700
  C      8.803410   -6.055130   -1.939850
  C      8.096840   -5.002730   -1.336800
  C     10.543640   -6.744930   -3.276610
  C      9.839090   -7.916480   -2.918040
  C      8.644550   -7.568650   -2.027870
  S     11.869960   -7.056390   -4.307510
  C     11.519540   -8.805160   -4.275220
  C     10.399580   -9.072560   -3.458780
  C     12.363370   -9.599470   -5.086920
  C     12.435460  -10.957990   -5.344090
  C     13.374680  -11.585570   -6.280570
  C     13.164820  -13.053100   -6.206150
  C     12.139200  -13.314610   -5.278810
  C     11.626290  -12.038190   -4.718000
  C     13.788540  -14.124010   -6.861890
  C     13.366290  -15.414550   -6.555200
  C     12.341510  -15.658090   -5.621190
  C     11.711460  -14.601430   -4.972000
  F     11.985690  -16.915170   -5.371170
  F     13.944080  -16.454500   -7.152030
  O     10.721990  -11.950070   -3.903510
  C     14.297140  -10.974310   -7.115200
  C     15.153930  -11.712290   -7.990600
  C     14.489240   -9.560050   -7.202910
  C      8.735260   -8.217340   -0.625160
  C      7.289790   -7.890830   -2.723410
  C      7.049890   -9.356600   -3.077890
  C     10.058180   -7.974880    0.100380
  C      9.228550    1.897310   -0.120910
  C      8.092130    1.864010   -2.407630
  C      8.038180    3.375200   -2.620370
  C      9.310860    1.399970    1.319570
  O      1.887760    1.239580    1.482320
  F     -3.299510    4.928310    2.452370
  F     -3.276710    2.247940    2.521530
  C      1.936460    6.121150    1.248630
  C      1.014470    7.204270    1.392450
  C      3.266930    6.540370    0.933560
  N      4.345570    6.890610    0.675960
  N      0.280110    8.098860    1.500660
  N     15.854440  -12.297530   -8.710160
  N     14.669100   -8.414560   -7.290630
  H     -1.079430    6.116490    1.930870
  H     -0.939680    1.096840    2.087500
  H      4.197850    4.533080    0.694910
  H      6.260540    3.855280   -0.056410
  H      9.744910   -1.080840   -1.867280
  H      7.198580   -5.120040   -0.729520
  H     10.059820  -10.095090   -3.308690
  H     13.096830   -8.995590   -5.620310
  H     14.586660  -14.007650   -7.591710
  H     10.913350  -14.780890   -4.249650
  H      8.560440   -9.300170   -0.727790
  H      7.896560   -7.826530   -0.023480
  H      7.230150   -7.280760   -3.639010
  H      6.485170   -7.527860   -2.060540
  H      7.799860   -9.729210   -3.789810
  H      6.063270   -9.474850   -3.552820
  H      7.070860  -10.011490   -2.194060
  H     10.905450   -8.382990   -0.471450
  H     10.054800   -8.464120    1.085420
  H     10.245840   -6.900980    0.257210
  H      9.192440    2.998110   -0.128730
  H     10.144610    1.616760   -0.670080
  H      7.270630    1.386200   -2.965080
  H      9.026200    1.465110   -2.838680
  H      7.064160    3.793400   -2.325460
  H      8.187250    3.613380   -3.684820
  H      8.817130    3.909220   -2.057760
  H      8.397130    1.651460    1.881200
  H     10.158790    1.866860    1.842740
  H      9.445410    0.308040    1.366490

 Total Charge           Charge          ....    0
 Multiplicity           Mult            ....    1
 Number of Electrons    NEL             ....  486
 Basis Dimension        Dim             .... 1090

ORBITAL ENERGIES
----------------

  NO   OCC          E(Eh)            E(eV)
   0   2.0000     -88.985108     -2421.4079
   1   2.0000     -88.983860     -2421.3739
   2   2.0000     -88.981584     -2421.3120
   3   2.0000     -88.979117     -2421.2449
   4   2.0000     -24.804075      -674.9532
   5   2.0000     -24.804008      -674.9514
   6   2.0000     -24.801694      -674.8884
   7   2.0000     -24.801647      -674.8871
   8   2.0000     -19.224375      -523.1218
   9   2.0000     -19.223615      -523.1012
  10   2.0000     -14.425322      -392.5330
  11   2.0000     -14.424518      -392.5111
  12   2.0000     -14.420751      -392.4086
  13   2.0000     -14.420722      -392.4078
  14   2.0000     -10.387953      -282.6706
  15   2.0000     -10.387772      -282.6656
  16   2.0000     -10.386796      -282.6391
  17   2.0000     -10.386731      -282.6373
  18   2.0000     -10.376539      -282.3600
  19   2.0000     -10.373887      -282.2878
  20   2.0000     -10.351621      -281.6819
  21   2.0000     -10.351526      -281.6793
  22   2.0000     -10.350356      -281.6475
  23   2.0000     -10.350175      -281.6426
  24   2.0000     -10.338489      -281.3246
  25   2.0000     -10.337948      -281.3099
  26   2.0000     -10.335986      -281.2565
  27   2.0000     -10.329634      -281.0836
  28   2.0000     -10.329485      -281.0796
  29   2.0000     -10.328832      -281.0618
  30   2.0000     -10.328496      -281.0527
  31   2.0000     -10.327473      -281.0248
  32   2.0000     -10.325042      -280.9587
  33   2.0000     -10.325037      -280.9586
  34   2.0000     -10.324869      -280.9540
  35   2.0000     -10.324794      -280.9519
  36   2.0000     -10.324790      -280.9518
  37   2.0000     -10.323178      -280.9080
  38   2.0000     -10.320576      -280.8371
  39   2.0000     -10.320376      -280.8317
  40   2.0000     -10.313122      -280.6343
  41   2.0000     -10.311382      -280.5870
  42   2.0000     -10.311280      -280.5842
  43   2.0000     -10.311236      -280.5830
  44   2.0000     -10.310426      -280.5609
  45   2.0000     -10.310129      -280.5529
  46   2.0000     -10.308946      -280.5207
  47   2.0000     -10.304766      -280.4069
  48   2.0000     -10.304408      -280.3972
  49   2.0000     -10.304250      -280.3929
  50   2.0000     -10.304086      -280.3884
  51   2.0000     -10.303972      -280.3853
  52   2.0000     -10.301870      -280.3281
  53   2.0000     -10.301779      -280.3256
  54   2.0000     -10.301146      -280.3084
  55   2.0000     -10.300527      -280.2916
  56   2.0000     -10.296552      -280.1834
  57   2.0000     -10.295809      -280.1632
  58   2.0000     -10.285853      -279.8923
  59   2.0000     -10.284914      -279.8667
  60   2.0000     -10.284621      -279.8588
  61   2.0000     -10.283798      -279.8364
  62   2.0000     -10.271006      -279.4883
  63   2.0000     -10.268295      -279.4145
  64   2.0000     -10.267165      -279.3838
  65   2.0000     -10.266132      -279.3557
  66   2.0000      -8.079482      -219.8539
  67   2.0000      -8.078376      -219.8238
  68   2.0000      -8.076305      -219.7674
  69   2.0000      -8.072106      -219.6532
  70   2.0000      -6.048997      -164.6016
  71   2.0000      -6.047859      -164.5706
  72   2.0000      -6.045504      -164.5065
  73   2.0000      -6.044865      -164.4891
  74   2.0000      -6.043717      -164.4579
  75   2.0000      -6.041593      -164.4001
  76   2.0000      -6.041514      -164.3980
  77   2.0000      -6.041322      -164.3927
  78   2.0000      -6.040263      -164.3639
  79   2.0000      -6.038517      -164.3164
  80   2.0000      -6.037136      -164.2788
  81   2.0000      -6.034287      -164.2013
  82   2.0000      -1.329454       -36.1763
  83   2.0000      -1.329450       -36.1762
  84   2.0000      -1.313585       -35.7445
  85   2.0000      -1.313442       -35.7406
  86   2.0000      -1.134790       -30.8792
  87   2.0000      -1.134360       -30.8675
  88   2.0000      -1.028992       -28.0003
  89   2.0000      -1.023641       -27.8547
  90   2.0000      -1.016530       -27.6612
  91   2.0000      -1.016408       -27.6579
  92   2.0000      -0.999092       -27.1867
  93   2.0000      -0.998829       -27.1795
  94   2.0000      -0.995494       -27.0888
  95   2.0000      -0.992750       -27.0141
  96   2.0000      -0.992489       -27.0070
  97   2.0000      -0.981619       -26.7112
  98   2.0000      -0.954634       -25.9769
  99   2.0000      -0.952639       -25.9226
 100   2.0000      -0.943426       -25.6719
 101   2.0000      -0.933916       -25.4131
 102   2.0000      -0.903902       -24.5964
 103   2.0000      -0.902560       -24.5599
 104   2.0000      -0.895954       -24.3801
 105   2.0000      -0.891975       -24.2719
 106   2.0000      -0.876268       -23.8445
 107   2.0000      -0.870998       -23.7011
 108   2.0000      -0.870723       -23.6936
 109   2.0000      -0.859472       -23.3874
 110   2.0000      -0.855192       -23.2710
 111   2.0000      -0.847707       -23.0673
 112   2.0000      -0.847133       -23.0517
 113   2.0000      -0.846454       -23.0332
 114   2.0000      -0.845552       -23.0086
 115   2.0000      -0.840768       -22.8785
 116   2.0000      -0.825379       -22.4597
 117   2.0000      -0.809192       -22.0192
 118   2.0000      -0.789956       -21.4958
 119   2.0000      -0.773833       -21.0571
 120   2.0000      -0.770509       -20.9666
 121   2.0000      -0.769724       -20.9453
 122   2.0000      -0.769071       -20.9275
 123   2.0000      -0.758916       -20.6512
 124   2.0000      -0.742906       -20.2155
 125   2.0000      -0.721873       -19.6432
 126   2.0000      -0.707849       -19.2616
 127   2.0000      -0.706659       -19.2292
 128   2.0000      -0.706418       -19.2226
 129   2.0000      -0.704154       -19.1610
 130   2.0000      -0.701582       -19.0910
 131   2.0000      -0.695372       -18.9220
 132   2.0000      -0.691646       -18.8206
 133   2.0000      -0.687689       -18.7130
 134   2.0000      -0.678917       -18.4743
 135   2.0000      -0.666681       -18.1413
 136   2.0000      -0.662476       -18.0269
 137   2.0000      -0.651828       -17.7372
 138   2.0000      -0.645962       -17.5775
 139   2.0000      -0.643828       -17.5194
 140   2.0000      -0.643006       -17.4971
 141   2.0000      -0.640999       -17.4425
 142   2.0000      -0.638962       -17.3871
 143   2.0000      -0.634073       -17.2540
 144   2.0000      -0.628726       -17.1085
 145   2.0000      -0.622160       -16.9298
 146   2.0000      -0.615392       -16.7457
 147   2.0000      -0.611852       -16.6493
 148   2.0000      -0.599170       -16.3042
 149   2.0000      -0.593206       -16.1419
 150   2.0000      -0.591643       -16.0994
 151   2.0000      -0.591381       -16.0923
 152   2.0000      -0.591336       -16.0911
 153   2.0000      -0.587015       -15.9735
 154   2.0000      -0.573856       -15.6154
 155   2.0000      -0.567074       -15.4309
 156   2.0000      -0.565393       -15.3851
 157   2.0000      -0.554371       -15.0852
 158   2.0000      -0.553401       -15.0588
 159   2.0000      -0.553108       -15.0508
 160   2.0000      -0.552310       -15.0291
 161   2.0000      -0.552263       -15.0279
 162   2.0000      -0.549740       -14.9592
 163   2.0000      -0.549387       -14.9496
 164   2.0000      -0.544869       -14.8266
 165   2.0000      -0.538844       -14.6627
 166   2.0000      -0.538193       -14.6450
 167   2.0000      -0.535602       -14.5745
 168   2.0000      -0.534863       -14.5544
 169   2.0000      -0.534721       -14.5505
 170   2.0000      -0.532243       -14.4831
 171   2.0000      -0.531478       -14.4622
 172   2.0000      -0.524876       -14.2826
 173   2.0000      -0.523694       -14.2504
 174   2.0000      -0.521042       -14.1783
 175   2.0000      -0.513983       -13.9862
 176   2.0000      -0.513357       -13.9692
 177   2.0000      -0.511179       -13.9099
 178   2.0000      -0.508260       -13.8305
 179   2.0000      -0.497154       -13.5283
 180   2.0000      -0.496684       -13.5155
 181   2.0000      -0.496302       -13.5051
 182   2.0000      -0.494627       -13.4595
 183   2.0000      -0.494569       -13.4579
 184   2.0000      -0.493710       -13.4345
 185   2.0000      -0.489733       -13.3263
 186   2.0000      -0.488889       -13.3033
 187   2.0000      -0.488210       -13.2849
 188   2.0000      -0.485611       -13.2141
 189   2.0000      -0.481863       -13.1122
 190   2.0000      -0.479273       -13.0417
 191   2.0000      -0.475152       -12.9295
 192   2.0000      -0.472062       -12.8455
 193   2.0000      -0.467672       -12.7260
 194   2.0000      -0.465825       -12.6758
 195   2.0000      -0.461333       -12.5535
 196   2.0000      -0.459110       -12.4930
 197   2.0000      -0.456528       -12.4228
 198   2.0000      -0.456005       -12.4085
 199   2.0000      -0.455160       -12.3855
 200   2.0000      -0.454358       -12.3637
 201   2.0000      -0.453671       -12.3450
 202   2.0000      -0.453200       -12.3322
 203   2.0000      -0.451599       -12.2886
 204   2.0000      -0.448796       -12.2123
 205   2.0000      -0.448489       -12.2040
 206   2.0000      -0.447301       -12.1717
 207   2.0000      -0.445913       -12.1339
 208   2.0000      -0.439301       -11.9540
 209   2.0000      -0.437315       -11.8999
 210   2.0000      -0.435294       -11.8449
 211   2.0000      -0.429912       -11.6985
 212   2.0000      -0.428289       -11.6543
 213   2.0000      -0.427789       -11.6407
 214   2.0000      -0.427488       -11.6325
 215   2.0000      -0.423664       -11.5285
 216   2.0000      -0.420931       -11.4541
 217   2.0000      -0.419764       -11.4224
 218   2.0000      -0.417243       -11.3538
 219   2.0000      -0.413474       -11.2512
 220   2.0000      -0.412430       -11.2228
 221   2.0000      -0.410852       -11.1799
 222   2.0000      -0.410234       -11.1630
 223   2.0000      -0.406813       -11.0700
 224   2.0000      -0.405971       -11.0470
 225   2.0000      -0.401620       -10.9286
 226   2.0000      -0.400534       -10.8991
 227   2.0000      -0.394213       -10.7271
 228   2.0000      -0.378496       -10.2994
 229   2.0000      -0.356480        -9.7003
 230   2.0000      -0.349340        -9.5060
 231   2.0000      -0.346829        -9.4377
 232   2.0000      -0.345574        -9.4035
 233   2.0000      -0.344909        -9.3855
 234   2.0000      -0.343139        -9.3373
 235   2.0000      -0.340297        -9.2600
 236   2.0000      -0.337309        -9.1787
 237   2.0000      -0.334885        -9.1127
 238   2.0000      -0.322976        -8.7886
 239   2.0000      -0.316076        -8.6009
 240   2.0000      -0.310211        -8.4413
 241   2.0000      -0.278747        -7.5851
 242   2.0000      -0.246325        -6.7028
 243   0.0000      -0.106244        -2.8910
 244   0.0000      -0.090375        -2.4592
 245   0.0000      -0.070227        -1.9110
 246   0.0000      -0.064771        -1.7625
 247   0.0000      -0.041640        -1.1331

MULLIKEN ATOMIC CHARGES
-----------------------
   0 C :   -0.094453
   1 C :    0.226475
   2 C :    0.229047
   3 C :   -0.105187
   4 C :   -0.019138
   5 C :    0.044588
   6 C :    0.143176
   7 C :   -0.080887
   8 C :    0.282136
   9 C :   -0.023627
  10 C :   -0.076618
  11 C :   -0.069243
  12 C :    0.042287
  13 C :   -0.062895
  14 S :    0.221835
  15 C :   -0.088188
  16 C :    0.012111
  17 C :   -0.091429
  18 C :   -0.048393
  19 C :   -0.063277
  20 S :    0.159875
  21 C :   -0.060299
  22 S :    0.163372
  23 C :   -0.087569
  24 C :    0.014598
  25 C :   -0.052862
  26 C :   -0.055787
  27 C :   -0.011876
  28 C :   -0.089829
  29 S :    0.171972
  30 C :   -0.136797
  31 C :   -0.016683
  32 C :    0.055153
  33 C :   -0.093810
  34 C :    0.274321
  35 C :    0.043381
  36 C :   -0.016991
  37 C :    0.152284
  38 C :   -0.087396
  39 C :    0.225967
  40 C :    0.227272
  41 C :   -0.103529
  42 F :   -0.161650
  43 F :   -0.159543
  44 O :   -0.167573
  45 C :   -0.333503
  46 C :   -0.161191
  47 C :   -0.157645
  48 C :    0.044696
  49 C :    0.056525
  50 C :    0.007965
  51 C :    0.005874
  52 C :    0.038990
  53 C :    0.057538
  54 C :    0.008449
  55 C :    0.008277
  56 O :   -0.171431
  57 F :   -0.159235
  58 F :   -0.161660
  59 C :   -0.329325
  60 C :   -0.164344
  61 C :   -0.159160
  62 N :    0.110706
  63 N :    0.129940
  64 N :    0.127584
  65 N :    0.117140
  66 H :    0.024569
  67 H :    0.020333
  68 H :    0.006423
  69 H :    0.020922
  70 H :   -0.000589
  71 H :    0.002147
  72 H :    0.029528
  73 H :    0.002640
  74 H :    0.023828
  75 H :    0.019183
  76 H :    0.019909
  77 H :    0.005218
  78 H :    0.014060
  79 H :    0.004603
  80 H :    0.029321
  81 H :    0.022050
  82 H :    0.018592
  83 H :    0.028304
  84 H :    0.020938
  85 H :    0.024577
  86 H :    0.019258
  87 H :    0.005805
  88 H :    0.014822
  89 H :    0.005004
  90 H :    0.021927
  91 H :    0.025275
  92 H :    0.018184
  93 H :    0.025565
  94 H :    0.021978
  95 H :    0.025112
Sum of atomic charges:   -0.0000000

LOEWDIN ATOMIC CHARGES
----------------------
   0 C :   -0.023490
   1 C :    0.068764
   2 C :    0.066405
   3 C :   -0.012987
   4 C :   -0.045999
   5 C :   -0.014573
   6 C :    0.084514
   7 C :   -0.122658
   8 C :    0.082230
   9 C :    0.053273
  10 C :   -0.185555
  11 C :   -0.010230
  12 C :   -0.046679
  13 C :   -0.163769
  14 S :    0.491599
  15 C :   -0.026567
  16 C :   -0.016405
  17 C :   -0.201269
  18 C :   -0.061124
  19 C :   -0.166701
  20 S :    0.443246
  21 C :   -0.166587
  22 S :    0.440869
  23 C :   -0.202554
  24 C :   -0.015309
  25 C :   -0.062331
  26 C :   -0.161802
  27 C :   -0.043075
  28 C :   -0.027906
  29 S :    0.460299
  30 C :   -0.178125
  31 C :   -0.007104
  32 C :    0.044551
  33 C :   -0.115751
  34 C :    0.081670
  35 C :   -0.015338
  36 C :   -0.046088
  37 C :    0.091953
  38 C :   -0.023135
  39 C :    0.068791
  40 C :    0.066321
  41 C :   -0.013181
  42 F :   -0.038840
  43 F :   -0.038432
  44 O :   -0.154744
  45 C :   -0.145471
  46 C :   -0.013046
  47 C :   -0.015191
  48 C :   -0.016798
  49 C :   -0.013129
  50 C :   -0.062445
  51 C :   -0.061472
  52 C :   -0.018587
  53 C :   -0.013157
  54 C :   -0.062469
  55 C :   -0.061659
  56 O :   -0.166598
  57 F :   -0.038475
  58 F :   -0.038953
  59 C :   -0.146710
  60 C :   -0.014727
  61 C :   -0.011170
  62 N :   -0.064640
  63 N :   -0.058250
  64 N :   -0.058394
  65 N :   -0.059030
  66 H :    0.053495
  67 H :    0.054445
  68 H :    0.051450
  69 H :    0.042195
  70 H :    0.032791
  71 H :    0.032394
  72 H :    0.038687
  73 H :    0.042786
  74 H :    0.053304
  75 H :    0.053811
  76 H :    0.026810
  77 H :    0.023995
  78 H :    0.029398
  79 H :    0.023114
  80 H :    0.029581
  81 H :    0.032498
  82 H :    0.025045
  83 H :    0.028353
  84 H :    0.029874
  85 H :    0.026463
  86 H :    0.025911
  87 H :    0.024451
  88 H :    0.029682
  89 H :    0.023134
  90 H :    0.026640
  91 H :    0.033920
  92 H :    0.024768
  93 H :    0.028155
  94 H :    0.030352
  95 H :    0.026691

  Mayer bond orders larger than 0.100000
B(  0-C ,  1-C ) :   1.3482 B(  0-C ,  3-C ) :   0.1036 B(  0-C ,  5-C ) :   1.3075
B(  0-C , 66-H ) :   0.9849 B(  1-C ,  2-C ) :   1.2817 B(  1-C , 57-F ) :   1.1494
B(  2-C ,  3-C ) :   1.3226 B(  2-C , 58-F ) :   1.1368 B(  3-C ,  4-C ) :   1.3190
B(  3-C , 67-H ) :   1.0121 B(  4-C ,  5-C ) :   1.3561 B(  4-C ,  6-C ) :   0.9570
B(  5-C ,  8-C ) :   1.0014 B(  6-C ,  7-C ) :   0.9764 B(  6-C , 56-O ) :   2.1856
B(  7-C ,  8-C ) :   1.1055 B(  7-C ,  9-C ) :   1.4662 B(  8-C , 59-C ) :   1.6186
B(  9-C , 10-C ) :   1.3021 B(  9-C , 68-H ) :   0.9291 B( 10-C , 11-C ) :   1.3126
B( 10-C , 14-S ) :   1.0662 B( 11-C , 12-C ) :   1.3651 B( 11-C , 69-H ) :   1.0057
B( 12-C , 13-C ) :   1.4332 B( 12-C , 15-C ) :   0.9176 B( 13-C , 14-S ) :   1.1065
B( 13-C , 17-C ) :   1.1904 B( 15-C , 16-C ) :   0.9315 B( 15-C , 52-C ) :   1.0228
B( 15-C , 53-C ) :   1.0225 B( 16-C , 17-C ) :   1.5151 B( 16-C , 18-C ) :   1.3207
B( 17-C , 20-S ) :   1.0754 B( 18-C , 19-C ) :   1.4519 B( 18-C , 70-H ) :   0.9916
B( 19-C , 20-S ) :   1.1254 B( 19-C , 21-C ) :   1.1547 B( 21-C , 22-S ) :   1.1241
B( 21-C , 25-C ) :   1.4503 B( 22-S , 23-C ) :   1.0715 B( 23-C , 24-C ) :   1.5142
B( 23-C , 26-C ) :   1.1832 B( 24-C , 25-C ) :   1.3214 B( 24-C , 28-C ) :   0.9340
B( 25-C , 71-H ) :   0.9906 B( 26-C , 27-C ) :   1.4421 B( 26-C , 29-S ) :   1.1423
B( 27-C , 28-C ) :   0.9231 B( 27-C , 31-C ) :   1.3507 B( 28-C , 48-C ) :   1.0213
B( 28-C , 49-C ) :   1.0209 B( 29-S , 30-C ) :   1.0728 B( 30-C , 31-C ) :   1.3604
B( 30-C , 32-C ) :   1.2692 B( 31-C , 72-H ) :   0.9725 B( 32-C , 33-C ) :   1.5398
B( 32-C , 73-H ) :   0.8993 B( 33-C , 34-C ) :   1.1055 B( 33-C , 37-C ) :   0.9601
B( 34-C , 35-C ) :   1.0021 B( 34-C , 45-C ) :   1.6178 B( 35-C , 36-C ) :   1.3574
B( 35-C , 38-C ) :   1.3041 B( 36-C , 37-C ) :   0.9636 B( 36-C , 41-C ) :   1.3179
B( 37-C , 44-O ) :   2.1542 B( 38-C , 39-C ) :   1.3514 B( 38-C , 41-C ) :   0.1031
B( 38-C , 74-H ) :   0.9837 B( 39-C , 40-C ) :   1.2774 B( 39-C , 43-F ) :   1.1497
B( 40-C , 41-C ) :   1.3235 B( 40-C , 42-F ) :   1.1362 B( 41-C , 75-H ) :   1.0124
B( 45-C , 46-C ) :   1.1287 B( 45-C , 47-C ) :   1.1304 B( 46-C , 64-N ) :   2.9659
B( 47-C , 65-N ) :   2.9432 B( 48-C , 51-C ) :   1.0980 B( 48-C , 76-H ) :   0.9419
B( 48-C , 77-H ) :   0.9439 B( 49-C , 50-C ) :   1.1090 B( 49-C , 78-H ) :   0.9419
B( 49-C , 79-H ) :   0.9396 B( 50-C , 80-H ) :   0.9636 B( 50-C , 81-H ) :   0.9608
B( 50-C , 82-H ) :   0.9651 B( 51-C , 83-H ) :   0.9649 B( 51-C , 84-H ) :   0.9656
B( 51-C , 85-H ) :   0.9683 B( 52-C , 55-C ) :   1.0979 B( 52-C , 86-H ) :   0.9424
B( 52-C , 87-H ) :   0.9437 B( 53-C , 54-C ) :   1.1074 B( 53-C , 88-H ) :   0.9422
B( 53-C , 89-H ) :   0.9390 B( 54-C , 90-H ) :   0.9654 B( 54-C , 91-H ) :   0.9610
B( 54-C , 92-H ) :   0.9649 B( 55-C , 93-H ) :   0.9671 B( 55-C , 94-H ) :   0.9658
B( 55-C , 95-H ) :   0.9660 B( 59-C , 60-C ) :   1.1263 B( 59-C , 61-C ) :   1.1329
B( 60-C , 63-N ) :   2.9690 B( 61-C , 62-N ) :   2.9466

-----------------------------------------------------------------------------
         ABSORPTION SPECTRUM VIA TRANSITION ELECTRIC DIPOLE MOMENTS
-----------------------------------------------------------------------------
State   Energy  Wavelength   fosc         T2         TX        TY        TZ
        (cm-1)    (nm)                  (au**2)     (au)      (au)      (au)
-----------------------------------------------------------------------------
   0   16099.3    621.1   2.935595252  60.02944  -4.25152   5.86322   2.75257
   1   20703.4    483.0   0.053452279   0.84996  -0.55631   0.03103  -0.73452
   2   24331.4    411.0   0.030095547   0.40720  -0.19033   0.60753   0.04346
   3   25132.1    397.9   0.012654803   0.16577   0.09977   0.15802  -0.36173
   4   25168.1    397.3   0.088082558   1.15217   0.79212   0.72427   0.01200
   5   28893.6    346.1   0.106449355   1.21288   0.92537  -0.35267  -0.48187
   6   30507.8    327.8   0.003838584   0.04142  -0.06135   0.10535  -0.16297
   7   30752.1    325.2   0.256843483   2.74960   0.21947   1.64358  -0.00896
   8   30852.8    324.1   0.008594904   0.09171   0.27753  -0.11568  -0.03611
   9   30928.3    323.3   0.158041348   1.68225   1.12426   0.53972  -0.35635
  10   30987.6    322.7   0.016881877   0.17935  -0.26117  -0.31737   0.10209
  11   32848.5    304.4   0.003422134   0.03430   0.15950   0.07894  -0.05124
  12   33028.2    302.8   0.005396162   0.05379  -0.08648  -0.20395   0.06864
  13   33435.6    299.1   0.080225027   0.78991  -0.50560  -0.68553   0.25362
  14   33815.6    295.7   0.002416578   0.02353   0.04665   0.08497  -0.11887
  15   34353.3    291.1   0.002047888   0.01963  -0.13326  -0.03211  -0.02891
  16   34668.3    288.4   0.143564048   1.36329   0.68526   0.86612  -0.37888
  17   35034.3    285.4   0.063959355   0.60102  -0.71213   0.27346   0.13821
  18   35316.5    283.2   0.107547648   1.00253   0.83914   0.43385  -0.33189
  19   35742.9    279.8   0.166309311   1.53180  -0.54112  -1.04138   0.39309
  20   36381.4    274.9   0.024445153   0.22120   0.04664  -0.20665   0.41991
  21   36544.4    273.6   0.019845254   0.17878   0.29888   0.29787  -0.02689
  22   36876.7    271.2   0.016073357   0.14349  -0.09152   0.32366   0.17424
  23   37122.8    269.4   1.051301097   9.32313   1.71462   2.34587  -0.93815
  24   37833.0    264.3   0.156321546   1.36027  -0.78008   0.47770   0.72357
  25   37909.0    263.8   0.075186907   0.65294  -0.42541   0.68309   0.07318
  26   38761.2    258.0   0.037159746   0.31561  -0.39862  -0.39487   0.02805

FINAL SINGLE POINT ENERGY     -4357.187157745203

DIPOLE MOMENT
-------------
                                X             Y             Z
Electronic contribution:    -27.27610     -21.19587     -11.33439
Nuclear contribution   :     26.90997      20.13229      12.66126
                        -----------------------------------------
Total Dipole Moment    :     -0.36613      -1.06358       1.32687
                        -----------------------------------------
Magnitude (a.u.)       :      1.73949
Magnitude (Debye)      :      4.42143

Rotational constants in cm-1:     0.002686     0.000227     0.000214
Rotational constants in MHz :    80.525230     6.810972     6.423055

                             ****ORCA TERMINATED NORMALLY****
TOTAL RUN TIME: 0 days 0 hours 49 minutes 53 seconds 831 msec
