                         Program Version 4.2.0 -  RELEASE  -
|  1> # ORCA input file
|  2> # F-2F.out: Geometry 41
|  3> ! CAM-B3LYP def2-SVP def2/J RIJCOSX Grid4 TightSCF
|  4> %maxcore 5000
|  5> %tddft
|  6>     Mode sTDDFT
|  7>     Ethresh 5.0
|  8>     maxcore 5000
|  9> end
| 10> * xyz 0 1
| 11>    C        2.98213        -0.88739         1.55338
| 12>    O        3.18296         0.27144         1.23232
| 13>    C        1.71372        -1.42580         2.10346
| 14>    C        0.53195        -0.73403         2.34255
| 15>    C       -0.52424        -1.44054         2.90646
| 16>    F       -1.68666        -0.84353         3.15488
| 17>    C       -0.37858        -2.80201         3.22965
| 18>    F       -1.40731        -3.42848         3.79730
| 19>    C        0.80175        -3.49575         2.97143
| 20>    C        1.86674        -2.79576         2.38786
| 21>    C        3.22948        -3.22061         1.97386
| 22>    C        3.70059        -4.52132         2.04356
| 23>    C        5.00623        -4.91423         1.61178
| 24>    N        6.06334        -5.25106         1.26379
| 25>    C        2.92000        -5.60860         2.54653
| 26>    N        2.30881        -6.51069         2.95137
| 27>    C        3.92712        -2.02750         1.48583
| 28>    C       15.77300        14.45819        -1.65014
| 29>    O       14.84466        15.10820        -1.21555
| 30>    C       17.21599        14.80439        -1.59234
| 31>    C       17.80437        15.91368        -0.99345
| 32>    C       19.19114        16.00729        -1.03571
| 33>    F       19.82633        17.03094        -0.47002
| 34>    C       19.95104        15.01510        -1.68071
| 35>    F       21.27366        15.15231        -1.69906
| 36>    C       19.35951        13.90877        -2.28709
| 37>    C       17.96414        13.79701        -2.23507
| 38>    C       17.02842        12.77676        -2.78536
| 39>    C       17.37448        11.82390        -3.73227
| 40>    C       16.41737        11.08422        -4.48680
| 41>    N       15.67257        10.46614        -5.13121
| 42>    C       18.73078        11.57598        -4.11142
| 43>    N       19.83156        11.35195        -4.40989
| 44>    C       15.70315        13.10030        -2.29080
| 45>    C        8.08342         2.33259        -0.26811
| 46>    C        9.37715         1.90972        -0.68169
| 47>    C       10.33461         2.85127        -1.03722
| 48>    C        9.99001         4.21156        -0.95515
| 49>    C        8.70450         4.62510        -0.51439
| 50>    C        7.73435         3.68892        -0.18801
| 51>    C        8.61836         6.14479        -0.45503
| 52>    C        7.38690         6.72040        -1.18284
| 53>    C        7.28920         6.34515        -2.66017
| 54>    C        8.68405         6.63158         1.03062
| 55>    C        7.47689         6.34052         1.91680
| 56>    C        9.95119         6.54156        -1.07953
| 57>    C       10.77266         5.40435        -1.27778
| 58>    C       12.11514         5.53362        -1.67450
| 59>    C       12.62097         6.81198        -1.88827
| 60>    C       11.77390         7.94513        -1.71511
| 61>    C       10.43581         7.81919        -1.31611
| 62>    C        5.23384        -1.96170         1.03961
| 63>    C       14.50131        12.43970        -2.13566
| 64>    C       12.59499         9.11486        -1.90212
| 65>    C       13.92712         8.75909        -2.13575
| 66>    C       14.06288         7.24323        -2.20513
| 67>    S       12.34857        10.80775        -1.86907
| 68>    C       14.07528        11.09154        -2.18090
| 69>    C       14.76344         9.86910        -2.29344
| 70>    C        9.48542         0.37678        -0.68772
| 71>    C        8.10546        -0.00433        -0.15709
| 72>    C        7.32619         1.14348         0.03250
| 73>    C        7.40411        -1.15950         0.19102
| 74>    C        6.07619        -0.90552         0.61374
| 75>    S        5.72832         0.83448         0.57312
| 76>    C       14.49354         6.86781        -3.65264
| 77>    C       15.00724         6.67625        -1.11390
| 78>    C       10.64436        -0.12395         0.20630
| 79>    C        9.68498        -0.10207        -2.15528
| 80>    C       10.59746         0.34941         1.65656
| 81>    C        9.63167        -1.61093        -2.38322
| 82>    C       14.64561         5.37859        -3.95301
| 83>    C       16.47318         7.09061        -1.21505
| 84>    H        0.43228         0.32411         2.09514
| 85>    H        0.84601        -4.54855         3.24156
| 86>    H       17.20508        16.68313        -0.50413
| 87>    H       20.00811        13.17873        -2.76705
| 88>    H       11.32700         2.54608        -1.37815
| 89>    H        6.72974         3.98447         0.11866
| 90>    H        7.40327         7.81848        -1.06934
| 91>    H        6.47955         6.38205        -0.65743
| 92>    H        8.18595         6.66222        -3.21503
| 93>    H        6.41984         6.82708        -3.13235
| 94>    H        7.18282         5.25699        -2.79034
| 95>    H        8.86644         7.71962         1.01108
| 96>    H        9.58555         6.18420         1.47969
| 97>    H        6.56212         6.82348         1.54261
| 98>    H        7.66142         6.73001         2.93011
| 99>    H        7.27855         5.26233         2.01094
|100>    H       12.74967         4.65134        -1.77258
|101>    H        9.81858         8.70483        -1.14977
|102>    H        5.77025        -2.90938         1.00836
|103>    H       13.72960        13.13777        -1.78345
|104>    H       15.83695         9.81531        -2.44533
|105>    H        7.79805        -2.17654         0.17183
|106>    H       15.44010         7.38869        -3.86949
|107>    H       13.75857         7.31243        -4.34215
|108>    H       14.93503         5.57686        -1.14238
|109>    H       14.60295         6.97894        -0.13378
|110>    H       11.59016         0.19737        -0.26392
|111>    H       10.65042        -1.22529         0.17850
|112>    H       10.65706         0.28984        -2.49937
|113>    H        8.92082         0.38775        -2.77993
|114>    H       10.68332         1.44477         1.72909
|115>    H       11.42033        -0.09312         2.23784
|116>    H        9.65447         0.05281         2.14260
|117>    H       10.34543        -2.15850        -1.75094
|118>    H        9.87917        -1.84734        -3.42963
|119>    H        8.62755        -2.01527        -2.18366
|120>    H       15.34512         4.88080        -3.26358
|121>    H       15.04154         5.23966        -4.97103
|122>    H       13.68324         4.84838        -3.89945
|123>    H       16.91003         6.83902        -2.19329
|124>    H       17.07062         6.57245        -0.45030
|125>    H       16.60590         8.17049        -1.05313
|126> *
|127>
|128>                          ****END OF INPUT****

CARTESIAN COORDINATES (ANGSTROEM)
---------------------------------
  C      2.982130   -0.887390    1.553380
  O      3.182960    0.271440    1.232320
  C      1.713720   -1.425800    2.103460
  C      0.531950   -0.734030    2.342550
  C     -0.524240   -1.440540    2.906460
  F     -1.686660   -0.843530    3.154880
  C     -0.378580   -2.802010    3.229650
  F     -1.407310   -3.428480    3.797300
  C      0.801750   -3.495750    2.971430
  C      1.866740   -2.795760    2.387860
  C      3.229480   -3.220610    1.973860
  C      3.700590   -4.521320    2.043560
  C      5.006230   -4.914230    1.611780
  N      6.063340   -5.251060    1.263790
  C      2.920000   -5.608600    2.546530
  N      2.308810   -6.510690    2.951370
  C      3.927120   -2.027500    1.485830
  C     15.773000   14.458190   -1.650140
  O     14.844660   15.108200   -1.215550
  C     17.215990   14.804390   -1.592340
  C     17.804370   15.913680   -0.993450
  C     19.191140   16.007290   -1.035710
  F     19.826330   17.030940   -0.470020
  C     19.951040   15.015100   -1.680710
  F     21.273660   15.152310   -1.699060
  C     19.359510   13.908770   -2.287090
  C     17.964140   13.797010   -2.235070
  C     17.028420   12.776760   -2.785360
  C     17.374480   11.823900   -3.732270
  C     16.417370   11.084220   -4.486800
  N     15.672570   10.466140   -5.131210
  C     18.730780   11.575980   -4.111420
  N     19.831560   11.351950   -4.409890
  C     15.703150   13.100300   -2.290800
  C      8.083420    2.332590   -0.268110
  C      9.377150    1.909720   -0.681690
  C     10.334610    2.851270   -1.037220
  C      9.990010    4.211560   -0.955150
  C      8.704500    4.625100   -0.514390
  C      7.734350    3.688920   -0.188010
  C      8.618360    6.144790   -0.455030
  C      7.386900    6.720400   -1.182840
  C      7.289200    6.345150   -2.660170
  C      8.684050    6.631580    1.030620
  C      7.476890    6.340520    1.916800
  C      9.951190    6.541560   -1.079530
  C     10.772660    5.404350   -1.277780
  C     12.115140    5.533620   -1.674500
  C     12.620970    6.811980   -1.888270
  C     11.773900    7.945130   -1.715110
  C     10.435810    7.819190   -1.316110
  C      5.233840   -1.961700    1.039610
  C     14.501310   12.439700   -2.135660
  C     12.594990    9.114860   -1.902120
  C     13.927120    8.759090   -2.135750
  C     14.062880    7.243230   -2.205130
  S     12.348570   10.807750   -1.869070
  C     14.075280   11.091540   -2.180900
  C     14.763440    9.869100   -2.293440
  C      9.485420    0.376780   -0.687720
  C      8.105460   -0.004330   -0.157090
  C      7.326190    1.143480    0.032500
  C      7.404110   -1.159500    0.191020
  C      6.076190   -0.905520    0.613740
  S      5.728320    0.834480    0.573120
  C     14.493540    6.867810   -3.652640
  C     15.007240    6.676250   -1.113900
  C     10.644360   -0.123950    0.206300
  C      9.684980   -0.102070   -2.155280
  C     10.597460    0.349410    1.656560
  C      9.631670   -1.610930   -2.383220
  C     14.645610    5.378590   -3.953010
  C     16.473180    7.090610   -1.215050
  H      0.432280    0.324110    2.095140
  H      0.846010   -4.548550    3.241560
  H     17.205080   16.683130   -0.504130
  H     20.008110   13.178730   -2.767050
  H     11.327000    2.546080   -1.378150
  H      6.729740    3.984470    0.118660
  H      7.403270    7.818480   -1.069340
  H      6.479550    6.382050   -0.657430
  H      8.185950    6.662220   -3.215030
  H      6.419840    6.827080   -3.132350
  H      7.182820    5.256990   -2.790340
  H      8.866440    7.719620    1.011080
  H      9.585550    6.184200    1.479690
  H      6.562120    6.823480    1.542610
  H      7.661420    6.730010    2.930110
  H      7.278550    5.262330    2.010940
  H     12.749670    4.651340   -1.772580
  H      9.818580    8.704830   -1.149770
  H      5.770250   -2.909380    1.008360
  H     13.729600   13.137770   -1.783450
  H     15.836950    9.815310   -2.445330
  H      7.798050   -2.176540    0.171830
  H     15.440100    7.388690   -3.869490
  H     13.758570    7.312430   -4.342150
  H     14.935030    5.576860   -1.142380
  H     14.602950    6.978940   -0.133780
  H     11.590160    0.197370   -0.263920
  H     10.650420   -1.225290    0.178500
  H     10.657060    0.289840   -2.499370
  H      8.920820    0.387750   -2.779930
  H     10.683320    1.444770    1.729090
  H     11.420330   -0.093120    2.237840
  H      9.654470    0.052810    2.142600
  H     10.345430   -2.158500   -1.750940
  H      9.879170   -1.847340   -3.429630
  H      8.627550   -2.015270   -2.183660
  H     15.345120    4.880800   -3.263580
  H     15.041540    5.239660   -4.971030
  H     13.683240    4.848380   -3.899450
  H     16.910030    6.839020   -2.193290
  H     17.070620    6.572450   -0.450300
  H     16.605900    8.170490   -1.053130

 Total Charge           Charge          ....    0
 Multiplicity           Mult            ....    1
 Number of Electrons    NEL             ....  520
 Basis Dimension        Dim             .... 1240

ORBITAL ENERGIES
----------------

  NO   OCC          E(Eh)            E(eV)
   0   2.0000     -88.977725     -2421.2070
   1   2.0000     -88.973607     -2421.0949
   2   2.0000     -24.803998      -674.9511
   3   2.0000     -24.803963      -674.9502
   4   2.0000     -24.802730      -674.9166
   5   2.0000     -24.801553      -674.8846
   6   2.0000     -19.222853      -523.0804
   7   2.0000     -19.220470      -523.0156
   8   2.0000     -14.424948      -392.5228
   9   2.0000     -14.423756      -392.4904
  10   2.0000     -14.423640      -392.4872
  11   2.0000     -14.420795      -392.4098
  12   2.0000     -10.387918      -282.6696
  13   2.0000     -10.387665      -282.6627
  14   2.0000     -10.387571      -282.6602
  15   2.0000     -10.386813      -282.6396
  16   2.0000     -10.373519      -282.2778
  17   2.0000     -10.372461      -282.2490
  18   2.0000     -10.353242      -281.7260
  19   2.0000     -10.352628      -281.7093
  20   2.0000     -10.351699      -281.6840
  21   2.0000     -10.350368      -281.6478
  22   2.0000     -10.329067      -281.0682
  23   2.0000     -10.328518      -281.0533
  24   2.0000     -10.327544      -281.0268
  25   2.0000     -10.327278      -281.0195
  26   2.0000     -10.325806      -280.9795
  27   2.0000     -10.324917      -280.9553
  28   2.0000     -10.324766      -280.9512
  29   2.0000     -10.322466      -280.8886
  30   2.0000     -10.322219      -280.8819
  31   2.0000     -10.322031      -280.8767
  32   2.0000     -10.320553      -280.8365
  33   2.0000     -10.315905      -280.7101
  34   2.0000     -10.312229      -280.6100
  35   2.0000     -10.311421      -280.5880
  36   2.0000     -10.311000      -280.5766
  37   2.0000     -10.310686      -280.5680
  38   2.0000     -10.307462      -280.4803
  39   2.0000     -10.305732      -280.4332
  40   2.0000     -10.305605      -280.4298
  41   2.0000     -10.303990      -280.3858
  42   2.0000     -10.303783      -280.3802
  43   2.0000     -10.303474      -280.3718
  44   2.0000     -10.302157      -280.3359
  45   2.0000     -10.301438      -280.3164
  46   2.0000     -10.300509      -280.2911
  47   2.0000     -10.297760      -280.2163
  48   2.0000     -10.296888      -280.1926
  49   2.0000     -10.294294      -280.1220
  50   2.0000     -10.294042      -280.1151
  51   2.0000     -10.293290      -280.0947
  52   2.0000     -10.293247      -280.0935
  53   2.0000     -10.292857      -280.0829
  54   2.0000     -10.292196      -280.0649
  55   2.0000     -10.291547      -280.0472
  56   2.0000     -10.291434      -280.0442
  57   2.0000     -10.291234      -280.0387
  58   2.0000     -10.288749      -279.9711
  59   2.0000     -10.288472      -279.9636
  60   2.0000     -10.288257      -279.9577
  61   2.0000     -10.280004      -279.7331
  62   2.0000     -10.280001      -279.7331
  63   2.0000     -10.279298      -279.7139
  64   2.0000     -10.279201      -279.7113
  65   2.0000     -10.277595      -279.6676
  66   2.0000     -10.274856      -279.5930
  67   2.0000     -10.268820      -279.4288
  68   2.0000     -10.267037      -279.3803
  69   2.0000     -10.266640      -279.3695
  70   2.0000     -10.265566      -279.3403
  71   2.0000     -10.263482      -279.2836
  72   2.0000     -10.262054      -279.2447
  73   2.0000      -8.072630      -219.6674
  74   2.0000      -8.066763      -219.5078
  75   2.0000      -6.041820      -164.4063
  76   2.0000      -6.037884      -164.2992
  77   2.0000      -6.036129      -164.2514
  78   2.0000      -6.034833      -164.2162
  79   2.0000      -6.031784      -164.1332
  80   2.0000      -6.029088      -164.0598
  81   2.0000      -1.330162       -36.1955
  82   2.0000      -1.329378       -36.1742
  83   2.0000      -1.313972       -35.7550
  84   2.0000      -1.313233       -35.7349
  85   2.0000      -1.134268       -30.8650
  86   2.0000      -1.133227       -30.8367
  87   2.0000      -1.017696       -27.6929
  88   2.0000      -1.016433       -27.6585
  89   2.0000      -1.013885       -27.5892
  90   2.0000      -1.010643       -27.5010
  91   2.0000      -0.998917       -27.1819
  92   2.0000      -0.998503       -27.1706
  93   2.0000      -0.993406       -27.0320
  94   2.0000      -0.992541       -27.0084
  95   2.0000      -0.990856       -26.9626
  96   2.0000      -0.964216       -26.2377
  97   2.0000      -0.956095       -26.0167
  98   2.0000      -0.950897       -25.8752
  99   2.0000      -0.946529       -25.7564
 100   2.0000      -0.919662       -25.0253
 101   2.0000      -0.906700       -24.6726
 102   2.0000      -0.903458       -24.5844
 103   2.0000      -0.902083       -24.5469
 104   2.0000      -0.895527       -24.3685
 105   2.0000      -0.889522       -24.2051
 106   2.0000      -0.877389       -23.8750
 107   2.0000      -0.871801       -23.7229
 108   2.0000      -0.870768       -23.6948
 109   2.0000      -0.857234       -23.3265
 110   2.0000      -0.846548       -23.0357
 111   2.0000      -0.844764       -22.9872
 112   2.0000      -0.844346       -22.9758
 113   2.0000      -0.842367       -22.9220
 114   2.0000      -0.841941       -22.9104
 115   2.0000      -0.840026       -22.8583
 116   2.0000      -0.838790       -22.8246
 117   2.0000      -0.829862       -22.5817
 118   2.0000      -0.809326       -22.0229
 119   2.0000      -0.798985       -21.7415
 120   2.0000      -0.779201       -21.2031
 121   2.0000      -0.772660       -21.0252
 122   2.0000      -0.770129       -20.9563
 123   2.0000      -0.769076       -20.9276
 124   2.0000      -0.761521       -20.7220
 125   2.0000      -0.756838       -20.5946
 126   2.0000      -0.745790       -20.2940
 127   2.0000      -0.728645       -19.8274
 128   2.0000      -0.717425       -19.5221
 129   2.0000      -0.712735       -19.3945
 130   2.0000      -0.709777       -19.3140
 131   2.0000      -0.706211       -19.2170
 132   2.0000      -0.702053       -19.1038
 133   2.0000      -0.699265       -19.0280
 134   2.0000      -0.697630       -18.9835
 135   2.0000      -0.692349       -18.8398
 136   2.0000      -0.686938       -18.6925
 137   2.0000      -0.683474       -18.5983
 138   2.0000      -0.675653       -18.3854
 139   2.0000      -0.669269       -18.2117
 140   2.0000      -0.664876       -18.0922
 141   2.0000      -0.659506       -17.9461
 142   2.0000      -0.648018       -17.6335
 143   2.0000      -0.647505       -17.6195
 144   2.0000      -0.644122       -17.5275
 145   2.0000      -0.641800       -17.4643
 146   2.0000      -0.641127       -17.4460
 147   2.0000      -0.640049       -17.4166
 148   2.0000      -0.631637       -17.1877
 149   2.0000      -0.619949       -16.8697
 150   2.0000      -0.614671       -16.7260
 151   2.0000      -0.609979       -16.5984
 152   2.0000      -0.602635       -16.3985
 153   2.0000      -0.601869       -16.3777
 154   2.0000      -0.592739       -16.1292
 155   2.0000      -0.592041       -16.1103
 156   2.0000      -0.591282       -16.0896
 157   2.0000      -0.589976       -16.0541
 158   2.0000      -0.585894       -15.9430
 159   2.0000      -0.580566       -15.7980
 160   2.0000      -0.567191       -15.4341
 161   2.0000      -0.562693       -15.3117
 162   2.0000      -0.560659       -15.2563
 163   2.0000      -0.552809       -15.0427
 164   2.0000      -0.552089       -15.0231
 165   2.0000      -0.550820       -14.9886
 166   2.0000      -0.550086       -14.9686
 167   2.0000      -0.549189       -14.9442
 168   2.0000      -0.548688       -14.9305
 169   2.0000      -0.546872       -14.8811
 170   2.0000      -0.546477       -14.8704
 171   2.0000      -0.542043       -14.7497
 172   2.0000      -0.537967       -14.6388
 173   2.0000      -0.535493       -14.5715
 174   2.0000      -0.534189       -14.5360
 175   2.0000      -0.533587       -14.5196
 176   2.0000      -0.533106       -14.5066
 177   2.0000      -0.531629       -14.4664
 178   2.0000      -0.529723       -14.4145
 179   2.0000      -0.528817       -14.3898
 180   2.0000      -0.527154       -14.3446
 181   2.0000      -0.524962       -14.2850
 182   2.0000      -0.523643       -14.2491
 183   2.0000      -0.516159       -14.0454
 184   2.0000      -0.512949       -13.9580
 185   2.0000      -0.509910       -13.8753
 186   2.0000      -0.504520       -13.7287
 187   2.0000      -0.500671       -13.6240
 188   2.0000      -0.499225       -13.5846
 189   2.0000      -0.497767       -13.5449
 190   2.0000      -0.496722       -13.5165
 191   2.0000      -0.496375       -13.5071
 192   2.0000      -0.495510       -13.4835
 193   2.0000      -0.494487       -13.4557
 194   2.0000      -0.491652       -13.3785
 195   2.0000      -0.489233       -13.3127
 196   2.0000      -0.487880       -13.2759
 197   2.0000      -0.485410       -13.2087
 198   2.0000      -0.483936       -13.1686
 199   2.0000      -0.479835       -13.0570
 200   2.0000      -0.476654       -12.9704
 201   2.0000      -0.472655       -12.8616
 202   2.0000      -0.471176       -12.8213
 203   2.0000      -0.470105       -12.7922
 204   2.0000      -0.460938       -12.5428
 205   2.0000      -0.458514       -12.4768
 206   2.0000      -0.457549       -12.4505
 207   2.0000      -0.455910       -12.4059
 208   2.0000      -0.455812       -12.4033
 209   2.0000      -0.455061       -12.3828
 210   2.0000      -0.454576       -12.3697
 211   2.0000      -0.454391       -12.3646
 212   2.0000      -0.452708       -12.3188
 213   2.0000      -0.451735       -12.2923
 214   2.0000      -0.450704       -12.2643
 215   2.0000      -0.448256       -12.1977
 216   2.0000      -0.447529       -12.1779
 217   2.0000      -0.446700       -12.1553
 218   2.0000      -0.443626       -12.0717
 219   2.0000      -0.442840       -12.0503
 220   2.0000      -0.441058       -12.0018
 221   2.0000      -0.437048       -11.8927
 222   2.0000      -0.435682       -11.8555
 223   2.0000      -0.431298       -11.7362
 224   2.0000      -0.428642       -11.6639
 225   2.0000      -0.428169       -11.6511
 226   2.0000      -0.427892       -11.6435
 227   2.0000      -0.426437       -11.6039
 228   2.0000      -0.425242       -11.5714
 229   2.0000      -0.421746       -11.4763
 230   2.0000      -0.419728       -11.4214
 231   2.0000      -0.418338       -11.3835
 232   2.0000      -0.414942       -11.2912
 233   2.0000      -0.411374       -11.1941
 234   2.0000      -0.410410       -11.1678
 235   2.0000      -0.409975       -11.1560
 236   2.0000      -0.408068       -11.1041
 237   2.0000      -0.404138       -10.9972
 238   2.0000      -0.402741       -10.9591
 239   2.0000      -0.401452       -10.9241
 240   2.0000      -0.398973       -10.8566
 241   2.0000      -0.397941       -10.8285
 242   2.0000      -0.391662       -10.6577
 243   2.0000      -0.389445       -10.5973
 244   2.0000      -0.387002       -10.5309
 245   2.0000      -0.374835       -10.1998
 246   2.0000      -0.356031        -9.6881
 247   2.0000      -0.348865        -9.4931
 248   2.0000      -0.346555        -9.4302
 249   2.0000      -0.342333        -9.3154
 250   2.0000      -0.342088        -9.3087
 251   2.0000      -0.336307        -9.1514
 252   2.0000      -0.333280        -9.0690
 253   2.0000      -0.329865        -8.9761
 254   2.0000      -0.322005        -8.7622
 255   2.0000      -0.320851        -8.7308
 256   2.0000      -0.315768        -8.5925
 257   2.0000      -0.310551        -8.4505
 258   2.0000      -0.278889        -7.5890
 259   2.0000      -0.254079        -6.9138
 260   0.0000      -0.099807        -2.7159
 261   0.0000      -0.090707        -2.4683
 262   0.0000      -0.067556        -1.8383
 263   0.0000      -0.063686        -1.7330
 264   0.0000      -0.031875        -0.8674

MULLIKEN ATOMIC CHARGES
-----------------------
   0 C :    0.138183
   1 O :   -0.165478
   2 C :   -0.017316
   3 C :   -0.102237
   4 C :    0.229345
   5 F :   -0.161646
   6 C :    0.225991
   7 F :   -0.160130
   8 C :   -0.090160
   9 C :    0.039987
  10 C :    0.284346
  11 C :   -0.332715
  12 C :   -0.158545
  13 N :    0.112321
  14 C :   -0.163520
  15 N :    0.129423
  16 C :   -0.077692
  17 C :    0.133472
  18 O :   -0.151206
  19 C :   -0.001971
  20 C :   -0.097377
  21 C :    0.226056
  22 F :   -0.162782
  23 C :    0.228724
  24 F :   -0.159042
  25 C :   -0.095021
  26 C :    0.032898
  27 C :    0.260422
  28 C :   -0.333702
  29 C :   -0.187718
  30 N :    0.149997
  31 C :   -0.162568
  32 N :    0.127648
  33 C :   -0.148884
  34 C :    0.056155
  35 C :    0.007125
  36 C :   -0.099964
  37 C :    0.089521
  38 C :    0.005702
  39 C :   -0.096809
  40 C :   -0.145452
  41 C :    0.034686
  42 C :    0.012415
  43 C :    0.069952
  44 C :    0.015489
  45 C :    0.003200
  46 C :    0.091916
  47 C :   -0.102543
  48 C :    0.021336
  49 C :    0.057249
  50 C :   -0.096826
  51 C :   -0.023031
  52 C :    0.087463
  53 C :   -0.050197
  54 C :   -0.001646
  55 C :   -0.120289
  56 S :    0.162910
  57 C :   -0.119517
  58 C :    0.019412
  59 C :   -0.110372
  60 C :    0.067871
  61 C :   -0.053463
  62 C :   -0.072862
  63 C :   -0.073714
  64 S :    0.211386
  65 C :    0.057334
  66 C :    0.043977
  67 C :    0.037254
  68 C :    0.066359
  69 C :    0.012051
  70 C :    0.006882
  71 C :    0.012359
  72 C :    0.008905
  73 H :    0.019476
  74 H :    0.023637
  75 H :    0.020865
  76 H :    0.023238
  77 H :   -0.032987
  78 H :   -0.021796
  79 H :    0.005554
  80 H :    0.012882
  81 H :    0.021948
  82 H :    0.018563
  83 H :    0.022982
  84 H :    0.002303
  85 H :    0.007290
  86 H :    0.015827
  87 H :    0.020588
  88 H :    0.019800
  89 H :   -0.028485
  90 H :   -0.025870
  91 H :    0.007930
  92 H :    0.030540
  93 H :    0.011211
  94 H :    0.017290
  95 H :    0.016970
  96 H :    0.017663
  97 H :    0.010048
  98 H :    0.011390
  99 H :    0.002168
 100 H :    0.015381
 101 H :    0.002099
 102 H :    0.011866
 103 H :    0.023613
 104 H :    0.019167
 105 H :    0.023049
 106 H :    0.015468
 107 H :    0.022725
 108 H :    0.022831
 109 H :    0.009099
 110 H :    0.025958
 111 H :    0.017453
 112 H :    0.019463
 113 H :    0.022079
 114 H :    0.017403
Sum of atomic charges:   -0.0000000

LOEWDIN ATOMIC CHARGES
----------------------
   0 C :    0.083285
   1 O :   -0.163247
   2 C :   -0.046035
   3 C :   -0.012561
   4 C :    0.066542
   5 F :   -0.038621
   6 C :    0.069226
   7 F :   -0.038900
   8 C :   -0.023219
   9 C :   -0.014796
  10 C :    0.082324
  11 C :   -0.145350
  12 C :   -0.011642
  13 N :   -0.063070
  14 C :   -0.014990
  15 N :   -0.057442
  16 C :   -0.121407
  17 C :    0.088341
  18 O :   -0.146579
  19 C :   -0.048557
  20 C :   -0.010350
  21 C :    0.065483
  22 F :   -0.039447
  23 C :    0.069644
  24 F :   -0.037423
  25 C :   -0.026704
  26 C :   -0.011773
  27 C :    0.072249
  28 C :   -0.148418
  29 C :   -0.019382
  30 N :   -0.050613
  31 C :   -0.015449
  32 N :   -0.058079
  33 C :   -0.114060
  34 C :   -0.037716
  35 C :    0.014995
  36 C :   -0.025394
  37 C :   -0.007469
  38 C :    0.004772
  39 C :   -0.020323
  40 C :   -0.032463
  41 C :   -0.022442
  42 C :   -0.061384
  43 C :   -0.012269
  44 C :   -0.063999
  45 C :    0.006764
  46 C :   -0.010524
  47 C :   -0.024071
  48 C :    0.015060
  49 C :   -0.033913
  50 C :   -0.021579
  51 C :    0.055980
  52 C :    0.047221
  53 C :   -0.147084
  54 C :   -0.038669
  55 C :   -0.028042
  56 S :    0.453242
  57 C :   -0.178676
  58 C :   -0.000238
  59 C :   -0.028512
  60 C :   -0.049416
  61 C :   -0.148478
  62 C :   -0.009629
  63 C :   -0.185228
  64 S :    0.488999
  65 C :   -0.015353
  66 C :   -0.019246
  67 C :   -0.020386
  68 C :   -0.013850
  69 C :   -0.062107
  70 C :   -0.063018
  71 C :   -0.064470
  72 C :   -0.062677
  73 H :    0.054281
  74 H :    0.053244
  75 H :    0.055199
  76 H :    0.052675
  77 H :    0.027931
  78 H :    0.030509
  79 H :    0.023294
  80 H :    0.023163
  81 H :    0.026417
  82 H :    0.028434
  83 H :    0.026921
  84 H :    0.022744
  85 H :    0.028115
  86 H :    0.023772
  87 H :    0.032108
  88 H :    0.025335
  89 H :    0.027662
  90 H :    0.029831
  91 H :    0.051617
  92 H :    0.046918
  93 H :    0.036298
  94 H :    0.041106
  95 H :    0.026168
  96 H :    0.033462
  97 H :    0.021487
  98 H :    0.028825
  99 H :    0.022467
 100 H :    0.024613
 101 H :    0.021772
 102 H :    0.028741
 103 H :    0.026307
 104 H :    0.029011
 105 H :    0.027161
 106 H :    0.023628
 107 H :    0.032478
 108 H :    0.026526
 109 H :    0.021763
 110 H :    0.034076
 111 H :    0.023846
 112 H :    0.026132
 113 H :    0.032325
 114 H :    0.024248

  Mayer bond orders larger than 0.100000
B(  0-C ,  1-O ) :   2.1959 B(  0-C ,  2-C ) :   0.9586 B(  0-C , 16-C ) :   0.9704
B(  2-C ,  3-C ) :   1.3173 B(  2-C ,  9-C ) :   1.3592 B(  3-C ,  4-C ) :   1.3243
B(  3-C ,  8-C ) :   0.1037 B(  3-C , 73-H ) :   1.0114 B(  4-C ,  5-F ) :   1.1372
B(  4-C ,  6-C ) :   1.2811 B(  6-C ,  7-F ) :   1.1474 B(  6-C ,  8-C ) :   1.3498
B(  8-C ,  9-C ) :   1.3076 B(  8-C , 74-H ) :   0.9847 B(  9-C , 10-C ) :   1.0000
B( 10-C , 11-C ) :   1.6232 B( 10-C , 16-C ) :   1.0997 B( 11-C , 12-C ) :   1.1329
B( 11-C , 14-C ) :   1.1256 B( 12-C , 13-N ) :   2.9474 B( 14-C , 15-N ) :   2.9698
B( 16-C , 51-C ) :   1.4765 B( 17-C , 18-O ) :   2.2271 B( 17-C , 19-C ) :   0.9399
B( 17-C , 33-C ) :   0.9567 B( 19-C , 20-C ) :   1.3216 B( 19-C , 26-C ) :   1.3536
B( 20-C , 21-C ) :   1.3266 B( 20-C , 25-C ) :   0.1037 B( 20-C , 75-H ) :   1.0120
B( 21-C , 22-F ) :   1.1363 B( 21-C , 23-C ) :   1.2825 B( 23-C , 24-F ) :   1.1470
B( 23-C , 25-C ) :   1.3484 B( 25-C , 26-C ) :   1.3119 B( 25-C , 76-H ) :   0.9856
B( 26-C , 27-C ) :   1.0171 B( 27-C , 28-C ) :   1.6196 B( 27-C , 33-C ) :   1.0674
B( 28-C , 29-C ) :   1.1638 B( 28-C , 31-C ) :   1.1122 B( 29-C , 30-N ) :   2.9734
B( 31-C , 32-N ) :   2.9773 B( 33-C , 52-C ) :   1.6139 B( 34-C , 35-C ) :   1.3704
B( 34-C , 39-C ) :   1.2955 B( 34-C , 61-C ) :   1.0611 B( 35-C , 36-C ) :   1.4047
B( 35-C , 59-C ) :   0.9128 B( 36-C , 37-C ) :   1.3155 B( 36-C , 77-H ) :   0.9906
B( 37-C , 38-C ) :   1.3689 B( 37-C , 46-C ) :   0.9881 B( 38-C , 39-C ) :   1.4038
B( 38-C , 40-C ) :   0.9209 B( 39-C , 78-H ) :   0.9922 B( 40-C , 41-C ) :   1.0302
B( 40-C , 43-C ) :   1.0060 B( 40-C , 45-C ) :   0.9275 B( 41-C , 42-C ) :   1.1030
B( 41-C , 79-H ) :   0.9407 B( 41-C , 80-H ) :   0.9367 B( 42-C , 81-H ) :   0.9655
B( 42-C , 82-H ) :   0.9662 B( 42-C , 83-H ) :   0.9647 B( 43-C , 44-C ) :   1.1082
B( 43-C , 84-H ) :   0.9375 B( 43-C , 85-H ) :   0.9393 B( 44-C , 86-H ) :   0.9635
B( 44-C , 87-H ) :   0.9605 B( 44-C , 88-H ) :   0.9627 B( 45-C , 46-C ) :   1.3749
B( 45-C , 50-C ) :   1.3978 B( 46-C , 47-C ) :   1.3100 B( 47-C , 48-C ) :   1.4121
B( 47-C , 89-H ) :   0.9851 B( 48-C , 49-C ) :   1.3781 B( 48-C , 55-C ) :   0.9226
B( 49-C , 50-C ) :   1.3003 B( 49-C , 53-C ) :   1.0518 B( 50-C , 90-H ) :   0.9952
B( 51-C , 63-C ) :   1.2878 B( 51-C , 91-H ) :   0.9296 B( 52-C , 57-C ) :   1.2035
B( 52-C , 92-H ) :   0.9033 B( 53-C , 54-C ) :   1.4894 B( 53-C , 56-S ) :   1.1412
B( 54-C , 55-C ) :   0.9366 B( 54-C , 58-C ) :   1.3803 B( 55-C , 65-C ) :   1.0044
B( 55-C , 66-C ) :   1.0142 B( 56-S , 57-C ) :   1.0861 B( 57-C , 58-C ) :   1.3658
B( 58-C , 93-H ) :   0.9775 B( 59-C , 60-C ) :   0.9243 B( 59-C , 67-C ) :   1.0243
B( 59-C , 68-C ) :   1.0200 B( 60-C , 61-C ) :   1.4538 B( 60-C , 62-C ) :   1.3276
B( 61-C , 64-S ) :   1.1202 B( 62-C , 63-C ) :   1.3268 B( 62-C , 94-H ) :   1.0078
B( 63-C , 64-S ) :   1.0717 B( 65-C , 71-C ) :   1.1078 B( 65-C , 95-H ) :   0.9406
B( 65-C , 96-H ) :   0.9379 B( 66-C , 72-C ) :   1.1068 B( 66-C , 97-H ) :   0.9391
B( 66-C , 98-H ) :   0.9406 B( 67-C , 69-C ) :   1.1005 B( 67-C , 99-H ) :   0.9414
B( 67-C ,100-H ) :   0.9416 B( 68-C , 70-C ) :   1.1067 B( 68-C ,101-H ) :   0.9384
B( 68-C ,102-H ) :   0.9409 B( 69-C ,103-H ) :   0.9651 B( 69-C ,104-H ) :   0.9657
B( 69-C ,105-H ) :   0.9663 B( 70-C ,106-H ) :   0.9652 B( 70-C ,107-H ) :   0.9616
B( 70-C ,108-H ) :   0.9647 B( 71-C ,109-H ) :   0.9628 B( 71-C ,110-H ) :   0.9624
B( 71-C ,111-H ) :   0.9617 B( 72-C ,112-H ) :   0.9645 B( 72-C ,113-H ) :   0.9612
B( 72-C ,114-H ) :   0.9643

-----------------------------------------------------------------------------
         ABSORPTION SPECTRUM VIA TRANSITION ELECTRIC DIPOLE MOMENTS
-----------------------------------------------------------------------------
State   Energy  Wavelength   fosc         T2         TX        TY        TZ
        (cm-1)    (nm)                  (au**2)     (au)      (au)      (au)
-----------------------------------------------------------------------------
   0   18737.8    533.7   2.790367994  49.02507   4.60910   5.01589  -1.61930
   1   21390.2    467.5   0.075702385   1.16512   0.35079   0.93496  -0.40977
   2   25681.5    389.4   0.156428196   2.00526   0.98986   1.00548  -0.12021
   3   26623.8    375.6   0.097529214   1.20598  -0.10440   1.05344   0.29214
   4   27578.3    362.6   0.011562393   0.13802   0.34194  -0.11313  -0.09112
   5   29476.9    339.2   0.061657440   0.68862  -0.64470  -0.02867   0.52169
   6   30907.8    323.5   0.195448631   2.08180  -0.46003  -1.23422  -0.58896
   7   30941.5    323.2   0.097043327   1.03252  -0.12801  -0.94246  -0.35763
   8   31403.3    318.4   0.203299105   2.13126   1.34255  -0.46927  -0.32954
   9   32440.3    308.3   0.008616644   0.08744  -0.17077  -0.19854  -0.13735
  10   32743.7    305.4   0.021015470   0.21129   0.21309  -0.36572  -0.17926
  11   32779.3    305.1   0.085615794   0.85986  -0.21065   0.79970   0.41949
  12   32936.4    303.6   0.075401308   0.75366   0.79532   0.27487   0.21348
  13   33171.0    301.5   0.017197505   0.17068  -0.02360  -0.25912  -0.32091
  14   33987.3    294.2   0.083422830   0.80806   0.28449   0.78450  -0.33418
  15   34385.8    290.8   0.005451355   0.05219   0.15049   0.13820   0.10220
  16   34840.3    287.0   0.023329938   0.22045   0.29349   0.35736  -0.08129
  17   35188.7    284.2   0.116843620   1.09314  -0.53498   0.79472   0.41877
  18   35750.8    279.7   0.082261161   0.75750  -0.07316   0.84574   0.19202
  19   36326.2    275.3   0.253383077   2.29633  -1.07703   0.94932   0.48489
  20   36480.9    274.1   0.372141022   3.35829   1.30784   1.15547   0.55923
  21   37009.4    270.2   0.109153149   0.97096   0.57856  -0.54886   0.57877
  22   37545.2    266.3   0.476063944   4.17432  -0.70582   1.86589   0.44112
  23   37874.6    264.0   0.076823307   0.66776  -0.32012   0.62806   0.41331
  24   38260.5    261.4   0.021319626   0.18344  -0.00005  -0.34893   0.24838
  25   38425.9    260.2   0.110779629   0.94910   0.40711   0.64987  -0.60085
  26   39147.9    255.4   0.235937739   1.98410  -0.50205   1.24650   0.42224
  27   39838.2    251.0   0.000226685   0.00187   0.02816  -0.01879   0.02697
  28   40177.8    248.9   0.001310934   0.01074  -0.03482   0.09599   0.01774
  29   40311.9    248.1   0.000277190   0.00226  -0.03950  -0.02650  -0.00090

FINAL SINGLE POINT ENERGY     -3910.813798275829

DIPOLE MOMENT
-------------
                                X             Y             Z
Electronic contribution:    -27.05899      32.73201      22.10057
Nuclear contribution   :     27.18265     -31.67482     -21.57984
                        -----------------------------------------
Total Dipole Moment    :      0.12366       1.05719       0.52073
                        -----------------------------------------
Magnitude (a.u.)       :      1.18495
Magnitude (Debye)      :      3.01191

Rotational constants in cm-1:     0.002732     0.000215     0.000205
Rotational constants in MHz :    81.899464     6.441340     6.152679

                             ****ORCA TERMINATED NORMALLY****
TOTAL RUN TIME: 0 days 1 hours 7 minutes 47 seconds 737 msec
