                         Program Version 4.2.0 -  RELEASE  -
|  1> # ORCA input file
|  2> # F-2F.out
|  3> ! CAM-B3LYP def2-SVP def2/J RIJCOSX Grid4 TightSCF
|  4> %maxcore 5000
|  5> %tddft
|  6>     Mode sTDDFT
|  7>     Ethresh 5.0
|  8>     maxcore 5000
|  9> end
| 10> * xyz 0 1
| 11>    C        3.26108        -0.86534         1.50009
| 12>    O        3.48750         0.29369         1.20413
| 13>    C        1.98805        -1.39197         2.03768
| 14>    C        0.82389        -0.70374         2.31350
| 15>    C       -0.24448        -1.42661         2.81966
| 16>    F       -1.39358        -0.80080         3.10334
| 17>    C       -0.13334        -2.79976         3.03675
| 18>    F       -1.18059        -3.47341         3.52631
| 19>    C        1.03751        -3.49026         2.75896
| 20>    C        2.11105        -2.77447         2.25328
| 21>    C        3.46128        -3.19273         1.86908
| 22>    C        3.94193        -4.47353         1.96340
| 23>    C        5.24160        -4.89800         1.61594
| 24>    N        6.27619        -5.32865         1.36171
| 25>    C        3.18809        -5.56866         2.43680
| 26>    N        2.63392        -6.50099         2.81244
| 27>    C        4.16233        -2.01457         1.40295
| 28>    C       16.07039        14.33566        -1.38539
| 29>    O       15.38483        15.12025        -0.77203
| 30>    C       17.52165        14.43174        -1.67028
| 31>    C       18.42372        15.38543        -1.24334
| 32>    C       19.74931        15.23038        -1.61776
| 33>    F       20.65926        16.12830        -1.22092
| 34>    C       20.14661        14.14573        -2.39965
| 35>    F       21.43554        14.01335        -2.73284
| 36>    C       19.23849        13.19316        -2.83874
| 37>    C       17.91261        13.34214        -2.46743
| 38>    C       16.72772        12.53849        -2.77894
| 39>    C       16.63274        11.65959        -3.82885
| 40>    C       15.41669        11.10791        -4.27804
| 41>    N       14.44924        10.64951        -4.69252
| 42>    C       17.72472        11.26000        -4.62492
| 43>    N       18.58346        10.87310        -5.28117
| 44>    C       15.64710        13.03783        -1.96647
| 45>    C        8.07253         2.38295        -0.37663
| 46>    C        9.40594         2.02160        -0.67637
| 47>    C       10.34577         2.99057        -0.93960
| 48>    C        9.94033         4.32078        -0.86915
| 49>    C        8.61240         4.68038        -0.56035
| 50>    C        7.65817         3.71237        -0.33833
| 51>    C        8.46460         6.18433        -0.53566
| 52>    C        7.40052         6.67537        -1.52951
| 53>    C        7.71608         6.27065        -2.96496
| 54>    C        8.20101         6.72008         0.89238
| 55>    C        6.91938         6.24372         1.56269
| 56>    C        9.85623         6.63384        -0.92451
| 57>    C       10.70772         5.52596        -1.08953
| 58>    C       12.05754         5.67524        -1.39754
| 59>    C       12.54863         6.95368        -1.53685
| 60>    C       11.69264         8.06341        -1.33893
| 61>    C       10.33990         7.91664        -1.04398
| 62>    C        5.46067        -1.98392         0.94762
| 63>    C       14.43207        12.52450        -1.59603
| 64>    C       12.50119         9.23452        -1.43880
| 65>    C       13.83238         8.89711        -1.67930
| 66>    C       13.97266         7.40323        -1.82472
| 67>    S       12.25454        10.91648        -1.30886
| 68>    C       13.95904        11.20428        -1.63141
| 69>    C       14.65017        10.00466        -1.80349
| 70>    C        9.57780         0.51240        -0.67597
| 71>    C        8.20893         0.07237        -0.23269
| 72>    C        7.35806         1.17653        -0.10352
| 73>    C        7.58923        -1.10401         0.11893
| 74>    C        6.25229        -0.91845         0.51311
| 75>    S        5.78654         0.77587         0.42479
| 76>    C       14.37856         7.13059        -3.29112
| 77>    C       14.91982         6.77578        -0.78493
| 78>    C       10.67487         0.05434         0.29706
| 79>    C        9.87743         0.06888        -2.12587
| 80>    C       10.46108         0.58374         1.71054
| 81>    C        9.87240        -1.43712        -2.35091
| 82>    C       14.46218         5.66392        -3.69005
| 83>    C       16.37906         7.19861        -0.89116
| 84>    H        0.74332         0.35804         2.14378
| 85>    H        1.06980        -4.55095         2.94537
| 86>    H       18.11493        16.22300        -0.63854
| 87>    H       19.59314        12.37114        -3.43902
| 88>    H       11.36650         2.73681        -1.18208
| 89>    H        6.62434         3.94814        -0.14247
| 90>    H        7.33428         7.76320        -1.46450
| 91>    H        6.43196         6.26072        -1.24856
| 92>    H        8.66517         6.69397        -3.28637
| 93>    H        6.93670         6.62786        -3.63374
| 94>    H        7.77593         5.18797        -3.05410
| 95>    H        8.18634         7.81059         0.83529
| 96>    H        9.05066         6.43495         1.51882
| 97>    H        6.04522         6.47537         0.96052
| 98>    H        6.80982         6.74772         2.52054
| 99>    H        6.94933         5.17396         1.74896
|100>    H       12.69083         4.80815        -1.49842
|101>    H        9.71547         8.78585        -0.90380
|102>    H        5.98366        -2.93238         0.92516
|103>    H       13.77422        13.24738        -1.12192
|104>    H       15.71210         9.97251        -1.96340
|105>    H        8.04630        -2.07770         0.13129
|106>    H       15.34227         7.61018        -3.46912
|107>    H       13.65051         7.63199        -3.93330
|108>    H       14.85579         5.69089        -0.87638
|109>    H       14.54416         7.04079         0.20726
|110>    H       11.64139         0.39702        -0.07759
|111>    H       10.69013        -1.03557         0.32483
|112>    H       10.85190         0.47345        -2.40710
|113>    H        9.12919         0.52603        -2.77865
|114>    H       10.45909         1.67155         1.72051
|115>    H       11.25712         0.23476         2.36384
|116>    H        9.51202         0.23580         2.11211
|117>    H       10.61903        -1.93323        -1.73712
|118>    H       10.10018        -1.64705        -3.39346
|119>    H        8.89636        -1.85868        -2.12725
|120>    H       15.16717         5.12040        -3.06631
|121>    H       14.80222         5.59457        -4.72080
|122>    H       13.48810         5.18692        -3.62513
|123>    H       16.79079         6.96343        -1.86867
|124>    H       16.96351         6.66812        -0.14249
|125>    H       16.49134         8.26355        -0.70858
|126> *
|127>
|128>                          ****END OF INPUT****

CARTESIAN COORDINATES (ANGSTROEM)
---------------------------------
  C      3.261080   -0.865340    1.500090
  O      3.487500    0.293690    1.204130
  C      1.988050   -1.391970    2.037680
  C      0.823890   -0.703740    2.313500
  C     -0.244480   -1.426610    2.819660
  F     -1.393580   -0.800800    3.103340
  C     -0.133340   -2.799760    3.036750
  F     -1.180590   -3.473410    3.526310
  C      1.037510   -3.490260    2.758960
  C      2.111050   -2.774470    2.253280
  C      3.461280   -3.192730    1.869080
  C      3.941930   -4.473530    1.963400
  C      5.241600   -4.898000    1.615940
  N      6.276190   -5.328650    1.361710
  C      3.188090   -5.568660    2.436800
  N      2.633920   -6.500990    2.812440
  C      4.162330   -2.014570    1.402950
  C     16.070390   14.335660   -1.385390
  O     15.384830   15.120250   -0.772030
  C     17.521650   14.431740   -1.670280
  C     18.423720   15.385430   -1.243340
  C     19.749310   15.230380   -1.617760
  F     20.659260   16.128300   -1.220920
  C     20.146610   14.145730   -2.399650
  F     21.435540   14.013350   -2.732840
  C     19.238490   13.193160   -2.838740
  C     17.912610   13.342140   -2.467430
  C     16.727720   12.538490   -2.778940
  C     16.632740   11.659590   -3.828850
  C     15.416690   11.107910   -4.278040
  N     14.449240   10.649510   -4.692520
  C     17.724720   11.260000   -4.624920
  N     18.583460   10.873100   -5.281170
  C     15.647100   13.037830   -1.966470
  C      8.072530    2.382950   -0.376630
  C      9.405940    2.021600   -0.676370
  C     10.345770    2.990570   -0.939600
  C      9.940330    4.320780   -0.869150
  C      8.612400    4.680380   -0.560350
  C      7.658170    3.712370   -0.338330
  C      8.464600    6.184330   -0.535660
  C      7.400520    6.675370   -1.529510
  C      7.716080    6.270650   -2.964960
  C      8.201010    6.720080    0.892380
  C      6.919380    6.243720    1.562690
  C      9.856230    6.633840   -0.924510
  C     10.707720    5.525960   -1.089530
  C     12.057540    5.675240   -1.397540
  C     12.548630    6.953680   -1.536850
  C     11.692640    8.063410   -1.338930
  C     10.339900    7.916640   -1.043980
  C      5.460670   -1.983920    0.947620
  C     14.432070   12.524500   -1.596030
  C     12.501190    9.234520   -1.438800
  C     13.832380    8.897110   -1.679300
  C     13.972660    7.403230   -1.824720
  S     12.254540   10.916480   -1.308860
  C     13.959040   11.204280   -1.631410
  C     14.650170   10.004660   -1.803490
  C      9.577800    0.512400   -0.675970
  C      8.208930    0.072370   -0.232690
  C      7.358060    1.176530   -0.103520
  C      7.589230   -1.104010    0.118930
  C      6.252290   -0.918450    0.513110
  S      5.786540    0.775870    0.424790
  C     14.378560    7.130590   -3.291120
  C     14.919820    6.775780   -0.784930
  C     10.674870    0.054340    0.297060
  C      9.877430    0.068880   -2.125870
  C     10.461080    0.583740    1.710540
  C      9.872400   -1.437120   -2.350910
  C     14.462180    5.663920   -3.690050
  C     16.379060    7.198610   -0.891160
  H      0.743320    0.358040    2.143780
  H      1.069800   -4.550950    2.945370
  H     18.114930   16.223000   -0.638540
  H     19.593140   12.371140   -3.439020
  H     11.366500    2.736810   -1.182080
  H      6.624340    3.948140   -0.142470
  H      7.334280    7.763200   -1.464500
  H      6.431960    6.260720   -1.248560
  H      8.665170    6.693970   -3.286370
  H      6.936700    6.627860   -3.633740
  H      7.775930    5.187970   -3.054100
  H      8.186340    7.810590    0.835290
  H      9.050660    6.434950    1.518820
  H      6.045220    6.475370    0.960520
  H      6.809820    6.747720    2.520540
  H      6.949330    5.173960    1.748960
  H     12.690830    4.808150   -1.498420
  H      9.715470    8.785850   -0.903800
  H      5.983660   -2.932380    0.925160
  H     13.774220   13.247380   -1.121920
  H     15.712100    9.972510   -1.963400
  H      8.046300   -2.077700    0.131290
  H     15.342270    7.610180   -3.469120
  H     13.650510    7.631990   -3.933300
  H     14.855790    5.690890   -0.876380
  H     14.544160    7.040790    0.207260
  H     11.641390    0.397020   -0.077590
  H     10.690130   -1.035570    0.324830
  H     10.851900    0.473450   -2.407100
  H      9.129190    0.526030   -2.778650
  H     10.459090    1.671550    1.720510
  H     11.257120    0.234760    2.363840
  H      9.512020    0.235800    2.112110
  H     10.619030   -1.933230   -1.737120
  H     10.100180   -1.647050   -3.393460
  H      8.896360   -1.858680   -2.127250
  H     15.167170    5.120400   -3.066310
  H     14.802220    5.594570   -4.720800
  H     13.488100    5.186920   -3.625130
  H     16.790790    6.963430   -1.868670
  H     16.963510    6.668120   -0.142490
  H     16.491340    8.263550   -0.708580

 Total Charge           Charge          ....    0
 Multiplicity           Mult            ....    1
 Number of Electrons    NEL             ....  520
 Basis Dimension        Dim             .... 1240

ORBITAL ENERGIES
----------------

  NO   OCC          E(Eh)            E(eV)
   0   2.0000     -88.977055     -2421.1888
   1   2.0000     -88.971472     -2421.0368
   2   2.0000     -24.802097      -674.8994
   3   2.0000     -24.801522      -674.8837
   4   2.0000     -24.801475      -674.8824
   5   2.0000     -24.799653      -674.8329
   6   2.0000     -19.223766      -523.1053
   7   2.0000     -19.218275      -522.9559
   8   2.0000     -14.419585      -392.3769
   9   2.0000     -14.419535      -392.3755
  10   2.0000     -14.419265      -392.3682
  11   2.0000     -14.415040      -392.2532
  12   2.0000     -10.387464      -282.6573
  13   2.0000     -10.386757      -282.6380
  14   2.0000     -10.386158      -282.6217
  15   2.0000     -10.385455      -282.6026
  16   2.0000     -10.372886      -282.2606
  17   2.0000     -10.370071      -282.1840
  18   2.0000     -10.347126      -281.5596
  19   2.0000     -10.346061      -281.5306
  20   2.0000     -10.344703      -281.4937
  21   2.0000     -10.343360      -281.4571
  22   2.0000     -10.324606      -280.9468
  23   2.0000     -10.324049      -280.9317
  24   2.0000     -10.322560      -280.8912
  25   2.0000     -10.322173      -280.8806
  26   2.0000     -10.320573      -280.8371
  27   2.0000     -10.318452      -280.7793
  28   2.0000     -10.318264      -280.7742
  29   2.0000     -10.318087      -280.7694
  30   2.0000     -10.317282      -280.7475
  31   2.0000     -10.316953      -280.7386
  32   2.0000     -10.316009      -280.7129
  33   2.0000     -10.310028      -280.5501
  34   2.0000     -10.309933      -280.5475
  35   2.0000     -10.309914      -280.5470
  36   2.0000     -10.309056      -280.5237
  37   2.0000     -10.307929      -280.4930
  38   2.0000     -10.303371      -280.3690
  39   2.0000     -10.302007      -280.3319
  40   2.0000     -10.301579      -280.3202
  41   2.0000     -10.299736      -280.2701
  42   2.0000     -10.297215      -280.2015
  43   2.0000     -10.296632      -280.1856
  44   2.0000     -10.295983      -280.1679
  45   2.0000     -10.295747      -280.1615
  46   2.0000     -10.295167      -280.1457
  47   2.0000     -10.292751      -280.0800
  48   2.0000     -10.290695      -280.0240
  49   2.0000     -10.288668      -279.9689
  50   2.0000     -10.288346      -279.9601
  51   2.0000     -10.288236      -279.9571
  52   2.0000     -10.287793      -279.9451
  53   2.0000     -10.287724      -279.9432
  54   2.0000     -10.286548      -279.9112
  55   2.0000     -10.286136      -279.9000
  56   2.0000     -10.285730      -279.8889
  57   2.0000     -10.285590      -279.8851
  58   2.0000     -10.283704      -279.8338
  59   2.0000     -10.283233      -279.8210
  60   2.0000     -10.283004      -279.8148
  61   2.0000     -10.276714      -279.6436
  62   2.0000     -10.275727      -279.6167
  63   2.0000     -10.275476      -279.6099
  64   2.0000     -10.274156      -279.5740
  65   2.0000     -10.273043      -279.5437
  66   2.0000     -10.271149      -279.4922
  67   2.0000     -10.265282      -279.3325
  68   2.0000     -10.261720      -279.2356
  69   2.0000     -10.260689      -279.2075
  70   2.0000     -10.260074      -279.1908
  71   2.0000     -10.258118      -279.1376
  72   2.0000     -10.255667      -279.0709
  73   2.0000      -8.072256      -219.6572
  74   2.0000      -8.064570      -219.4481
  75   2.0000      -6.041396      -164.3948
  76   2.0000      -6.037451      -164.2874
  77   2.0000      -6.034521      -164.2077
  78   2.0000      -6.033926      -164.1915
  79   2.0000      -6.029438      -164.0694
  80   2.0000      -6.026942      -164.0014
  81   2.0000      -1.325457       -36.0675
  82   2.0000      -1.324198       -36.0332
  83   2.0000      -1.310251       -35.6537
  84   2.0000      -1.308991       -35.6195
  85   2.0000      -1.139413       -31.0050
  86   2.0000      -1.134032       -30.8586
  87   2.0000      -1.025322       -27.9004
  88   2.0000      -1.022507       -27.8238
  89   2.0000      -1.019441       -27.7404
  90   2.0000      -1.016450       -27.6590
  91   2.0000      -1.004874       -27.3440
  92   2.0000      -1.004394       -27.3310
  93   2.0000      -0.998457       -27.1694
  94   2.0000      -0.996103       -27.1053
  95   2.0000      -0.995458       -27.0878
  96   2.0000      -0.970138       -26.3988
  97   2.0000      -0.962261       -26.1845
  98   2.0000      -0.956410       -26.0252
  99   2.0000      -0.951951       -25.9039
 100   2.0000      -0.924680       -25.1618
 101   2.0000      -0.911401       -24.8005
 102   2.0000      -0.908317       -24.7166
 103   2.0000      -0.907044       -24.6819
 104   2.0000      -0.900559       -24.5055
 105   2.0000      -0.894326       -24.3358
 106   2.0000      -0.881584       -23.9891
 107   2.0000      -0.876043       -23.8384
 108   2.0000      -0.874626       -23.7998
 109   2.0000      -0.860638       -23.4191
 110   2.0000      -0.849944       -23.1281
 111   2.0000      -0.848604       -23.0917
 112   2.0000      -0.848081       -23.0775
 113   2.0000      -0.845364       -23.0035
 114   2.0000      -0.845034       -22.9945
 115   2.0000      -0.843504       -22.9529
 116   2.0000      -0.842465       -22.9246
 117   2.0000      -0.832259       -22.6469
 118   2.0000      -0.812320       -22.1044
 119   2.0000      -0.802705       -21.8427
 120   2.0000      -0.781735       -21.2721
 121   2.0000      -0.775930       -21.1141
 122   2.0000      -0.774806       -21.0835
 123   2.0000      -0.773458       -21.0469
 124   2.0000      -0.762903       -20.7597
 125   2.0000      -0.758960       -20.6523
 126   2.0000      -0.747487       -20.3402
 127   2.0000      -0.730527       -19.8786
 128   2.0000      -0.719441       -19.5770
 129   2.0000      -0.715463       -19.4687
 130   2.0000      -0.712852       -19.3977
 131   2.0000      -0.709099       -19.2956
 132   2.0000      -0.703514       -19.1436
 133   2.0000      -0.701135       -19.0788
 134   2.0000      -0.699116       -19.0239
 135   2.0000      -0.695006       -18.9121
 136   2.0000      -0.689839       -18.7715
 137   2.0000      -0.685099       -18.6425
 138   2.0000      -0.676894       -18.4192
 139   2.0000      -0.671563       -18.2742
 140   2.0000      -0.665733       -18.1155
 141   2.0000      -0.659871       -17.9560
 142   2.0000      -0.650693       -17.7063
 143   2.0000      -0.649181       -17.6651
 144   2.0000      -0.646074       -17.5806
 145   2.0000      -0.643536       -17.5115
 146   2.0000      -0.642749       -17.4901
 147   2.0000      -0.640717       -17.4348
 148   2.0000      -0.634118       -17.2552
 149   2.0000      -0.622636       -16.9428
 150   2.0000      -0.616731       -16.7821
 151   2.0000      -0.611076       -16.6282
 152   2.0000      -0.605147       -16.4669
 153   2.0000      -0.604308       -16.4441
 154   2.0000      -0.595104       -16.1936
 155   2.0000      -0.592797       -16.1308
 156   2.0000      -0.590357       -16.0644
 157   2.0000      -0.589318       -16.0361
 158   2.0000      -0.588321       -16.0090
 159   2.0000      -0.583659       -15.8822
 160   2.0000      -0.570151       -15.5146
 161   2.0000      -0.565884       -15.3985
 162   2.0000      -0.562436       -15.3047
 163   2.0000      -0.554963       -15.1013
 164   2.0000      -0.553723       -15.0676
 165   2.0000      -0.553456       -15.0603
 166   2.0000      -0.552272       -15.0281
 167   2.0000      -0.551837       -15.0162
 168   2.0000      -0.550463       -14.9789
 169   2.0000      -0.550033       -14.9672
 170   2.0000      -0.549209       -14.9447
 171   2.0000      -0.544942       -14.8286
 172   2.0000      -0.542482       -14.7617
 173   2.0000      -0.540065       -14.6959
 174   2.0000      -0.538134       -14.6434
 175   2.0000      -0.536786       -14.6067
 176   2.0000      -0.536232       -14.5916
 177   2.0000      -0.535946       -14.5838
 178   2.0000      -0.532103       -14.4793
 179   2.0000      -0.531046       -14.4505
 180   2.0000      -0.529642       -14.4123
 181   2.0000      -0.527806       -14.3623
 182   2.0000      -0.527135       -14.3441
 183   2.0000      -0.518668       -14.1137
 184   2.0000      -0.514138       -13.9904
 185   2.0000      -0.510673       -13.8961
 186   2.0000      -0.507350       -13.8057
 187   2.0000      -0.505282       -13.7494
 188   2.0000      -0.502193       -13.6654
 189   2.0000      -0.499626       -13.5955
 190   2.0000      -0.498399       -13.5621
 191   2.0000      -0.498018       -13.5518
 192   2.0000      -0.496911       -13.5216
 193   2.0000      -0.496364       -13.5067
 194   2.0000      -0.494082       -13.4447
 195   2.0000      -0.491687       -13.3795
 196   2.0000      -0.489400       -13.3172
 197   2.0000      -0.486952       -13.2506
 198   2.0000      -0.485889       -13.2217
 199   2.0000      -0.480816       -13.0837
 200   2.0000      -0.478916       -13.0320
 201   2.0000      -0.477046       -12.9811
 202   2.0000      -0.472936       -12.8693
 203   2.0000      -0.471351       -12.8261
 204   2.0000      -0.462188       -12.5768
 205   2.0000      -0.460846       -12.5402
 206   2.0000      -0.459193       -12.4953
 207   2.0000      -0.458196       -12.4682
 208   2.0000      -0.456228       -12.4146
 209   2.0000      -0.455382       -12.3916
 210   2.0000      -0.455308       -12.3896
 211   2.0000      -0.454308       -12.3624
 212   2.0000      -0.453987       -12.3536
 213   2.0000      -0.451798       -12.2941
 214   2.0000      -0.450562       -12.2604
 215   2.0000      -0.448018       -12.1912
 216   2.0000      -0.447361       -12.1733
 217   2.0000      -0.445674       -12.1274
 218   2.0000      -0.444939       -12.1074
 219   2.0000      -0.443162       -12.0591
 220   2.0000      -0.442373       -12.0376
 221   2.0000      -0.439071       -11.9477
 222   2.0000      -0.436347       -11.8736
 223   2.0000      -0.433261       -11.7896
 224   2.0000      -0.431394       -11.7388
 225   2.0000      -0.430815       -11.7231
 226   2.0000      -0.430338       -11.7101
 227   2.0000      -0.428961       -11.6726
 228   2.0000      -0.427385       -11.6297
 229   2.0000      -0.424261       -11.5447
 230   2.0000      -0.422278       -11.4908
 231   2.0000      -0.419220       -11.4076
 232   2.0000      -0.416934       -11.3454
 233   2.0000      -0.412622       -11.2280
 234   2.0000      -0.411585       -11.1998
 235   2.0000      -0.409506       -11.1432
 236   2.0000      -0.408139       -11.1060
 237   2.0000      -0.404803       -11.0153
 238   2.0000      -0.402605       -10.9554
 239   2.0000      -0.401374       -10.9219
 240   2.0000      -0.399182       -10.8623
 241   2.0000      -0.397838       -10.8257
 242   2.0000      -0.392667       -10.6850
 243   2.0000      -0.390089       -10.6149
 244   2.0000      -0.386849       -10.5267
 245   2.0000      -0.375852       -10.2275
 246   2.0000      -0.358012        -9.7420
 247   2.0000      -0.351216        -9.5571
 248   2.0000      -0.347890        -9.4666
 249   2.0000      -0.341050        -9.2804
 250   2.0000      -0.339362        -9.2345
 251   2.0000      -0.336131        -9.1466
 252   2.0000      -0.333974        -9.0879
 253   2.0000      -0.330548        -8.9947
 254   2.0000      -0.322471        -8.7749
 255   2.0000      -0.321053        -8.7363
 256   2.0000      -0.316351        -8.6084
 257   2.0000      -0.310717        -8.4550
 258   2.0000      -0.277054        -7.5390
 259   2.0000      -0.251522        -6.8443
 260   0.0000      -0.099402        -2.7049
 261   0.0000      -0.089774        -2.4429
 262   0.0000      -0.066767        -1.8168
 263   0.0000      -0.062993        -1.7141
 264   0.0000      -0.030537        -0.8310

MULLIKEN ATOMIC CHARGES
-----------------------
   0 C :    0.152167
   1 O :   -0.174985
   2 C :   -0.002307
   3 C :   -0.107884
   4 C :    0.234251
   5 F :   -0.170004
   6 C :    0.236333
   7 F :   -0.165843
   8 C :   -0.091988
   9 C :    0.037929
  10 C :    0.323635
  11 C :   -0.361968
  12 C :   -0.182236
  13 N :    0.142407
  14 C :   -0.193357
  15 N :    0.156193
  16 C :   -0.097768
  17 C :    0.134231
  18 O :   -0.142081
  19 C :    0.011026
  20 C :   -0.103860
  21 C :    0.233893
  22 F :   -0.169730
  23 C :    0.237004
  24 F :   -0.166445
  25 C :   -0.094327
  26 C :    0.026077
  27 C :    0.267762
  28 C :   -0.346327
  29 C :   -0.203760
  30 N :    0.175377
  31 C :   -0.181867
  32 N :    0.156962
  33 C :   -0.153293
  34 C :    0.062309
  35 C :    0.009802
  36 C :   -0.108738
  37 C :    0.103472
  38 C :    0.007462
  39 C :   -0.112378
  40 C :   -0.136326
  41 C :    0.050998
  42 C :    0.022424
  43 C :    0.068583
  44 C :    0.033468
  45 C :    0.001336
  46 C :    0.103654
  47 C :   -0.114587
  48 C :    0.025583
  49 C :    0.061666
  50 C :   -0.107813
  51 C :   -0.025640
  52 C :    0.088486
  53 C :   -0.043560
  54 C :    0.019680
  55 C :   -0.114303
  56 S :    0.171249
  57 C :   -0.110683
  58 C :   -0.009868
  59 C :   -0.111218
  60 C :    0.063102
  61 C :   -0.026931
  62 C :   -0.075648
  63 C :   -0.053805
  64 S :    0.200821
  65 C :    0.060327
  66 C :    0.049019
  67 C :    0.048999
  68 C :    0.080121
  69 C :    0.024182
  70 C :    0.027203
  71 C :    0.034496
  72 C :    0.029047
  73 H :    0.009924
  74 H :    0.016259
  75 H :    0.011381
  76 H :    0.015691
  77 H :   -0.044369
  78 H :   -0.031425
  79 H :    0.001271
  80 H :    0.010200
  81 H :    0.022242
  82 H :    0.013765
  83 H :    0.020425
  84 H :   -0.000794
  85 H :    0.005775
  86 H :    0.005228
  87 H :    0.015470
  88 H :    0.020705
  89 H :   -0.038645
  90 H :   -0.037719
  91 H :    0.004028
  92 H :    0.020790
  93 H :    0.003607
  94 H :    0.003811
  95 H :    0.007172
  96 H :    0.020920
  97 H :    0.007121
  98 H :    0.008234
  99 H :   -0.000453
 100 H :    0.012655
 101 H :   -0.002408
 102 H :    0.006641
 103 H :    0.021216
 104 H :    0.014298
 105 H :    0.020040
 106 H :    0.010910
 107 H :    0.018109
 108 H :    0.015881
 109 H :    0.001852
 110 H :    0.021521
 111 H :    0.014391
 112 H :    0.014275
 113 H :    0.018028
 114 H :    0.010769
Sum of atomic charges:   -0.0000000

LOEWDIN ATOMIC CHARGES
----------------------
   0 C :    0.081661
   1 O :   -0.167064
   2 C :   -0.043963
   3 C :   -0.007651
   4 C :    0.069673
   5 F :   -0.046738
   6 C :    0.072393
   7 F :   -0.044630
   8 C :   -0.018151
   9 C :   -0.014707
  10 C :    0.078104
  11 C :   -0.144906
  12 C :   -0.020059
  13 N :   -0.055902
  14 C :   -0.020333
  15 N :   -0.052455
  16 C :   -0.124250
  17 C :    0.082249
  18 O :   -0.143161
  19 C :   -0.046150
  20 C :   -0.005372
  21 C :    0.068703
  22 F :   -0.046518
  23 C :    0.073277
  24 F :   -0.044488
  25 C :   -0.022121
  26 C :   -0.013054
  27 C :    0.066840
  28 C :   -0.148446
  29 C :   -0.017492
  30 N :   -0.042979
  31 C :   -0.023698
  32 N :   -0.052334
  33 C :   -0.112496
  34 C :   -0.039320
  35 C :    0.017184
  36 C :   -0.024013
  37 C :   -0.005469
  38 C :    0.003423
  39 C :   -0.015182
  40 C :   -0.035536
  41 C :   -0.014463
  42 C :   -0.056349
  43 C :   -0.010056
  44 C :   -0.058630
  45 C :    0.008042
  46 C :   -0.011660
  47 C :   -0.021342
  48 C :    0.015410
  49 C :   -0.032816
  50 C :   -0.019042
  51 C :    0.057146
  52 C :    0.052333
  53 C :   -0.146654
  54 C :   -0.034857
  55 C :   -0.031978
  56 S :    0.463794
  57 C :   -0.183600
  58 C :   -0.004799
  59 C :   -0.034734
  60 C :   -0.047904
  61 C :   -0.151406
  62 C :   -0.010363
  63 C :   -0.185572
  64 S :    0.509895
  65 C :   -0.010043
  66 C :   -0.015265
  67 C :   -0.014877
  68 C :   -0.009050
  69 C :   -0.056356
  70 C :   -0.057360
  71 C :   -0.058642
  72 C :   -0.056961
  73 H :    0.051110
  74 H :    0.051463
  75 H :    0.052089
  76 H :    0.050660
  77 H :    0.025151
  78 H :    0.028677
  79 H :    0.021223
  80 H :    0.020863
  81 H :    0.025263
  82 H :    0.026040
  83 H :    0.025096
  84 H :    0.020443
  85 H :    0.026392
  86 H :    0.021086
  87 H :    0.029436
  88 H :    0.024200
  89 H :    0.024961
  90 H :    0.026889
  91 H :    0.050633
  92 H :    0.045697
  93 H :    0.032487
  94 H :    0.037140
  95 H :    0.021559
  96 H :    0.033591
  97 H :    0.019804
  98 H :    0.027831
  99 H :    0.020560
 100 H :    0.023115
 101 H :    0.020080
 102 H :    0.026825
 103 H :    0.024810
 104 H :    0.026287
 105 H :    0.025254
 106 H :    0.022087
 107 H :    0.030096
 108 H :    0.024075
 109 H :    0.019093
 110 H :    0.032011
 111 H :    0.022953
 112 H :    0.023623
 113 H :    0.030541
 114 H :    0.022098

  Mayer bond orders larger than 0.100000
B(  0-C ,  1-O ) :   2.1493 B(  0-C ,  2-C ) :   0.9647 B(  0-C , 16-C ) :   0.9851
B(  2-C ,  3-C ) :   1.3200 B(  2-C ,  9-C ) :   1.3455 B(  3-C ,  4-C ) :   1.3114
B(  3-C ,  8-C ) :   0.1051 B(  3-C , 73-H ) :   1.0208 B(  4-C ,  5-F ) :   1.1301
B(  4-C ,  6-C ) :   1.2961 B(  6-C ,  7-F ) :   1.1448 B(  6-C ,  8-C ) :   1.3306
B(  8-C ,  9-C ) :   1.3179 B(  8-C , 74-H ) :   0.9915 B(  9-C , 10-C ) :   0.9964
B( 10-C , 11-C ) :   1.6177 B( 10-C , 16-C ) :   1.0999 B( 11-C , 12-C ) :   1.1466
B( 11-C , 14-C ) :   1.1445 B( 12-C , 13-N ) :   2.9558 B( 14-C , 15-N ) :   2.9761
B( 16-C , 51-C ) :   1.4467 B( 17-C , 18-O ) :   2.2644 B( 17-C , 19-C ) :   0.9256
B( 17-C , 33-C ) :   0.9616 B( 19-C , 20-C ) :   1.3269 B( 19-C , 26-C ) :   1.3469
B( 20-C , 21-C ) :   1.3151 B( 20-C , 25-C ) :   0.1053 B( 20-C , 75-H ) :   1.0202
B( 21-C , 22-F ) :   1.1308 B( 21-C , 23-C ) :   1.2953 B( 23-C , 24-F ) :   1.1413
B( 23-C , 25-C ) :   1.3323 B( 25-C , 26-C ) :   1.3196 B( 25-C , 76-H ) :   0.9951
B( 26-C , 27-C ) :   1.0110 B( 27-C , 28-C ) :   1.6270 B( 27-C , 33-C ) :   1.0677
B( 28-C , 29-C ) :   1.1734 B( 28-C , 31-C ) :   1.1277 B( 29-C , 30-N ) :   2.9828
B( 31-C , 32-N ) :   2.9930 B( 33-C , 52-C ) :   1.5989 B( 34-C , 35-C ) :   1.3679
B( 34-C , 39-C ) :   1.2883 B( 34-C , 61-C ) :   1.0575 B( 35-C , 36-C ) :   1.4014
B( 35-C , 59-C ) :   0.9104 B( 36-C , 37-C ) :   1.3090 B( 36-C , 77-H ) :   0.9980
B( 37-C , 38-C ) :   1.3742 B( 37-C , 46-C ) :   0.9853 B( 38-C , 39-C ) :   1.3944
B( 38-C , 40-C ) :   0.9166 B( 39-C , 78-H ) :   1.0013 B( 40-C , 41-C ) :   1.0248
B( 40-C , 43-C ) :   1.0163 B( 40-C , 45-C ) :   0.9206 B( 41-C , 42-C ) :   1.1041
B( 41-C , 79-H ) :   0.9405 B( 41-C , 80-H ) :   0.9392 B( 42-C , 81-H ) :   0.9631
B( 42-C , 82-H ) :   0.9645 B( 42-C , 83-H ) :   0.9653 B( 43-C , 44-C ) :   1.1171
B( 43-C , 84-H ) :   0.9357 B( 43-C , 85-H ) :   0.9395 B( 44-C , 86-H ) :   0.9629
B( 44-C , 87-H ) :   0.9583 B( 44-C , 88-H ) :   0.9602 B( 45-C , 46-C ) :   1.3731
B( 45-C , 50-C ) :   1.3903 B( 46-C , 47-C ) :   1.3061 B( 47-C , 48-C ) :   1.4074
B( 47-C , 89-H ) :   0.9900 B( 48-C , 49-C ) :   1.3809 B( 48-C , 55-C ) :   0.9161
B( 49-C , 50-C ) :   1.2942 B( 49-C , 53-C ) :   1.0528 B( 50-C , 90-H ) :   1.0048
B( 51-C , 63-C ) :   1.3038 B( 51-C , 91-H ) :   0.9389 B( 52-C , 57-C ) :   1.1934
B( 52-C , 92-H ) :   0.9266 B( 53-C , 54-C ) :   1.4902 B( 53-C , 56-S ) :   1.1376
B( 54-C , 55-C ) :   0.9366 B( 54-C , 58-C ) :   1.3890 B( 55-C , 65-C ) :   1.0040
B( 55-C , 66-C ) :   1.0153 B( 56-S , 57-C ) :   1.0860 B( 57-C , 58-C ) :   1.3598
B( 58-C , 93-H ) :   0.9802 B( 59-C , 60-C ) :   0.9209 B( 59-C , 67-C ) :   1.0314
B( 59-C , 68-C ) :   1.0181 B( 60-C , 61-C ) :   1.4312 B( 60-C , 62-C ) :   1.3501
B( 61-C , 64-S ) :   1.1134 B( 62-C , 63-C ) :   1.2991 B( 62-C , 94-H ) :   1.0180
B( 63-C , 64-S ) :   1.0735 B( 65-C , 71-C ) :   1.1128 B( 65-C , 95-H ) :   0.9398
B( 65-C , 96-H ) :   0.9354 B( 66-C , 72-C ) :   1.1110 B( 66-C , 97-H ) :   0.9380
B( 66-C , 98-H ) :   0.9398 B( 67-C , 69-C ) :   1.1029 B( 67-C , 99-H ) :   0.9402
B( 67-C ,100-H ) :   0.9403 B( 68-C , 70-C ) :   1.1099 B( 68-C ,101-H ) :   0.9369
B( 68-C ,102-H ) :   0.9389 B( 69-C ,103-H ) :   0.9632 B( 69-C ,104-H ) :   0.9646
B( 69-C ,105-H ) :   0.9657 B( 70-C ,106-H ) :   0.9642 B( 70-C ,107-H ) :   0.9608
B( 70-C ,108-H ) :   0.9638 B( 71-C ,109-H ) :   0.9611 B( 71-C ,110-H ) :   0.9604
B( 71-C ,111-H ) :   0.9601 B( 72-C ,112-H ) :   0.9630 B( 72-C ,113-H ) :   0.9595
B( 72-C ,114-H ) :   0.9639

-----------------------------------------------------------------------------
         ABSORPTION SPECTRUM VIA TRANSITION ELECTRIC DIPOLE MOMENTS
-----------------------------------------------------------------------------
State   Energy  Wavelength   fosc         T2         TX        TY        TZ
        (cm-1)    (nm)                  (au**2)     (au)      (au)      (au)
-----------------------------------------------------------------------------
   0   18091.6    552.7   2.459474399  44.75485  -4.33707  -4.80945   1.67744
   1   20865.2    479.3   0.263052730   4.15046  -0.99171  -1.73296   0.40474
   2   25185.9    397.0   0.169147346   2.21098  -1.15219  -0.93937   0.03213
   3   26210.9    381.5   0.115769118   1.45407  -0.07731  -1.15200  -0.34784
   4   27170.9    368.0   0.008578171   0.10394  -0.20814   0.19098   0.15537
   5   29189.2    342.6   0.069437601   0.78315   0.48695  -0.10992  -0.73072
   6   30394.9    329.0   0.000761373   0.00825   0.07015  -0.05122   0.02648
   7   30623.1    326.6   0.208791424   2.24460  -0.84325  -1.15312  -0.45149
   8   31553.8    316.9   0.145412306   1.51714   1.06078  -0.54574  -0.30667
   9   32272.3    309.9   0.077741170   0.79304   0.52824   0.64001   0.32311
  10   32683.8    306.0   0.095039429   0.95730  -0.02385   0.86427   0.45801
  11   32870.1    304.2   0.000499002   0.00500   0.03775  -0.04450   0.03991
  12   32979.3    303.2   0.109617838   1.09425   1.03725   0.08717   0.10369
  13   33178.9    301.4   0.011036356   0.10951  -0.12603  -0.16449  -0.25800
  14   33767.5    296.1   0.089481273   0.87239   0.20327   0.88230  -0.22939
  15   34093.4    293.3   0.019725291   0.19047  -0.09756  -0.40431  -0.13225
  16   34659.3    288.5   0.025358484   0.24087  -0.08983   0.47104   0.10449
  17   35100.4    284.9   0.056563068   0.53051  -0.52486   0.34173   0.37183
  18   35794.9    279.4   0.076586849   0.70438  -0.17488   0.76437   0.29923
  19   36324.4    275.3   0.296674853   2.68879   1.56724   0.47925  -0.05369
  20   36644.1    272.9   0.356764734   3.20518   0.17082  -1.71381  -0.48872
  21   37301.2    268.1   0.307580492   2.71463  -1.46381   0.22044  -0.72339
  22   37684.8    265.4   0.333548993   2.91386  -0.37804   1.62935   0.34083
  23   38094.8    262.5   0.083791086   0.72412  -0.05437  -0.73685  -0.42215
  24   38343.5    260.8   0.013294877   0.11415  -0.19905   0.25102  -0.10730
  25   38803.1    257.7   0.087557875   0.74286   0.28784   0.26163  -0.76912
  26   39022.5    256.3   0.307013272   2.59011   0.16337  -1.53164  -0.46638
  27   39896.0    250.7   0.000226953   0.00187   0.01638  -0.00381   0.03988
  28   40082.8    249.5   0.010612777   0.08717  -0.21465   0.18821   0.07529
  29   40283.2    248.2   0.000723886   0.00592  -0.01774  -0.06569  -0.03586

FINAL SINGLE POINT ENERGY     -3910.798392412900

DIPOLE MOMENT
-------------
                                X             Y             Z
Electronic contribution:    -23.91154      26.56834      18.72676
Nuclear contribution   :     24.34987     -25.29828     -18.17806
                        -----------------------------------------
Total Dipole Moment    :      0.43833       1.27006       0.54870
                        -----------------------------------------
Magnitude (a.u.)       :      1.45130
Magnitude (Debye)      :      3.68890

Rotational constants in cm-1:     0.002910     0.000224     0.000214
Rotational constants in MHz :    87.232436     6.707366     6.413898

                             ****ORCA TERMINATED NORMALLY****
TOTAL RUN TIME: 0 days 1 hours 13 minutes 39 seconds 795 msec
