                         Program Version 4.2.0 -  RELEASE  -
|  1> # ORCA input file
|  2> # F-H.out: Geometry 28
|  3> ! CAM-B3LYP def2-SVP def2/J RIJCOSX Grid4 TightSCF
|  4> %maxcore 5000
|  5> %tddft
|  6>     Mode sTDDFT
|  7>     Ethresh 5.0
|  8>     maxcore 5000
|  9> end
| 10> * xyz 0 1
| 11>    C       -6.01883         0.63269        -1.11843
| 12>    O       -7.14191         0.32733        -1.46460
| 13>    C       -5.39558         1.98002        -1.16321
| 14>    C       -5.94160         3.16119        -1.64970
| 15>    C       -5.15686         4.31778        -1.60775
| 16>    C       -3.85716         4.26701        -1.08488
| 17>    C       -3.31161         3.07770        -0.58478
| 18>    C       -4.09261         1.91618        -0.62285
| 19>    C       -3.85349         0.53463        -0.12481
| 20>    C       -2.91508         0.18336         0.83101
| 21>    C       -3.00403        -1.03216         1.57672
| 22>    N       -3.09128        -1.99107         2.22756
| 23>    C       -1.88313         1.07571         1.25798
| 24>    N       -1.03228         1.79119         1.59744
| 25>    C       -4.94945        -0.29174        -0.60809
| 26>    C        5.49378       -17.25425        -0.55250
| 27>    O        4.27937       -17.13884        -0.51639
| 28>    C        6.20514       -18.55258        -0.49745
| 29>    C        5.63969       -19.81780        -0.39811
| 30>    C        6.49770       -20.92036        -0.37134
| 31>    C        7.88504       -20.73066        -0.43870
| 32>    C        8.44919       -19.45285        -0.53909
| 33>    C        7.59407       -18.34289        -0.57388
| 34>    C        7.84648       -16.88389        -0.69916
| 35>    C        9.10376       -16.32535        -0.86245
| 36>    C        9.34762       -14.92772        -1.04154
| 37>    N        9.57963       -13.79860        -1.19351
| 38>    C       10.30367       -17.10392        -0.89573
| 39>    N       11.29593       -17.70849        -0.92728
| 40>    C        6.54516       -16.20029        -0.65451
| 41>    C       -1.63313        -5.63818        -0.92806
| 42>    C       -2.36643        -6.86491        -0.89705
| 43>    C       -1.67634        -8.06982        -0.88295
| 44>    C       -0.27387        -8.03941        -0.85283
| 45>    C        0.45031        -6.82282        -0.84087
| 46>    C       -0.22863        -5.61034        -0.91089
| 47>    C        1.94987        -7.09788        -0.71295
| 48>    C        2.79400        -6.42664        -1.81646
| 49>    C        2.42864        -6.82585        -3.24506
| 50>    C        2.46536        -6.69730         0.70612
| 51>    C        2.41081        -5.21797         1.07682
| 52>    C        1.98434        -8.62517        -0.78856
| 53>    C        0.67068        -9.14898        -0.82324
| 54>    C        0.42688       -10.53006        -0.81497
| 55>    C        1.51560       -11.39040        -0.79767
| 56>    C        2.84095       -10.86157        -0.76361
| 57>    C        3.08209        -9.47705        -0.75673
| 58>    C       -5.16238        -1.63640        -0.78497
| 59>    C        6.35996       -14.82755        -0.67808
| 60>    C        3.73704       -11.99634        -0.70872
| 61>    C        3.01302       -13.19404        -0.68447
| 62>    C        1.52047       -12.92247        -0.75496
| 63>    S        5.43308       -12.25457        -0.69498
| 64>    C        5.19244       -14.02242        -0.66789
| 65>    C        3.82031       -14.33081        -0.66939
| 66>    C       -3.88054        -6.60868        -0.86738
| 67>    C       -3.90150        -5.08947        -0.90103
| 68>    C       -2.60863        -4.56941        -0.93099
| 69>    C       -4.88555        -4.10031        -0.85602
| 70>    C       -4.35198        -2.80110        -0.80900
| 71>    S       -2.58467        -2.84921        -0.89216
| 72>    C        0.97429       -13.56385        -2.06272
| 73>    C        0.77462       -13.40313         0.51988
| 74>    C       -4.54206        -7.04500         0.47776
| 75>    C       -4.61538        -7.12424        -2.13925
| 76>    C       -4.30401        -8.46362         0.99740
| 77>    C       -4.83013        -8.62611        -2.31272
| 78>    C       -0.51456       -13.39058        -2.34906
| 79>    C        0.69954       -14.91384         0.71976
| 80>    H       -6.95630         3.16382        -2.05211
| 81>    H       -5.55435         5.26138        -1.98826
| 82>    H       -3.25175         5.17597        -1.06132
| 83>    H       -2.30081         3.07565        -0.18273
| 84>    H        4.55368       -19.92248        -0.34498
| 85>    H        6.08899       -21.93070        -0.29506
| 86>    H        8.54715       -21.59880        -0.41364
| 87>    H        9.53030       -19.34926        -0.59057
| 88>    H       -2.19920        -9.02551        -0.88138
| 89>    H        0.30144        -4.65717        -0.94224
| 90>    H        3.85519        -6.66333        -1.62204
| 91>    H        2.70723        -5.33274        -1.70836
| 92>    H        2.57469        -7.90432        -3.41243
| 93>    H        3.05608        -6.28675        -3.96994
| 94>    H        1.37756        -6.58644        -3.47076
| 95>    H        3.50697        -7.05351         0.78231
| 96>    H        1.89115        -7.27835         1.44526
| 97>    H        2.94566        -4.58420         0.35357
| 98>    H        2.88752        -5.06143         2.05677
| 99>    H        1.37730        -4.84980         1.15447
|100>    H       -0.59581       -10.90891        -0.80952
|101>    H        4.10391        -9.09261        -0.71425
|102>    H       -6.20666        -1.84234        -1.05781
|103>    H        7.27507       -14.23624        -0.71803
|104>    H        3.49115       -15.36616        -0.66707
|105>    H       -5.96248        -4.27547        -0.83196
|106>    H        1.21513       -14.63849        -2.02529
|107>    H        1.56131       -13.15726        -2.90235
|108>    H       -0.24504       -12.98516         0.49850
|109>    H        1.26916       -12.93741         1.38779
|110>    H       -5.62643        -6.86435         0.37243
|111>    H       -4.19805        -6.33869         1.25022
|112>    H       -4.06413        -6.73211        -3.00994
|113>    H       -5.59999        -6.62758        -2.16138
|114>    H       -4.60019        -9.24042         0.28054
|115>    H       -4.89562        -8.62163         1.91235
|116>    H       -3.24865        -8.62622         1.26141
|117>    H       -3.88821        -9.19100        -2.27877
|118>    H       -5.29375        -8.82124        -3.29275
|119>    H       -5.50516        -9.03972        -1.55094
|120>    H       -1.14280       -13.74329        -1.51674
|121>    H       -0.79794       -13.97569        -3.23729
|122>    H       -0.77737       -12.34201        -2.55245
|123>    H        0.16412       -15.14498         1.65379
|124>    H        1.69621       -15.37283         0.78909
|125>    H        0.15731       -15.41379        -0.09663
|126> *
|127>
|128>                          ****END OF INPUT****

CARTESIAN COORDINATES (ANGSTROEM)
---------------------------------
  C     -6.018830    0.632690   -1.118430
  O     -7.141910    0.327330   -1.464600
  C     -5.395580    1.980020   -1.163210
  C     -5.941600    3.161190   -1.649700
  C     -5.156860    4.317780   -1.607750
  C     -3.857160    4.267010   -1.084880
  C     -3.311610    3.077700   -0.584780
  C     -4.092610    1.916180   -0.622850
  C     -3.853490    0.534630   -0.124810
  C     -2.915080    0.183360    0.831010
  C     -3.004030   -1.032160    1.576720
  N     -3.091280   -1.991070    2.227560
  C     -1.883130    1.075710    1.257980
  N     -1.032280    1.791190    1.597440
  C     -4.949450   -0.291740   -0.608090
  C      5.493780  -17.254250   -0.552500
  O      4.279370  -17.138840   -0.516390
  C      6.205140  -18.552580   -0.497450
  C      5.639690  -19.817800   -0.398110
  C      6.497700  -20.920360   -0.371340
  C      7.885040  -20.730660   -0.438700
  C      8.449190  -19.452850   -0.539090
  C      7.594070  -18.342890   -0.573880
  C      7.846480  -16.883890   -0.699160
  C      9.103760  -16.325350   -0.862450
  C      9.347620  -14.927720   -1.041540
  N      9.579630  -13.798600   -1.193510
  C     10.303670  -17.103920   -0.895730
  N     11.295930  -17.708490   -0.927280
  C      6.545160  -16.200290   -0.654510
  C     -1.633130   -5.638180   -0.928060
  C     -2.366430   -6.864910   -0.897050
  C     -1.676340   -8.069820   -0.882950
  C     -0.273870   -8.039410   -0.852830
  C      0.450310   -6.822820   -0.840870
  C     -0.228630   -5.610340   -0.910890
  C      1.949870   -7.097880   -0.712950
  C      2.794000   -6.426640   -1.816460
  C      2.428640   -6.825850   -3.245060
  C      2.465360   -6.697300    0.706120
  C      2.410810   -5.217970    1.076820
  C      1.984340   -8.625170   -0.788560
  C      0.670680   -9.148980   -0.823240
  C      0.426880  -10.530060   -0.814970
  C      1.515600  -11.390400   -0.797670
  C      2.840950  -10.861570   -0.763610
  C      3.082090   -9.477050   -0.756730
  C     -5.162380   -1.636400   -0.784970
  C      6.359960  -14.827550   -0.678080
  C      3.737040  -11.996340   -0.708720
  C      3.013020  -13.194040   -0.684470
  C      1.520470  -12.922470   -0.754960
  S      5.433080  -12.254570   -0.694980
  C      5.192440  -14.022420   -0.667890
  C      3.820310  -14.330810   -0.669390
  C     -3.880540   -6.608680   -0.867380
  C     -3.901500   -5.089470   -0.901030
  C     -2.608630   -4.569410   -0.930990
  C     -4.885550   -4.100310   -0.856020
  C     -4.351980   -2.801100   -0.809000
  S     -2.584670   -2.849210   -0.892160
  C      0.974290  -13.563850   -2.062720
  C      0.774620  -13.403130    0.519880
  C     -4.542060   -7.045000    0.477760
  C     -4.615380   -7.124240   -2.139250
  C     -4.304010   -8.463620    0.997400
  C     -4.830130   -8.626110   -2.312720
  C     -0.514560  -13.390580   -2.349060
  C      0.699540  -14.913840    0.719760
  H     -6.956300    3.163820   -2.052110
  H     -5.554350    5.261380   -1.988260
  H     -3.251750    5.175970   -1.061320
  H     -2.300810    3.075650   -0.182730
  H      4.553680  -19.922480   -0.344980
  H      6.088990  -21.930700   -0.295060
  H      8.547150  -21.598800   -0.413640
  H      9.530300  -19.349260   -0.590570
  H     -2.199200   -9.025510   -0.881380
  H      0.301440   -4.657170   -0.942240
  H      3.855190   -6.663330   -1.622040
  H      2.707230   -5.332740   -1.708360
  H      2.574690   -7.904320   -3.412430
  H      3.056080   -6.286750   -3.969940
  H      1.377560   -6.586440   -3.470760
  H      3.506970   -7.053510    0.782310
  H      1.891150   -7.278350    1.445260
  H      2.945660   -4.584200    0.353570
  H      2.887520   -5.061430    2.056770
  H      1.377300   -4.849800    1.154470
  H     -0.595810  -10.908910   -0.809520
  H      4.103910   -9.092610   -0.714250
  H     -6.206660   -1.842340   -1.057810
  H      7.275070  -14.236240   -0.718030
  H      3.491150  -15.366160   -0.667070
  H     -5.962480   -4.275470   -0.831960
  H      1.215130  -14.638490   -2.025290
  H      1.561310  -13.157260   -2.902350
  H     -0.245040  -12.985160    0.498500
  H      1.269160  -12.937410    1.387790
  H     -5.626430   -6.864350    0.372430
  H     -4.198050   -6.338690    1.250220
  H     -4.064130   -6.732110   -3.009940
  H     -5.599990   -6.627580   -2.161380
  H     -4.600190   -9.240420    0.280540
  H     -4.895620   -8.621630    1.912350
  H     -3.248650   -8.626220    1.261410
  H     -3.888210   -9.191000   -2.278770
  H     -5.293750   -8.821240   -3.292750
  H     -5.505160   -9.039720   -1.550940
  H     -1.142800  -13.743290   -1.516740
  H     -0.797940  -13.975690   -3.237290
  H     -0.777370  -12.342010   -2.552450
  H      0.164120  -15.144980    1.653790
  H      1.696210  -15.372830    0.789090
  H      0.157310  -15.413790   -0.096630

 Total Charge           Charge          ....    0
 Multiplicity           Mult            ....    1
 Number of Electrons    NEL             ....  488
 Basis Dimension        Dim             .... 1204

ORBITAL ENERGIES
----------------

  NO   OCC          E(Eh)            E(eV)
   0   2.0000     -88.972873     -2421.0750
   1   2.0000     -88.969948     -2420.9954
   2   2.0000     -19.216031      -522.8948
   3   2.0000     -19.211584      -522.7738
   4   2.0000     -14.417579      -392.3223
   5   2.0000     -14.415840      -392.2750
   6   2.0000     -14.413835      -392.2204
   7   2.0000     -14.412929      -392.1957
   8   2.0000     -10.367488      -282.1137
   9   2.0000     -10.362954      -281.9903
  10   2.0000     -10.344783      -281.4959
  11   2.0000     -10.343374      -281.4575
  12   2.0000     -10.343267      -281.4546
  13   2.0000     -10.342855      -281.4434
  14   2.0000     -10.322472      -280.8888
  15   2.0000     -10.321524      -280.8629
  16   2.0000     -10.320363      -280.8314
  17   2.0000     -10.319601      -280.8106
  18   2.0000     -10.318426      -280.7786
  19   2.0000     -10.318254      -280.7740
  20   2.0000     -10.316226      -280.7188
  21   2.0000     -10.315889      -280.7096
  22   2.0000     -10.315235      -280.6918
  23   2.0000     -10.314897      -280.6826
  24   2.0000     -10.307113      -280.4708
  25   2.0000     -10.304927      -280.4113
  26   2.0000     -10.300519      -280.2914
  27   2.0000     -10.299609      -280.2666
  28   2.0000     -10.297746      -280.2159
  29   2.0000     -10.296526      -280.1827
  30   2.0000     -10.296280      -280.1760
  31   2.0000     -10.295907      -280.1659
  32   2.0000     -10.294868      -280.1376
  33   2.0000     -10.294583      -280.1298
  34   2.0000     -10.294387      -280.1245
  35   2.0000     -10.294338      -280.1232
  36   2.0000     -10.294050      -280.1153
  37   2.0000     -10.294001      -280.1140
  38   2.0000     -10.293635      -280.1041
  39   2.0000     -10.293294      -280.0948
  40   2.0000     -10.293218      -280.0927
  41   2.0000     -10.292673      -280.0779
  42   2.0000     -10.290070      -280.0070
  43   2.0000     -10.289569      -279.9934
  44   2.0000     -10.288188      -279.9558
  45   2.0000     -10.288006      -279.9509
  46   2.0000     -10.288003      -279.9508
  47   2.0000     -10.287599      -279.9398
  48   2.0000     -10.286769      -279.9172
  49   2.0000     -10.286114      -279.8994
  50   2.0000     -10.285658      -279.8870
  51   2.0000     -10.284824      -279.8643
  52   2.0000     -10.284498      -279.8554
  53   2.0000     -10.283943      -279.8403
  54   2.0000     -10.283364      -279.8246
  55   2.0000     -10.282872      -279.8112
  56   2.0000     -10.281268      -279.7675
  57   2.0000     -10.278300      -279.6868
  58   2.0000     -10.276374      -279.6344
  59   2.0000     -10.274232      -279.5761
  60   2.0000     -10.273669      -279.5608
  61   2.0000     -10.272751      -279.5358
  62   2.0000     -10.272549      -279.5303
  63   2.0000     -10.267412      -279.3905
  64   2.0000     -10.264906      -279.3223
  65   2.0000     -10.262949      -279.2690
  66   2.0000     -10.260289      -279.1967
  67   2.0000     -10.259406      -279.1726
  68   2.0000     -10.257819      -279.1294
  69   2.0000      -8.066940      -219.5126
  70   2.0000      -8.064508      -219.4464
  71   2.0000      -6.036281      -164.2555
  72   2.0000      -6.033687      -164.1850
  73   2.0000      -6.032209      -164.1448
  74   2.0000      -6.029789      -164.0789
  75   2.0000      -6.029119      -164.0607
  76   2.0000      -6.026753      -163.9963
  77   2.0000      -1.127322       -30.6760
  78   2.0000      -1.123600       -30.5747
  79   2.0000      -1.009750       -27.4767
  80   2.0000      -1.007947       -27.4276
  81   2.0000      -1.005910       -27.3722
  82   2.0000      -1.004410       -27.3314
  83   2.0000      -0.987398       -26.8685
  84   2.0000      -0.986025       -26.8311
  85   2.0000      -0.984565       -26.7914
  86   2.0000      -0.983776       -26.7699
  87   2.0000      -0.983213       -26.7546
  88   2.0000      -0.957330       -26.0503
  89   2.0000      -0.946760       -25.7626
  90   2.0000      -0.937043       -25.4982
  91   2.0000      -0.935275       -25.4501
  92   2.0000      -0.914214       -24.8770
  93   2.0000      -0.901419       -24.5289
  94   2.0000      -0.895966       -24.3805
  95   2.0000      -0.893857       -24.3231
  96   2.0000      -0.887290       -24.1444
  97   2.0000      -0.880732       -23.9659
  98   2.0000      -0.869485       -23.6599
  99   2.0000      -0.851622       -23.1738
 100   2.0000      -0.850806       -23.1516
 101   2.0000      -0.849678       -23.1209
 102   2.0000      -0.841878       -22.9087
 103   2.0000      -0.839601       -22.8467
 104   2.0000      -0.838503       -22.8168
 105   2.0000      -0.837242       -22.7825
 106   2.0000      -0.836536       -22.7633
 107   2.0000      -0.835742       -22.7417
 108   2.0000      -0.833505       -22.6808
 109   2.0000      -0.821969       -22.3669
 110   2.0000      -0.799101       -21.7446
 111   2.0000      -0.790006       -21.4972
 112   2.0000      -0.771894       -21.0043
 113   2.0000      -0.770694       -20.9716
 114   2.0000      -0.757941       -20.6246
 115   2.0000      -0.755710       -20.5639
 116   2.0000      -0.754427       -20.5290
 117   2.0000      -0.745855       -20.2957
 118   2.0000      -0.727938       -19.8082
 119   2.0000      -0.709038       -19.2939
 120   2.0000      -0.706428       -19.2229
 121   2.0000      -0.704704       -19.1760
 122   2.0000      -0.701673       -19.0935
 123   2.0000      -0.695550       -18.9269
 124   2.0000      -0.694088       -18.8871
 125   2.0000      -0.689040       -18.7497
 126   2.0000      -0.683598       -18.6016
 127   2.0000      -0.677370       -18.4322
 128   2.0000      -0.674802       -18.3623
 129   2.0000      -0.671974       -18.2853
 130   2.0000      -0.664530       -18.0828
 131   2.0000      -0.654924       -17.8214
 132   2.0000      -0.646431       -17.5903
 133   2.0000      -0.641574       -17.4581
 134   2.0000      -0.637645       -17.3512
 135   2.0000      -0.635572       -17.2948
 136   2.0000      -0.624053       -16.9813
 137   2.0000      -0.616224       -16.7683
 138   2.0000      -0.613413       -16.6918
 139   2.0000      -0.605506       -16.4767
 140   2.0000      -0.603953       -16.4344
 141   2.0000      -0.600826       -16.3493
 142   2.0000      -0.589174       -16.0322
 143   2.0000      -0.584600       -15.9078
 144   2.0000      -0.575635       -15.6638
 145   2.0000      -0.569166       -15.4878
 146   2.0000      -0.566851       -15.4248
 147   2.0000      -0.562612       -15.3094
 148   2.0000      -0.558980       -15.2106
 149   2.0000      -0.553350       -15.0574
 150   2.0000      -0.545052       -14.8316
 151   2.0000      -0.543904       -14.8004
 152   2.0000      -0.540829       -14.7167
 153   2.0000      -0.540029       -14.6949
 154   2.0000      -0.538345       -14.6491
 155   2.0000      -0.535695       -14.5770
 156   2.0000      -0.532993       -14.5035
 157   2.0000      -0.530106       -14.4249
 158   2.0000      -0.529255       -14.4018
 159   2.0000      -0.528301       -14.3758
 160   2.0000      -0.525803       -14.3078
 161   2.0000      -0.524844       -14.2817
 162   2.0000      -0.523968       -14.2579
 163   2.0000      -0.522520       -14.2185
 164   2.0000      -0.521019       -14.1776
 165   2.0000      -0.518492       -14.1089
 166   2.0000      -0.515638       -14.0312
 167   2.0000      -0.513124       -13.9628
 168   2.0000      -0.505197       -13.7471
 169   2.0000      -0.505077       -13.7439
 170   2.0000      -0.499863       -13.6020
 171   2.0000      -0.497759       -13.5447
 172   2.0000      -0.496896       -13.5212
 173   2.0000      -0.495405       -13.4807
 174   2.0000      -0.491112       -13.3638
 175   2.0000      -0.487854       -13.2752
 176   2.0000      -0.487130       -13.2555
 177   2.0000      -0.485153       -13.2017
 178   2.0000      -0.483546       -13.1579
 179   2.0000      -0.483308       -13.1515
 180   2.0000      -0.482111       -13.1189
 181   2.0000      -0.476677       -12.9710
 182   2.0000      -0.470642       -12.8068
 183   2.0000      -0.469729       -12.7820
 184   2.0000      -0.465716       -12.6728
 185   2.0000      -0.464867       -12.6497
 186   2.0000      -0.460687       -12.5359
 187   2.0000      -0.458231       -12.4691
 188   2.0000      -0.455714       -12.4006
 189   2.0000      -0.454113       -12.3570
 190   2.0000      -0.453352       -12.3363
 191   2.0000      -0.451957       -12.2984
 192   2.0000      -0.450194       -12.2504
 193   2.0000      -0.449427       -12.2295
 194   2.0000      -0.449140       -12.2217
 195   2.0000      -0.447145       -12.1674
 196   2.0000      -0.446454       -12.1486
 197   2.0000      -0.445708       -12.1283
 198   2.0000      -0.444110       -12.0848
 199   2.0000      -0.442982       -12.0541
 200   2.0000      -0.441024       -12.0009
 201   2.0000      -0.439990       -11.9727
 202   2.0000      -0.439458       -11.9583
 203   2.0000      -0.438848       -11.9417
 204   2.0000      -0.435791       -11.8585
 205   2.0000      -0.431074       -11.7301
 206   2.0000      -0.430624       -11.7179
 207   2.0000      -0.427363       -11.6292
 208   2.0000      -0.426031       -11.5929
 209   2.0000      -0.422210       -11.4889
 210   2.0000      -0.421091       -11.4585
 211   2.0000      -0.419724       -11.4213
 212   2.0000      -0.417157       -11.3514
 213   2.0000      -0.414511       -11.2794
 214   2.0000      -0.412748       -11.2314
 215   2.0000      -0.411771       -11.2049
 216   2.0000      -0.407617       -11.0918
 217   2.0000      -0.405920       -11.0456
 218   2.0000      -0.402821       -10.9613
 219   2.0000      -0.402554       -10.9541
 220   2.0000      -0.401453       -10.9241
 221   2.0000      -0.398345       -10.8395
 222   2.0000      -0.397024       -10.8036
 223   2.0000      -0.396801       -10.7975
 224   2.0000      -0.392385       -10.6773
 225   2.0000      -0.390084       -10.6147
 226   2.0000      -0.386209       -10.5093
 227   2.0000      -0.384048       -10.4505
 228   2.0000      -0.381634       -10.3848
 229   2.0000      -0.371764       -10.1162
 230   2.0000      -0.349695        -9.5157
 231   2.0000      -0.337387        -9.1808
 232   2.0000      -0.337074        -9.1722
 233   2.0000      -0.335370        -9.1259
 234   2.0000      -0.334551        -9.1036
 235   2.0000      -0.329051        -8.9539
 236   2.0000      -0.328132        -8.9289
 237   2.0000      -0.325243        -8.8503
 238   2.0000      -0.318378        -8.6635
 239   2.0000      -0.317075        -8.6280
 240   2.0000      -0.311121        -8.4660
 241   2.0000      -0.304043        -8.2734
 242   2.0000      -0.273116        -7.4319
 243   2.0000      -0.248144        -6.7524
 244   0.0000      -0.092791        -2.5250
 245   0.0000      -0.083858        -2.2819
 246   0.0000      -0.059795        -1.6271
 247   0.0000      -0.055128        -1.5001
 248   0.0000      -0.024316        -0.6617

MULLIKEN ATOMIC CHARGES
-----------------------
   0 C :    0.135023
   1 O :   -0.155556
   2 C :   -0.010615
   3 C :   -0.023376
   4 C :    0.031806
   5 C :    0.028317
   6 C :   -0.029458
   7 C :    0.018436
   8 C :    0.233699
   9 C :   -0.304608
  10 C :   -0.190785
  11 N :    0.147209
  12 C :   -0.153570
  13 N :    0.117242
  14 C :   -0.129195
  15 C :    0.155973
  16 O :   -0.174481
  17 C :   -0.020095
  18 C :   -0.026072
  19 C :    0.033775
  20 C :    0.029236
  21 C :   -0.033768
  22 C :    0.026949
  23 C :    0.275351
  24 C :   -0.330906
  25 C :   -0.160918
  26 N :    0.116576
  27 C :   -0.161723
  28 N :    0.124955
  29 C :   -0.098172
  30 C :    0.052647
  31 C :    0.024709
  32 C :   -0.114282
  33 C :    0.089496
  34 C :    0.014851
  35 C :   -0.108544
  36 C :   -0.136049
  37 C :    0.030464
  38 C :    0.012801
  39 C :    0.065414
  40 C :    0.011384
  41 C :    0.000951
  42 C :    0.093293
  43 C :   -0.110279
  44 C :    0.027226
  45 C :    0.044776
  46 C :   -0.095672
  47 C :    0.013989
  48 C :    0.059799
  49 C :   -0.047334
  50 C :    0.023552
  51 C :   -0.109521
  52 S :    0.163011
  53 C :   -0.136508
  54 C :   -0.026051
  55 C :   -0.093664
  56 C :    0.028741
  57 C :   -0.053101
  58 C :   -0.033871
  59 C :   -0.071060
  60 S :    0.183954
  61 C :    0.042002
  62 C :    0.049963
  63 C :    0.043219
  64 C :    0.052343
  65 C :    0.012287
  66 C :    0.022557
  67 C :    0.015228
  68 C :    0.010134
  69 H :    0.005168
  70 H :    0.007608
  71 H :    0.009751
  72 H :    0.011180
  73 H :    0.003838
  74 H :    0.006681
  75 H :    0.009067
  76 H :    0.011651
  77 H :   -0.035092
  78 H :   -0.025768
  79 H :    0.005548
  80 H :    0.013878
  81 H :    0.023237
  82 H :    0.017790
  83 H :    0.021755
  84 H :    0.002254
  85 H :    0.010558
  86 H :    0.011162
  87 H :    0.021737
  88 H :    0.027838
  89 H :   -0.031048
  90 H :   -0.026511
  91 H :    0.032399
  92 H :    0.003144
  93 H :    0.031758
  94 H :    0.003623
  95 H :    0.018620
  96 H :    0.010695
  97 H :    0.004712
  98 H :    0.010649
  99 H :    0.003291
 100 H :    0.026610
 101 H :    0.012465
 102 H :    0.000237
 103 H :    0.001851
 104 H :    0.020314
 105 H :    0.028775
 106 H :    0.010473
 107 H :    0.017837
 108 H :    0.026147
 109 H :    0.009856
 110 H :    0.020706
 111 H :    0.019087
 112 H :    0.017899
 113 H :    0.027898
 114 H :    0.014572
Sum of atomic charges:   -0.0000000

LOEWDIN ATOMIC CHARGES
----------------------
   0 C :    0.088227
   1 O :   -0.150096
   2 C :   -0.047287
   3 C :    0.009553
   4 C :   -0.007257
   5 C :   -0.002853
   6 C :   -0.004841
   7 C :   -0.010442
   8 C :    0.070359
   9 C :   -0.143245
  10 C :   -0.031702
  11 N :   -0.055602
  12 C :   -0.014032
  13 N :   -0.060548
  14 C :   -0.112798
  15 C :    0.094338
  16 O :   -0.153769
  17 C :   -0.044801
  18 C :    0.007548
  19 C :   -0.006084
  20 C :   -0.004217
  21 C :   -0.002191
  22 C :   -0.014928
  23 C :    0.082548
  24 C :   -0.145518
  25 C :   -0.015610
  26 N :   -0.060771
  27 C :   -0.012399
  28 N :   -0.061949
  29 C :   -0.112661
  30 C :   -0.030756
  31 C :    0.011715
  32 C :   -0.025939
  33 C :   -0.012185
  34 C :    0.005757
  35 C :   -0.022702
  36 C :   -0.030723
  37 C :   -0.022110
  38 C :   -0.062009
  39 C :   -0.013042
  40 C :   -0.064084
  41 C :    0.005584
  42 C :   -0.010078
  43 C :   -0.026547
  44 C :    0.014753
  45 C :   -0.034424
  46 C :   -0.020774
  47 C :    0.050183
  48 C :    0.048941
  49 C :   -0.147205
  50 C :   -0.045704
  51 C :   -0.029352
  52 S :    0.447750
  53 C :   -0.178510
  54 C :   -0.007389
  55 C :   -0.028307
  56 C :   -0.044118
  57 C :   -0.147729
  58 C :   -0.012128
  59 C :   -0.180921
  60 S :    0.465896
  61 C :   -0.017622
  62 C :   -0.017969
  63 C :   -0.016938
  64 C :   -0.016547
  65 C :   -0.065392
  66 C :   -0.062794
  67 C :   -0.064611
  68 C :   -0.062543
  69 H :    0.042300
  70 H :    0.036421
  71 H :    0.038166
  72 H :    0.041117
  73 H :    0.041053
  74 H :    0.036145
  75 H :    0.038088
  76 H :    0.041594
  77 H :    0.025905
  78 H :    0.030011
  79 H :    0.023525
  80 H :    0.022856
  81 H :    0.026268
  82 H :    0.028122
  83 H :    0.026335
  84 H :    0.022364
  85 H :    0.028664
  86 H :    0.022640
  87 H :    0.032625
  88 H :    0.027157
  89 H :    0.026689
  90 H :    0.030391
  91 H :    0.053728
  92 H :    0.043566
  93 H :    0.034219
  94 H :    0.038620
  95 H :    0.026461
  96 H :    0.029585
  97 H :    0.019982
  98 H :    0.029299
  99 H :    0.023295
 100 H :    0.034931
 101 H :    0.029040
 102 H :    0.023154
 103 H :    0.019800
 104 H :    0.032085
 105 H :    0.026638
 106 H :    0.022101
 107 H :    0.031464
 108 H :    0.024083
 109 H :    0.022725
 110 H :    0.031841
 111 H :    0.023892
 112 H :    0.030698
 113 H :    0.030197
 114 H :    0.023760

  Mayer bond orders larger than 0.100000
B(  0-C ,  1-O ) :   2.2260 B(  0-C ,  2-C ) :   0.9338 B(  0-C , 14-C ) :   0.9493
B(  2-C ,  3-C ) :   1.3989 B(  2-C ,  7-C ) :   1.3365 B(  3-C ,  4-C ) :   1.3526
B(  3-C , 69-H ) :   0.9979 B(  4-C ,  5-C ) :   1.3812 B(  4-C , 70-H ) :   0.9861
B(  5-C ,  6-C ) :   1.3784 B(  5-C , 71-H ) :   0.9817 B(  6-C ,  7-C ) :   1.3812
B(  6-C , 72-H ) :   0.9802 B(  7-C ,  8-C ) :   1.0020 B(  8-C ,  9-C ) :   1.6467
B(  8-C , 14-C ) :   1.0474 B(  9-C , 10-C ) :   1.1471 B(  9-C , 12-C ) :   1.1119
B( 10-C , 11-N ) :   3.0136 B( 12-C , 13-N ) :   2.9797 B( 14-C , 47-C ) :   1.6039
B( 15-C , 16-O ) :   2.1230 B( 15-C , 17-C ) :   0.9647 B( 15-C , 29-C ) :   0.9548
B( 16-O , 93-H ) :   0.1056 B( 17-C , 18-C ) :   1.3922 B( 17-C , 22-C ) :   1.3431
B( 18-C , 19-C ) :   1.3457 B( 18-C , 73-H ) :   0.9984 B( 19-C , 20-C ) :   1.3780
B( 19-C , 74-H ) :   0.9867 B( 20-C , 21-C ) :   1.3837 B( 20-C , 75-H ) :   0.9814
B( 21-C , 22-C ) :   1.3728 B( 21-C , 76-H ) :   0.9779 B( 22-C , 23-C ) :   0.9852
B( 23-C , 24-C ) :   1.6211 B( 23-C , 29-C ) :   1.0950 B( 24-C , 25-C ) :   1.1284
B( 24-C , 27-C ) :   1.1295 B( 25-C , 26-N ) :   2.9484 B( 27-C , 28-N ) :   2.9659
B( 29-C , 48-C ) :   1.5513 B( 30-C , 31-C ) :   1.3827 B( 30-C , 35-C ) :   1.2963
B( 30-C , 57-C ) :   1.0578 B( 31-C , 32-C ) :   1.4092 B( 31-C , 55-C ) :   0.9208
B( 32-C , 33-C ) :   1.3085 B( 32-C , 77-H ) :   0.9830 B( 33-C , 34-C ) :   1.3812
B( 33-C , 42-C ) :   0.9947 B( 34-C , 35-C ) :   1.3932 B( 34-C , 36-C ) :   0.9182
B( 35-C , 78-H ) :   0.9944 B( 36-C , 37-C ) :   1.0244 B( 36-C , 39-C ) :   1.0110
B( 36-C , 41-C ) :   0.9242 B( 37-C , 38-C ) :   1.1036 B( 37-C , 79-H ) :   0.9411
B( 37-C , 80-H ) :   0.9395 B( 38-C , 81-H ) :   0.9648 B( 38-C , 82-H ) :   0.9656
B( 38-C , 83-H ) :   0.9655 B( 39-C , 40-C ) :   1.1101 B( 39-C , 84-H ) :   0.9382
B( 39-C , 85-H ) :   0.9399 B( 40-C , 86-H ) :   0.9642 B( 40-C , 87-H ) :   0.9602
B( 40-C , 88-H ) :   0.9618 B( 41-C , 42-C ) :   1.3734 B( 41-C , 46-C ) :   1.3915
B( 42-C , 43-C ) :   1.3137 B( 43-C , 44-C ) :   1.4114 B( 43-C , 89-H ) :   0.9831
B( 44-C , 45-C ) :   1.3781 B( 44-C , 51-C ) :   0.9243 B( 45-C , 46-C ) :   1.3045
B( 45-C , 49-C ) :   1.0477 B( 46-C , 90-H ) :   0.9974 B( 47-C , 59-C ) :   1.2000
B( 47-C , 91-H ) :   0.9249 B( 48-C , 53-C ) :   1.2503 B( 48-C , 92-H ) :   0.9072
B( 49-C , 50-C ) :   1.4779 B( 49-C , 52-S ) :   1.1416 B( 50-C , 51-C ) :   0.9406
B( 50-C , 54-C ) :   1.3146 B( 51-C , 61-C ) :   1.0061 B( 51-C , 62-C ) :   1.0095
B( 52-S , 53-C ) :   1.0770 B( 53-C , 54-C ) :   1.3857 B( 54-C , 93-H ) :   0.9632
B( 55-C , 56-C ) :   0.9402 B( 55-C , 63-C ) :   0.9984 B( 55-C , 64-C ) :   1.0087
B( 56-C , 57-C ) :   1.4917 B( 56-C , 58-C ) :   1.3117 B( 57-C , 60-S ) :   1.1408
B( 58-C , 59-C ) :   1.3718 B( 58-C , 94-H ) :   1.0062 B( 59-C , 60-S ) :   1.0857
B( 61-C , 67-C ) :   1.1101 B( 61-C , 95-H ) :   0.9420 B( 61-C , 96-H ) :   0.9394
B( 62-C , 68-C ) :   1.1063 B( 62-C , 97-H ) :   0.9395 B( 62-C , 98-H ) :   0.9399
B( 63-C , 65-C ) :   1.1182 B( 63-C , 99-H ) :   0.9405 B( 63-C ,100-H ) :   0.9422
B( 64-C , 66-C ) :   1.1127 B( 64-C ,101-H ) :   0.9436 B( 64-C ,102-H ) :   0.9395
B( 65-C ,103-H ) :   0.9615 B( 65-C ,104-H ) :   0.9589 B( 65-C ,105-H ) :   0.9589
B( 66-C ,106-H ) :   0.9653 B( 66-C ,107-H ) :   0.9572 B( 66-C ,108-H ) :   0.9593
B( 67-C ,109-H ) :   0.9624 B( 67-C ,110-H ) :   0.9618 B( 67-C ,111-H ) :   0.9607
B( 68-C ,112-H ) :   0.9619 B( 68-C ,113-H ) :   0.9652 B( 68-C ,114-H ) :   0.9618

-----------------------------------------------------------------------------
         ABSORPTION SPECTRUM VIA TRANSITION ELECTRIC DIPOLE MOMENTS
-----------------------------------------------------------------------------
State   Energy  Wavelength   fosc         T2         TX        TY        TZ
        (cm-1)    (nm)                  (au**2)     (au)      (au)      (au)
-----------------------------------------------------------------------------
   0   18848.7    530.5   2.403717288  41.98333  -3.38749   5.50848   0.40611
   1   21434.2    466.5   0.310204511   4.76448  -2.04505   0.61126  -0.45674
   2   26184.9    381.9   0.217646154   2.73638  -0.60893   1.51208  -0.28143
   3   27264.3    366.8   0.059484224   0.71826   0.69017  -0.48929   0.05024
   4   27686.6    361.2   0.048434165   0.57591  -0.70892   0.02903  -0.26926
   5   29361.7    340.6   0.039713772   0.44528   0.29423   0.10351   0.58992
   6   30067.8    332.6   0.001952350   0.02138   0.10918   0.01171   0.09653
   7   30355.3    329.4   0.132446938   1.43642  -0.70508   0.94702  -0.20599
   8   31973.8    312.8   0.227341388   2.34078   0.05584  -1.49794   0.30631
   9   32127.8    311.3   0.118395649   1.21319   0.87848  -0.25423   0.61387
  10   32330.0    309.3   0.001029589   0.01048  -0.03987  -0.07497  -0.05722
  11   32377.5    308.9   0.000595912   0.00606  -0.07779  -0.00257   0.00075
  12   33086.4    302.2   0.067248571   0.66913  -0.23228  -0.76881   0.15528
  13   33276.7    300.5   0.038967001   0.38551   0.35721   0.50784  -0.00231
  14   34092.6    293.3   0.083585215   0.80713   0.27642  -0.85068   0.08405
  15   34174.1    292.6   0.082215995   0.79202  -0.80205   0.37938   0.06929
  16   34869.5    286.8   0.073494149   0.69388   0.33667   0.75716  -0.08514
  17   35304.9    283.2   0.101884489   0.95006   0.54886   0.79499   0.12956
  18   35389.5    282.6   0.139843633   1.30090  -0.63150   0.82050  -0.47842
  19   35773.4    279.5   0.064207466   0.59088   0.67324   0.37091  -0.00726
  20   36496.5    274.0   0.256100867   2.31012   0.49783   1.39780  -0.32929
  21   37050.9    269.9   0.310976305   2.76315  -0.76015   1.39013  -0.50286
  22   37879.9    264.0   0.012791353   0.11117  -0.22862  -0.24147  -0.02437
  23   38242.4    261.5   0.008595122   0.07399  -0.12407  -0.24189   0.00949
  24   38401.3    260.4   0.358286462   3.07156  -1.44840   0.47937  -0.86250
  25   38650.6    258.7   0.407226161   3.46860  -1.43675  -1.08806   0.46957
  26   39419.5    253.7   0.072102263   0.60216  -0.69156   0.11605  -0.33232
  27   39770.5    251.4   0.001759051   0.01456   0.08810   0.06931  -0.04468
  28   40062.1    249.6   0.017182790   0.14120  -0.35427  -0.04343  -0.11751

FINAL SINGLE POINT ENERGY     -3514.255709055046

DIPOLE MOMENT
-------------
                                X             Y             Z
Electronic contribution:     38.37375      24.43649       5.88979
Nuclear contribution   :    -41.24551     -25.29492      -7.04156
                        -----------------------------------------
Total Dipole Moment    :     -2.87176      -0.85843      -1.15178
                        -----------------------------------------
Magnitude (a.u.)       :      3.21099
Magnitude (Debye)      :      8.16169

Rotational constants in cm-1:     0.003061     0.000274     0.000258
Rotational constants in MHz :    91.754265     8.212074     7.732195

                             ****ORCA TERMINATED NORMALLY****
TOTAL RUN TIME: 0 days 1 hours 8 minutes 43 seconds 302 msec
