                         Program Version 4.2.0 -  RELEASE  -
|  1> # ORCA input file
|  2> # F-H.out
|  3> ! CAM-B3LYP def2-SVP def2/J RIJCOSX Grid4 TightSCF
|  4> %maxcore 5000
|  5> %tddft
|  6>     Mode sTDDFT
|  7>     Ethresh 5.0
|  8>     maxcore 5000
|  9> end
| 10> * xyz 0 1
| 11>    C       -5.56249         0.76389        -1.29998
| 12>    O       -6.65600         0.75873        -1.81845
| 13>    C       -4.64148         1.90694        -1.12495
| 14>    C       -4.77459         3.20816        -1.56857
| 15>    C       -3.74879         4.10281        -1.29612
| 16>    C       -2.61970         3.69283        -0.60133
| 17>    C       -2.48402         2.38825        -0.14482
| 18>    C       -3.50566         1.49043        -0.40540
| 19>    C       -3.68186         0.09032        -0.02522
| 20>    C       -3.07092        -0.52512         1.03592
| 21>    C       -3.50674        -1.75807         1.56420
| 22>    N       -3.86836        -2.73292         2.05093
| 23>    C       -2.01414         0.04358         1.77331
| 24>    N       -1.13840         0.45243         2.39295
| 25>    C       -4.82901        -0.40777        -0.75177
| 26>    C        5.54010       -17.04120        -0.42773
| 27>    O        4.32673       -17.00041        -0.36031
| 28>    C        6.35683       -18.26331        -0.29685
| 29>    C        5.93047       -19.55768        -0.07309
| 30>    C        6.88896       -20.55668         0.01699
| 31>    C        8.23570       -20.25018        -0.11396
| 32>    C        8.66670       -18.94934        -0.33953
| 33>    C        7.71694       -17.94367        -0.43363
| 34>    C        7.83793       -16.50516        -0.66768
| 35>    C        9.02149       -15.85396        -0.90307
| 36>    C        9.19291       -14.48078        -1.17986
| 37>    N        9.44197       -13.38602        -1.42456
| 38>    C       10.28384       -16.48543        -0.91946
| 39>    N       11.34657       -16.91960        -0.94662
| 40>    C        6.50029       -15.93598        -0.63620
| 41>    C       -1.84615        -5.70385        -0.97815
| 42>    C       -2.57082        -6.91703        -0.87603
| 43>    C       -1.88132        -8.10877        -0.82886
| 44>    C       -0.48963        -8.06582        -0.85470
| 45>    C        0.22131        -6.85292        -0.92799
| 46>    C       -0.45600        -5.65750        -1.01606
| 47>    C        1.70991        -7.10888        -0.91947
| 48>    C        2.40748        -6.51085        -2.15070
| 49>    C        1.85960        -7.07261        -3.45776
| 50>    C        2.37081        -6.63496         0.39717
| 51>    C        2.27943        -5.14354         0.69043
| 52>    C        1.75682        -8.62104        -0.91938
| 53>    C        0.45863        -9.15854        -0.84807
| 54>    C        0.23490       -10.53193        -0.79427
| 55>    C        1.33014       -11.36587        -0.83137
| 56>    C        2.63289       -10.81501        -0.87623
| 57>    C        2.86031        -9.44268        -0.92370
| 58>    C       -5.24016        -1.67029        -1.05419
| 59>    C        6.25309       -14.58981        -0.73738
| 60>    C        3.54995       -11.90705        -0.82794
| 61>    C        2.86935       -13.12148        -0.75217
| 62>    C        1.37958       -12.88545        -0.77787
| 63>    S        5.24387       -12.09417        -0.83878
| 64>    C        5.05962       -13.85099        -0.75165
| 65>    C        3.71540       -14.21559        -0.72672
| 66>    C       -4.06948        -6.65540        -0.86189
| 67>    C       -4.09204        -5.14828        -0.95656
| 68>    C       -2.80201        -4.64499        -1.01395
| 69>    C       -5.06132        -4.15667        -0.98290
| 70>    C       -4.51385        -2.88024        -1.00822
| 71>    S       -2.75767        -2.93620        -1.07186
| 72>    C        0.82847       -13.53803        -2.06415
| 73>    C        0.68762       -13.36612         0.51245
| 74>    C       -4.77254        -7.05305         0.45923
| 75>    C       -4.77692        -7.19915        -2.12395
| 76>    C       -4.30314        -8.33593         1.13422
| 77>    C       -4.93106        -8.70945        -2.23395
| 78>    C       -0.66118       -13.34985        -2.31824
| 79>    C        0.68304       -14.87459         0.72298
| 80>    H       -5.65882         3.50817        -2.10959
| 81>    H       -3.82778         5.12680        -1.62903
| 82>    H       -1.82826         4.40147        -0.40827
| 83>    H       -1.59580         2.08871         0.38829
| 84>    H        4.87694       -19.76993         0.02605
| 85>    H        6.58722       -21.57875         0.19005
| 86>    H        8.96980       -21.03845        -0.03939
| 87>    H        9.72012       -18.74471        -0.43422
| 88>    H       -2.38392        -9.05959        -0.76747
| 89>    H        0.04783        -4.70925        -1.12000
| 90>    H        3.47712        -6.71960        -2.08513
| 91>    H        2.27439        -5.42855        -2.14611
| 92>    H        2.00251        -8.14995        -3.50477
| 93>    H        2.37225        -6.62077        -4.30365
| 94>    H        0.79559        -6.86412        -3.54863
| 95>    H        3.42271        -6.92671         0.36046
| 96>    H        1.90564        -7.18281         1.22112
| 97>    H        2.70608        -4.55223        -0.11538
| 98>    H        2.83601        -4.92342         1.59880
| 99>    H        1.24854        -4.83863         0.84780
|100>    H       -0.76973       -10.91606        -0.71333
|101>    H        3.86834        -9.05813        -0.95889
|102>    H       -6.24716        -1.74460        -1.45492
|103>    H        7.13150       -13.95995        -0.81437
|104>    H        3.41569       -15.24610        -0.69564
|105>    H       -6.12326        -4.31986        -0.94209
|106>    H        1.05590       -14.60404        -2.01837
|107>    H        1.38426       -13.12241        -2.90927
|108>    H       -0.34027       -12.99974         0.50854
|109>    H        1.19745       -12.89000         1.35452
|110>    H       -5.84392        -7.11837         0.25793
|111>    H       -4.62408        -6.23598         1.16985
|112>    H       -4.22166        -6.83721        -2.99404
|113>    H       -5.77094        -6.74623        -2.15861
|114>    H       -4.42233        -9.20384         0.49303
|115>    H       -4.89565        -8.49678         2.03272
|116>    H       -3.25984        -8.25731         1.42873
|117>    H       -3.96506        -9.20457        -2.25381
|118>    H       -5.44657        -8.94644        -3.16273
|119>    H       -5.52220        -9.10566        -1.41346
|120>    H       -1.25592       -13.71379        -1.48483
|121>    H       -0.94675       -13.91026        -3.20599
|122>    H       -0.89717       -12.30376        -2.49291
|123>    H        0.19354       -15.10375         1.66728
|124>    H        1.69379       -15.26895         0.76361
|125>    H        0.14112       -15.38413        -0.06887
|126> *
|127>
|128>                          ****END OF INPUT****

CARTESIAN COORDINATES (ANGSTROEM)
---------------------------------
  C     -5.562490    0.763890   -1.299980
  O     -6.656000    0.758730   -1.818450
  C     -4.641480    1.906940   -1.124950
  C     -4.774590    3.208160   -1.568570
  C     -3.748790    4.102810   -1.296120
  C     -2.619700    3.692830   -0.601330
  C     -2.484020    2.388250   -0.144820
  C     -3.505660    1.490430   -0.405400
  C     -3.681860    0.090320   -0.025220
  C     -3.070920   -0.525120    1.035920
  C     -3.506740   -1.758070    1.564200
  N     -3.868360   -2.732920    2.050930
  C     -2.014140    0.043580    1.773310
  N     -1.138400    0.452430    2.392950
  C     -4.829010   -0.407770   -0.751770
  C      5.540100  -17.041200   -0.427730
  O      4.326730  -17.000410   -0.360310
  C      6.356830  -18.263310   -0.296850
  C      5.930470  -19.557680   -0.073090
  C      6.888960  -20.556680    0.016990
  C      8.235700  -20.250180   -0.113960
  C      8.666700  -18.949340   -0.339530
  C      7.716940  -17.943670   -0.433630
  C      7.837930  -16.505160   -0.667680
  C      9.021490  -15.853960   -0.903070
  C      9.192910  -14.480780   -1.179860
  N      9.441970  -13.386020   -1.424560
  C     10.283840  -16.485430   -0.919460
  N     11.346570  -16.919600   -0.946620
  C      6.500290  -15.935980   -0.636200
  C     -1.846150   -5.703850   -0.978150
  C     -2.570820   -6.917030   -0.876030
  C     -1.881320   -8.108770   -0.828860
  C     -0.489630   -8.065820   -0.854700
  C      0.221310   -6.852920   -0.927990
  C     -0.456000   -5.657500   -1.016060
  C      1.709910   -7.108880   -0.919470
  C      2.407480   -6.510850   -2.150700
  C      1.859600   -7.072610   -3.457760
  C      2.370810   -6.634960    0.397170
  C      2.279430   -5.143540    0.690430
  C      1.756820   -8.621040   -0.919380
  C      0.458630   -9.158540   -0.848070
  C      0.234900  -10.531930   -0.794270
  C      1.330140  -11.365870   -0.831370
  C      2.632890  -10.815010   -0.876230
  C      2.860310   -9.442680   -0.923700
  C     -5.240160   -1.670290   -1.054190
  C      6.253090  -14.589810   -0.737380
  C      3.549950  -11.907050   -0.827940
  C      2.869350  -13.121480   -0.752170
  C      1.379580  -12.885450   -0.777870
  S      5.243870  -12.094170   -0.838780
  C      5.059620  -13.850990   -0.751650
  C      3.715400  -14.215590   -0.726720
  C     -4.069480   -6.655400   -0.861890
  C     -4.092040   -5.148280   -0.956560
  C     -2.802010   -4.644990   -1.013950
  C     -5.061320   -4.156670   -0.982900
  C     -4.513850   -2.880240   -1.008220
  S     -2.757670   -2.936200   -1.071860
  C      0.828470  -13.538030   -2.064150
  C      0.687620  -13.366120    0.512450
  C     -4.772540   -7.053050    0.459230
  C     -4.776920   -7.199150   -2.123950
  C     -4.303140   -8.335930    1.134220
  C     -4.931060   -8.709450   -2.233950
  C     -0.661180  -13.349850   -2.318240
  C      0.683040  -14.874590    0.722980
  H     -5.658820    3.508170   -2.109590
  H     -3.827780    5.126800   -1.629030
  H     -1.828260    4.401470   -0.408270
  H     -1.595800    2.088710    0.388290
  H      4.876940  -19.769930    0.026050
  H      6.587220  -21.578750    0.190050
  H      8.969800  -21.038450   -0.039390
  H      9.720120  -18.744710   -0.434220
  H     -2.383920   -9.059590   -0.767470
  H      0.047830   -4.709250   -1.120000
  H      3.477120   -6.719600   -2.085130
  H      2.274390   -5.428550   -2.146110
  H      2.002510   -8.149950   -3.504770
  H      2.372250   -6.620770   -4.303650
  H      0.795590   -6.864120   -3.548630
  H      3.422710   -6.926710    0.360460
  H      1.905640   -7.182810    1.221120
  H      2.706080   -4.552230   -0.115380
  H      2.836010   -4.923420    1.598800
  H      1.248540   -4.838630    0.847800
  H     -0.769730  -10.916060   -0.713330
  H      3.868340   -9.058130   -0.958890
  H     -6.247160   -1.744600   -1.454920
  H      7.131500  -13.959950   -0.814370
  H      3.415690  -15.246100   -0.695640
  H     -6.123260   -4.319860   -0.942090
  H      1.055900  -14.604040   -2.018370
  H      1.384260  -13.122410   -2.909270
  H     -0.340270  -12.999740    0.508540
  H      1.197450  -12.890000    1.354520
  H     -5.843920   -7.118370    0.257930
  H     -4.624080   -6.235980    1.169850
  H     -4.221660   -6.837210   -2.994040
  H     -5.770940   -6.746230   -2.158610
  H     -4.422330   -9.203840    0.493030
  H     -4.895650   -8.496780    2.032720
  H     -3.259840   -8.257310    1.428730
  H     -3.965060   -9.204570   -2.253810
  H     -5.446570   -8.946440   -3.162730
  H     -5.522200   -9.105660   -1.413460
  H     -1.255920  -13.713790   -1.484830
  H     -0.946750  -13.910260   -3.205990
  H     -0.897170  -12.303760   -2.492910
  H      0.193540  -15.103750    1.667280
  H      1.693790  -15.268950    0.763610
  H      0.141120  -15.384130   -0.068870

 Total Charge           Charge          ....    0
 Multiplicity           Mult            ....    1
 Number of Electrons    NEL             ....  488
 Basis Dimension        Dim             .... 1204

ORBITAL ENERGIES
----------------

  NO   OCC          E(Eh)            E(eV)
   0   2.0000     -88.969176     -2420.9743
   1   2.0000     -88.968842     -2420.9653
   2   2.0000     -19.213978      -522.8389
   3   2.0000     -19.210142      -522.7345
   4   2.0000     -14.411635      -392.1605
   5   2.0000     -14.411444      -392.1553
   6   2.0000     -14.409565      -392.1042
   7   2.0000     -14.407135      -392.0381
   8   2.0000     -10.364394      -282.0295
   9   2.0000     -10.361581      -281.9529
  10   2.0000     -10.338578      -281.3270
  11   2.0000     -10.337255      -281.2910
  12   2.0000     -10.335234      -281.2360
  13   2.0000     -10.334661      -281.2204
  14   2.0000     -10.317410      -280.7510
  15   2.0000     -10.316609      -280.7292
  16   2.0000     -10.314635      -280.6755
  17   2.0000     -10.314340      -280.6675
  18   2.0000     -10.312167      -280.6083
  19   2.0000     -10.311935      -280.6020
  20   2.0000     -10.311146      -280.5805
  21   2.0000     -10.310869      -280.5730
  22   2.0000     -10.310703      -280.5685
  23   2.0000     -10.307008      -280.4679
  24   2.0000     -10.302886      -280.3558
  25   2.0000     -10.299522      -280.2643
  26   2.0000     -10.293984      -280.1136
  27   2.0000     -10.293215      -280.0926
  28   2.0000     -10.292135      -280.0632
  29   2.0000     -10.291923      -280.0575
  30   2.0000     -10.291806      -280.0543
  31   2.0000     -10.291681      -280.0509
  32   2.0000     -10.291065      -280.0341
  33   2.0000     -10.290817      -280.0274
  34   2.0000     -10.289867      -280.0015
  35   2.0000     -10.289812      -280.0000
  36   2.0000     -10.289511      -279.9918
  37   2.0000     -10.289151      -279.9820
  38   2.0000     -10.289061      -279.9796
  39   2.0000     -10.289050      -279.9793
  40   2.0000     -10.288788      -279.9722
  41   2.0000     -10.288545      -279.9655
  42   2.0000     -10.285338      -279.8783
  43   2.0000     -10.285224      -279.8752
  44   2.0000     -10.284046      -279.8431
  45   2.0000     -10.283676      -279.8330
  46   2.0000     -10.283376      -279.8249
  47   2.0000     -10.282182      -279.7924
  48   2.0000     -10.281474      -279.7731
  49   2.0000     -10.281208      -279.7659
  50   2.0000     -10.280495      -279.7465
  51   2.0000     -10.280265      -279.7402
  52   2.0000     -10.279796      -279.7275
  53   2.0000     -10.278244      -279.6852
  54   2.0000     -10.277821      -279.6737
  55   2.0000     -10.277746      -279.6717
  56   2.0000     -10.277278      -279.6590
  57   2.0000     -10.273524      -279.5568
  58   2.0000     -10.270726      -279.4807
  59   2.0000     -10.269784      -279.4550
  60   2.0000     -10.269241      -279.4402
  61   2.0000     -10.268540      -279.4212
  62   2.0000     -10.268126      -279.4099
  63   2.0000     -10.261419      -279.2274
  64   2.0000     -10.259710      -279.1809
  65   2.0000     -10.256294      -279.0880
  66   2.0000     -10.255259      -279.0598
  67   2.0000     -10.254158      -279.0298
  68   2.0000     -10.252266      -278.9783
  69   2.0000      -8.063960      -219.4315
  70   2.0000      -8.063706      -219.4246
  71   2.0000      -6.033034      -164.1672
  72   2.0000      -6.033018      -164.1668
  73   2.0000      -6.029162      -164.0618
  74   2.0000      -6.028990      -164.0572
  75   2.0000      -6.026288      -163.9836
  76   2.0000      -6.025824      -163.9710
  77   2.0000      -1.127795       -30.6889
  78   2.0000      -1.124931       -30.6109
  79   2.0000      -1.016968       -27.6731
  80   2.0000      -1.013884       -27.5892
  81   2.0000      -1.011950       -27.5366
  82   2.0000      -1.009890       -27.4805
  83   2.0000      -0.992362       -27.0035
  84   2.0000      -0.991666       -26.9846
  85   2.0000      -0.990932       -26.9646
  86   2.0000      -0.988334       -26.8939
  87   2.0000      -0.986981       -26.8571
  88   2.0000      -0.962935       -26.2028
  89   2.0000      -0.952842       -25.9282
  90   2.0000      -0.942802       -25.6550
  91   2.0000      -0.940523       -25.5929
  92   2.0000      -0.918954       -25.0060
  93   2.0000      -0.905891       -24.6505
  94   2.0000      -0.900557       -24.5054
  95   2.0000      -0.898078       -24.4380
  96   2.0000      -0.892250       -24.2794
  97   2.0000      -0.885654       -24.0999
  98   2.0000      -0.873719       -23.7751
  99   2.0000      -0.856497       -23.3065
 100   2.0000      -0.855036       -23.2667
 101   2.0000      -0.853143       -23.2152
 102   2.0000      -0.844083       -22.9687
 103   2.0000      -0.843230       -22.9454
 104   2.0000      -0.841320       -22.8935
 105   2.0000      -0.840846       -22.8806
 106   2.0000      -0.839955       -22.8563
 107   2.0000      -0.838465       -22.8158
 108   2.0000      -0.836925       -22.7739
 109   2.0000      -0.824564       -22.4375
 110   2.0000      -0.801571       -21.8119
 111   2.0000      -0.793558       -21.5938
 112   2.0000      -0.773893       -21.0587
 113   2.0000      -0.772127       -21.0107
 114   2.0000      -0.762972       -20.7615
 115   2.0000      -0.761323       -20.7167
 116   2.0000      -0.756299       -20.5799
 117   2.0000      -0.748387       -20.3647
 118   2.0000      -0.730489       -19.8776
 119   2.0000      -0.712028       -19.3753
 120   2.0000      -0.708851       -19.2888
 121   2.0000      -0.707304       -19.2467
 122   2.0000      -0.701150       -19.0793
 123   2.0000      -0.699162       -19.0252
 124   2.0000      -0.696122       -18.9424
 125   2.0000      -0.691484       -18.8162
 126   2.0000      -0.686060       -18.6686
 127   2.0000      -0.679658       -18.4944
 128   2.0000      -0.677312       -18.4306
 129   2.0000      -0.675142       -18.3715
 130   2.0000      -0.666777       -18.1439
 131   2.0000      -0.656596       -17.8669
 132   2.0000      -0.649419       -17.6716
 133   2.0000      -0.642285       -17.4775
 134   2.0000      -0.640160       -17.4196
 135   2.0000      -0.637447       -17.3458
 136   2.0000      -0.625738       -17.0272
 137   2.0000      -0.618778       -16.8378
 138   2.0000      -0.617135       -16.7931
 139   2.0000      -0.608795       -16.5662
 140   2.0000      -0.606790       -16.5116
 141   2.0000      -0.605068       -16.4647
 142   2.0000      -0.591596       -16.0981
 143   2.0000      -0.588253       -16.0072
 144   2.0000      -0.578612       -15.7448
 145   2.0000      -0.572195       -15.5702
 146   2.0000      -0.569172       -15.4880
 147   2.0000      -0.564232       -15.3535
 148   2.0000      -0.561840       -15.2884
 149   2.0000      -0.556615       -15.1463
 150   2.0000      -0.549310       -14.9475
 151   2.0000      -0.546978       -14.8840
 152   2.0000      -0.545303       -14.8385
 153   2.0000      -0.542750       -14.7690
 154   2.0000      -0.542594       -14.7647
 155   2.0000      -0.538583       -14.6556
 156   2.0000      -0.536682       -14.6039
 157   2.0000      -0.532411       -14.4876
 158   2.0000      -0.532064       -14.4782
 159   2.0000      -0.531294       -14.4572
 160   2.0000      -0.530477       -14.4350
 161   2.0000      -0.528304       -14.3759
 162   2.0000      -0.528088       -14.3700
 163   2.0000      -0.525464       -14.2986
 164   2.0000      -0.523947       -14.2573
 165   2.0000      -0.520886       -14.1740
 166   2.0000      -0.517837       -14.0911
 167   2.0000      -0.516066       -14.0429
 168   2.0000      -0.507743       -13.8164
 169   2.0000      -0.505916       -13.7667
 170   2.0000      -0.504057       -13.7161
 171   2.0000      -0.500089       -13.6081
 172   2.0000      -0.498970       -13.5777
 173   2.0000      -0.497093       -13.5266
 174   2.0000      -0.492972       -13.4144
 175   2.0000      -0.490770       -13.3545
 176   2.0000      -0.489894       -13.3307
 177   2.0000      -0.489285       -13.3141
 178   2.0000      -0.487863       -13.2754
 179   2.0000      -0.484523       -13.1845
 180   2.0000      -0.484306       -13.1786
 181   2.0000      -0.478272       -13.0144
 182   2.0000      -0.471953       -12.8425
 183   2.0000      -0.470327       -12.7982
 184   2.0000      -0.466500       -12.6941
 185   2.0000      -0.465769       -12.6742
 186   2.0000      -0.461148       -12.5485
 187   2.0000      -0.458700       -12.4819
 188   2.0000      -0.457186       -12.4407
 189   2.0000      -0.456644       -12.4259
 190   2.0000      -0.454205       -12.3595
 191   2.0000      -0.452912       -12.3244
 192   2.0000      -0.450636       -12.2624
 193   2.0000      -0.449591       -12.2340
 194   2.0000      -0.449023       -12.2185
 195   2.0000      -0.447384       -12.1740
 196   2.0000      -0.446146       -12.1402
 197   2.0000      -0.444586       -12.0978
 198   2.0000      -0.443175       -12.0594
 199   2.0000      -0.443165       -12.0591
 200   2.0000      -0.441421       -12.0117
 201   2.0000      -0.439859       -11.9692
 202   2.0000      -0.439495       -11.9593
 203   2.0000      -0.437144       -11.8953
 204   2.0000      -0.436572       -11.8797
 205   2.0000      -0.432972       -11.7818
 206   2.0000      -0.432890       -11.7795
 207   2.0000      -0.429707       -11.6929
 208   2.0000      -0.427184       -11.6243
 209   2.0000      -0.424204       -11.5432
 210   2.0000      -0.422788       -11.5046
 211   2.0000      -0.421087       -11.4584
 212   2.0000      -0.419505       -11.4153
 213   2.0000      -0.417462       -11.3597
 214   2.0000      -0.415440       -11.3047
 215   2.0000      -0.414661       -11.2835
 216   2.0000      -0.409156       -11.1337
 217   2.0000      -0.406940       -11.0734
 218   2.0000      -0.404144       -10.9973
 219   2.0000      -0.403721       -10.9858
 220   2.0000      -0.400074       -10.8866
 221   2.0000      -0.398654       -10.8479
 222   2.0000      -0.397804       -10.8248
 223   2.0000      -0.394516       -10.7353
 224   2.0000      -0.392201       -10.6723
 225   2.0000      -0.390277       -10.6200
 226   2.0000      -0.387212       -10.5366
 227   2.0000      -0.384633       -10.4664
 228   2.0000      -0.381689       -10.3863
 229   2.0000      -0.371492       -10.1088
 230   2.0000      -0.350234        -9.5304
 231   2.0000      -0.340216        -9.2578
 232   2.0000      -0.338681        -9.2160
 233   2.0000      -0.334885        -9.1127
 234   2.0000      -0.333801        -9.0832
 235   2.0000      -0.329795        -8.9742
 236   2.0000      -0.327779        -8.9193
 237   2.0000      -0.326154        -8.8751
 238   2.0000      -0.319146        -8.6844
 239   2.0000      -0.317418        -8.6374
 240   2.0000      -0.311449        -8.4750
 241   2.0000      -0.303042        -8.2462
 242   2.0000      -0.271586        -7.3902
 243   2.0000      -0.245782        -6.6881
 244   0.0000      -0.091552        -2.4913
 245   0.0000      -0.082425        -2.2429
 246   0.0000      -0.058380        -1.5886
 247   0.0000      -0.054186        -1.4745
 248   0.0000      -0.022715        -0.6181

MULLIKEN ATOMIC CHARGES
-----------------------
   0 C :    0.136974
   1 O :   -0.146370
   2 C :   -0.002190
   3 C :   -0.027928
   4 C :    0.042868
   5 C :    0.040022
   6 C :   -0.026883
   7 C :    0.011994
   8 C :    0.243994
   9 C :   -0.324144
  10 C :   -0.205001
  11 N :    0.173475
  12 C :   -0.176732
  13 N :    0.151283
  14 C :   -0.141917
  15 C :    0.154220
  16 O :   -0.166848
  17 C :   -0.012807
  18 C :   -0.028247
  19 C :    0.044079
  20 C :    0.040290
  21 C :   -0.031627
  22 C :    0.023933
  23 C :    0.313740
  24 C :   -0.361436
  25 C :   -0.183432
  26 N :    0.148276
  27 C :   -0.192596
  28 N :    0.147379
  29 C :   -0.095066
  30 C :    0.064711
  31 C :    0.029945
  32 C :   -0.126833
  33 C :    0.103745
  34 C :    0.015989
  35 C :   -0.127362
  36 C :   -0.133784
  37 C :    0.045195
  38 C :    0.024876
  39 C :    0.074067
  40 C :    0.030747
  41 C :   -0.002059
  42 C :    0.106645
  43 C :   -0.120022
  44 C :    0.034241
  45 C :    0.052837
  46 C :   -0.107733
  47 C :    0.047167
  48 C :    0.044190
  49 C :   -0.046623
  50 C :    0.029774
  51 C :   -0.108058
  52 S :    0.161831
  53 C :   -0.113892
  54 C :   -0.037507
  55 C :   -0.099067
  56 C :    0.033250
  57 C :   -0.042979
  58 C :   -0.005383
  59 C :   -0.092714
  60 S :    0.158644
  61 C :    0.049925
  62 C :    0.052250
  63 C :    0.056578
  64 C :    0.057828
  65 C :    0.017612
  66 C :    0.043021
  67 C :    0.035924
  68 C :    0.030781
  69 H :   -0.003353
  70 H :   -0.000476
  71 H :    0.001263
  72 H :    0.003696
  73 H :   -0.006894
  74 H :   -0.002034
  75 H :    0.000530
  76 H :    0.003192
  77 H :   -0.046785
  78 H :   -0.037051
  79 H :    0.002795
  80 H :    0.011205
  81 H :    0.020466
  82 H :    0.012370
  83 H :    0.018901
  84 H :   -0.001290
  85 H :    0.006579
  86 H :    0.004071
  87 H :    0.017315
  88 H :    0.022915
  89 H :   -0.040136
  90 H :   -0.037058
  91 H :    0.024067
  92 H :   -0.000879
  93 H :    0.019042
  94 H :   -0.011729
  95 H :    0.014250
  96 H :    0.006648
  97 H :    0.002627
  98 H :    0.008003
  99 H :   -0.002145
 100 H :    0.030766
 101 H :    0.007378
 102 H :   -0.002514
 103 H :    0.000927
 104 H :    0.016061
 105 H :    0.031342
 106 H :    0.008150
 107 H :    0.013997
 108 H :    0.015096
 109 H :    0.004344
 110 H :    0.016195
 111 H :    0.014995
 112 H :    0.013496
 113 H :    0.023125
 114 H :    0.009473
Sum of atomic charges:    0.0000000

LOEWDIN ATOMIC CHARGES
----------------------
   0 C :    0.082840
   1 O :   -0.145909
   2 C :   -0.044986
   3 C :    0.012721
   4 C :   -0.004835
   5 C :    0.000474
   6 C :   -0.002573
   7 C :   -0.010782
   8 C :    0.062923
   9 C :   -0.144282
  10 C :   -0.032251
  11 N :   -0.053254
  12 C :   -0.020464
  13 N :   -0.054517
  14 C :   -0.108895
  15 C :    0.088542
  16 O :   -0.151518
  17 C :   -0.042863
  18 C :    0.010564
  19 C :   -0.004159
  20 C :   -0.001286
  21 C :    0.000289
  22 C :   -0.014641
  23 C :    0.078729
  24 C :   -0.145766
  25 C :   -0.023849
  26 N :   -0.055276
  27 C :   -0.018153
  28 N :   -0.058073
  29 C :   -0.111399
  30 C :   -0.029828
  31 C :    0.011592
  32 C :   -0.021494
  33 C :   -0.013045
  34 C :    0.006407
  35 C :   -0.022332
  36 C :   -0.035572
  37 C :   -0.015032
  38 C :   -0.056746
  39 C :   -0.009288
  40 C :   -0.058423
  41 C :    0.006717
  42 C :   -0.009688
  43 C :   -0.023963
  44 C :    0.014661
  45 C :   -0.036062
  46 C :   -0.018522
  47 C :    0.053328
  48 C :    0.047430
  49 C :   -0.148675
  50 C :   -0.042915
  51 C :   -0.031915
  52 S :    0.458253
  53 C :   -0.178890
  54 C :   -0.005959
  55 C :   -0.030764
  56 C :   -0.038361
  57 C :   -0.150325
  58 C :   -0.007114
  59 C :   -0.180167
  60 S :    0.465972
  61 C :   -0.012924
  62 C :   -0.014439
  63 C :   -0.013847
  64 C :   -0.011029
  65 C :   -0.057731
  66 C :   -0.058039
  67 C :   -0.058867
  68 C :   -0.056509
  69 H :    0.039421
  70 H :    0.034040
  71 H :    0.035751
  72 H :    0.039146
  73 H :    0.037783
  74 H :    0.033491
  75 H :    0.035593
  76 H :    0.039773
  77 H :    0.023632
  78 H :    0.026756
  79 H :    0.021641
  80 H :    0.020920
  81 H :    0.024643
  82 H :    0.025226
  83 H :    0.024733
  84 H :    0.020493
  85 H :    0.027023
  86 H :    0.020458
  87 H :    0.030180
  88 H :    0.025003
  89 H :    0.024292
  90 H :    0.027340
  91 H :    0.050805
  92 H :    0.041804
  93 H :    0.031748
  94 H :    0.035362
  95 H :    0.024035
  96 H :    0.028206
  97 H :    0.018323
  98 H :    0.028284
  99 H :    0.021557
 100 H :    0.035665
 101 H :    0.026798
 102 H :    0.020689
 103 H :    0.015579
 104 H :    0.029388
 105 H :    0.026302
 106 H :    0.021158
 107 H :    0.029206
 108 H :    0.022331
 109 H :    0.020606
 110 H :    0.029643
 111 H :    0.022788
 112 H :    0.028865
 113 H :    0.028587
 114 H :    0.021688

  Mayer bond orders larger than 0.100000
B(  0-C ,  1-O ) :   2.2646 B(  0-C ,  2-C ) :   0.9249 B(  0-C , 14-C ) :   0.9456
B(  2-C ,  3-C ) :   1.3971 B(  2-C ,  7-C ) :   1.3334 B(  3-C ,  4-C ) :   1.3499
B(  3-C , 69-H ) :   1.0051 B(  4-C ,  5-C ) :   1.3850 B(  4-C , 70-H ) :   0.9895
B(  5-C ,  6-C ) :   1.3694 B(  5-C , 71-H ) :   0.9851 B(  6-C ,  7-C ) :   1.3867
B(  6-C , 72-H ) :   0.9860 B(  7-C ,  8-C ) :   1.0034 B(  8-C ,  9-C ) :   1.6573
B(  8-C , 14-C ) :   1.0417 B(  9-C , 10-C ) :   1.1516 B(  9-C , 12-C ) :   1.1340
B( 10-C , 11-N ) :   3.0265 B( 12-C , 13-N ) :   2.9961 B( 14-C , 47-C ) :   1.6210
B( 15-C , 16-O ) :   2.1473 B( 15-C , 17-C ) :   0.9597 B( 15-C , 29-C ) :   0.9475
B( 17-C , 18-C ) :   1.3922 B( 17-C , 22-C ) :   1.3352 B( 18-C , 19-C ) :   1.3413
B( 18-C , 73-H ) :   1.0059 B( 19-C , 20-C ) :   1.3817 B( 19-C , 74-H ) :   0.9902
B( 20-C , 21-C ) :   1.3742 B( 20-C , 75-H ) :   0.9848 B( 21-C , 22-C ) :   1.3780
B( 21-C , 76-H ) :   0.9829 B( 22-C , 23-C ) :   0.9796 B( 23-C , 24-C ) :   1.6104
B( 23-C , 29-C ) :   1.0971 B( 24-C , 25-C ) :   1.1385 B( 24-C , 27-C ) :   1.1501
B( 25-C , 26-N ) :   2.9616 B( 27-C , 28-N ) :   2.9708 B( 29-C , 48-C ) :   1.5515
B( 30-C , 31-C ) :   1.3873 B( 30-C , 35-C ) :   1.2875 B( 30-C , 57-C ) :   1.0589
B( 31-C , 32-C ) :   1.3930 B( 31-C , 55-C ) :   0.9204 B( 32-C , 33-C ) :   1.3039
B( 32-C , 77-H ) :   0.9923 B( 33-C , 34-C ) :   1.3828 B( 33-C , 42-C ) :   0.9861
B( 34-C , 35-C ) :   1.3874 B( 34-C , 36-C ) :   0.9125 B( 35-C , 78-H ) :   1.0022
B( 36-C , 37-C ) :   1.0267 B( 36-C , 39-C ) :   1.0127 B( 36-C , 41-C ) :   0.9217
B( 37-C , 38-C ) :   1.1043 B( 37-C , 79-H ) :   0.9405 B( 37-C , 80-H ) :   0.9393
B( 38-C , 81-H ) :   0.9629 B( 38-C , 82-H ) :   0.9645 B( 38-C , 83-H ) :   0.9651
B( 39-C , 40-C ) :   1.1160 B( 39-C , 84-H ) :   0.9363 B( 39-C , 85-H ) :   0.9391
B( 40-C , 86-H ) :   0.9630 B( 40-C , 87-H ) :   0.9593 B( 40-C , 88-H ) :   0.9604
B( 41-C , 42-C ) :   1.3698 B( 41-C , 46-C ) :   1.3877 B( 42-C , 43-C ) :   1.3116
B( 43-C , 44-C ) :   1.4046 B( 43-C , 89-H ) :   0.9892 B( 44-C , 45-C ) :   1.3804
B( 44-C , 51-C ) :   0.9195 B( 45-C , 46-C ) :   1.2977 B( 45-C , 49-C ) :   1.0504
B( 46-C , 90-H ) :   1.0062 B( 47-C , 59-C ) :   1.1500 B( 47-C , 91-H ) :   0.9478
B( 48-C , 53-C ) :   1.2510 B( 48-C , 92-H ) :   0.9061 B( 49-C , 50-C ) :   1.4737
B( 49-C , 52-S ) :   1.1413 B( 50-C , 51-C ) :   0.9383 B( 50-C , 54-C ) :   1.3179
B( 51-C , 61-C ) :   1.0031 B( 51-C , 62-C ) :   1.0110 B( 52-S , 53-C ) :   1.0766
B( 53-C , 54-C ) :   1.3840 B( 54-C , 93-H ) :   0.9770 B( 55-C , 56-C ) :   0.9425
B( 55-C , 63-C ) :   0.9966 B( 55-C , 64-C ) :   1.0140 B( 56-C , 57-C ) :   1.5074
B( 56-C , 58-C ) :   1.3067 B( 57-C , 60-S ) :   1.1176 B( 58-C , 59-C ) :   1.3880
B( 58-C , 94-H ) :   1.0109 B( 59-C , 60-S ) :   1.0961 B( 61-C , 67-C ) :   1.1142
B( 61-C , 95-H ) :   0.9419 B( 61-C , 96-H ) :   0.9374 B( 62-C , 68-C ) :   1.1097
B( 62-C , 97-H ) :   0.9386 B( 62-C , 98-H ) :   0.9391 B( 63-C , 65-C ) :   1.1316
B( 63-C , 99-H ) :   0.9365 B( 63-C ,100-H ) :   0.9400 B( 64-C , 66-C ) :   1.1159
B( 64-C ,101-H ) :   0.9421 B( 64-C ,102-H ) :   0.9369 B( 65-C ,103-H ) :   0.9607
B( 65-C ,104-H ) :   0.9573 B( 65-C ,105-H ) :   0.9572 B( 66-C ,106-H ) :   0.9628
B( 66-C ,107-H ) :   0.9581 B( 66-C ,108-H ) :   0.9584 B( 67-C ,109-H ) :   0.9615
B( 67-C ,110-H ) :   0.9604 B( 67-C ,111-H ) :   0.9595 B( 68-C ,112-H ) :   0.9605
B( 68-C ,113-H ) :   0.9643 B( 68-C ,114-H ) :   0.9610

-----------------------------------------------------------------------------
         ABSORPTION SPECTRUM VIA TRANSITION ELECTRIC DIPOLE MOMENTS
-----------------------------------------------------------------------------
State   Energy  Wavelength   fosc         T2         TX        TY        TZ
        (cm-1)    (nm)                  (au**2)     (au)      (au)      (au)
-----------------------------------------------------------------------------
   0   18268.4    547.4   1.857510444  33.47390   2.96553  -4.94038  -0.52167
   1   21082.9    474.3   0.681532936  10.64223  -2.77297   1.64235  -0.50556
   2   26047.1    383.9   0.277041308   3.50156  -0.61648   1.73163  -0.35067
   3   26848.8    372.5   0.019827490   0.24312  -0.37796   0.30886   0.06981
   4   27374.7    365.3   0.055716073   0.67005   0.70473  -0.21675   0.35556
   5   28968.6    345.2   0.031433985   0.35723  -0.09318   0.26582  -0.52715
   6   29989.3    333.5   0.049005365   0.53796   0.30719  -0.64409   0.16956
   7   30231.2    330.8   0.014608528   0.15908  -0.19255   0.34930  -0.00034
   8   32112.8    311.4   0.289692042   2.96985  -0.18790   1.65295  -0.44978
   9   32172.2    310.8   0.046950065   0.48043  -0.45208   0.25419  -0.45983
  10   32344.5    309.2   0.079887070   0.81311  -0.01780   0.85558  -0.28422
  11   32554.1    307.2   0.000352873   0.00357  -0.03312   0.02474   0.04312
  12   32759.3    305.3   0.039872111   0.40069   0.31392   0.50316   0.22130
  13   33628.7    297.4   0.050602863   0.49538   0.40365   0.56144  -0.13129
  14   33839.1    295.5   0.025323395   0.24636  -0.08432  -0.48763  -0.03833
  15   34056.9    293.6   0.136347923   1.31801  -0.88433   0.72558   0.09751
  16   35358.2    282.8   0.154863693   1.44190  -0.83664  -0.85110  -0.13251
  17   35603.4    280.9   0.100433426   0.92867  -0.15119   0.89375  -0.32714
  18   35860.0    278.9   0.069931358   0.64200   0.53691  -0.47009   0.36435
  19   36176.2    276.4   0.019660068   0.17891  -0.39422  -0.13733   0.06812
  20   36742.9    272.2   0.534506279   4.78912  -0.34498  -2.08161   0.58052
  21   36833.6    271.5   0.133739339   1.19534  -0.90673   0.53406  -0.29658
  22   37994.0    263.2   0.011952209   0.10356  -0.20326   0.09469  -0.23083
  23   38314.0    261.0   0.004784457   0.04111   0.00238  -0.18937   0.07242
  24   38865.4    257.3   0.398797411   3.37804   1.74754   0.55802   0.11298
  25   39090.8    255.8   0.394215396   3.31997   0.02174  -1.36787   1.20350
  26   39370.4    254.0   0.076091185   0.63627  -0.76473  -0.02553  -0.22541
  27   39881.4    250.7   0.008224855   0.06789   0.11683   0.21451  -0.09072

FINAL SINGLE POINT ENERGY     -3514.242386623433

DIPOLE MOMENT
-------------
                                X             Y             Z
Electronic contribution:     37.95903      24.40908       6.38171
Nuclear contribution   :    -40.53748     -25.00434      -7.43165
                        -----------------------------------------
Total Dipole Moment    :     -2.57845      -0.59526      -1.04995
                        -----------------------------------------
Magnitude (a.u.)       :      2.84695
Magnitude (Debye)      :      7.23637

Rotational constants in cm-1:     0.002915     0.000291     0.000273
Rotational constants in MHz :    87.402974     8.737504     8.196005

                             ****ORCA TERMINATED NORMALLY****
TOTAL RUN TIME: 0 days 1 hours 11 minutes 51 seconds 466 msec
