                         Program Version 4.2.0 -  RELEASE  -
|  1> # ORCA input file
|  2> # FDICTF.out: Geometry 32
|  3> ! CAM-B3LYP def2-SVP def2/J RIJCOSX Grid4 TightSCF
|  4> %maxcore 5000
|  5> %tddft
|  6>     Mode sTDDFT
|  7>     Ethresh 5.0
|  8>     maxcore 5000
|  9> end
| 10> * xyz 0 1
| 11>    C        0.11292        -1.35880         0.97510
| 12>    O        0.66676        -1.74807         1.98245
| 13>    C        0.09486         0.02634         0.43875
| 14>    C        0.67159         1.16585         0.98525
| 15>    C        0.46650         2.38536         0.33084
| 16>    C       -0.30174         2.43556        -0.84065
| 17>    C       -0.86213         1.28146        -1.40256
| 18>    C       -0.65740         0.05803        -0.75454
| 19>    C       -1.06983        -1.32988        -1.09519
| 20>    C       -1.46891        -1.74451        -2.35758
| 21>    C       -1.53834        -3.11750        -2.73930
| 22>    N       -1.60343        -4.22873        -3.07537
| 23>    C       -1.76301        -0.82447        -3.41254
| 24>    N       -2.03664        -0.08402        -4.26595
| 25>    C       -0.76482        -2.16248         0.05678
| 26>    C       -1.20959        -3.37790         0.52969
| 27>    C       -2.32565        -4.17594         0.18121
| 28>    C       -3.42699        -3.89711        -0.64411
| 29>    C       -4.37907        -4.91588        -0.63337
| 30>    C       -4.04182        -5.97780         0.20535
| 31>    S       -2.52778        -5.74654         0.98241
| 32>    C       -5.08405        -6.97750         0.19572
| 33>    C       -6.09838        -6.51584        -0.70018
| 34>    C       -5.70111        -5.17322        -1.33861
| 35>    C       -6.64851        -3.98855        -0.99422
| 36>    C       -8.09644        -4.01248        -1.48048
| 37>    C       -5.37651        -5.31830        -2.85794
| 38>    C       -6.44452        -5.88856        -3.78948
| 39>    C       -7.23010        -7.29839        -0.90674
| 40>    C       -7.34561        -8.51328        -0.20939
| 41>    C       -6.34900        -8.94743         0.70120
| 42>    C       -5.20037        -8.18900         0.89477
| 43>    C       -6.73039       -10.29129         1.31775
| 44>    C       -5.65655       -11.37507         1.05370
| 45>    C       -5.36555       -11.64065        -0.42203
| 46>    C       -7.05234       -10.17427         2.83597
| 47>    C       -5.88962        -9.85476         3.76962
| 48>    C       -8.03436       -10.59525         0.58886
| 49>    C       -8.38457        -9.53887        -0.28543
| 50>    C       -9.54638        -9.59699        -1.07418
| 51>    C      -10.34546       -10.73139        -0.98751
| 52>    C      -10.00611       -11.77066        -0.07148
| 53>    C       -8.84797       -11.71291         0.71744
| 54>    C      -11.04641       -12.76670        -0.16731
| 55>    C      -12.00555       -12.39887        -1.11453
| 56>    C      -11.63545       -11.06707        -1.75216
| 57>    C      -11.35582       -11.31474        -3.26291
| 58>    C      -10.92192       -10.10450        -4.08487
| 59>    C      -12.69508        -9.96412        -1.49772
| 60>    C      -14.08423       -10.22356        -2.07702
| 61>    C      -13.00733       -13.36492        -1.25805
| 62>    C      -12.82229       -14.48027        -0.41799
| 63>    S      -11.36798       -14.28337         0.56717
| 64>    C      -13.77208       -15.52588        -0.28958
| 65>    C      -13.84466       -16.69625         0.42938
| 66>    C      -12.89737       -17.52414         1.16066
| 67>    C      -11.55816       -17.70788         0.86074
| 68>    C      -10.70305       -18.54625         1.64122
| 69>    N       -9.99779       -19.20981         2.28394
| 70>    C      -10.96493       -17.19164        -0.33110
| 71>    N      -10.47521       -16.81778        -1.31648
| 72>    C      -13.67907       -18.35236         2.11699
| 73>    C      -13.29053       -19.22058         3.14497
| 74>    C      -14.28534       -19.91886         3.84157
| 75>    C      -15.64348       -19.77486         3.52369
| 76>    C      -16.03779       -18.91174         2.49555
| 77>    C      -15.05077       -18.21214         1.81364
| 78>    C      -15.21949       -17.23692         0.70564
| 79>    O      -16.25758       -16.90713         0.16959
| 80>    H        1.25587         1.09028         1.90428
| 81>    H        0.90126         3.30180         0.73596
| 82>    H       -0.47081         3.39497        -1.33497
| 83>    H       -1.44366         1.35562        -2.31848
| 84>    H       -0.64176        -3.70717         1.41023
| 85>    H       -3.53108        -2.96100        -1.18689
| 86>    H       -6.15875        -3.07731        -1.37982
| 87>    H       -6.64613        -3.88920         0.10380
| 88>    H       -8.17879        -3.92478        -2.57268
| 89>    H       -8.64592        -3.16448        -1.04351
| 90>    H       -8.62080        -4.92707        -1.16835
| 91>    H       -4.47624        -5.94792        -2.93722
| 92>    H       -5.06378        -4.32306        -3.21615
| 93>    H       -6.71843        -6.91848        -3.51687
| 94>    H       -6.04520        -5.91991        -4.81560
| 95>    H       -7.36476        -5.29154        -3.81366
| 96>    H       -8.00999        -6.99197        -1.60291
| 97>    H       -4.39958        -8.51866         1.55871
| 98>    H       -5.98416       -12.30593         1.54899
| 99>    H       -4.72668       -11.07265         1.56168
|100>    H       -6.26182       -11.99683        -0.95212
|101>    H       -4.58370       -12.40670        -0.53918
|102>    H       -5.01591       -10.72837        -0.92978
|103>    H       -7.50965       -11.12927         3.14606
|104>    H       -7.83870        -9.41077         2.95508
|105>    H       -5.08062       -10.59692         3.69799
|106>    H       -6.24411        -9.85221         4.81263
|107>    H       -5.45767        -8.86271         3.56816
|108>    H       -9.80545        -8.77001        -1.73678
|109>    H       -8.59814       -12.52730         1.40145
|110>    H      -12.26546       -11.75134        -3.70627
|111>    H      -10.58713       -12.10165        -3.33328
|112>    H      -11.65742        -9.28608        -4.04736
|113>    H      -10.80063       -10.39464        -5.14017
|114>    H       -9.95513        -9.70450        -3.74594
|115>    H      -12.29932        -9.01572        -1.89499
|116>    H      -12.77473        -9.82257        -0.40765
|117>    H      -14.74886        -9.36940        -1.87305
|118>    H      -14.55115       -11.10935        -1.62152
|119>    H      -14.06272       -10.37303        -3.16824
|120>    H      -13.85969       -13.30254        -1.93525
|121>    H      -14.72318       -15.29824        -0.78962
|122>    H      -12.24651       -19.35914         3.42001
|123>    H      -13.99025       -20.58921         4.65233
|124>    H      -16.39218       -20.33822         4.08436
|125>    H      -17.08474       -18.77550         2.21518
|126> *
|127>
|128>                          ****END OF INPUT****

CARTESIAN COORDINATES (ANGSTROEM)
---------------------------------
  C      0.112920   -1.358800    0.975100
  O      0.666760   -1.748070    1.982450
  C      0.094860    0.026340    0.438750
  C      0.671590    1.165850    0.985250
  C      0.466500    2.385360    0.330840
  C     -0.301740    2.435560   -0.840650
  C     -0.862130    1.281460   -1.402560
  C     -0.657400    0.058030   -0.754540
  C     -1.069830   -1.329880   -1.095190
  C     -1.468910   -1.744510   -2.357580
  C     -1.538340   -3.117500   -2.739300
  N     -1.603430   -4.228730   -3.075370
  C     -1.763010   -0.824470   -3.412540
  N     -2.036640   -0.084020   -4.265950
  C     -0.764820   -2.162480    0.056780
  C     -1.209590   -3.377900    0.529690
  C     -2.325650   -4.175940    0.181210
  C     -3.426990   -3.897110   -0.644110
  C     -4.379070   -4.915880   -0.633370
  C     -4.041820   -5.977800    0.205350
  S     -2.527780   -5.746540    0.982410
  C     -5.084050   -6.977500    0.195720
  C     -6.098380   -6.515840   -0.700180
  C     -5.701110   -5.173220   -1.338610
  C     -6.648510   -3.988550   -0.994220
  C     -8.096440   -4.012480   -1.480480
  C     -5.376510   -5.318300   -2.857940
  C     -6.444520   -5.888560   -3.789480
  C     -7.230100   -7.298390   -0.906740
  C     -7.345610   -8.513280   -0.209390
  C     -6.349000   -8.947430    0.701200
  C     -5.200370   -8.189000    0.894770
  C     -6.730390  -10.291290    1.317750
  C     -5.656550  -11.375070    1.053700
  C     -5.365550  -11.640650   -0.422030
  C     -7.052340  -10.174270    2.835970
  C     -5.889620   -9.854760    3.769620
  C     -8.034360  -10.595250    0.588860
  C     -8.384570   -9.538870   -0.285430
  C     -9.546380   -9.596990   -1.074180
  C    -10.345460  -10.731390   -0.987510
  C    -10.006110  -11.770660   -0.071480
  C     -8.847970  -11.712910    0.717440
  C    -11.046410  -12.766700   -0.167310
  C    -12.005550  -12.398870   -1.114530
  C    -11.635450  -11.067070   -1.752160
  C    -11.355820  -11.314740   -3.262910
  C    -10.921920  -10.104500   -4.084870
  C    -12.695080   -9.964120   -1.497720
  C    -14.084230  -10.223560   -2.077020
  C    -13.007330  -13.364920   -1.258050
  C    -12.822290  -14.480270   -0.417990
  S    -11.367980  -14.283370    0.567170
  C    -13.772080  -15.525880   -0.289580
  C    -13.844660  -16.696250    0.429380
  C    -12.897370  -17.524140    1.160660
  C    -11.558160  -17.707880    0.860740
  C    -10.703050  -18.546250    1.641220
  N     -9.997790  -19.209810    2.283940
  C    -10.964930  -17.191640   -0.331100
  N    -10.475210  -16.817780   -1.316480
  C    -13.679070  -18.352360    2.116990
  C    -13.290530  -19.220580    3.144970
  C    -14.285340  -19.918860    3.841570
  C    -15.643480  -19.774860    3.523690
  C    -16.037790  -18.911740    2.495550
  C    -15.050770  -18.212140    1.813640
  C    -15.219490  -17.236920    0.705640
  O    -16.257580  -16.907130    0.169590
  H      1.255870    1.090280    1.904280
  H      0.901260    3.301800    0.735960
  H     -0.470810    3.394970   -1.334970
  H     -1.443660    1.355620   -2.318480
  H     -0.641760   -3.707170    1.410230
  H     -3.531080   -2.961000   -1.186890
  H     -6.158750   -3.077310   -1.379820
  H     -6.646130   -3.889200    0.103800
  H     -8.178790   -3.924780   -2.572680
  H     -8.645920   -3.164480   -1.043510
  H     -8.620800   -4.927070   -1.168350
  H     -4.476240   -5.947920   -2.937220
  H     -5.063780   -4.323060   -3.216150
  H     -6.718430   -6.918480   -3.516870
  H     -6.045200   -5.919910   -4.815600
  H     -7.364760   -5.291540   -3.813660
  H     -8.009990   -6.991970   -1.602910
  H     -4.399580   -8.518660    1.558710
  H     -5.984160  -12.305930    1.548990
  H     -4.726680  -11.072650    1.561680
  H     -6.261820  -11.996830   -0.952120
  H     -4.583700  -12.406700   -0.539180
  H     -5.015910  -10.728370   -0.929780
  H     -7.509650  -11.129270    3.146060
  H     -7.838700   -9.410770    2.955080
  H     -5.080620  -10.596920    3.697990
  H     -6.244110   -9.852210    4.812630
  H     -5.457670   -8.862710    3.568160
  H     -9.805450   -8.770010   -1.736780
  H     -8.598140  -12.527300    1.401450
  H    -12.265460  -11.751340   -3.706270
  H    -10.587130  -12.101650   -3.333280
  H    -11.657420   -9.286080   -4.047360
  H    -10.800630  -10.394640   -5.140170
  H     -9.955130   -9.704500   -3.745940
  H    -12.299320   -9.015720   -1.894990
  H    -12.774730   -9.822570   -0.407650
  H    -14.748860   -9.369400   -1.873050
  H    -14.551150  -11.109350   -1.621520
  H    -14.062720  -10.373030   -3.168240
  H    -13.859690  -13.302540   -1.935250
  H    -14.723180  -15.298240   -0.789620
  H    -12.246510  -19.359140    3.420010
  H    -13.990250  -20.589210    4.652330
  H    -16.392180  -20.338220    4.084360
  H    -17.084740  -18.775500    2.215180

 Total Charge           Charge          ....    0
 Multiplicity           Mult            ....    1
 Number of Electrons    NEL             ....  488
 Basis Dimension        Dim             .... 1204

ORBITAL ENERGIES
----------------

  NO   OCC          E(Eh)            E(eV)
   0   2.0000     -88.972784     -2421.0725
   1   2.0000     -88.971911     -2421.0488
   2   2.0000     -19.211430      -522.7696
   3   2.0000     -19.210467      -522.7434
   4   2.0000     -14.417305      -392.3148
   5   2.0000     -14.417247      -392.3132
   6   2.0000     -14.414964      -392.2511
   7   2.0000     -14.411911      -392.1680
   8   2.0000     -10.362963      -281.9906
   9   2.0000     -10.362198      -281.9697
  10   2.0000     -10.345396      -281.5125
  11   2.0000     -10.344251      -281.4814
  12   2.0000     -10.343535      -281.4619
  13   2.0000     -10.341995      -281.4200
  14   2.0000     -10.321557      -280.8639
  15   2.0000     -10.321441      -280.8607
  16   2.0000     -10.320502      -280.8351
  17   2.0000     -10.319172      -280.7989
  18   2.0000     -10.318823      -280.7894
  19   2.0000     -10.317975      -280.7664
  20   2.0000     -10.317114      -280.7429
  21   2.0000     -10.315275      -280.6929
  22   2.0000     -10.314681      -280.6767
  23   2.0000     -10.314648      -280.6758
  24   2.0000     -10.306764      -280.4613
  25   2.0000     -10.306042      -280.4417
  26   2.0000     -10.300798      -280.2990
  27   2.0000     -10.299947      -280.2758
  28   2.0000     -10.299141      -280.2539
  29   2.0000     -10.298655      -280.2406
  30   2.0000     -10.295675      -280.1595
  31   2.0000     -10.295121      -280.1445
  32   2.0000     -10.295004      -280.1413
  33   2.0000     -10.294727      -280.1338
  34   2.0000     -10.294386      -280.1245
  35   2.0000     -10.294323      -280.1228
  36   2.0000     -10.294217      -280.1199
  37   2.0000     -10.294059      -280.1156
  38   2.0000     -10.293858      -280.1101
  39   2.0000     -10.293569      -280.1022
  40   2.0000     -10.293348      -280.0962
  41   2.0000     -10.293218      -280.0927
  42   2.0000     -10.291427      -280.0440
  43   2.0000     -10.289946      -280.0037
  44   2.0000     -10.289891      -280.0022
  45   2.0000     -10.288972      -279.9772
  46   2.0000     -10.288814      -279.9729
  47   2.0000     -10.287195      -279.9288
  48   2.0000     -10.287086      -279.9258
  49   2.0000     -10.286970      -279.9227
  50   2.0000     -10.286876      -279.9201
  51   2.0000     -10.285797      -279.8908
  52   2.0000     -10.285272      -279.8765
  53   2.0000     -10.284986      -279.8687
  54   2.0000     -10.283579      -279.8304
  55   2.0000     -10.283135      -279.8183
  56   2.0000     -10.282001      -279.7875
  57   2.0000     -10.276978      -279.6508
  58   2.0000     -10.276719      -279.6437
  59   2.0000     -10.275405      -279.6080
  60   2.0000     -10.273865      -279.5661
  61   2.0000     -10.271789      -279.5096
  62   2.0000     -10.270595      -279.4771
  63   2.0000     -10.266980      -279.3787
  64   2.0000     -10.264874      -279.3214
  65   2.0000     -10.264670      -279.3159
  66   2.0000     -10.262714      -279.2626
  67   2.0000     -10.259008      -279.1618
  68   2.0000     -10.255070      -279.0546
  69   2.0000      -8.067012      -219.5146
  70   2.0000      -8.066514      -219.5010
  71   2.0000      -6.036296      -164.2560
  72   2.0000      -6.035771      -164.2417
  73   2.0000      -6.032213      -164.1449
  74   2.0000      -6.031826      -164.1343
  75   2.0000      -6.029258      -164.0644
  76   2.0000      -6.028678      -164.0487
  77   2.0000      -1.123723       -30.5781
  78   2.0000      -1.122671       -30.5494
  79   2.0000      -1.010587       -27.4995
  80   2.0000      -1.009413       -27.4675
  81   2.0000      -1.005991       -27.3744
  82   2.0000      -1.004208       -27.3259
  83   2.0000      -0.987097       -26.8603
  84   2.0000      -0.986260       -26.8375
  85   2.0000      -0.985251       -26.8100
  86   2.0000      -0.983692       -26.7676
  87   2.0000      -0.982531       -26.7360
  88   2.0000      -0.958015       -26.0689
  89   2.0000      -0.947368       -25.7792
  90   2.0000      -0.937044       -25.4983
  91   2.0000      -0.935038       -25.4437
  92   2.0000      -0.914386       -24.8817
  93   2.0000      -0.901602       -24.5338
  94   2.0000      -0.896263       -24.3885
  95   2.0000      -0.894644       -24.3445
  96   2.0000      -0.887418       -24.1479
  97   2.0000      -0.880485       -23.9592
  98   2.0000      -0.869197       -23.6521
  99   2.0000      -0.851596       -23.1731
 100   2.0000      -0.850855       -23.1529
 101   2.0000      -0.849882       -23.1265
 102   2.0000      -0.841858       -22.9081
 103   2.0000      -0.840444       -22.8696
 104   2.0000      -0.840222       -22.8636
 105   2.0000      -0.838122       -22.8065
 106   2.0000      -0.836606       -22.7652
 107   2.0000      -0.834773       -22.7153
 108   2.0000      -0.834258       -22.7013
 109   2.0000      -0.822560       -22.3830
 110   2.0000      -0.798814       -21.7368
 111   2.0000      -0.790132       -21.5006
 112   2.0000      -0.773136       -21.0381
 113   2.0000      -0.769851       -20.9487
 114   2.0000      -0.759452       -20.6657
 115   2.0000      -0.755041       -20.5457
 116   2.0000      -0.754498       -20.5309
 117   2.0000      -0.744715       -20.2647
 118   2.0000      -0.727514       -19.7967
 119   2.0000      -0.710550       -19.3350
 120   2.0000      -0.706954       -19.2372
 121   2.0000      -0.703682       -19.1482
 122   2.0000      -0.698301       -19.0017
 123   2.0000      -0.696312       -18.9476
 124   2.0000      -0.695854       -18.9351
 125   2.0000      -0.693905       -18.8821
 126   2.0000      -0.681516       -18.5450
 127   2.0000      -0.677830       -18.4447
 128   2.0000      -0.673480       -18.3263
 129   2.0000      -0.671323       -18.2676
 130   2.0000      -0.662964       -18.0402
 131   2.0000      -0.654825       -17.8187
 132   2.0000      -0.645937       -17.5768
 133   2.0000      -0.641994       -17.4695
 134   2.0000      -0.638484       -17.3740
 135   2.0000      -0.633665       -17.2429
 136   2.0000      -0.625846       -17.0301
 137   2.0000      -0.619826       -16.8663
 138   2.0000      -0.613542       -16.6953
 139   2.0000      -0.606916       -16.5150
 140   2.0000      -0.601577       -16.3698
 141   2.0000      -0.598058       -16.2740
 142   2.0000      -0.589405       -16.0385
 143   2.0000      -0.585674       -15.9370
 144   2.0000      -0.573579       -15.6079
 145   2.0000      -0.571732       -15.5576
 146   2.0000      -0.570040       -15.5116
 147   2.0000      -0.563755       -15.3406
 148   2.0000      -0.558845       -15.2069
 149   2.0000      -0.552679       -15.0392
 150   2.0000      -0.545282       -14.8379
 151   2.0000      -0.544019       -14.8035
 152   2.0000      -0.541027       -14.7221
 153   2.0000      -0.539900       -14.6914
 154   2.0000      -0.537888       -14.6367
 155   2.0000      -0.536512       -14.5992
 156   2.0000      -0.533308       -14.5121
 157   2.0000      -0.531264       -14.4564
 158   2.0000      -0.526921       -14.3383
 159   2.0000      -0.525505       -14.2997
 160   2.0000      -0.524999       -14.2859
 161   2.0000      -0.524665       -14.2769
 162   2.0000      -0.524124       -14.2621
 163   2.0000      -0.522177       -14.2091
 164   2.0000      -0.521313       -14.1857
 165   2.0000      -0.516396       -14.0519
 166   2.0000      -0.515575       -14.0295
 167   2.0000      -0.507462       -13.8087
 168   2.0000      -0.506991       -13.7959
 169   2.0000      -0.503210       -13.6930
 170   2.0000      -0.501673       -13.6512
 171   2.0000      -0.499124       -13.5819
 172   2.0000      -0.496453       -13.5092
 173   2.0000      -0.496096       -13.4995
 174   2.0000      -0.492253       -13.3949
 175   2.0000      -0.489390       -13.3170
 176   2.0000      -0.488924       -13.3043
 177   2.0000      -0.486996       -13.2518
 178   2.0000      -0.482447       -13.1281
 179   2.0000      -0.480042       -13.0626
 180   2.0000      -0.478612       -13.0237
 181   2.0000      -0.475190       -12.9306
 182   2.0000      -0.473214       -12.8768
 183   2.0000      -0.469979       -12.7888
 184   2.0000      -0.465704       -12.6725
 185   2.0000      -0.463185       -12.6039
 186   2.0000      -0.458569       -12.4783
 187   2.0000      -0.458115       -12.4659
 188   2.0000      -0.455478       -12.3942
 189   2.0000      -0.453408       -12.3379
 190   2.0000      -0.452574       -12.3152
 191   2.0000      -0.451363       -12.2822
 192   2.0000      -0.450803       -12.2670
 193   2.0000      -0.450271       -12.2525
 194   2.0000      -0.449573       -12.2335
 195   2.0000      -0.449220       -12.2239
 196   2.0000      -0.447834       -12.1862
 197   2.0000      -0.445031       -12.1099
 198   2.0000      -0.444886       -12.1060
 199   2.0000      -0.443654       -12.0724
 200   2.0000      -0.441294       -12.0082
 201   2.0000      -0.439956       -11.9718
 202   2.0000      -0.439247       -11.9525
 203   2.0000      -0.437687       -11.9101
 204   2.0000      -0.436042       -11.8653
 205   2.0000      -0.433694       -11.8014
 206   2.0000      -0.432146       -11.7593
 207   2.0000      -0.427120       -11.6225
 208   2.0000      -0.425373       -11.5750
 209   2.0000      -0.423930       -11.5357
 210   2.0000      -0.420708       -11.4480
 211   2.0000      -0.417917       -11.3721
 212   2.0000      -0.416967       -11.3463
 213   2.0000      -0.416457       -11.3324
 214   2.0000      -0.414429       -11.2772
 215   2.0000      -0.411628       -11.2010
 216   2.0000      -0.408279       -11.1098
 217   2.0000      -0.406026       -11.0485
 218   2.0000      -0.404312       -11.0019
 219   2.0000      -0.402762       -10.9597
 220   2.0000      -0.401557       -10.9269
 221   2.0000      -0.399350       -10.8669
 222   2.0000      -0.398178       -10.8350
 223   2.0000      -0.394911       -10.7461
 224   2.0000      -0.393674       -10.7124
 225   2.0000      -0.387111       -10.5338
 226   2.0000      -0.384864       -10.4727
 227   2.0000      -0.383871       -10.4457
 228   2.0000      -0.380380       -10.3507
 229   2.0000      -0.370664       -10.0863
 230   2.0000      -0.349450        -9.5090
 231   2.0000      -0.337393        -9.1809
 232   2.0000      -0.336514        -9.1570
 233   2.0000      -0.334326        -9.0975
 234   2.0000      -0.333506        -9.0752
 235   2.0000      -0.329771        -8.9735
 236   2.0000      -0.328912        -8.9501
 237   2.0000      -0.324943        -8.8422
 238   2.0000      -0.318333        -8.6623
 239   2.0000      -0.316344        -8.6082
 240   2.0000      -0.310452        -8.4478
 241   2.0000      -0.304233        -8.2786
 242   2.0000      -0.272996        -7.4286
 243   2.0000      -0.247796        -6.7429
 244   0.0000      -0.092850        -2.5266
 245   0.0000      -0.084101        -2.2885
 246   0.0000      -0.058526        -1.5926
 247   0.0000      -0.054117        -1.4726
 248   0.0000      -0.024128        -0.6566

MULLIKEN ATOMIC CHARGES
-----------------------
   0 C :    0.133750
   1 O :   -0.154202
   2 C :   -0.010809
   3 C :   -0.025022
   4 C :    0.033807
   5 C :    0.028456
   6 C :   -0.034466
   7 C :    0.016580
   8 C :    0.245011
   9 C :   -0.329433
  10 C :   -0.183371
  11 N :    0.148277
  12 C :   -0.158431
  13 N :    0.122274
  14 C :   -0.146997
  15 C :    0.087260
  16 C :   -0.119769
  17 C :    0.024086
  18 C :   -0.018703
  19 C :   -0.042840
  20 S :    0.164347
  21 C :    0.052723
  22 C :    0.020180
  23 C :   -0.095607
  24 C :    0.042839
  25 C :    0.020058
  26 C :    0.060810
  27 C :    0.015085
  28 C :   -0.114491
  29 C :    0.091842
  30 C :    0.011095
  31 C :   -0.110602
  32 C :   -0.129017
  33 C :    0.034984
  34 C :    0.007425
  35 C :    0.063947
  36 C :    0.010932
  37 C :   -0.007055
  38 C :    0.095985
  39 C :   -0.106423
  40 C :    0.014766
  41 C :    0.055869
  42 C :   -0.098045
  43 C :   -0.057746
  44 C :    0.050100
  45 C :   -0.111367
  46 C :    0.048757
  47 C :    0.011175
  48 C :    0.048510
  49 C :    0.004099
  50 C :   -0.044438
  51 C :   -0.070599
  52 S :    0.183620
  53 C :    0.026030
  54 C :   -0.134499
  55 C :    0.235147
  56 C :   -0.311694
  57 C :   -0.154312
  58 N :    0.119609
  59 C :   -0.193865
  60 N :    0.151748
  61 C :    0.022477
  62 C :   -0.032647
  63 C :    0.027404
  64 C :    0.031505
  65 C :   -0.023782
  66 C :   -0.013587
  67 C :    0.134853
  68 O :   -0.155567
  69 H :    0.006143
  70 H :    0.007853
  71 H :    0.008693
  72 H :    0.010483
  73 H :    0.027822
  74 H :    0.005901
  75 H :    0.003316
  76 H :    0.013283
  77 H :    0.022743
  78 H :    0.016523
  79 H :    0.013055
  80 H :    0.026546
  81 H :    0.004943
  82 H :    0.021717
  83 H :    0.023179
  84 H :    0.000740
  85 H :   -0.028589
  86 H :   -0.025997
  87 H :    0.005738
  88 H :    0.012452
  89 H :    0.026481
  90 H :    0.020513
  91 H :    0.023835
  92 H :    0.001542
  93 H :    0.009420
  94 H :    0.015899
  95 H :    0.020215
  96 H :    0.018244
  97 H :   -0.030126
  98 H :   -0.025292
  99 H :    0.008513
 100 H :    0.020357
 101 H :    0.012083
 102 H :    0.023681
 103 H :    0.019538
 104 H :    0.007967
 105 H :    0.012434
 106 H :    0.022886
 107 H :    0.018225
 108 H :    0.016810
 109 H :    0.007945
 110 H :    0.029657
 111 H :    0.011252
 112 H :    0.009339
 113 H :    0.007978
 114 H :    0.006024
Sum of atomic charges:   -0.0000000

LOEWDIN ATOMIC CHARGES
----------------------
   0 C :    0.087436
   1 O :   -0.148659
   2 C :   -0.047005
   3 C :    0.009529
   4 C :   -0.006855
   5 C :   -0.003564
   6 C :   -0.005959
   7 C :   -0.011696
   8 C :    0.072241
   9 C :   -0.150601
  10 C :   -0.018020
  11 N :   -0.050963
  12 C :   -0.015446
  13 N :   -0.062560
  14 C :   -0.109968
  15 C :    0.048480
  16 C :   -0.179683
  17 C :   -0.003432
  18 C :   -0.037310
  19 C :   -0.150585
  20 S :    0.448348
  21 C :   -0.031787
  22 C :    0.012895
  23 C :   -0.028594
  24 C :   -0.017914
  25 C :   -0.063788
  26 C :   -0.013606
  27 C :   -0.065232
  28 C :   -0.026350
  29 C :   -0.011200
  30 C :    0.005566
  31 C :   -0.024389
  32 C :   -0.032058
  33 C :   -0.019319
  34 C :   -0.061944
  35 C :   -0.014502
  36 C :   -0.064403
  37 C :    0.006260
  38 C :   -0.011340
  39 C :   -0.026194
  40 C :    0.013584
  41 C :   -0.032660
  42 C :   -0.021145
  43 C :   -0.146299
  44 C :   -0.044914
  45 C :   -0.028000
  46 C :   -0.016933
  47 C :   -0.064453
  48 C :   -0.019031
  49 C :   -0.063529
  50 C :   -0.013433
  51 C :   -0.182412
  52 S :    0.472608
  53 C :    0.051267
  54 C :   -0.113926
  55 C :    0.069711
  56 C :   -0.145275
  57 C :   -0.013684
  58 N :   -0.061237
  59 C :   -0.034043
  60 N :   -0.054016
  61 C :   -0.010576
  62 C :   -0.005296
  63 C :   -0.003528
  64 C :   -0.007387
  65 C :    0.009011
  66 C :   -0.047293
  67 C :    0.087822
  68 O :   -0.150599
  69 H :    0.042520
  70 H :    0.036419
  71 H :    0.037915
  72 H :    0.040676
  73 H :    0.047857
  74 H :    0.036545
  75 H :    0.023772
  76 H :    0.028644
  77 H :    0.023695
  78 H :    0.031120
  79 H :    0.023404
  80 H :    0.035459
  81 H :    0.025177
  82 H :    0.024438
  83 H :    0.033692
  84 H :    0.019372
  85 H :    0.026503
  86 H :    0.029105
  87 H :    0.023227
  88 H :    0.021988
  89 H :    0.027399
  90 H :    0.029326
  91 H :    0.027043
  92 H :    0.022405
  93 H :    0.028122
  94 H :    0.024022
  95 H :    0.031469
  96 H :    0.024342
  97 H :    0.026750
  98 H :    0.030359
  99 H :    0.022572
 100 H :    0.033208
 101 H :    0.022424
 102 H :    0.032944
 103 H :    0.025057
 104 H :    0.020957
 105 H :    0.029508
 106 H :    0.032117
 107 H :    0.025170
 108 H :    0.024175
 109 H :    0.037703
 110 H :    0.053518
 111 H :    0.041059
 112 H :    0.038028
 113 H :    0.036250
 114 H :    0.042382

  Mayer bond orders larger than 0.100000
B(  0-C ,  1-O ) :   2.2332 B(  0-C ,  2-C ) :   0.9306 B(  0-C , 14-C ) :   0.9504
B(  2-C ,  3-C ) :   1.3998 B(  2-C ,  7-C ) :   1.3362 B(  3-C ,  4-C ) :   1.3497
B(  3-C , 69-H ) :   0.9984 B(  4-C ,  5-C ) :   1.3821 B(  4-C , 70-H ) :   0.9863
B(  5-C ,  6-C ) :   1.3766 B(  5-C , 71-H ) :   0.9818 B(  6-C ,  7-C ) :   1.3832
B(  6-C , 72-H ) :   0.9804 B(  7-C ,  8-C ) :   1.0035 B(  8-C ,  9-C ) :   1.6214
B(  8-C , 14-C ) :   1.0602 B(  9-C , 10-C ) :   1.1586 B(  9-C , 12-C ) :   1.1122
B( 10-C , 11-N ) :   2.9818 B( 12-C , 13-N ) :   2.9791 B( 14-C , 15-C ) :   1.6246
B( 15-C , 16-C ) :   1.1899 B( 15-C , 73-H ) :   0.9175 B( 16-C , 17-C ) :   1.3765
B( 16-C , 20-S ) :   1.0867 B( 17-C , 18-C ) :   1.3763 B( 17-C , 74-H ) :   0.9784
B( 18-C , 19-C ) :   1.4933 B( 18-C , 23-C ) :   0.9398 B( 19-C , 20-S ) :   1.1307
B( 19-C , 21-C ) :   1.0511 B( 21-C , 22-C ) :   1.3853 B( 21-C , 31-C ) :   1.2961
B( 22-C , 23-C ) :   0.9167 B( 22-C , 28-C ) :   1.4103 B( 23-C , 24-C ) :   1.0095
B( 23-C , 26-C ) :   0.9967 B( 24-C , 25-C ) :   1.1142 B( 24-C , 75-H ) :   0.9397
B( 24-C , 76-H ) :   0.9444 B( 25-C , 77-H ) :   0.9631 B( 25-C , 78-H ) :   0.9568
B( 25-C , 79-H ) :   0.9634 B( 26-C , 27-C ) :   1.1179 B( 26-C , 80-H ) :   0.9401
B( 26-C , 81-H ) :   0.9393 B( 27-C , 82-H ) :   0.9585 B( 27-C , 83-H ) :   0.9582
B( 27-C , 84-H ) :   0.9629 B( 28-C , 29-C ) :   1.3095 B( 28-C , 85-H ) :   0.9801
B( 29-C , 30-C ) :   1.3810 B( 29-C , 38-C ) :   0.9901 B( 30-C , 31-C ) :   1.3948
B( 30-C , 32-C ) :   0.9169 B( 31-C , 86-H ) :   0.9933 B( 32-C , 33-C ) :   1.0236
B( 32-C , 35-C ) :   1.0134 B( 32-C , 37-C ) :   0.9231 B( 33-C , 34-C ) :   1.1013
B( 33-C , 87-H ) :   0.9413 B( 33-C , 88-H ) :   0.9391 B( 34-C , 89-H ) :   0.9646
B( 34-C , 90-H ) :   0.9657 B( 34-C , 91-H ) :   0.9657 B( 35-C , 36-C ) :   1.1089
B( 35-C , 92-H ) :   0.9383 B( 35-C , 93-H ) :   0.9408 B( 36-C , 94-H ) :   0.9638
B( 36-C , 95-H ) :   0.9610 B( 36-C , 96-H ) :   0.9630 B( 37-C , 38-C ) :   1.3782
B( 37-C , 42-C ) :   1.3949 B( 38-C , 39-C ) :   1.3082 B( 39-C , 40-C ) :   1.4148
B( 39-C , 97-H ) :   0.9835 B( 40-C , 41-C ) :   1.3766 B( 40-C , 45-C ) :   0.9230
B( 41-C , 42-C ) :   1.3022 B( 41-C , 43-C ) :   1.0590 B( 42-C , 98-H ) :   0.9950
B( 43-C , 44-C ) :   1.4861 B( 43-C , 52-S ) :   1.1513 B( 44-C , 45-C ) :   0.9367
B( 44-C , 50-C ) :   1.3201 B( 45-C , 46-C ) :   1.0020 B( 45-C , 48-C ) :   1.0137
B( 46-C , 47-C ) :   1.1088 B( 46-C , 99-H ) :   0.9424 B( 46-C ,100-H ) :   0.9394
B( 47-C ,101-H ) :   0.9634 B( 47-C ,102-H ) :   0.9609 B( 47-C ,103-H ) :   0.9615
B( 48-C , 49-C ) :   1.1060 B( 48-C ,104-H ) :   0.9397 B( 48-C ,105-H ) :   0.9402
B( 49-C ,106-H ) :   0.9630 B( 49-C ,107-H ) :   0.9639 B( 49-C ,108-H ) :   0.9647
B( 50-C , 51-C ) :   1.3668 B( 50-C ,109-H ) :   1.0013 B( 51-C , 52-S ) :   1.0839
B( 51-C , 53-C ) :   1.2127 B( 53-C , 54-C ) :   1.5945 B( 53-C ,110-H ) :   0.9266
B( 54-C , 55-C ) :   1.0500 B( 54-C , 67-C ) :   0.9507 B( 55-C , 56-C ) :   1.6429
B( 55-C , 61-C ) :   1.0060 B( 56-C , 57-C ) :   1.1127 B( 56-C , 59-C ) :   1.1476
B( 57-C , 58-N ) :   2.9808 B( 59-C , 60-N ) :   3.0150 B( 61-C , 62-C ) :   1.3809
B( 61-C , 66-C ) :   1.3356 B( 62-C , 63-C ) :   1.3779 B( 62-C ,111-H ) :   0.9812
B( 63-C , 64-C ) :   1.3828 B( 63-C ,112-H ) :   0.9818 B( 64-C , 65-C ) :   1.3491
B( 64-C ,113-H ) :   0.9862 B( 65-C , 66-C ) :   1.4014 B( 65-C ,114-H ) :   0.9982
B( 66-C , 67-C ) :   0.9337 B( 67-C , 68-O ) :   2.2273

-----------------------------------------------------------------------------
         ABSORPTION SPECTRUM VIA TRANSITION ELECTRIC DIPOLE MOMENTS
-----------------------------------------------------------------------------
State   Energy  Wavelength   fosc         T2         TX        TY        TZ
        (cm-1)    (nm)                  (au**2)     (au)      (au)      (au)
-----------------------------------------------------------------------------
   0   18562.8    538.7   2.197822234  38.97838  -3.43624  -5.12397   0.95682
   1   20852.7    479.6   0.038436281   0.60681  -0.46423   0.60479   0.15979
   2   26213.3    381.5   0.539919949   6.78084  -2.14343  -1.35822  -0.58463
   3   27428.6    364.6   0.004666763   0.05601  -0.04421   0.22216   0.06857
   4   27529.7    363.2   0.020016982   0.23937   0.40880   0.05036  -0.26405
   5   29163.3    342.9   0.112132425   1.26582   0.76552  -0.39858   0.72175
   6   30458.2    328.3   0.123609464   1.33605   0.83521   0.31841  -0.73287
   7   30646.6    326.3   0.219225738   2.35497  -0.91211  -1.21076  -0.23892
   8   32204.6    310.5   0.010264251   0.10493  -0.08731  -0.28119  -0.13505
   9   32257.7    310.0   0.030319616   0.30943  -0.54465  -0.09066   0.06759
  10   32659.1    306.2   0.161929350   1.63229   0.61840   0.66840   0.89616
  11   32802.0    304.9   0.083665402   0.83969  -0.89702   0.10808   0.15289
  12   32971.4    303.3   0.075955432   0.75840  -0.28741  -0.55184   0.60931
  13   33255.8    300.7   0.060840040   0.60228   0.08485   0.75204   0.17179
  14   33943.4    294.6   0.067678380   0.65640   0.63646   0.50082  -0.02230
  15   34282.4    291.7   0.063025055   0.60523  -0.33440  -0.68262   0.16564
  16   34337.4    291.2   0.023131101   0.22177   0.13233   0.18443  -0.41261
  17   35384.9    282.6   0.113597911   1.05689   0.02509   0.73746   0.71582
  18   35517.5    281.6   0.123084638   1.14087   0.86884   0.48626  -0.38670
  19   35671.3    280.3   0.005024509   0.04637   0.03425  -0.20510  -0.05596
  20   36332.0    275.2   0.143339739   1.29883   0.05886  -0.93253   0.65249
  21   37268.9    268.3   0.457705753   4.04310   1.62971   1.14211   0.28767
  22   37587.5    266.0   0.018504430   0.16207   0.25505  -0.08587   0.29941
  23   38043.6    262.9   0.012401439   0.10732  -0.21182  -0.21506   0.12727
  24   38407.5    260.4   0.218070274   1.86920  -0.60113   0.34727   1.17781
  25   38787.1    257.8   0.374737097   3.18064   1.52273   0.75674   0.53783
  26   39376.4    254.0   0.165677918   1.38517   0.33100  -0.21822  -1.10815
  27   39660.5    252.1   0.016265757   0.13502   0.32572  -0.07716  -0.15157
  28   39938.0    250.4   0.013146250   0.10837   0.17452  -0.06037  -0.27252

FINAL SINGLE POINT ENERGY     -3514.246167642906

DIPOLE MOMENT
-------------
                                X             Y             Z
Electronic contribution:     24.58650     -19.32703      18.45333
Nuclear contribution   :    -26.46711      21.08640     -16.85337
                        -----------------------------------------
Total Dipole Moment    :     -1.88061       1.75937       1.59996
                        -----------------------------------------
Magnitude (a.u.)       :      3.03182
Magnitude (Debye)      :      7.70627

Rotational constants in cm-1:     0.003091     0.000286     0.000272
Rotational constants in MHz :    92.668831     8.577575     8.161675

                             ****ORCA TERMINATED NORMALLY****
TOTAL RUN TIME: 0 days 1 hours 9 minutes 11 seconds 445 msec
