                         Program Version 4.2.0 -  RELEASE  -
|  1> # ORCA input file
|  2> # FDICTF.out
|  3> ! CAM-B3LYP def2-SVP def2/J RIJCOSX Grid4 TightSCF
|  4> %maxcore 5000
|  5> %tddft
|  6>     Mode sTDDFT
|  7>     Ethresh 5.0
|  8>     maxcore 5000
|  9> end
| 10> * xyz 0 1
| 11>    C        0.07759        -1.52869         0.93688
| 12>    O        0.48555        -1.65927         2.06911
| 13>    C        0.37228        -0.43876        -0.01512
| 14>    C        1.12046         0.70580         0.17670
| 15>    C        1.23074         1.60199        -0.87766
| 16>    C        0.59696         1.34976        -2.08554
| 17>    C       -0.15051         0.19610        -2.28561
| 18>    C       -0.25864        -0.70905        -1.24287
| 19>    C       -0.92348        -2.01126        -1.15458
| 20>    C       -1.27562        -2.77974        -2.23586
| 21>    C       -1.65469        -4.13344        -2.16044
| 22>    N       -1.94455        -5.24479        -2.16997
| 23>    C       -1.22616        -2.33334        -3.57183
| 24>    N       -1.23665        -2.02161        -4.67696
| 25>    C       -0.87739        -2.42213         0.22766
| 26>    C       -1.54716        -3.36406         0.95649
| 27>    C       -2.72105        -4.07795         0.65803
| 28>    C       -3.71448        -3.83011        -0.28565
| 29>    C       -4.72576        -4.77448        -0.24657
| 30>    C       -4.52112        -5.75173         0.71862
| 31>    S       -3.09798        -5.49733         1.62570
| 32>    C       -5.56603        -6.72237         0.67563
| 33>    C       -6.45030        -6.34224        -0.36392
| 34>    C       -5.97698        -5.06435        -1.04042
| 35>    C       -6.94934        -3.88386        -0.82271
| 36>    C       -8.26583        -3.93167        -1.58523
| 37>    C       -5.55249        -5.24516        -2.52023
| 38>    C       -6.37024        -6.21576        -3.36287
| 39>    C       -7.55397        -7.12449        -0.62586
| 40>    C       -7.75194        -8.26484         0.14853
| 41>    C       -6.87526        -8.62457         1.18974
| 42>    C       -5.76149        -7.85989         1.45313
| 43>    C       -7.33376        -9.90252         1.85141
| 44>    C       -6.23829       -10.97883         1.85679
| 45>    C       -5.76617       -11.33305         0.45126
| 46>    C       -7.88928        -9.64560         3.27302
| 47>    C       -6.90362        -9.05729         4.27362
| 48>    C       -8.51070       -10.28729         0.98196
| 49>    C       -8.76694        -9.28873         0.02484
| 50>    C       -9.82976        -9.38579        -0.86960
| 51>    C      -10.61623       -10.51469        -0.81565
| 52>    C      -10.35753       -11.50850         0.15765
| 53>    C       -9.30916       -11.40477         1.06680
| 54>    C      -11.35075       -12.51911        -0.00984
| 55>    C      -12.23553       -12.18502        -1.02663
| 56>    C      -11.82484       -10.88111        -1.66377
| 57>    C      -11.44206       -11.19661        -3.12673
| 58>    C      -10.90262       -10.02858        -3.94095
| 59>    C      -12.88910        -9.77728        -1.51570
| 60>    C      -14.20234       -10.03978        -2.24068
| 61>    C      -13.20314       -13.15835        -1.23287
| 62>    C      -13.04662       -14.25410        -0.39405
| 63>    S      -11.69216       -14.03511         0.70353
| 64>    C      -13.88910       -15.38654        -0.34416
| 65>    C      -13.63148       -16.62433         0.16211
| 66>    C      -12.39501       -17.28954         0.50915
| 67>    C      -11.18614       -17.11930        -0.11350
| 68>    C      -10.03256       -17.86849         0.19037
| 69>    N       -9.06100       -18.43832         0.41286
| 70>    C      -10.99470       -16.23986        -1.19945
| 71>    N      -10.81884       -15.57537        -2.11910
| 72>    C      -12.73586       -18.39332         1.40442
| 73>    C      -11.93971       -19.24179         2.15536
| 74>    C      -12.55546       -20.24799         2.88822
| 75>    C      -13.93287       -20.41543         2.87248
| 76>    C      -14.73962       -19.56572         2.12815
| 77>    C      -14.13369       -18.55796         1.40360
| 78>    C      -14.75357       -17.51596         0.55769
| 79>    O      -15.92350       -17.37849         0.27990
| 80>    H        1.60249         0.88447         1.12548
| 81>    H        1.81210         2.50372        -0.75752
| 82>    H        0.68559         2.06279        -2.89149
| 83>    H       -0.63788         0.02707        -3.23230
| 84>    H       -1.13090        -3.53640         1.94534
| 85>    H       -3.69909        -2.97210        -0.93372
| 86>    H       -6.41891        -2.97009        -1.10298
| 87>    H       -7.16279        -3.82362         0.24840
| 88>    H       -8.09758        -3.95390        -2.65802
| 89>    H       -8.84336        -3.03840        -1.35479
| 90>    H       -8.85695        -4.79517        -1.29592
| 91>    H       -4.51710        -5.59623        -2.52715
| 92>    H       -5.56088        -4.25943        -2.99072
| 93>    H       -6.30695        -7.22389        -2.96157
| 94>    H       -5.96461        -6.22904        -4.37245
| 95>    H       -7.41519        -5.92650        -3.42381
| 96>    H       -8.24689        -6.89094        -1.41685
| 97>    H       -5.04148        -8.12193         2.21262
| 98>    H       -6.62674       -11.87404         2.34659
| 99>    H       -5.38764       -10.62009         2.43727
|100>    H       -6.58824       -11.72138        -0.14595
|101>    H       -4.98815       -12.09115         0.49814
|102>    H       -5.36213       -10.45621        -0.05017
|103>    H       -8.26454       -10.59644         3.65777
|104>    H       -8.74235        -8.96757         3.18174
|105>    H       -6.02943        -9.69192         4.39030
|106>    H       -7.38721        -8.96986         5.24427
|107>    H       -6.58318        -8.06548         3.96672
|108>    H      -10.02149        -8.59201        -1.57412
|109>    H       -9.14120       -12.18128         1.79775
|110>    H      -12.32530       -11.60324        -3.62169
|111>    H      -10.69076       -11.98988        -3.10541
|112>    H      -11.60357        -9.19795        -3.96078
|113>    H      -10.73808       -10.35456        -4.96566
|114>    H       -9.95221        -9.68285        -3.54442
|115>    H      -12.46203        -8.83932        -1.87335
|116>    H      -13.09104        -9.65543        -0.44788
|117>    H      -14.87566        -9.19957        -2.08440
|118>    H      -14.68587       -10.93326        -1.85655
|119>    H      -14.04886       -10.15435        -3.31012
|120>    H      -13.97332       -13.13141        -1.98229
|121>    H      -14.90681       -15.23081        -0.69087
|122>    H      -10.86815       -19.12521         2.18626
|123>    H      -11.94602       -20.91372         3.48086
|124>    H      -14.37986       -21.21320         3.44640
|125>    H      -15.81256       -19.67911         2.10583
|126> *
|127>
|128>                          ****END OF INPUT****

CARTESIAN COORDINATES (ANGSTROEM)
---------------------------------
  C      0.077590   -1.528690    0.936880
  O      0.485550   -1.659270    2.069110
  C      0.372280   -0.438760   -0.015120
  C      1.120460    0.705800    0.176700
  C      1.230740    1.601990   -0.877660
  C      0.596960    1.349760   -2.085540
  C     -0.150510    0.196100   -2.285610
  C     -0.258640   -0.709050   -1.242870
  C     -0.923480   -2.011260   -1.154580
  C     -1.275620   -2.779740   -2.235860
  C     -1.654690   -4.133440   -2.160440
  N     -1.944550   -5.244790   -2.169970
  C     -1.226160   -2.333340   -3.571830
  N     -1.236650   -2.021610   -4.676960
  C     -0.877390   -2.422130    0.227660
  C     -1.547160   -3.364060    0.956490
  C     -2.721050   -4.077950    0.658030
  C     -3.714480   -3.830110   -0.285650
  C     -4.725760   -4.774480   -0.246570
  C     -4.521120   -5.751730    0.718620
  S     -3.097980   -5.497330    1.625700
  C     -5.566030   -6.722370    0.675630
  C     -6.450300   -6.342240   -0.363920
  C     -5.976980   -5.064350   -1.040420
  C     -6.949340   -3.883860   -0.822710
  C     -8.265830   -3.931670   -1.585230
  C     -5.552490   -5.245160   -2.520230
  C     -6.370240   -6.215760   -3.362870
  C     -7.553970   -7.124490   -0.625860
  C     -7.751940   -8.264840    0.148530
  C     -6.875260   -8.624570    1.189740
  C     -5.761490   -7.859890    1.453130
  C     -7.333760   -9.902520    1.851410
  C     -6.238290  -10.978830    1.856790
  C     -5.766170  -11.333050    0.451260
  C     -7.889280   -9.645600    3.273020
  C     -6.903620   -9.057290    4.273620
  C     -8.510700  -10.287290    0.981960
  C     -8.766940   -9.288730    0.024840
  C     -9.829760   -9.385790   -0.869600
  C    -10.616230  -10.514690   -0.815650
  C    -10.357530  -11.508500    0.157650
  C     -9.309160  -11.404770    1.066800
  C    -11.350750  -12.519110   -0.009840
  C    -12.235530  -12.185020   -1.026630
  C    -11.824840  -10.881110   -1.663770
  C    -11.442060  -11.196610   -3.126730
  C    -10.902620  -10.028580   -3.940950
  C    -12.889100   -9.777280   -1.515700
  C    -14.202340  -10.039780   -2.240680
  C    -13.203140  -13.158350   -1.232870
  C    -13.046620  -14.254100   -0.394050
  S    -11.692160  -14.035110    0.703530
  C    -13.889100  -15.386540   -0.344160
  C    -13.631480  -16.624330    0.162110
  C    -12.395010  -17.289540    0.509150
  C    -11.186140  -17.119300   -0.113500
  C    -10.032560  -17.868490    0.190370
  N     -9.061000  -18.438320    0.412860
  C    -10.994700  -16.239860   -1.199450
  N    -10.818840  -15.575370   -2.119100
  C    -12.735860  -18.393320    1.404420
  C    -11.939710  -19.241790    2.155360
  C    -12.555460  -20.247990    2.888220
  C    -13.932870  -20.415430    2.872480
  C    -14.739620  -19.565720    2.128150
  C    -14.133690  -18.557960    1.403600
  C    -14.753570  -17.515960    0.557690
  O    -15.923500  -17.378490    0.279900
  H      1.602490    0.884470    1.125480
  H      1.812100    2.503720   -0.757520
  H      0.685590    2.062790   -2.891490
  H     -0.637880    0.027070   -3.232300
  H     -1.130900   -3.536400    1.945340
  H     -3.699090   -2.972100   -0.933720
  H     -6.418910   -2.970090   -1.102980
  H     -7.162790   -3.823620    0.248400
  H     -8.097580   -3.953900   -2.658020
  H     -8.843360   -3.038400   -1.354790
  H     -8.856950   -4.795170   -1.295920
  H     -4.517100   -5.596230   -2.527150
  H     -5.560880   -4.259430   -2.990720
  H     -6.306950   -7.223890   -2.961570
  H     -5.964610   -6.229040   -4.372450
  H     -7.415190   -5.926500   -3.423810
  H     -8.246890   -6.890940   -1.416850
  H     -5.041480   -8.121930    2.212620
  H     -6.626740  -11.874040    2.346590
  H     -5.387640  -10.620090    2.437270
  H     -6.588240  -11.721380   -0.145950
  H     -4.988150  -12.091150    0.498140
  H     -5.362130  -10.456210   -0.050170
  H     -8.264540  -10.596440    3.657770
  H     -8.742350   -8.967570    3.181740
  H     -6.029430   -9.691920    4.390300
  H     -7.387210   -8.969860    5.244270
  H     -6.583180   -8.065480    3.966720
  H    -10.021490   -8.592010   -1.574120
  H     -9.141200  -12.181280    1.797750
  H    -12.325300  -11.603240   -3.621690
  H    -10.690760  -11.989880   -3.105410
  H    -11.603570   -9.197950   -3.960780
  H    -10.738080  -10.354560   -4.965660
  H     -9.952210   -9.682850   -3.544420
  H    -12.462030   -8.839320   -1.873350
  H    -13.091040   -9.655430   -0.447880
  H    -14.875660   -9.199570   -2.084400
  H    -14.685870  -10.933260   -1.856550
  H    -14.048860  -10.154350   -3.310120
  H    -13.973320  -13.131410   -1.982290
  H    -14.906810  -15.230810   -0.690870
  H    -10.868150  -19.125210    2.186260
  H    -11.946020  -20.913720    3.480860
  H    -14.379860  -21.213200    3.446400
  H    -15.812560  -19.679110    2.105830

 Total Charge           Charge          ....    0
 Multiplicity           Mult            ....    1
 Number of Electrons    NEL             ....  488
 Basis Dimension        Dim             .... 1204

ORBITAL ENERGIES
----------------

  NO   OCC          E(Eh)            E(eV)
   0   2.0000     -88.968270     -2420.9497
   1   2.0000     -88.967683     -2420.9337
   2   2.0000     -19.208999      -522.7034
   3   2.0000     -19.208987      -522.7031
   4   2.0000     -14.413136      -392.2014
   5   2.0000     -14.411195      -392.1485
   6   2.0000     -14.410116      -392.1192
   7   2.0000     -14.407865      -392.0579
   8   2.0000     -10.360283      -281.9176
   9   2.0000     -10.359486      -281.8960
  10   2.0000     -10.338208      -281.3169
  11   2.0000     -10.337556      -281.2992
  12   2.0000     -10.337071      -281.2860
  13   2.0000     -10.335699      -281.2487
  14   2.0000     -10.315833      -280.7081
  15   2.0000     -10.315210      -280.6911
  16   2.0000     -10.314895      -280.6826
  17   2.0000     -10.314533      -280.6727
  18   2.0000     -10.312918      -280.6288
  19   2.0000     -10.310396      -280.5601
  20   2.0000     -10.310195      -280.5547
  21   2.0000     -10.309911      -280.5469
  22   2.0000     -10.306461      -280.4531
  23   2.0000     -10.306192      -280.4457
  24   2.0000     -10.301863      -280.3279
  25   2.0000     -10.301557      -280.3196
  26   2.0000     -10.292898      -280.0840
  27   2.0000     -10.292284      -280.0673
  28   2.0000     -10.291147      -280.0364
  29   2.0000     -10.290945      -280.0309
  30   2.0000     -10.290925      -280.0303
  31   2.0000     -10.290809      -280.0271
  32   2.0000     -10.290687      -280.0238
  33   2.0000     -10.290528      -280.0195
  34   2.0000     -10.290170      -280.0098
  35   2.0000     -10.290031      -280.0060
  36   2.0000     -10.289963      -280.0041
  37   2.0000     -10.289925      -280.0031
  38   2.0000     -10.288453      -279.9630
  39   2.0000     -10.288397      -279.9615
  40   2.0000     -10.287317      -279.9321
  41   2.0000     -10.287091      -279.9260
  42   2.0000     -10.286678      -279.9147
  43   2.0000     -10.286210      -279.9020
  44   2.0000     -10.283078      -279.8168
  45   2.0000     -10.281816      -279.7824
  46   2.0000     -10.279866      -279.7294
  47   2.0000     -10.279243      -279.7124
  48   2.0000     -10.278875      -279.7024
  49   2.0000     -10.278284      -279.6863
  50   2.0000     -10.277836      -279.6741
  51   2.0000     -10.277239      -279.6579
  52   2.0000     -10.277043      -279.6526
  53   2.0000     -10.276709      -279.6435
  54   2.0000     -10.276247      -279.6309
  55   2.0000     -10.275766      -279.6178
  56   2.0000     -10.274512      -279.5837
  57   2.0000     -10.270712      -279.4803
  58   2.0000     -10.270241      -279.4675
  59   2.0000     -10.267979      -279.4059
  60   2.0000     -10.266187      -279.3571
  61   2.0000     -10.265309      -279.3333
  62   2.0000     -10.262365      -279.2531
  63   2.0000     -10.259438      -279.1735
  64   2.0000     -10.258568      -279.1498
  65   2.0000     -10.255481      -279.0658
  66   2.0000     -10.255443      -279.0648
  67   2.0000     -10.250909      -278.9414
  68   2.0000     -10.247131      -278.8386
  69   2.0000      -8.063392      -219.4160
  70   2.0000      -8.062259      -219.3852
  71   2.0000      -6.032551      -164.1541
  72   2.0000      -6.031547      -164.1267
  73   2.0000      -6.028634      -164.0475
  74   2.0000      -6.027520      -164.0172
  75   2.0000      -6.025622      -163.9655
  76   2.0000      -6.024406      -163.9324
  77   2.0000      -1.123821       -30.5807
  78   2.0000      -1.123663       -30.5764
  79   2.0000      -1.016271       -27.6541
  80   2.0000      -1.015203       -27.6251
  81   2.0000      -1.010310       -27.4919
  82   2.0000      -1.008088       -27.4315
  83   2.0000      -0.992382       -27.0041
  84   2.0000      -0.991051       -26.9679
  85   2.0000      -0.990454       -26.9516
  86   2.0000      -0.988694       -26.9037
  87   2.0000      -0.986430       -26.8421
  88   2.0000      -0.961278       -26.1577
  89   2.0000      -0.951489       -25.8913
  90   2.0000      -0.942418       -25.6445
  91   2.0000      -0.939916       -25.5764
  92   2.0000      -0.916468       -24.9384
  93   2.0000      -0.903746       -24.5922
  94   2.0000      -0.899515       -24.4770
  95   2.0000      -0.898450       -24.4481
  96   2.0000      -0.891306       -24.2537
  97   2.0000      -0.884486       -24.0681
  98   2.0000      -0.872319       -23.7370
  99   2.0000      -0.855651       -23.2834
 100   2.0000      -0.855242       -23.2723
 101   2.0000      -0.852674       -23.2024
 102   2.0000      -0.842744       -22.9322
 103   2.0000      -0.842083       -22.9143
 104   2.0000      -0.839828       -22.8529
 105   2.0000      -0.838727       -22.8229
 106   2.0000      -0.837741       -22.7961
 107   2.0000      -0.835275       -22.7290
 108   2.0000      -0.834675       -22.7127
 109   2.0000      -0.823453       -22.4073
 110   2.0000      -0.800245       -21.7758
 111   2.0000      -0.792235       -21.5578
 112   2.0000      -0.773232       -21.0407
 113   2.0000      -0.769839       -20.9484
 114   2.0000      -0.763607       -20.7788
 115   2.0000      -0.759819       -20.6757
 116   2.0000      -0.754458       -20.5298
 117   2.0000      -0.746468       -20.3124
 118   2.0000      -0.728439       -19.8218
 119   2.0000      -0.709766       -19.3137
 120   2.0000      -0.707746       -19.2587
 121   2.0000      -0.705129       -19.1875
 122   2.0000      -0.699202       -19.0263
 123   2.0000      -0.697614       -18.9830
 124   2.0000      -0.696759       -18.9598
 125   2.0000      -0.693384       -18.8679
 126   2.0000      -0.681409       -18.5421
 127   2.0000      -0.678846       -18.4723
 128   2.0000      -0.675694       -18.3866
 129   2.0000      -0.674108       -18.3434
 130   2.0000      -0.663874       -18.0649
 131   2.0000      -0.655348       -17.8329
 132   2.0000      -0.648039       -17.6340
 133   2.0000      -0.643295       -17.5049
 134   2.0000      -0.638647       -17.3785
 135   2.0000      -0.633246       -17.2315
 136   2.0000      -0.625619       -17.0240
 137   2.0000      -0.620805       -16.8930
 138   2.0000      -0.615865       -16.7585
 139   2.0000      -0.608929       -16.5698
 140   2.0000      -0.604736       -16.4557
 141   2.0000      -0.601168       -16.3586
 142   2.0000      -0.590867       -16.0783
 143   2.0000      -0.587489       -15.9864
 144   2.0000      -0.575002       -15.6466
 145   2.0000      -0.573439       -15.6041
 146   2.0000      -0.571404       -15.5487
 147   2.0000      -0.564208       -15.3529
 148   2.0000      -0.560175       -15.2431
 149   2.0000      -0.553827       -15.0704
 150   2.0000      -0.547394       -14.8954
 151   2.0000      -0.545546       -14.8450
 152   2.0000      -0.543434       -14.7876
 153   2.0000      -0.542281       -14.7562
 154   2.0000      -0.539606       -14.6834
 155   2.0000      -0.538211       -14.6455
 156   2.0000      -0.535401       -14.5690
 157   2.0000      -0.532602       -14.4928
 158   2.0000      -0.529868       -14.4184
 159   2.0000      -0.529493       -14.4082
 160   2.0000      -0.527408       -14.3515
 161   2.0000      -0.526831       -14.3358
 162   2.0000      -0.525962       -14.3121
 163   2.0000      -0.523670       -14.2498
 164   2.0000      -0.522970       -14.2307
 165   2.0000      -0.518530       -14.1099
 166   2.0000      -0.516315       -14.0496
 167   2.0000      -0.509031       -13.8514
 168   2.0000      -0.508190       -13.8286
 169   2.0000      -0.505199       -13.7472
 170   2.0000      -0.502917       -13.6851
 171   2.0000      -0.499864       -13.6020
 172   2.0000      -0.497548       -13.5390
 173   2.0000      -0.496239       -13.5034
 174   2.0000      -0.492425       -13.3996
 175   2.0000      -0.491766       -13.3816
 176   2.0000      -0.490351       -13.3431
 177   2.0000      -0.488405       -13.2902
 178   2.0000      -0.484544       -13.1851
 179   2.0000      -0.482804       -13.1378
 180   2.0000      -0.477843       -13.0028
 181   2.0000      -0.474945       -12.9239
 182   2.0000      -0.471903       -12.8411
 183   2.0000      -0.468260       -12.7420
 184   2.0000      -0.465618       -12.6701
 185   2.0000      -0.462875       -12.5955
 186   2.0000      -0.458601       -12.4792
 187   2.0000      -0.457898       -12.4600
 188   2.0000      -0.457310       -12.4440
 189   2.0000      -0.453549       -12.3417
 190   2.0000      -0.452858       -12.3229
 191   2.0000      -0.452281       -12.3072
 192   2.0000      -0.451728       -12.2921
 193   2.0000      -0.450987       -12.2720
 194   2.0000      -0.448509       -12.2046
 195   2.0000      -0.447201       -12.1690
 196   2.0000      -0.445726       -12.1288
 197   2.0000      -0.444720       -12.1014
 198   2.0000      -0.443848       -12.0777
 199   2.0000      -0.442397       -12.0382
 200   2.0000      -0.441111       -12.0032
 201   2.0000      -0.438770       -11.9396
 202   2.0000      -0.437830       -11.9140
 203   2.0000      -0.436359       -11.8739
 204   2.0000      -0.434898       -11.8342
 205   2.0000      -0.431766       -11.7489
 206   2.0000      -0.430948       -11.7267
 207   2.0000      -0.426795       -11.6137
 208   2.0000      -0.425447       -11.5770
 209   2.0000      -0.422999       -11.5104
 210   2.0000      -0.422556       -11.4983
 211   2.0000      -0.420897       -11.4532
 212   2.0000      -0.419848       -11.4246
 213   2.0000      -0.417480       -11.3602
 214   2.0000      -0.416006       -11.3201
 215   2.0000      -0.412748       -11.2314
 216   2.0000      -0.407508       -11.0888
 217   2.0000      -0.405305       -11.0289
 218   2.0000      -0.404306       -11.0017
 219   2.0000      -0.402320       -10.9477
 220   2.0000      -0.400674       -10.9029
 221   2.0000      -0.396239       -10.7822
 222   2.0000      -0.396120       -10.7790
 223   2.0000      -0.391914       -10.6645
 224   2.0000      -0.390832       -10.6351
 225   2.0000      -0.385180       -10.4813
 226   2.0000      -0.383597       -10.4382
 227   2.0000      -0.381844       -10.3905
 228   2.0000      -0.379082       -10.3153
 229   2.0000      -0.368301       -10.0220
 230   2.0000      -0.348460        -9.4821
 231   2.0000      -0.339229        -9.2309
 232   2.0000      -0.339003        -9.2247
 233   2.0000      -0.332954        -9.0601
 234   2.0000      -0.332431        -9.0459
 235   2.0000      -0.327428        -8.9098
 236   2.0000      -0.326273        -8.8783
 237   2.0000      -0.323077        -8.7914
 238   2.0000      -0.317875        -8.6498
 239   2.0000      -0.314910        -8.5691
 240   2.0000      -0.310454        -8.4479
 241   2.0000      -0.302628        -8.2349
 242   2.0000      -0.270051        -7.3485
 243   2.0000      -0.243217        -6.6183
 244   0.0000      -0.090014        -2.4494
 245   0.0000      -0.082008        -2.2315
 246   0.0000      -0.056768        -1.5447
 247   0.0000      -0.052692        -1.4338
 248   0.0000      -0.021839        -0.5943

MULLIKEN ATOMIC CHARGES
-----------------------
   0 C :    0.133429
   1 O :   -0.148381
   2 C :    0.000103
   3 C :   -0.026198
   4 C :    0.041904
   5 C :    0.040310
   6 C :   -0.031231
   7 C :    0.009599
   8 C :    0.275140
   9 C :   -0.348233
  10 C :   -0.179381
  11 N :    0.158731
  12 C :   -0.179132
  13 N :    0.148839
  14 C :   -0.147793
  15 C :    0.082190
  16 C :   -0.110744
  17 C :   -0.001899
  18 C :    0.007280
  19 C :   -0.038242
  20 S :    0.162399
  21 C :    0.065632
  22 C :    0.031103
  23 C :   -0.104366
  24 C :    0.057514
  25 C :    0.040271
  26 C :    0.060204
  27 C :    0.015971
  28 C :   -0.129529
  29 C :    0.110049
  30 C :    0.010522
  31 C :   -0.125123
  32 C :   -0.135479
  33 C :    0.049373
  34 C :    0.021569
  35 C :    0.080457
  36 C :    0.029134
  37 C :   -0.005122
  38 C :    0.107499
  39 C :   -0.117636
  40 C :    0.024654
  41 C :    0.060849
  42 C :   -0.106703
  43 C :   -0.049093
  44 C :    0.052479
  45 C :   -0.114499
  46 C :    0.050800
  47 C :    0.034140
  48 C :    0.055286
  49 C :    0.027110
  50 C :   -0.015517
  51 C :   -0.096522
  52 S :    0.160629
  53 C :    0.046739
  54 C :   -0.144085
  55 C :    0.243680
  56 C :   -0.322564
  57 C :   -0.179494
  58 N :    0.152683
  59 C :   -0.200694
  60 N :    0.169955
  61 C :    0.014159
  62 C :   -0.029548
  63 C :    0.041483
  64 C :    0.040519
  65 C :   -0.029340
  66 C :   -0.001937
  67 C :    0.138512
  68 O :   -0.146461
  69 H :   -0.004561
  70 H :   -0.000666
  71 H :    0.000938
  72 H :    0.002255
  73 H :    0.019621
  74 H :   -0.005147
  75 H :   -0.002099
  76 H :    0.005612
  77 H :    0.016691
  78 H :    0.013883
  79 H :    0.008109
  80 H :    0.030818
  81 H :   -0.003973
  82 H :    0.031227
  83 H :    0.017028
  84 H :   -0.000151
  85 H :   -0.046263
  86 H :   -0.038058
  87 H :    0.000444
  88 H :    0.007731
  89 H :    0.022828
  90 H :    0.015701
  91 H :    0.021406
  92 H :   -0.003615
  93 H :    0.004701
  94 H :    0.006102
  95 H :    0.013827
  96 H :    0.017985
  97 H :   -0.040753
  98 H :   -0.039612
  99 H :    0.004603
 100 H :    0.024681
 101 H :    0.002056
 102 H :    0.018651
 103 H :    0.017185
 104 H :    0.003783
 105 H :    0.007728
 106 H :    0.017280
 107 H :    0.009639
 108 H :    0.012438
 109 H :   -0.005254
 110 H :    0.024060
 111 H :    0.005243
 112 H :    0.000655
 113 H :   -0.000611
 114 H :   -0.002104
Sum of atomic charges:   -0.0000000

LOEWDIN ATOMIC CHARGES
----------------------
   0 C :    0.082399
   1 O :   -0.146671
   2 C :   -0.044796
   3 C :    0.012744
   4 C :   -0.005013
   5 C :   -0.000439
   6 C :   -0.003245
   7 C :   -0.011977
   8 C :    0.069329
   9 C :   -0.149014
  10 C :   -0.011165
  11 N :   -0.046645
  12 C :   -0.021423
  13 N :   -0.057612
  14 C :   -0.109745
  15 C :    0.049693
  16 C :   -0.182943
  17 C :   -0.007077
  18 C :   -0.033871
  19 C :   -0.152056
  20 S :    0.457652
  21 C :   -0.032113
  22 C :    0.013059
  23 C :   -0.030556
  24 C :   -0.011576
  25 C :   -0.058319
  26 C :   -0.015159
  27 C :   -0.056892
  28 C :   -0.021661
  29 C :   -0.010932
  30 C :    0.005265
  31 C :   -0.022185
  32 C :   -0.035426
  33 C :   -0.015302
  34 C :   -0.056253
  35 C :   -0.008948
  36 C :   -0.059235
  37 C :    0.007333
  38 C :   -0.012400
  39 C :   -0.023004
  40 C :    0.013700
  41 C :   -0.031844
  42 C :   -0.021143
  43 C :   -0.146656
  44 C :   -0.039353
  45 C :   -0.031358
  46 C :   -0.011970
  47 C :   -0.059151
  48 C :   -0.014773
  49 C :   -0.057685
  50 C :   -0.009132
  51 C :   -0.182447
  52 S :    0.466028
  53 C :    0.053408
  54 C :   -0.109026
  55 C :    0.062327
  56 C :   -0.143623
  57 C :   -0.020491
  58 N :   -0.054823
  59 C :   -0.031926
  60 N :   -0.052357
  61 C :   -0.010669
  62 C :   -0.002852
  63 C :    0.000333
  64 C :   -0.005404
  65 C :    0.012397
  66 C :   -0.045082
  67 C :    0.082780
  68 O :   -0.146237
  69 H :    0.039232
  70 H :    0.033940
  71 H :    0.035543
  72 H :    0.038789
  73 H :    0.044746
  74 H :    0.033347
  75 H :    0.020508
  76 H :    0.025978
  77 H :    0.023176
  78 H :    0.028771
  79 H :    0.021242
  80 H :    0.033497
  81 H :    0.021217
  82 H :    0.025887
  83 H :    0.030182
  84 H :    0.014316
  85 H :    0.023937
  86 H :    0.026321
  87 H :    0.020977
  88 H :    0.020078
  89 H :    0.025776
  90 H :    0.026487
  91 H :    0.025552
  92 H :    0.020071
  93 H :    0.026239
  94 H :    0.020882
  95 H :    0.028354
  96 H :    0.023553
  97 H :    0.024215
  98 H :    0.026385
  99 H :    0.020906
 100 H :    0.034958
 101 H :    0.019060
 102 H :    0.030765
 103 H :    0.023724
 104 H :    0.018962
 105 H :    0.027928
 106 H :    0.029597
 107 H :    0.022589
 108 H :    0.022381
 109 H :    0.034347
 110 H :    0.050505
 111 H :    0.039345
 112 H :    0.035522
 113 H :    0.033867
 114 H :    0.039553

  Mayer bond orders larger than 0.100000
B(  0-C ,  1-O ) :   2.2554 B(  0-C ,  2-C ) :   0.9230 B(  0-C , 14-C ) :   0.9519
B(  2-C ,  3-C ) :   1.3997 B(  2-C ,  7-C ) :   1.3342 B(  3-C ,  4-C ) :   1.3463
B(  3-C , 69-H ) :   1.0050 B(  4-C ,  5-C ) :   1.3862 B(  4-C , 70-H ) :   0.9895
B(  5-C ,  6-C ) :   1.3705 B(  5-C , 71-H ) :   0.9847 B(  6-C ,  7-C ) :   1.3848
B(  6-C , 72-H ) :   0.9851 B(  7-C ,  8-C ) :   0.9965 B(  8-C ,  9-C ) :   1.6254
B(  8-C , 14-C ) :   1.0608 B(  9-C , 10-C ) :   1.1767 B(  9-C , 12-C ) :   1.1278
B( 10-C , 11-N ) :   2.9354 B( 12-C , 13-N ) :   2.9909 B( 14-C , 15-C ) :   1.6182
B( 15-C , 16-C ) :   1.1683 B( 15-C , 73-H ) :   0.9265 B( 16-C , 17-C ) :   1.3720
B( 16-C , 20-S ) :   1.0877 B( 17-C , 18-C ) :   1.3772 B( 17-C , 74-H ) :   0.9889
B( 18-C , 19-C ) :   1.4981 B( 18-C , 23-C ) :   0.9408 B( 19-C , 20-S ) :   1.1256
B( 19-C , 21-C ) :   1.0528 B( 21-C , 22-C ) :   1.3922 B( 21-C , 31-C ) :   1.2840
B( 22-C , 23-C ) :   0.9188 B( 22-C , 28-C ) :   1.3910 B( 23-C , 24-C ) :   1.0172
B( 23-C , 26-C ) :   0.9978 B( 24-C , 25-C ) :   1.1148 B( 24-C , 75-H ) :   0.9379
B( 24-C , 76-H ) :   0.9414 B( 25-C , 77-H ) :   0.9587 B( 25-C , 78-H ) :   0.9587
B( 25-C , 79-H ) :   0.9631 B( 26-C , 27-C ) :   1.1328 B( 26-C , 80-H ) :   0.9333
B( 26-C , 81-H ) :   0.9340 B( 27-C , 82-H ) :   0.9565 B( 27-C , 83-H ) :   0.9573
B( 27-C , 84-H ) :   0.9605 B( 28-C , 29-C ) :   1.3058 B( 28-C , 85-H ) :   0.9922
B( 29-C , 30-C ) :   1.3815 B( 29-C , 38-C ) :   0.9872 B( 30-C , 31-C ) :   1.3892
B( 30-C , 32-C ) :   0.9106 B( 31-C , 86-H ) :   1.0017 B( 32-C , 33-C ) :   1.0340
B( 32-C , 35-C ) :   1.0125 B( 32-C , 37-C ) :   0.9197 B( 33-C , 34-C ) :   1.1047
B( 33-C , 87-H ) :   0.9390 B( 33-C , 88-H ) :   0.9377 B( 34-C , 89-H ) :   0.9631
B( 34-C , 90-H ) :   0.9645 B( 34-C , 91-H ) :   0.9648 B( 35-C , 36-C ) :   1.1153
B( 35-C , 92-H ) :   0.9365 B( 35-C , 93-H ) :   0.9382 B( 36-C , 94-H ) :   0.9632
B( 36-C , 95-H ) :   0.9595 B( 36-C , 96-H ) :   0.9607 B( 37-C , 38-C ) :   1.3744
B( 37-C , 42-C ) :   1.3898 B( 38-C , 39-C ) :   1.3070 B( 39-C , 40-C ) :   1.4083
B( 39-C , 97-H ) :   0.9893 B( 40-C , 41-C ) :   1.3810 B( 40-C , 45-C ) :   0.9192
B( 41-C , 42-C ) :   1.2967 B( 41-C , 43-C ) :   1.0602 B( 42-C , 98-H ) :   1.0039
B( 43-C , 44-C ) :   1.5075 B( 43-C , 52-S ) :   1.1220 B( 44-C , 45-C ) :   0.9383
B( 44-C , 50-C ) :   1.3074 B( 45-C , 46-C ) :   1.0022 B( 45-C , 48-C ) :   1.0130
B( 46-C , 47-C ) :   1.1134 B( 46-C , 99-H ) :   0.9408 B( 46-C ,100-H ) :   0.9373
B( 47-C ,101-H ) :   0.9615 B( 47-C ,102-H ) :   0.9599 B( 47-C ,103-H ) :   0.9601
B( 48-C , 49-C ) :   1.1085 B( 48-C ,104-H ) :   0.9387 B( 48-C ,105-H ) :   0.9391
B( 49-C ,106-H ) :   0.9617 B( 49-C ,107-H ) :   0.9638 B( 49-C ,108-H ) :   0.9626
B( 50-C , 51-C ) :   1.3910 B( 50-C ,109-H ) :   1.0046 B( 51-C , 52-S ) :   1.0956
B( 51-C , 53-C ) :   1.1473 B( 53-C , 54-C ) :   1.6199 B( 53-C ,110-H ) :   0.9489
B( 54-C , 55-C ) :   1.0442 B( 54-C , 67-C ) :   0.9467 B( 55-C , 56-C ) :   1.6565
B( 55-C , 61-C ) :   1.0025 B( 56-C , 57-C ) :   1.1359 B( 56-C , 59-C ) :   1.1497
B( 57-C , 58-N ) :   2.9958 B( 59-C , 60-N ) :   3.0237 B( 61-C , 62-C ) :   1.3858
B( 61-C , 66-C ) :   1.3326 B( 62-C , 63-C ) :   1.3693 B( 62-C ,111-H ) :   0.9861
B( 63-C , 64-C ) :   1.3843 B( 63-C ,112-H ) :   0.9854 B( 64-C , 65-C ) :   1.3498
B( 64-C ,113-H ) :   0.9899 B( 65-C , 66-C ) :   1.3975 B( 65-C ,114-H ) :   1.0052
B( 66-C , 67-C ) :   0.9247 B( 67-C , 68-O ) :   2.2654

-----------------------------------------------------------------------------
         ABSORPTION SPECTRUM VIA TRANSITION ELECTRIC DIPOLE MOMENTS
-----------------------------------------------------------------------------
State   Energy  Wavelength   fosc         T2         TX        TY        TZ
        (cm-1)    (nm)                  (au**2)     (au)      (au)      (au)
-----------------------------------------------------------------------------
   0   17904.8    558.5   1.714461555  31.52344  -3.16822  -4.58524   0.67927
   1   19935.8    501.6   0.155428954   2.56669   1.33239  -0.41094  -0.78902
   2   25675.2    389.5   0.687136558   8.81057   2.28464   1.84267   0.44224
   3   26874.2    372.1   0.014755800   0.18076  -0.24891   0.32914   0.10233
   4   27100.0    369.0   0.034420142   0.41814  -0.47513   0.02237   0.43805
   5   28673.3    348.8   0.042089905   0.48325  -0.46965  -0.03553  -0.51130
   6   30225.9    330.8   0.112015412   1.22004   0.60029   0.72497  -0.57802
   7   30634.0    326.4   0.128824343   1.38442  -0.65700  -0.92580  -0.30929
   8   32288.1    309.7   0.154236890   1.57261  -0.24002  -0.94940   0.78335
   9   32331.5    309.3   0.019334168   0.19687   0.19054   0.37228   0.14824
  10   32572.8    307.0   0.066525589   0.67237  -0.62058  -0.50950   0.16632
  11   32660.6    306.2   0.152870437   1.54090   0.73781   0.62985   0.77449
  12   32944.7    303.5   0.066421681   0.66374  -0.74241  -0.13303   0.30801
  13   33456.3    298.9   0.128788315   1.26728   0.35000   1.06806  -0.06355
  14   33607.3    297.6   0.078709192   0.77102   0.68942   0.54351  -0.01767
  15   33971.9    294.4   0.012137203   0.11762   0.06596   0.10663   0.31921
  16   34001.9    294.1   0.038363036   0.37144   0.11934   0.58710  -0.11185
  17   35199.3    284.1   0.046765887   0.43739   0.28266  -0.40789  -0.43718
  18   36025.4    277.6   0.121789101   1.11295   0.96123   0.10669   0.42144
  19   36201.3    276.2   0.074000521   0.67296   0.14589   0.04430   0.80605
  20   36726.7    272.3   0.567731842   5.08906   1.45145   1.72156  -0.13631
  21   37412.2    267.3   0.036621669   0.32226  -0.37647   0.36812  -0.21217
  22   37905.1    263.8   0.003653781   0.03173  -0.04554   0.11629  -0.12703
  23   38248.5    261.4   0.396521547   3.41293   0.97457   1.54214   0.29143
  24   38818.5    257.6   0.139689554   1.18468  -0.90629  -0.48343   0.36002
  25   39392.5    253.9   0.254779955   2.12926   0.73529  -0.05748  -1.25909
  26   39660.2    252.1   0.025999495   0.21582  -0.18808  -0.28263   0.31711
  27   39704.0    251.9   0.015796708   0.13098   0.08859  -0.08638  -0.34011

FINAL SINGLE POINT ENERGY     -3514.231583290356

DIPOLE MOMENT
-------------
                                X             Y             Z
Electronic contribution:     26.85799     -22.06475      14.62151
Nuclear contribution   :    -28.50590      23.76822     -12.96943
                        -----------------------------------------
Total Dipole Moment    :     -1.64791       1.70347       1.65208
                        -----------------------------------------
Magnitude (a.u.)       :      2.88908
Magnitude (Debye)      :      7.34346

Rotational constants in cm-1:     0.003035     0.000306     0.000293
Rotational constants in MHz :    90.975137     9.185461     8.795122

                             ****ORCA TERMINATED NORMALLY****
TOTAL RUN TIME: 0 days 1 hours 12 minutes 28 seconds 282 msec
