                         Program Version 4.2.0 -  RELEASE  -
|  1> # ORCA input file
|  2> # FO-2F.out: Geometry 97
|  3> ! CAM-B3LYP def2-SVP def2/J RIJCOSX Grid4 TightSCF
|  4> %maxcore 5000
|  5> %tddft
|  6>     Mode sTDDFT
|  7>     Ethresh 5.0
|  8>     maxcore 5000
|  9> end
| 10> * xyz 0 1
| 11>    C        5.08002        -3.50737         1.97359
| 12>    O        6.23184        -3.34276         2.33578
| 13>    C        4.36498        -4.80815         1.99662
| 14>    C        4.89574        -6.04912         2.32864
| 15>    C        4.05598        -7.15227         2.23629
| 16>    F        4.50073        -8.37293         2.51971
| 17>    C        2.71745        -6.99568         1.83095
| 18>    F        1.95809        -8.08355         1.73941
| 19>    C        2.18384        -5.74794         1.51784
| 20>    C        3.02948        -4.63284         1.59057
| 21>    C        2.81624        -3.20009         1.27711
| 22>    C        1.59858        -2.62703         0.96209
| 23>    C        1.42547        -1.22510         0.73431
| 24>    N        1.25449        -0.09086         0.54722
| 25>    C        0.39317        -3.39052         0.85999
| 26>    N       -0.58769        -4.00705         0.76773
| 27>    C        4.11588        -2.52630         1.39062
| 28>    C        4.44351        -1.33334         0.77607
| 29>    C        5.70031        -0.67444         0.69515
| 30>    C        6.85014        -0.74600         1.48776
| 31>    C        7.94326        -0.05550         0.94663
| 32>    C        7.64958         0.56505        -0.27005
| 33>    S        5.99736         0.33909        -0.72376
| 34>    C        8.68095         1.16150        -1.08140
| 35>    C       10.01263         0.84371        -0.69063
| 36>    O       10.28581         0.13495         0.42391
| 37>    C        9.33375         0.08666         1.52445
| 38>    C        9.74974        -1.12801         2.36255
| 39>    C        9.74737        -2.45649         1.60960
| 40>    C        9.43858         1.41222         2.31357
| 41>    C       10.82111         1.71108         2.89255
| 42>    C       11.08646         1.18329        -1.51618
| 43>    C       10.83314         1.88657        -2.69255
| 44>    C        9.52171         2.28406        -3.05982
| 45>    C        8.45392         1.89697        -2.26729
| 46>    C        9.53798         3.05291        -4.38327
| 47>    C        8.73575         2.30601        -5.48199
| 48>    C        9.16725         0.86463        -5.74385
| 49>    C        9.04423         4.52020        -4.24642
| 50>    C        7.57397         4.72818        -3.88756
| 51>    C       11.03379         3.05215        -4.70383
| 52>    C       11.76077         2.33100        -3.72598
| 53>    C       13.13187         2.11014        -3.85002
| 54>    C       13.79566         2.64440        -4.95543
| 55>    C       13.10161         3.46318        -5.89052
| 56>    C       11.70465         3.63379        -5.76637
| 57>    C       13.93591         4.09582        -6.88232
| 58>    C       15.24177         3.66047        -7.12284
| 59>    C       15.76368         2.45864        -6.36634
| 60>    C       17.26146         2.56031        -6.04614
| 61>    C       17.66141         3.83930        -5.30976
| 62>    C       15.39859         1.17424        -7.14354
| 63>    C       15.62783        -0.13678        -6.39572
| 64>    O       15.12205         2.41676        -5.06261
| 65>    C       15.87916         4.41514        -8.11251
| 66>    C       15.09870         5.46759        -8.62139
| 67>    S       13.51868         5.46831        -7.84603
| 68>    C       15.66223         6.46967        -9.45295
| 69>    C       15.30730         7.72804        -9.88080
| 70>    C       14.09173         8.52282        -9.86082
| 71>    C       12.79780         8.05924       -10.02308
| 72>    C       11.65871         8.92004        -9.95489
| 73>    N       10.73162         9.61705        -9.87867
| 74>    C       12.52731         6.71832       -10.43199
| 75>    N       12.29644         5.64544       -10.81485
| 76>    C       14.49947         9.95099        -9.88599
| 77>    C       13.76656        11.13411        -9.73742
| 78>    C       14.44157        12.34528        -9.87288
| 79>    F       13.78252        13.48862        -9.70258
| 80>    C       15.81195        12.39815       -10.19161
| 81>    F       16.39205        13.58481       -10.35107
| 82>    C       16.54827        11.22714       -10.33293
| 83>    C       15.87840        10.01947       -10.17366
| 84>    C       16.44069         8.64556       -10.24461
| 85>    O       17.59006         8.33516       -10.47842
| 86>    H        5.93396        -6.15563         2.64629
| 87>    H        1.14349        -5.69795         1.20402
| 88>    H        3.66173        -0.87448         0.16667
| 89>    H        6.86955        -1.31405         2.41153
| 90>    H        9.08148        -1.17456         3.23799
| 91>    H       10.75798        -0.93137         2.75579
| 92>    H        8.73659        -2.75359         1.29513
| 93>    H       10.14339        -3.25693         2.25253
| 94>    H       10.38212        -2.39102         0.71440
| 95>    H        8.67846         1.38565         3.11224
| 96>    H        9.13276         2.22384         1.63249
| 97>    H       11.09813         1.00423         3.68847
| 98>    H       10.84794         2.72113         3.32991
| 99>    H       11.59294         1.65638         2.11017
|100>    H       12.09036         0.87227        -1.22328
|101>    H        7.42631         2.12854        -2.55353
|102>    H        8.80877         2.89515        -6.41258
|103>    H        7.67131         2.31476        -5.19810
|104>    H       10.21889         0.80588        -6.06532
|105>    H        8.55033         0.41564        -6.53682
|106>    H        9.05370         0.24279        -4.84222
|107>    H        9.24683         5.02086        -5.20861
|108>    H        9.68033         5.02440        -3.50139
|109>    H        6.89866         4.21374        -4.58644
|110>    H        7.32338         5.79954        -3.92926
|111>    H        7.34265         4.37623        -2.87134
|112>    H       13.70050         1.52941        -3.12208
|113>    H       11.17208         4.21946        -6.52006
|114>    H       17.82663         2.45332        -6.98650
|115>    H       17.51909         1.68534        -5.43076
|116>    H       17.57509         4.72934        -5.95021
|117>    H       18.70259         3.77809        -4.95824
|118>    H       17.01846         3.99473        -4.43193
|119>    H       15.96393         1.19450        -8.08897
|120>    H       14.33641         1.24931        -7.42875
|121>    H       16.68484        -0.29532        -6.13203
|122>    H       15.30779        -0.98662        -7.01785
|123>    H       15.04408        -0.16302        -5.46469
|124>    H       16.90088         4.24863        -8.45536
|125>    H       16.71375         6.26012        -9.69094
|126>    H       12.70398        11.15856        -9.50268
|127>    H       17.61158        11.26125       -10.57607
|128> *
|129>
|130>                          ****END OF INPUT****

CARTESIAN COORDINATES (ANGSTROEM)
---------------------------------
  C      5.080020   -3.507370    1.973590
  O      6.231840   -3.342760    2.335780
  C      4.364980   -4.808150    1.996620
  C      4.895740   -6.049120    2.328640
  C      4.055980   -7.152270    2.236290
  F      4.500730   -8.372930    2.519710
  C      2.717450   -6.995680    1.830950
  F      1.958090   -8.083550    1.739410
  C      2.183840   -5.747940    1.517840
  C      3.029480   -4.632840    1.590570
  C      2.816240   -3.200090    1.277110
  C      1.598580   -2.627030    0.962090
  C      1.425470   -1.225100    0.734310
  N      1.254490   -0.090860    0.547220
  C      0.393170   -3.390520    0.859990
  N     -0.587690   -4.007050    0.767730
  C      4.115880   -2.526300    1.390620
  C      4.443510   -1.333340    0.776070
  C      5.700310   -0.674440    0.695150
  C      6.850140   -0.746000    1.487760
  C      7.943260   -0.055500    0.946630
  C      7.649580    0.565050   -0.270050
  S      5.997360    0.339090   -0.723760
  C      8.680950    1.161500   -1.081400
  C     10.012630    0.843710   -0.690630
  O     10.285810    0.134950    0.423910
  C      9.333750    0.086660    1.524450
  C      9.749740   -1.128010    2.362550
  C      9.747370   -2.456490    1.609600
  C      9.438580    1.412220    2.313570
  C     10.821110    1.711080    2.892550
  C     11.086460    1.183290   -1.516180
  C     10.833140    1.886570   -2.692550
  C      9.521710    2.284060   -3.059820
  C      8.453920    1.896970   -2.267290
  C      9.537980    3.052910   -4.383270
  C      8.735750    2.306010   -5.481990
  C      9.167250    0.864630   -5.743850
  C      9.044230    4.520200   -4.246420
  C      7.573970    4.728180   -3.887560
  C     11.033790    3.052150   -4.703830
  C     11.760770    2.331000   -3.725980
  C     13.131870    2.110140   -3.850020
  C     13.795660    2.644400   -4.955430
  C     13.101610    3.463180   -5.890520
  C     11.704650    3.633790   -5.766370
  C     13.935910    4.095820   -6.882320
  C     15.241770    3.660470   -7.122840
  C     15.763680    2.458640   -6.366340
  C     17.261460    2.560310   -6.046140
  C     17.661410    3.839300   -5.309760
  C     15.398590    1.174240   -7.143540
  C     15.627830   -0.136780   -6.395720
  O     15.122050    2.416760   -5.062610
  C     15.879160    4.415140   -8.112510
  C     15.098700    5.467590   -8.621390
  S     13.518680    5.468310   -7.846030
  C     15.662230    6.469670   -9.452950
  C     15.307300    7.728040   -9.880800
  C     14.091730    8.522820   -9.860820
  C     12.797800    8.059240  -10.023080
  C     11.658710    8.920040   -9.954890
  N     10.731620    9.617050   -9.878670
  C     12.527310    6.718320  -10.431990
  N     12.296440    5.645440  -10.814850
  C     14.499470    9.950990   -9.885990
  C     13.766560   11.134110   -9.737420
  C     14.441570   12.345280   -9.872880
  F     13.782520   13.488620   -9.702580
  C     15.811950   12.398150  -10.191610
  F     16.392050   13.584810  -10.351070
  C     16.548270   11.227140  -10.332930
  C     15.878400   10.019470  -10.173660
  C     16.440690    8.645560  -10.244610
  O     17.590060    8.335160  -10.478420
  H      5.933960   -6.155630    2.646290
  H      1.143490   -5.697950    1.204020
  H      3.661730   -0.874480    0.166670
  H      6.869550   -1.314050    2.411530
  H      9.081480   -1.174560    3.237990
  H     10.757980   -0.931370    2.755790
  H      8.736590   -2.753590    1.295130
  H     10.143390   -3.256930    2.252530
  H     10.382120   -2.391020    0.714400
  H      8.678460    1.385650    3.112240
  H      9.132760    2.223840    1.632490
  H     11.098130    1.004230    3.688470
  H     10.847940    2.721130    3.329910
  H     11.592940    1.656380    2.110170
  H     12.090360    0.872270   -1.223280
  H      7.426310    2.128540   -2.553530
  H      8.808770    2.895150   -6.412580
  H      7.671310    2.314760   -5.198100
  H     10.218890    0.805880   -6.065320
  H      8.550330    0.415640   -6.536820
  H      9.053700    0.242790   -4.842220
  H      9.246830    5.020860   -5.208610
  H      9.680330    5.024400   -3.501390
  H      6.898660    4.213740   -4.586440
  H      7.323380    5.799540   -3.929260
  H      7.342650    4.376230   -2.871340
  H     13.700500    1.529410   -3.122080
  H     11.172080    4.219460   -6.520060
  H     17.826630    2.453320   -6.986500
  H     17.519090    1.685340   -5.430760
  H     17.575090    4.729340   -5.950210
  H     18.702590    3.778090   -4.958240
  H     17.018460    3.994730   -4.431930
  H     15.963930    1.194500   -8.088970
  H     14.336410    1.249310   -7.428750
  H     16.684840   -0.295320   -6.132030
  H     15.307790   -0.986620   -7.017850
  H     15.044080   -0.163020   -5.464690
  H     16.900880    4.248630   -8.455360
  H     16.713750    6.260120   -9.690940
  H     12.703980   11.158560   -9.502680
  H     17.611580   11.261250  -10.576070

 Total Charge           Charge          ....    0
 Multiplicity           Mult            ....    1
 Number of Electrons    NEL             ....  536
 Basis Dimension        Dim             .... 1268

ORBITAL ENERGIES
----------------

  NO   OCC          E(Eh)            E(eV)
   0   2.0000     -88.979883     -2421.2657
   1   2.0000     -88.975394     -2421.1436
   2   2.0000     -24.806698      -675.0246
   3   2.0000     -24.804646      -674.9687
   4   2.0000     -24.804460      -674.9637
   5   2.0000     -24.803568      -674.9394
   6   2.0000     -19.255900      -523.9797
   7   2.0000     -19.254715      -523.9474
   8   2.0000     -19.228092      -523.2230
   9   2.0000     -19.221457      -523.0424
  10   2.0000     -14.424696      -392.5159
  11   2.0000     -14.424435      -392.5088
  12   2.0000     -14.424312      -392.5055
  13   2.0000     -14.421485      -392.4286
  14   2.0000     -10.390608      -282.7428
  15   2.0000     -10.389857      -282.7224
  16   2.0000     -10.389133      -282.7027
  17   2.0000     -10.388618      -282.6887
  18   2.0000     -10.380814      -282.4763
  19   2.0000     -10.373996      -282.2908
  20   2.0000     -10.354859      -281.7701
  21   2.0000     -10.353990      -281.7464
  22   2.0000     -10.353922      -281.7445
  23   2.0000     -10.352524      -281.7065
  24   2.0000     -10.352488      -281.7055
  25   2.0000     -10.350753      -281.6583
  26   2.0000     -10.350464      -281.6504
  27   2.0000     -10.348527      -281.5977
  28   2.0000     -10.333558      -281.1904
  29   2.0000     -10.330724      -281.1133
  30   2.0000     -10.330109      -281.0965
  31   2.0000     -10.328554      -281.0542
  32   2.0000     -10.328060      -281.0408
  33   2.0000     -10.327997      -281.0391
  34   2.0000     -10.327668      -281.0301
  35   2.0000     -10.326593      -281.0009
  36   2.0000     -10.323977      -280.9297
  37   2.0000     -10.323765      -280.9239
  38   2.0000     -10.323027      -280.9038
  39   2.0000     -10.321897      -280.8731
  40   2.0000     -10.313866      -280.6546
  41   2.0000     -10.313645      -280.6485
  42   2.0000     -10.312595      -280.6200
  43   2.0000     -10.312379      -280.6141
  44   2.0000     -10.309280      -280.5298
  45   2.0000     -10.308922      -280.5200
  46   2.0000     -10.307574      -280.4834
  47   2.0000     -10.306494      -280.4539
  48   2.0000     -10.302954      -280.3576
  49   2.0000     -10.301720      -280.3241
  50   2.0000     -10.300342      -280.2866
  51   2.0000     -10.298554      -280.2379
  52   2.0000     -10.296996      -280.1955
  53   2.0000     -10.294194      -280.1193
  54   2.0000     -10.293943      -280.1124
  55   2.0000     -10.293276      -280.0943
  56   2.0000     -10.293155      -280.0910
  57   2.0000     -10.292272      -280.0670
  58   2.0000     -10.292015      -280.0600
  59   2.0000     -10.284157      -279.8461
  60   2.0000     -10.282879      -279.8114
  61   2.0000     -10.282360      -279.7972
  62   2.0000     -10.282108      -279.7904
  63   2.0000     -10.279471      -279.7186
  64   2.0000     -10.277737      -279.6715
  65   2.0000     -10.275657      -279.6148
  66   2.0000     -10.273479      -279.5556
  67   2.0000     -10.272578      -279.5311
  68   2.0000     -10.272360      -279.5251
  69   2.0000     -10.265886      -279.3490
  70   2.0000     -10.264027      -279.2984
  71   2.0000     -10.263963      -279.2966
  72   2.0000     -10.262683      -279.2618
  73   2.0000     -10.257842      -279.1301
  74   2.0000     -10.254221      -279.0315
  75   2.0000      -8.074217      -219.7106
  76   2.0000      -8.070477      -219.6088
  77   2.0000      -6.043471      -164.4512
  78   2.0000      -6.039730      -164.3494
  79   2.0000      -6.039358      -164.3393
  80   2.0000      -6.036481      -164.2610
  81   2.0000      -6.035765      -164.2415
  82   2.0000      -6.032561      -164.1543
  83   2.0000      -1.332593       -36.2617
  84   2.0000      -1.330524       -36.2054
  85   2.0000      -1.316436       -35.8220
  86   2.0000      -1.314888       -35.7799
  87   2.0000      -1.163492       -31.6602
  88   2.0000      -1.161111       -31.5954
  89   2.0000      -1.139355       -31.0034
  90   2.0000      -1.134090       -30.8602
  91   2.0000      -1.019219       -27.7344
  92   2.0000      -1.017688       -27.6927
  93   2.0000      -1.004011       -27.3205
  94   2.0000      -1.001579       -27.2544
  95   2.0000      -1.000179       -27.2163
  96   2.0000      -0.998553       -27.1720
  97   2.0000      -0.994409       -27.0592
  98   2.0000      -0.992207       -26.9993
  99   2.0000      -0.991233       -26.9728
 100   2.0000      -0.957000       -26.0413
 101   2.0000      -0.954943       -25.9853
 102   2.0000      -0.952962       -25.9314
 103   2.0000      -0.930492       -25.3200
 104   2.0000      -0.918841       -25.0029
 105   2.0000      -0.916501       -24.9393
 106   2.0000      -0.902576       -24.5603
 107   2.0000      -0.900950       -24.5161
 108   2.0000      -0.896454       -24.3938
 109   2.0000      -0.890141       -24.2220
 110   2.0000      -0.876301       -23.8454
 111   2.0000      -0.873960       -23.7817
 112   2.0000      -0.872530       -23.7427
 113   2.0000      -0.858568       -23.3628
 114   2.0000      -0.849564       -23.1178
 115   2.0000      -0.847514       -23.0620
 116   2.0000      -0.847179       -23.0529
 117   2.0000      -0.842424       -22.9235
 118   2.0000      -0.839093       -22.8329
 119   2.0000      -0.835637       -22.7388
 120   2.0000      -0.832899       -22.6643
 121   2.0000      -0.828777       -22.5522
 122   2.0000      -0.810343       -22.0505
 123   2.0000      -0.794568       -21.6213
 124   2.0000      -0.785904       -21.3855
 125   2.0000      -0.778695       -21.1894
 126   2.0000      -0.772343       -21.0165
 127   2.0000      -0.769173       -20.9303
 128   2.0000      -0.757435       -20.6109
 129   2.0000      -0.755153       -20.5487
 130   2.0000      -0.747179       -20.3318
 131   2.0000      -0.729683       -19.8557
 132   2.0000      -0.719440       -19.5770
 133   2.0000      -0.716467       -19.4961
 134   2.0000      -0.712215       -19.3804
 135   2.0000      -0.709147       -19.2969
 136   2.0000      -0.708037       -19.2667
 137   2.0000      -0.701321       -19.0839
 138   2.0000      -0.696920       -18.9642
 139   2.0000      -0.694109       -18.8877
 140   2.0000      -0.690731       -18.7958
 141   2.0000      -0.685912       -18.6646
 142   2.0000      -0.685596       -18.6560
 143   2.0000      -0.681183       -18.5359
 144   2.0000      -0.672232       -18.2924
 145   2.0000      -0.666207       -18.1284
 146   2.0000      -0.664085       -18.0707
 147   2.0000      -0.653470       -17.7818
 148   2.0000      -0.647708       -17.6250
 149   2.0000      -0.646203       -17.5841
 150   2.0000      -0.645381       -17.5617
 151   2.0000      -0.642623       -17.4867
 152   2.0000      -0.640186       -17.4204
 153   2.0000      -0.631200       -17.1758
 154   2.0000      -0.620073       -16.8730
 155   2.0000      -0.613196       -16.6859
 156   2.0000      -0.611023       -16.6268
 157   2.0000      -0.604974       -16.4622
 158   2.0000      -0.599854       -16.3229
 159   2.0000      -0.595628       -16.2079
 160   2.0000      -0.594384       -16.1740
 161   2.0000      -0.593019       -16.1369
 162   2.0000      -0.592426       -16.1207
 163   2.0000      -0.585030       -15.9195
 164   2.0000      -0.579340       -15.7646
 165   2.0000      -0.571178       -15.5425
 166   2.0000      -0.566747       -15.4220
 167   2.0000      -0.564185       -15.3522
 168   2.0000      -0.562163       -15.2972
 169   2.0000      -0.556022       -15.1301
 170   2.0000      -0.555052       -15.1037
 171   2.0000      -0.553670       -15.0661
 172   2.0000      -0.552260       -15.0278
 173   2.0000      -0.550256       -14.9732
 174   2.0000      -0.548900       -14.9363
 175   2.0000      -0.543539       -14.7905
 176   2.0000      -0.543138       -14.7795
 177   2.0000      -0.542061       -14.7502
 178   2.0000      -0.539145       -14.6709
 179   2.0000      -0.537436       -14.6244
 180   2.0000      -0.535743       -14.5783
 181   2.0000      -0.533911       -14.5285
 182   2.0000      -0.533350       -14.5132
 183   2.0000      -0.530221       -14.4281
 184   2.0000      -0.527035       -14.3413
 185   2.0000      -0.526409       -14.3243
 186   2.0000      -0.524394       -14.2695
 187   2.0000      -0.523632       -14.2488
 188   2.0000      -0.516611       -14.0577
 189   2.0000      -0.515867       -14.0375
 190   2.0000      -0.514917       -14.0116
 191   2.0000      -0.511951       -13.9309
 192   2.0000      -0.511204       -13.9106
 193   2.0000      -0.506977       -13.7955
 194   2.0000      -0.501304       -13.6412
 195   2.0000      -0.500836       -13.6284
 196   2.0000      -0.500666       -13.6238
 197   2.0000      -0.497217       -13.5300
 198   2.0000      -0.496637       -13.5142
 199   2.0000      -0.495250       -13.4764
 200   2.0000      -0.495031       -13.4705
 201   2.0000      -0.494017       -13.4429
 202   2.0000      -0.492621       -13.4049
 203   2.0000      -0.487896       -13.2763
 204   2.0000      -0.486502       -13.2384
 205   2.0000      -0.482789       -13.1374
 206   2.0000      -0.478850       -13.0302
 207   2.0000      -0.476499       -12.9662
 208   2.0000      -0.472782       -12.8651
 209   2.0000      -0.465421       -12.6648
 210   2.0000      -0.464693       -12.6449
 211   2.0000      -0.460026       -12.5179
 212   2.0000      -0.459076       -12.4921
 213   2.0000      -0.457938       -12.4611
 214   2.0000      -0.456695       -12.4273
 215   2.0000      -0.455686       -12.3999
 216   2.0000      -0.454542       -12.3687
 217   2.0000      -0.453855       -12.3500
 218   2.0000      -0.453115       -12.3299
 219   2.0000      -0.452913       -12.3244
 220   2.0000      -0.451609       -12.2889
 221   2.0000      -0.451345       -12.2817
 222   2.0000      -0.449446       -12.2301
 223   2.0000      -0.448891       -12.2149
 224   2.0000      -0.446999       -12.1635
 225   2.0000      -0.443892       -12.0789
 226   2.0000      -0.439985       -11.9726
 227   2.0000      -0.439141       -11.9496
 228   2.0000      -0.436592       -11.8803
 229   2.0000      -0.435153       -11.8411
 230   2.0000      -0.432822       -11.7777
 231   2.0000      -0.429455       -11.6861
 232   2.0000      -0.428751       -11.6669
 233   2.0000      -0.427217       -11.6252
 234   2.0000      -0.425659       -11.5828
 235   2.0000      -0.424516       -11.5517
 236   2.0000      -0.421981       -11.4827
 237   2.0000      -0.421422       -11.4675
 238   2.0000      -0.418903       -11.3989
 239   2.0000      -0.417974       -11.3737
 240   2.0000      -0.416082       -11.3222
 241   2.0000      -0.414667       -11.2837
 242   2.0000      -0.413957       -11.2643
 243   2.0000      -0.411610       -11.2005
 244   2.0000      -0.409007       -11.1296
 245   2.0000      -0.407021       -11.0756
 246   2.0000      -0.397963       -10.8291
 247   2.0000      -0.395097       -10.7511
 248   2.0000      -0.394716       -10.7408
 249   2.0000      -0.392103       -10.6697
 250   2.0000      -0.389055       -10.5867
 251   2.0000      -0.388424       -10.5696
 252   2.0000      -0.384284       -10.4569
 253   2.0000      -0.374147       -10.1811
 254   2.0000      -0.356556        -9.7024
 255   2.0000      -0.350950        -9.5498
 256   2.0000      -0.350577        -9.5397
 257   2.0000      -0.348274        -9.4770
 258   2.0000      -0.343437        -9.3454
 259   2.0000      -0.336434        -9.1548
 260   2.0000      -0.332553        -9.0492
 261   2.0000      -0.324632        -8.8337
 262   2.0000      -0.317385        -8.6365
 263   2.0000      -0.314584        -8.5603
 264   2.0000      -0.306498        -8.3402
 265   2.0000      -0.303497        -8.2586
 266   2.0000      -0.276271        -7.5177
 267   2.0000      -0.254039        -6.9127
 268   0.0000      -0.098711        -2.6861
 269   0.0000      -0.091189        -2.4814
 270   0.0000      -0.070042        -1.9059
 271   0.0000      -0.065196        -1.7741
 272   0.0000      -0.036254        -0.9865

MULLIKEN ATOMIC CHARGES
-----------------------
   0 C :    0.151767
   1 O :   -0.162152
   2 C :   -0.017459
   3 C :   -0.098986
   4 C :    0.229899
   5 F :   -0.160330
   6 C :    0.226155
   7 F :   -0.157895
   8 C :   -0.088132
   9 C :    0.049710
  10 C :    0.241341
  11 C :   -0.309120
  12 C :   -0.178908
  13 N :    0.135776
  14 C :   -0.164978
  15 N :    0.131106
  16 C :   -0.094327
  17 C :    0.058365
  18 C :   -0.127317
  19 C :    0.021669
  20 C :    0.012265
  21 C :   -0.088622
  22 S :    0.151442
  23 C :    0.055862
  24 C :    0.180031
  25 O :   -0.304494
  26 C :    0.004362
  27 C :    0.015223
  28 C :    0.013856
  29 C :    0.073879
  30 C :    0.019485
  31 C :   -0.118262
  32 C :    0.113005
  33 C :    0.027438
  34 C :   -0.125702
  35 C :   -0.118067
  36 C :    0.037314
  37 C :    0.006992
  38 C :    0.056323
  39 C :    0.008209
  40 C :    0.019076
  41 C :    0.109395
  42 C :   -0.106475
  43 C :    0.173417
  44 C :    0.032740
  45 C :   -0.112462
  46 C :   -0.085858
  47 C :    0.055120
  48 C :    0.006977
  49 C :    0.020213
  50 C :    0.015546
  51 C :    0.070426
  52 C :    0.025735
  53 O :   -0.305284
  54 C :   -0.045130
  55 C :   -0.054505
  56 S :    0.178520
  57 C :    0.027134
  58 C :   -0.128671
  59 C :    0.233048
  60 C :   -0.304036
  61 C :   -0.159388
  62 N :    0.127803
  63 C :   -0.201344
  64 N :    0.156785
  65 C :    0.033938
  66 C :   -0.090589
  67 C :    0.226301
  68 F :   -0.159048
  69 C :    0.225706
  70 F :   -0.161616
  71 C :   -0.097388
  72 C :   -0.001532
  73 C :    0.137223
  74 O :   -0.151075
  75 H :    0.019508
  76 H :    0.024197
  77 H :    0.026485
  78 H :    0.023015
  79 H :    0.013351
  80 H :    0.013935
  81 H :    0.026841
  82 H :    0.014961
  83 H :    0.020957
  84 H :    0.007178
  85 H :    0.007095
  86 H :    0.020472
  87 H :    0.019745
  88 H :    0.022373
  89 H :   -0.025372
  90 H :   -0.019943
  91 H :    0.006377
  92 H :    0.012632
  93 H :    0.023033
  94 H :    0.019000
  95 H :    0.024147
  96 H :    0.004024
  97 H :    0.009245
  98 H :    0.013699
  99 H :    0.022314
 100 H :    0.020553
 101 H :   -0.024425
 102 H :   -0.014648
 103 H :    0.007622
 104 H :    0.019958
 105 H :    0.014905
 106 H :    0.019488
 107 H :    0.027332
 108 H :    0.004492
 109 H :    0.011878
 110 H :    0.015195
 111 H :    0.021911
 112 H :    0.021481
 113 H :    0.008633
 114 H :    0.031328
 115 H :    0.025595
 116 H :    0.022006
Sum of atomic charges:   -0.0000000

LOEWDIN ATOMIC CHARGES
----------------------
   0 C :    0.092680
   1 O :   -0.144931
   2 C :   -0.045619
   3 C :   -0.011937
   4 C :    0.067088
   5 F :   -0.037391
   6 C :    0.069624
   7 F :   -0.036672
   8 C :   -0.022435
   9 C :   -0.015133
  10 C :    0.079119
  11 C :   -0.138287
  12 C :   -0.020799
  13 N :   -0.051644
  14 C :   -0.013705
  15 N :   -0.053536
  16 C :   -0.105175
  17 C :    0.050941
  18 C :   -0.183954
  19 C :    0.001814
  20 C :   -0.068142
  21 C :   -0.135756
  22 S :    0.448117
  23 C :   -0.082936
  24 C :    0.074336
  25 O :   -0.088023
  26 C :    0.069085
  27 C :   -0.033884
  28 C :   -0.061009
  29 C :   -0.036161
  30 C :   -0.061825
  31 C :   -0.046248
  32 C :   -0.000011
  33 C :   -0.011471
  34 C :   -0.013464
  35 C :   -0.029111
  36 C :   -0.019427
  37 C :   -0.062628
  38 C :   -0.017003
  39 C :   -0.064374
  40 C :   -0.009187
  41 C :   -0.000333
  42 C :   -0.045749
  43 C :    0.071151
  44 C :   -0.080851
  45 C :   -0.010985
  46 C :   -0.133822
  47 C :   -0.068298
  48 C :    0.068127
  49 C :   -0.034077
  50 C :   -0.061051
  51 C :   -0.036647
  52 C :   -0.060168
  53 O :   -0.090768
  54 C :   -0.008712
  55 C :   -0.186441
  56 S :    0.483786
  57 C :    0.054557
  58 C :   -0.113421
  59 C :    0.071241
  60 C :   -0.143072
  61 C :   -0.015471
  62 N :   -0.054640
  63 C :   -0.037049
  64 N :   -0.050382
  65 C :   -0.010938
  66 C :   -0.025772
  67 C :    0.070580
  68 F :   -0.037631
  69 C :    0.065500
  70 F :   -0.038807
  71 C :   -0.010430
  72 C :   -0.048255
  73 C :    0.089266
  74 O :   -0.146689
  75 H :    0.054263
  76 H :    0.053469
  77 H :    0.046498
  78 H :    0.038047
  79 H :    0.029598
  80 H :    0.029983
  81 H :    0.026139
  82 H :    0.028559
  83 H :    0.026115
  84 H :    0.030296
  85 H :    0.028434
  86 H :    0.024176
  87 H :    0.030302
  88 H :    0.027623
  89 H :    0.036016
  90 H :    0.026878
  91 H :    0.023801
  92 H :    0.021847
  93 H :    0.025778
  94 H :    0.028982
  95 H :    0.026494
  96 H :    0.022767
  97 H :    0.027444
  98 H :    0.023710
  99 H :    0.032376
 100 H :    0.024083
 101 H :    0.036216
 102 H :    0.029839
 103 H :    0.026298
 104 H :    0.032285
 105 H :    0.023024
 106 H :    0.029325
 107 H :    0.029482
 108 H :    0.029575
 109 H :    0.030426
 110 H :    0.023852
 111 H :    0.031421
 112 H :    0.027854
 113 H :    0.039155
 114 H :    0.054187
 115 H :    0.053284
 116 H :    0.055422

  Mayer bond orders larger than 0.100000
B(  0-C ,  1-O ) :   2.1518 B(  0-C ,  2-C ) :   0.9670 B(  0-C , 16-C ) :   0.9585
B(  2-C ,  3-C ) :   1.3203 B(  2-C ,  9-C ) :   1.3519 B(  3-C ,  4-C ) :   1.3252
B(  3-C ,  8-C ) :   0.1028 B(  3-C , 75-H ) :   1.0112 B(  4-C ,  5-F ) :   1.1385
B(  4-C ,  6-C ) :   1.2775 B(  6-C ,  7-F ) :   1.1486 B(  6-C ,  8-C ) :   1.3518
B(  8-C ,  9-C ) :   1.3078 B(  8-C , 76-H ) :   0.9855 B(  9-C , 10-C ) :   1.0098
B( 10-C , 11-C ) :   1.6540 B( 10-C , 16-C ) :   1.0736 B( 11-C , 12-C ) :   1.1225
B( 11-C , 14-C ) :   1.1201 B( 12-C , 13-N ) :   2.9892 B( 14-C , 15-N ) :   2.9749
B( 16-C , 17-C ) :   1.5794 B( 17-C , 18-C ) :   1.2152 B( 17-C , 77-H ) :   0.9294
B( 18-C , 19-C ) :   1.4164 B( 18-C , 22-S ) :   1.0805 B( 19-C , 20-C ) :   1.3216
B( 19-C , 78-H ) :   0.9785 B( 20-C , 21-C ) :   1.4792 B( 20-C , 26-C ) :   0.9361
B( 21-C , 22-S ) :   1.1640 B( 21-C , 23-C ) :   1.0887 B( 23-C , 24-C ) :   1.2793
B( 23-C , 34-C ) :   1.2645 B( 24-C , 25-O ) :   1.1478 B( 24-C , 31-C ) :   1.3585
B( 25-O , 26-C ) :   0.8908 B( 26-C , 27-C ) :   1.0407 B( 26-C , 29-C ) :   1.0413
B( 27-C , 28-C ) :   1.1058 B( 27-C , 79-H ) :   0.9296 B( 27-C , 80-H ) :   0.9320
B( 28-C , 81-H ) :   0.9621 B( 28-C , 82-H ) :   0.9643 B( 28-C , 83-H ) :   0.9637
B( 29-C , 30-C ) :   1.1018 B( 29-C , 84-H ) :   0.9319 B( 29-C , 85-H ) :   0.9280
B( 30-C , 86-H ) :   0.9653 B( 30-C , 87-H ) :   0.9634 B( 30-C , 88-H ) :   0.9663
B( 31-C , 32-C ) :   1.2951 B( 31-C , 89-H ) :   1.0012 B( 32-C , 33-C ) :   1.3547
B( 32-C , 41-C ) :   1.0142 B( 33-C , 34-C ) :   1.4194 B( 33-C , 35-C ) :   0.9173
B( 34-C , 90-H ) :   0.9924 B( 35-C , 36-C ) :   1.0191 B( 35-C , 38-C ) :   1.0194
B( 35-C , 40-C ) :   0.9248 B( 36-C , 37-C ) :   1.1002 B( 36-C , 91-H ) :   0.9434
B( 36-C , 92-H ) :   0.9395 B( 37-C , 93-H ) :   0.9665 B( 37-C , 94-H ) :   0.9654
B( 37-C , 95-H ) :   0.9651 B( 38-C , 39-C ) :   1.1110 B( 38-C , 96-H ) :   0.9389
B( 38-C , 97-H ) :   0.9425 B( 39-C , 98-H ) :   0.9639 B( 39-C , 99-H ) :   0.9604
B( 39-C ,100-H ) :   0.9627 B( 40-C , 41-C ) :   1.3548 B( 40-C , 45-C ) :   1.4119
B( 41-C , 42-C ) :   1.2917 B( 42-C , 43-C ) :   1.3633 B( 42-C ,101-H ) :   1.0007
B( 43-C , 44-C ) :   1.2820 B( 43-C , 53-O ) :   1.1434 B( 44-C , 45-C ) :   1.2735
B( 44-C , 46-C ) :   1.0854 B( 45-C ,102-H ) :   0.9954 B( 46-C , 47-C ) :   1.4651
B( 46-C , 56-S ) :   1.1836 B( 47-C , 48-C ) :   0.9385 B( 47-C , 54-C ) :   1.3263
B( 48-C , 49-C ) :   1.0320 B( 48-C , 51-C ) :   1.0389 B( 48-C , 53-O ) :   0.9041
B( 49-C , 50-C ) :   1.1059 B( 49-C ,103-H ) :   0.9319 B( 49-C ,104-H ) :   0.9342
B( 50-C ,105-H ) :   0.9638 B( 50-C ,106-H ) :   0.9655 B( 50-C ,107-H ) :   0.9648
B( 51-C , 52-C ) :   1.1004 B( 51-C ,108-H ) :   0.9304 B( 51-C ,109-H ) :   0.9292
B( 52-C ,110-H ) :   0.9658 B( 52-C ,111-H ) :   0.9634 B( 52-C ,112-H ) :   0.9674
B( 54-C , 55-C ) :   1.3709 B( 54-C ,113-H ) :   1.0008 B( 55-C , 56-S ) :   1.0842
B( 55-C , 57-C ) :   1.2270 B( 57-C , 58-C ) :   1.5937 B( 57-C ,114-H ) :   0.9232
B( 58-C , 59-C ) :   1.0493 B( 58-C , 73-C ) :   0.9559 B( 59-C , 60-C ) :   1.6449
B( 59-C , 65-C ) :   1.0235 B( 60-C , 61-C ) :   1.1092 B( 60-C , 63-C ) :   1.1483
B( 61-C , 62-N ) :   2.9847 B( 63-C , 64-N ) :   3.0136 B( 65-C , 66-C ) :   1.3149
B( 65-C , 72-C ) :   1.3503 B( 66-C , 67-C ) :   1.3488 B( 66-C , 71-C ) :   0.1026
B( 66-C ,115-H ) :   0.9866 B( 67-C , 68-F ) :   1.1454 B( 67-C , 69-C ) :   1.2785
B( 69-C , 70-F ) :   1.1367 B( 69-C , 71-C ) :   1.3298 B( 71-C , 72-C ) :   1.3263
B( 71-C ,116-H ) :   1.0100 B( 72-C , 73-C ) :   0.9416 B( 73-C , 74-O ) :   2.2276

-----------------------------------------------------------------------------
         ABSORPTION SPECTRUM VIA TRANSITION ELECTRIC DIPOLE MOMENTS
-----------------------------------------------------------------------------
State   Energy  Wavelength   fosc         T2         TX        TY        TZ
        (cm-1)    (nm)                  (au**2)     (au)      (au)      (au)
-----------------------------------------------------------------------------
   0   18624.2    536.9   1.943186638  34.34881  -3.12153  -3.75448   3.24172
   1   20944.7    477.4   0.360791034   5.67097  -2.29472   0.23918  -0.58993
   2   24956.7    400.7   0.125182011   1.65132   0.72387   0.68054  -0.81498
   3   26197.2    381.7   0.126276123   1.58687  -0.53853  -0.49144   1.02730
   4   27009.2    370.2   0.044151003   0.53815   0.63933  -0.34310   0.10811
   5   28864.8    346.4   0.055837467   0.63684  -0.18985  -0.77289  -0.05862
   6   29137.8    343.2   0.042627774   0.48163   0.60526  -0.33511   0.05469
   7   29390.0    340.3   0.028305238   0.31706   0.00558  -0.34971   0.44129
   8   30678.6    326.0   0.328713027   3.52742  -1.13014  -1.42720   0.46186
   9   31382.3    318.7   0.159177470   1.66983  -0.42684  -1.06140   0.60088
  10   31669.2    315.8   0.127969519   1.33028   0.73206  -0.88822   0.07375
  11   32298.9    309.6   0.070294948   0.71649  -0.63668   0.31785   0.45837
  12   32797.9    304.9   0.056046429   0.56257   0.28724   0.68477  -0.10562
  13   32902.9    303.9   0.051059871   0.51088   0.11031   0.02802   0.70564
  14   32986.5    303.2   0.096327062   0.96136  -0.79317  -0.47455   0.32718
  15   34200.6    292.4   0.027903767   0.26860   0.17136   0.35994  -0.33118
  16   34394.8    290.7   0.005623431   0.05382   0.00092   0.00121   0.23200
  17   34751.9    287.8   0.110518179   1.04696  -0.86227   0.30879   0.45618
  18   35252.1    283.7   0.057060727   0.53288  -0.67641   0.22324  -0.15972
  19   35460.9    282.0   0.092402729   0.85785   0.33093   0.60403  -0.61926
  20   35823.3    279.1   0.091704374   0.84275   0.18453   0.86236  -0.25500
  21   36154.3    276.6   0.199157913   1.81348  -0.39375   1.08240  -0.69774
  22   36212.6    276.1   0.010830776   0.09846  -0.28713  -0.04258  -0.11918
  23   36386.6    274.8   0.337859822   3.05683  -1.73976  -0.17316  -0.00787
  24   36896.2    271.0   0.439939589   3.92543  -0.26877   1.96275   0.02850
  25   37653.2    265.6   0.146598944   1.28175  -0.94706   0.61428  -0.08654
  26   37773.6    264.7   0.246622572   2.14942  -1.29008  -0.68743   0.11198
  27   37921.1    263.7   0.068718173   0.59658  -0.61007   0.21406  -0.42258
  28   38587.0    259.2   0.082664450   0.70527   0.50447   0.63042   0.23097
  29   39219.2    255.0   0.093807619   0.78744  -0.85462  -0.03163  -0.23677
  30   40034.2    249.8   0.025725579   0.21155   0.44089  -0.12384  -0.04278
  31   40262.9    248.4   0.003416415   0.02793  -0.15650  -0.00462  -0.05849

FINAL SINGLE POINT ENERGY     -4061.110705432547

DIPOLE MOMENT
-------------
                                X             Y             Z
Electronic contribution:    -49.96700      21.18558     -22.57229
Nuclear contribution   :     53.36417     -21.99009      23.88847
                        -----------------------------------------
Total Dipole Moment    :      3.39717      -0.80451       1.31618
                        -----------------------------------------
Magnitude (a.u.)       :      3.73099
Magnitude (Debye)      :      9.48343

Rotational constants in cm-1:     0.001861     0.000237     0.000226
Rotational constants in MHz :    55.780428     7.096787     6.762904

                             ****ORCA TERMINATED NORMALLY****
TOTAL RUN TIME: 0 days 1 hours 12 minutes 57 seconds 352 msec
