                         Program Version 4.2.0 -  RELEASE  -
|  1> # ORCA input file
|  2> # FO-2F.out
|  3> ! CAM-B3LYP def2-SVP def2/J RIJCOSX Grid4 TightSCF
|  4> %maxcore 5000
|  5> %tddft
|  6>     Mode sTDDFT
|  7>     Ethresh 5.0
|  8>     maxcore 5000
|  9> end
| 10> * xyz 0 1
| 11>    C        4.49030        -3.25906         2.00713
| 12>    O        5.64130        -3.42251         2.35873
| 13>    C        3.33413        -4.03274         2.51163
| 14>    C        3.34172        -5.07238         3.42027
| 15>    C        2.12625        -5.65582         3.73784
| 16>    F        2.08396        -6.66864         4.61238
| 17>    C        0.94535        -5.19808         3.15249
| 18>    F       -0.21473        -5.78220         3.47383
| 19>    C        0.93955        -4.15178         2.24212
| 20>    C        2.15254        -3.56241         1.91944
| 21>    C        2.48934        -2.46203         1.01559
| 22>    C        1.56867        -1.71606         0.32653
| 23>    C        1.83448        -0.61558        -0.51694
| 24>    N        1.94061         0.29370        -1.21115
| 25>    C        0.17476        -1.93462         0.38247
| 26>    N       -0.96670        -2.05283         0.37673
| 27>    C        3.93406        -2.30348         1.03012
| 28>    C        4.60340        -1.43085         0.20571
| 29>    C        5.96640        -1.13145         0.06766
| 30>    C        7.10737        -1.55620         0.73915
| 31>    C        8.27510        -0.98830         0.25250
| 32>    C        8.05610        -0.10279        -0.79535
| 33>    S        6.38981         0.02075        -1.19446
| 34>    C        9.13276         0.56786        -1.44748
| 35>    C       10.43249         0.14484        -1.08748
| 36>    O       10.66596        -0.81146        -0.16949
| 37>    C        9.66564        -1.16405         0.79888
| 38>    C        9.95277        -2.62494         1.17512
| 39>    C        9.68143        -3.58405         0.02167
| 40>    C        9.80011        -0.21111         2.01275
| 41>    C       11.17710        -0.23930         2.66372
| 42>    C       11.53368         0.66894        -1.75616
| 43>    C       11.33159         1.63528        -2.72516
| 44>    C       10.04015         2.10942        -3.03857
| 45>    C        8.94704         1.55419        -2.42444
| 46>    C       10.10753         3.18915        -4.09322
| 47>    C        9.24364         2.86237        -5.32081
| 48>    C        9.65135         1.55409        -5.98846
| 49>    C        9.76367         4.58089        -3.50959
| 50>    C        8.36065         4.73008        -2.93689
| 51>    C       11.58499         3.19271        -4.41917
| 52>    C       12.28577         2.29885        -3.58589
| 53>    C       13.65589         2.13567        -3.69282
| 54>    C       14.34768         2.87394        -4.64640
| 55>    C       13.65123         3.79822        -5.45820
| 56>    C       12.26449         3.94685        -5.34038
| 57>    C       14.45392         4.56617        -6.35207
| 58>    C       15.80124         4.30647        -6.53776
| 59>    C       16.42343         3.11025        -5.87022
| 60>    C       17.84342         3.40705        -5.36568
| 61>    C       17.89045         4.63208        -4.45920
| 62>    C       16.39449         1.95005        -6.89536
| 63>    C       16.96159         0.64336        -6.35475
| 64>    O       15.68354         2.71023        -4.70588
| 65>    C       16.40033         5.19472        -7.42323
| 66>    C       15.52166         6.13259        -7.94873
| 67>    S       13.92073         5.91912        -7.27476
| 68>    C       15.87209         7.18740        -8.81290
| 69>    C       15.07388         8.02693        -9.53597
| 70>    C       13.68513         7.94925        -9.92579
| 71>    C       12.98788         6.80407       -10.21005
| 72>    C       11.65036         6.78613       -10.65246
| 73>    N       10.55427         6.72077       -10.98651
| 74>    C       13.57455         5.52138       -10.17921
| 75>    N       14.03808         4.47196       -10.21900
| 76>    C       13.25697         9.30511       -10.26944
| 77>    C       12.00270         9.82085       -10.55037
| 78>    C       11.91522        11.16241       -10.89163
| 79>    F       10.71344        11.68829       -11.15298
| 80>    C       13.04777        11.97444       -10.96467
| 81>    F       12.91645        13.26187       -11.30632
| 82>    C       14.30550        11.46416       -10.68435
| 83>    C       14.39303        10.13163       -10.33306
| 84>    C       15.59579         9.34951        -9.95863
| 85>    O       16.74599         9.72117        -9.94657
| 86>    H        4.25854        -5.42131         3.86809
| 87>    H       -0.00098        -3.83960         1.81935
| 88>    H        3.98153        -0.87316        -0.48410
| 89>    H        7.05938        -2.25758         1.55060
| 90>    H        9.34570        -2.89397         2.03918
| 91>    H       11.00464        -2.69328         1.45125
| 92>    H        8.62508        -3.59805        -0.23647
| 93>    H        9.97816        -4.59149         0.30099
| 94>    H       10.25118        -3.28657        -0.85575
| 95>    H        9.03122        -0.47432         2.74080
| 96>    H        9.59341         0.80298         1.65726
| 97>    H       11.34951        -1.18169         3.17569
| 98>    H       11.25448         0.56368         3.39274
| 99>    H       11.95090        -0.10093         1.91259
|100>    H       12.51892         0.30779        -1.50950
|101>    H        7.93693         1.83809        -2.67840
|102>    H        9.33032         3.67957        -6.03950
|103>    H        8.19982         2.79347        -5.01348
|104>    H       10.68087         1.60181        -6.33622
|105>    H        9.00955         1.35648        -6.84343
|106>    H        9.56298         0.72322        -5.29168
|107>    H        9.90500         5.31588        -4.30478
|108>    H       10.48969         4.80257        -2.72264
|109>    H        7.60142         4.50671        -3.68115
|110>    H        8.21562         5.75658        -2.60729
|111>    H        8.21862         4.07826        -2.07931
|112>    H       14.19899         1.44996        -3.06294
|113>    H       11.76255         4.65076        -5.98807
|114>    H       18.50425         3.54078        -6.22217
|115>    H       18.17980         2.53827        -4.80082
|116>    H       17.61332         5.53433        -4.99997
|117>    H       18.89404         4.76328        -4.06314
|118>    H       17.20414         4.50415        -3.62551
|119>    H       16.94226         2.26283        -7.78553
|120>    H       15.35098         1.79653        -7.18465
|121>    H       18.03890         0.70418        -6.22763
|122>    H       16.74586        -0.16448        -7.04932
|123>    H       16.50801         0.40537        -5.39580
|124>    H       17.43433         5.16136        -7.71541
|125>    H       16.93053         7.43029        -8.83917
|126>    H       11.10198         9.23044       -10.50418
|127>    H       15.18109        12.09091       -10.74199
|128> *
|129>
|130>                          ****END OF INPUT****

CARTESIAN COORDINATES (ANGSTROEM)
---------------------------------
  C      4.490300   -3.259060    2.007130
  O      5.641300   -3.422510    2.358730
  C      3.334130   -4.032740    2.511630
  C      3.341720   -5.072380    3.420270
  C      2.126250   -5.655820    3.737840
  F      2.083960   -6.668640    4.612380
  C      0.945350   -5.198080    3.152490
  F     -0.214730   -5.782200    3.473830
  C      0.939550   -4.151780    2.242120
  C      2.152540   -3.562410    1.919440
  C      2.489340   -2.462030    1.015590
  C      1.568670   -1.716060    0.326530
  C      1.834480   -0.615580   -0.516940
  N      1.940610    0.293700   -1.211150
  C      0.174760   -1.934620    0.382470
  N     -0.966700   -2.052830    0.376730
  C      3.934060   -2.303480    1.030120
  C      4.603400   -1.430850    0.205710
  C      5.966400   -1.131450    0.067660
  C      7.107370   -1.556200    0.739150
  C      8.275100   -0.988300    0.252500
  C      8.056100   -0.102790   -0.795350
  S      6.389810    0.020750   -1.194460
  C      9.132760    0.567860   -1.447480
  C     10.432490    0.144840   -1.087480
  O     10.665960   -0.811460   -0.169490
  C      9.665640   -1.164050    0.798880
  C      9.952770   -2.624940    1.175120
  C      9.681430   -3.584050    0.021670
  C      9.800110   -0.211110    2.012750
  C     11.177100   -0.239300    2.663720
  C     11.533680    0.668940   -1.756160
  C     11.331590    1.635280   -2.725160
  C     10.040150    2.109420   -3.038570
  C      8.947040    1.554190   -2.424440
  C     10.107530    3.189150   -4.093220
  C      9.243640    2.862370   -5.320810
  C      9.651350    1.554090   -5.988460
  C      9.763670    4.580890   -3.509590
  C      8.360650    4.730080   -2.936890
  C     11.584990    3.192710   -4.419170
  C     12.285770    2.298850   -3.585890
  C     13.655890    2.135670   -3.692820
  C     14.347680    2.873940   -4.646400
  C     13.651230    3.798220   -5.458200
  C     12.264490    3.946850   -5.340380
  C     14.453920    4.566170   -6.352070
  C     15.801240    4.306470   -6.537760
  C     16.423430    3.110250   -5.870220
  C     17.843420    3.407050   -5.365680
  C     17.890450    4.632080   -4.459200
  C     16.394490    1.950050   -6.895360
  C     16.961590    0.643360   -6.354750
  O     15.683540    2.710230   -4.705880
  C     16.400330    5.194720   -7.423230
  C     15.521660    6.132590   -7.948730
  S     13.920730    5.919120   -7.274760
  C     15.872090    7.187400   -8.812900
  C     15.073880    8.026930   -9.535970
  C     13.685130    7.949250   -9.925790
  C     12.987880    6.804070  -10.210050
  C     11.650360    6.786130  -10.652460
  N     10.554270    6.720770  -10.986510
  C     13.574550    5.521380  -10.179210
  N     14.038080    4.471960  -10.219000
  C     13.256970    9.305110  -10.269440
  C     12.002700    9.820850  -10.550370
  C     11.915220   11.162410  -10.891630
  F     10.713440   11.688290  -11.152980
  C     13.047770   11.974440  -10.964670
  F     12.916450   13.261870  -11.306320
  C     14.305500   11.464160  -10.684350
  C     14.393030   10.131630  -10.333060
  C     15.595790    9.349510   -9.958630
  O     16.745990    9.721170   -9.946570
  H      4.258540   -5.421310    3.868090
  H     -0.000980   -3.839600    1.819350
  H      3.981530   -0.873160   -0.484100
  H      7.059380   -2.257580    1.550600
  H      9.345700   -2.893970    2.039180
  H     11.004640   -2.693280    1.451250
  H      8.625080   -3.598050   -0.236470
  H      9.978160   -4.591490    0.300990
  H     10.251180   -3.286570   -0.855750
  H      9.031220   -0.474320    2.740800
  H      9.593410    0.802980    1.657260
  H     11.349510   -1.181690    3.175690
  H     11.254480    0.563680    3.392740
  H     11.950900   -0.100930    1.912590
  H     12.518920    0.307790   -1.509500
  H      7.936930    1.838090   -2.678400
  H      9.330320    3.679570   -6.039500
  H      8.199820    2.793470   -5.013480
  H     10.680870    1.601810   -6.336220
  H      9.009550    1.356480   -6.843430
  H      9.562980    0.723220   -5.291680
  H      9.905000    5.315880   -4.304780
  H     10.489690    4.802570   -2.722640
  H      7.601420    4.506710   -3.681150
  H      8.215620    5.756580   -2.607290
  H      8.218620    4.078260   -2.079310
  H     14.198990    1.449960   -3.062940
  H     11.762550    4.650760   -5.988070
  H     18.504250    3.540780   -6.222170
  H     18.179800    2.538270   -4.800820
  H     17.613320    5.534330   -4.999970
  H     18.894040    4.763280   -4.063140
  H     17.204140    4.504150   -3.625510
  H     16.942260    2.262830   -7.785530
  H     15.350980    1.796530   -7.184650
  H     18.038900    0.704180   -6.227630
  H     16.745860   -0.164480   -7.049320
  H     16.508010    0.405370   -5.395800
  H     17.434330    5.161360   -7.715410
  H     16.930530    7.430290   -8.839170
  H     11.101980    9.230440  -10.504180
  H     15.181090   12.090910  -10.741990

 Total Charge           Charge          ....    0
 Multiplicity           Mult            ....    1
 Number of Electrons    NEL             ....  536
 Basis Dimension        Dim             .... 1268

ORBITAL ENERGIES
----------------

  NO   OCC          E(Eh)            E(eV)
   0   2.0000     -88.976218     -2421.1660
   1   2.0000     -88.975410     -2421.1440
   2   2.0000     -24.802649      -674.9144
   3   2.0000     -24.802612      -674.9134
   4   2.0000     -24.802381      -674.9071
   5   2.0000     -24.800824      -674.8647
   6   2.0000     -19.259384      -524.0745
   7   2.0000     -19.258597      -524.0531
   8   2.0000     -19.225426      -523.1504
   9   2.0000     -19.219850      -522.9987
  10   2.0000     -14.420229      -392.3944
  11   2.0000     -14.420173      -392.3928
  12   2.0000     -14.416782      -392.3006
  13   2.0000     -14.416367      -392.2893
  14   2.0000     -10.388572      -282.6874
  15   2.0000     -10.387692      -282.6635
  16   2.0000     -10.387515      -282.6586
  17   2.0000     -10.386868      -282.6410
  18   2.0000     -10.376741      -282.3655
  19   2.0000     -10.372207      -282.2421
  20   2.0000     -10.351089      -281.6675
  21   2.0000     -10.349729      -281.6304
  22   2.0000     -10.348217      -281.5893
  23   2.0000     -10.348129      -281.5869
  24   2.0000     -10.347328      -281.5651
  25   2.0000     -10.347208      -281.5618
  26   2.0000     -10.346399      -281.5398
  27   2.0000     -10.345497      -281.5153
  28   2.0000     -10.327511      -281.0259
  29   2.0000     -10.327415      -281.0233
  30   2.0000     -10.326182      -280.9897
  31   2.0000     -10.325491      -280.9709
  32   2.0000     -10.323014      -280.9035
  33   2.0000     -10.322488      -280.8892
  34   2.0000     -10.320947      -280.8472
  35   2.0000     -10.319572      -280.8098
  36   2.0000     -10.319464      -280.8069
  37   2.0000     -10.319430      -280.8060
  38   2.0000     -10.318980      -280.7937
  39   2.0000     -10.317447      -280.7520
  40   2.0000     -10.311013      -280.5769
  41   2.0000     -10.310898      -280.5738
  42   2.0000     -10.310147      -280.5534
  43   2.0000     -10.309138      -280.5259
  44   2.0000     -10.304881      -280.4101
  45   2.0000     -10.304653      -280.4039
  46   2.0000     -10.303149      -280.3629
  47   2.0000     -10.301748      -280.3248
  48   2.0000     -10.298826      -280.2453
  49   2.0000     -10.297407      -280.2067
  50   2.0000     -10.297330      -280.2046
  51   2.0000     -10.293479      -280.0998
  52   2.0000     -10.293256      -280.0937
  53   2.0000     -10.291862      -280.0558
  54   2.0000     -10.289984      -280.0047
  55   2.0000     -10.289682      -279.9965
  56   2.0000     -10.289035      -279.9789
  57   2.0000     -10.288417      -279.9621
  58   2.0000     -10.287680      -279.9420
  59   2.0000     -10.280692      -279.7519
  60   2.0000     -10.280556      -279.7481
  61   2.0000     -10.278969      -279.7050
  62   2.0000     -10.277804      -279.6733
  63   2.0000     -10.274558      -279.5849
  64   2.0000     -10.272191      -279.5205
  65   2.0000     -10.271039      -279.4892
  66   2.0000     -10.270337      -279.4701
  67   2.0000     -10.270305      -279.4692
  68   2.0000     -10.268358      -279.4162
  69   2.0000     -10.259099      -279.1643
  70   2.0000     -10.258288      -279.1422
  71   2.0000     -10.257317      -279.1158
  72   2.0000     -10.257069      -279.1090
  73   2.0000     -10.255232      -279.0591
  74   2.0000     -10.251310      -278.9523
  75   2.0000      -8.071071      -219.6250
  76   2.0000      -8.070711      -219.6152
  77   2.0000      -6.040354      -164.3664
  78   2.0000      -6.039797      -164.3512
  79   2.0000      -6.036331      -164.2569
  80   2.0000      -6.035933      -164.2461
  81   2.0000      -6.033128      -164.1698
  82   2.0000      -6.032959      -164.1652
  83   2.0000      -1.326285       -36.0901
  84   2.0000      -1.325318       -36.0637
  85   2.0000      -1.311038       -35.6752
  86   2.0000      -1.310079       -35.6491
  87   2.0000      -1.169591       -31.8262
  88   2.0000      -1.168829       -31.8054
  89   2.0000      -1.140092       -31.0235
  90   2.0000      -1.135523       -30.8992
  91   2.0000      -1.025563       -27.9070
  92   2.0000      -1.024040       -27.8656
  93   2.0000      -1.009266       -27.4635
  94   2.0000      -1.008016       -27.4295
  95   2.0000      -1.005387       -27.3580
  96   2.0000      -1.004979       -27.3469
  97   2.0000      -0.998825       -27.1794
  98   2.0000      -0.996549       -27.1175
  99   2.0000      -0.995926       -27.1005
 100   2.0000      -0.962044       -26.1786
 101   2.0000      -0.960258       -26.1300
 102   2.0000      -0.958588       -26.0845
 103   2.0000      -0.936074       -25.4719
 104   2.0000      -0.922815       -25.1111
 105   2.0000      -0.921030       -25.0625
 106   2.0000      -0.906844       -24.6765
 107   2.0000      -0.905037       -24.6273
 108   2.0000      -0.901470       -24.5302
 109   2.0000      -0.894168       -24.3316
 110   2.0000      -0.880200       -23.9515
 111   2.0000      -0.877040       -23.8655
 112   2.0000      -0.875762       -23.8307
 113   2.0000      -0.863394       -23.4941
 114   2.0000      -0.852729       -23.2039
 115   2.0000      -0.851069       -23.1588
 116   2.0000      -0.847874       -23.0718
 117   2.0000      -0.847049       -23.0494
 118   2.0000      -0.842518       -22.9261
 119   2.0000      -0.839594       -22.8465
 120   2.0000      -0.836536       -22.7633
 121   2.0000      -0.832188       -22.6450
 122   2.0000      -0.813120       -22.1261
 123   2.0000      -0.798062       -21.7164
 124   2.0000      -0.788648       -21.4602
 125   2.0000      -0.782549       -21.2942
 126   2.0000      -0.776458       -21.1285
 127   2.0000      -0.774839       -21.0844
 128   2.0000      -0.759647       -20.6711
 129   2.0000      -0.756009       -20.5721
 130   2.0000      -0.748933       -20.3795
 131   2.0000      -0.731753       -19.9120
 132   2.0000      -0.721941       -19.6450
 133   2.0000      -0.720716       -19.6117
 134   2.0000      -0.715693       -19.4750
 135   2.0000      -0.711631       -19.3645
 136   2.0000      -0.709752       -19.3133
 137   2.0000      -0.703827       -19.1521
 138   2.0000      -0.699861       -19.0442
 139   2.0000      -0.696201       -18.9446
 140   2.0000      -0.693297       -18.8656
 141   2.0000      -0.689574       -18.7643
 142   2.0000      -0.688376       -18.7317
 143   2.0000      -0.682899       -18.5826
 144   2.0000      -0.672420       -18.2975
 145   2.0000      -0.666840       -18.1456
 146   2.0000      -0.663456       -18.0536
 147   2.0000      -0.657511       -17.8918
 148   2.0000      -0.649931       -17.6855
 149   2.0000      -0.646396       -17.5893
 150   2.0000      -0.646233       -17.5849
 151   2.0000      -0.644509       -17.5380
 152   2.0000      -0.641833       -17.4652
 153   2.0000      -0.634802       -17.2738
 154   2.0000      -0.619450       -16.8561
 155   2.0000      -0.615817       -16.7572
 156   2.0000      -0.612591       -16.6694
 157   2.0000      -0.606969       -16.5165
 158   2.0000      -0.602566       -16.3967
 159   2.0000      -0.598320       -16.2811
 160   2.0000      -0.594400       -16.1744
 161   2.0000      -0.591134       -16.0856
 162   2.0000      -0.590487       -16.0680
 163   2.0000      -0.586149       -15.9499
 164   2.0000      -0.582861       -15.8605
 165   2.0000      -0.570814       -15.5326
 166   2.0000      -0.570159       -15.5148
 167   2.0000      -0.567716       -15.4483
 168   2.0000      -0.565482       -15.3875
 169   2.0000      -0.559281       -15.2188
 170   2.0000      -0.554435       -15.0869
 171   2.0000      -0.553798       -15.0696
 172   2.0000      -0.551190       -14.9987
 173   2.0000      -0.551100       -14.9962
 174   2.0000      -0.550316       -14.9749
 175   2.0000      -0.547213       -14.8904
 176   2.0000      -0.545551       -14.8452
 177   2.0000      -0.542295       -14.7566
 178   2.0000      -0.541771       -14.7423
 179   2.0000      -0.541036       -14.7223
 180   2.0000      -0.538099       -14.6424
 181   2.0000      -0.536294       -14.5933
 182   2.0000      -0.535765       -14.5789
 183   2.0000      -0.530796       -14.4437
 184   2.0000      -0.530084       -14.4243
 185   2.0000      -0.528604       -14.3841
 186   2.0000      -0.527024       -14.3410
 187   2.0000      -0.525639       -14.3034
 188   2.0000      -0.523329       -14.2405
 189   2.0000      -0.521483       -14.1903
 190   2.0000      -0.518159       -14.0998
 191   2.0000      -0.515242       -14.0205
 192   2.0000      -0.513616       -13.9762
 193   2.0000      -0.510633       -13.8950
 194   2.0000      -0.506894       -13.7933
 195   2.0000      -0.504455       -13.7269
 196   2.0000      -0.500236       -13.6121
 197   2.0000      -0.499966       -13.6048
 198   2.0000      -0.498887       -13.5754
 199   2.0000      -0.497840       -13.5469
 200   2.0000      -0.497187       -13.5292
 201   2.0000      -0.496034       -13.4978
 202   2.0000      -0.495318       -13.4783
 203   2.0000      -0.489014       -13.3068
 204   2.0000      -0.487841       -13.2748
 205   2.0000      -0.486371       -13.2348
 206   2.0000      -0.483998       -13.1703
 207   2.0000      -0.478763       -13.0278
 208   2.0000      -0.476616       -12.9694
 209   2.0000      -0.467326       -12.7166
 210   2.0000      -0.465884       -12.6774
 211   2.0000      -0.461544       -12.5593
 212   2.0000      -0.460632       -12.5344
 213   2.0000      -0.459160       -12.4944
 214   2.0000      -0.456948       -12.4342
 215   2.0000      -0.455863       -12.4047
 216   2.0000      -0.454632       -12.3712
 217   2.0000      -0.454044       -12.3552
 218   2.0000      -0.452828       -12.3221
 219   2.0000      -0.452289       -12.3074
 220   2.0000      -0.451427       -12.2840
 221   2.0000      -0.450978       -12.2717
 222   2.0000      -0.447979       -12.1901
 223   2.0000      -0.446983       -12.1630
 224   2.0000      -0.446265       -12.1435
 225   2.0000      -0.445580       -12.1249
 226   2.0000      -0.440712       -11.9924
 227   2.0000      -0.440161       -11.9774
 228   2.0000      -0.438457       -11.9310
 229   2.0000      -0.437274       -11.8988
 230   2.0000      -0.434267       -11.8170
 231   2.0000      -0.432065       -11.7571
 232   2.0000      -0.430559       -11.7161
 233   2.0000      -0.429608       -11.6902
 234   2.0000      -0.428469       -11.6592
 235   2.0000      -0.426953       -11.6180
 236   2.0000      -0.426308       -11.6004
 237   2.0000      -0.424524       -11.5519
 238   2.0000      -0.422846       -11.5062
 239   2.0000      -0.421358       -11.4657
 240   2.0000      -0.419721       -11.4212
 241   2.0000      -0.415989       -11.3196
 242   2.0000      -0.413246       -11.2450
 243   2.0000      -0.411303       -11.1921
 244   2.0000      -0.409859       -11.1528
 245   2.0000      -0.406862       -11.0713
 246   2.0000      -0.401247       -10.9185
 247   2.0000      -0.396667       -10.7939
 248   2.0000      -0.395178       -10.7533
 249   2.0000      -0.392904       -10.6915
 250   2.0000      -0.391161       -10.6440
 251   2.0000      -0.389604       -10.6017
 252   2.0000      -0.386663       -10.5216
 253   2.0000      -0.374780       -10.1983
 254   2.0000      -0.356925        -9.7124
 255   2.0000      -0.352468        -9.5911
 256   2.0000      -0.348992        -9.4966
 257   2.0000      -0.346903        -9.4397
 258   2.0000      -0.342246        -9.3130
 259   2.0000      -0.336558        -9.1582
 260   2.0000      -0.335315        -9.1244
 261   2.0000      -0.325986        -8.8705
 262   2.0000      -0.318114        -8.6563
 263   2.0000      -0.315166        -8.5761
 264   2.0000      -0.306912        -8.3515
 265   2.0000      -0.304195        -8.2776
 266   2.0000      -0.273981        -7.4554
 267   2.0000      -0.252041        -6.8584
 268   0.0000      -0.101344        -2.7577
 269   0.0000      -0.092649        -2.5211
 270   0.0000      -0.068331        -1.8594
 271   0.0000      -0.063696        -1.7333
 272   0.0000      -0.034846        -0.9482

MULLIKEN ATOMIC CHARGES
-----------------------
   0 C :    0.152790
   1 O :   -0.159072
   2 C :   -0.006686
   3 C :   -0.101890
   4 C :    0.234722
   5 F :   -0.169919
   6 C :    0.234226
   7 F :   -0.165051
   8 C :   -0.084208
   9 C :    0.041381
  10 C :    0.307985
  11 C :   -0.354841
  12 C :   -0.184456
  13 N :    0.151183
  14 C :   -0.193966
  15 N :    0.155755
  16 C :   -0.095464
  17 C :    0.060141
  18 C :   -0.103371
  19 C :   -0.034786
  20 C :    0.020766
  21 C :   -0.068535
  22 S :    0.152605
  23 C :    0.053925
  24 C :    0.185098
  25 O :   -0.293922
  26 C :   -0.006746
  27 C :    0.025883
  28 C :    0.032897
  29 C :    0.078174
  30 C :    0.041640
  31 C :   -0.119981
  32 C :    0.130561
  33 C :    0.019430
  34 C :   -0.130756
  35 C :   -0.125360
  36 C :    0.047730
  37 C :    0.023873
  38 C :    0.076794
  39 C :    0.028981
  40 C :    0.016129
  41 C :    0.127158
  42 C :   -0.113524
  43 C :    0.177204
  44 C :    0.060753
  45 C :   -0.124532
  46 C :   -0.071708
  47 C :    0.040978
  48 C :   -0.015808
  49 C :    0.026051
  50 C :    0.031787
  51 C :    0.084736
  52 C :    0.039731
  53 O :   -0.297784
  54 C :   -0.007176
  55 C :   -0.074947
  56 S :    0.151660
  57 C :    0.047721
  58 C :   -0.138763
  59 C :    0.245906
  60 C :   -0.324260
  61 C :   -0.178235
  62 N :    0.160050
  63 C :   -0.209073
  64 N :    0.171808
  65 C :    0.027837
  66 C :   -0.090165
  67 C :    0.236454
  68 F :   -0.165783
  69 C :    0.234869
  70 F :   -0.169063
  71 C :   -0.103410
  72 C :    0.010217
  73 C :    0.138649
  74 O :   -0.142066
  75 H :    0.007939
  76 H :    0.016178
  77 H :    0.001334
  78 H :    0.011985
  79 H :    0.015969
  80 H :    0.018286
  81 H :    0.017513
  82 H :    0.013201
  83 H :    0.016428
  84 H :    0.004377
  85 H :    0.001042
  86 H :    0.012880
  87 H :    0.015622
  88 H :    0.017018
  89 H :   -0.035381
  90 H :   -0.024365
  91 H :    0.004089
  92 H :    0.009893
  93 H :    0.021161
  94 H :    0.016352
  95 H :    0.017643
  96 H :   -0.001936
  97 H :    0.003529
  98 H :    0.008394
  99 H :    0.015724
 100 H :    0.018340
 101 H :   -0.036927
 102 H :   -0.028243
 103 H :    0.005075
 104 H :    0.021082
 105 H :    0.012672
 106 H :    0.013802
 107 H :    0.019991
 108 H :    0.003222
 109 H :    0.009172
 110 H :    0.012049
 111 H :    0.017980
 112 H :    0.016183
 113 H :   -0.006500
 114 H :    0.025506
 115 H :    0.017865
 116 H :    0.012922
Sum of atomic charges:   -0.0000000

LOEWDIN ATOMIC CHARGES
----------------------
   0 C :    0.088522
   1 O :   -0.147217
   2 C :   -0.044418
   3 C :   -0.006877
   4 C :    0.070509
   5 F :   -0.046217
   6 C :    0.073050
   7 F :   -0.043964
   8 C :   -0.017659
   9 C :   -0.015403
  10 C :    0.077108
  11 C :   -0.141565
  12 C :   -0.024177
  13 N :   -0.049499
  14 C :   -0.019751
  15 N :   -0.050313
  16 C :   -0.110562
  17 C :    0.050629
  18 C :   -0.181476
  19 C :    0.000615
  20 C :   -0.064319
  21 C :   -0.134419
  22 S :    0.462357
  23 C :   -0.082846
  24 C :    0.074145
  25 O :   -0.075996
  26 C :    0.061330
  27 C :   -0.029545
  28 C :   -0.055166
  29 C :   -0.031428
  30 C :   -0.057282
  31 C :   -0.042565
  32 C :    0.001987
  33 C :   -0.009728
  34 C :   -0.010263
  35 C :   -0.034379
  36 C :   -0.015833
  37 C :   -0.056374
  38 C :   -0.010716
  39 C :   -0.058971
  40 C :   -0.006137
  41 C :   -0.001968
  42 C :   -0.040838
  43 C :    0.072407
  44 C :   -0.077411
  45 C :   -0.010528
  46 C :   -0.130510
  47 C :   -0.062254
  48 C :    0.061289
  49 C :   -0.030325
  50 C :   -0.056067
  51 C :   -0.030332
  52 C :   -0.057837
  53 O :   -0.078099
  54 C :   -0.001341
  55 C :   -0.182855
  56 S :    0.475951
  57 C :    0.056515
  58 C :   -0.111073
  59 C :    0.061566
  60 C :   -0.143451
  61 C :   -0.022491
  62 N :   -0.048556
  63 C :   -0.036718
  64 N :   -0.048014
  65 C :   -0.011980
  66 C :   -0.021291
  67 C :    0.074222
  68 F :   -0.043557
  69 C :    0.069250
  70 F :   -0.045898
  71 C :   -0.005185
  72 C :   -0.046252
  73 C :    0.083163
  74 O :   -0.142313
  75 H :    0.050627
  76 H :    0.051536
  77 H :    0.042953
  78 H :    0.032160
  79 H :    0.028796
  80 H :    0.029796
  81 H :    0.023547
  82 H :    0.026763
  83 H :    0.025318
  84 H :    0.027925
  85 H :    0.025620
  86 H :    0.022363
  87 H :    0.027862
  88 H :    0.024721
  89 H :    0.032967
  90 H :    0.024631
  91 H :    0.022263
  92 H :    0.020818
  93 H :    0.024875
  94 H :    0.026961
  95 H :    0.024060
  96 H :    0.020246
  97 H :    0.025526
  98 H :    0.021952
  99 H :    0.029255
 100 H :    0.023239
 101 H :    0.032701
 102 H :    0.024293
 103 H :    0.023957
 104 H :    0.031118
 105 H :    0.021513
 106 H :    0.026443
 107 H :    0.026940
 108 H :    0.027913
 109 H :    0.029496
 110 H :    0.021477
 111 H :    0.028993
 112 H :    0.024271
 113 H :    0.035994
 114 H :    0.052097
 115 H :    0.051198
 116 H :    0.052411

  Mayer bond orders larger than 0.100000
B(  0-C ,  1-O ) :   2.1558 B(  0-C ,  2-C ) :   0.9654 B(  0-C , 16-C ) :   0.9532
B(  1-O , 78-H ) :   0.1018 B(  2-C ,  3-C ) :   1.3204 B(  2-C ,  9-C ) :   1.3443
B(  3-C ,  4-C ) :   1.3149 B(  3-C ,  8-C ) :   0.1047 B(  3-C , 75-H ) :   1.0207
B(  4-C ,  5-F ) :   1.1296 B(  4-C ,  6-C ) :   1.2900 B(  6-C ,  7-F ) :   1.1469
B(  6-C ,  8-C ) :   1.3366 B(  8-C ,  9-C ) :   1.3124 B(  8-C , 76-H ) :   0.9912
B(  9-C , 10-C ) :   0.9969 B( 10-C , 11-C ) :   1.6188 B( 10-C , 16-C ) :   1.0989
B( 11-C , 12-C ) :   1.1379 B( 11-C , 14-C ) :   1.1462 B( 12-C , 13-N ) :   2.9628
B( 14-C , 15-N ) :   2.9753 B( 16-C , 17-C ) :   1.5463 B( 17-C , 18-C ) :   1.2537
B( 17-C , 77-H ) :   0.9073 B( 18-C , 19-C ) :   1.3947 B( 18-C , 22-S ) :   1.0828
B( 19-C , 20-C ) :   1.3002 B( 19-C , 78-H ) :   0.9783 B( 20-C , 21-C ) :   1.4781
B( 20-C , 26-C ) :   0.9431 B( 21-C , 22-S ) :   1.1647 B( 21-C , 23-C ) :   1.0946
B( 23-C , 24-C ) :   1.2771 B( 23-C , 34-C ) :   1.2582 B( 24-C , 25-O ) :   1.1500
B( 24-C , 31-C ) :   1.3463 B( 25-O , 26-C ) :   0.9077 B( 26-C , 27-C ) :   1.0281
B( 26-C , 29-C ) :   1.0420 B( 27-C , 28-C ) :   1.1098 B( 27-C , 79-H ) :   0.9328
B( 27-C , 80-H ) :   0.9321 B( 28-C , 81-H ) :   0.9613 B( 28-C , 82-H ) :   0.9642
B( 28-C , 83-H ) :   0.9649 B( 29-C , 30-C ) :   1.1078 B( 29-C , 84-H ) :   0.9325
B( 29-C , 85-H ) :   0.9293 B( 30-C , 86-H ) :   0.9646 B( 30-C , 87-H ) :   0.9632
B( 30-C , 88-H ) :   0.9641 B( 31-C , 32-C ) :   1.2961 B( 31-C , 89-H ) :   1.0073
B( 32-C , 33-C ) :   1.3538 B( 32-C , 41-C ) :   1.0125 B( 33-C , 34-C ) :   1.4133
B( 33-C , 35-C ) :   0.9175 B( 34-C , 90-H ) :   0.9998 B( 35-C , 36-C ) :   1.0313
B( 35-C , 38-C ) :   1.0133 B( 35-C , 40-C ) :   0.9211 B( 36-C , 37-C ) :   1.1039
B( 36-C , 91-H ) :   0.9398 B( 36-C , 92-H ) :   0.9384 B( 37-C , 93-H ) :   0.9633
B( 37-C , 94-H ) :   0.9645 B( 37-C , 95-H ) :   0.9654 B( 38-C , 39-C ) :   1.1153
B( 38-C , 96-H ) :   0.9364 B( 38-C , 97-H ) :   0.9389 B( 39-C , 98-H ) :   0.9632
B( 39-C , 99-H ) :   0.9595 B( 39-C ,100-H ) :   0.9607 B( 40-C , 41-C ) :   1.3534
B( 40-C , 45-C ) :   1.4080 B( 41-C , 42-C ) :   1.2901 B( 42-C , 43-C ) :   1.3535
B( 42-C ,101-H ) :   1.0076 B( 43-C , 44-C ) :   1.2765 B( 43-C , 53-O ) :   1.1416
B( 44-C , 45-C ) :   1.2643 B( 44-C , 46-C ) :   1.1018 B( 45-C ,102-H ) :   1.0022
B( 46-C , 47-C ) :   1.5041 B( 46-C , 56-S ) :   1.1528 B( 47-C , 48-C ) :   0.9405
B( 47-C , 54-C ) :   1.2983 B( 48-C , 49-C ) :   1.0293 B( 48-C , 51-C ) :   1.0435
B( 48-C , 53-O ) :   0.9093 B( 49-C , 50-C ) :   1.1079 B( 49-C ,103-H ) :   0.9324
B( 49-C ,104-H ) :   0.9328 B( 50-C ,105-H ) :   0.9621 B( 50-C ,106-H ) :   0.9644
B( 50-C ,107-H ) :   0.9649 B( 51-C , 52-C ) :   1.1075 B( 51-C ,108-H ) :   0.9312
B( 51-C ,109-H ) :   0.9283 B( 52-C ,110-H ) :   0.9642 B( 52-C ,111-H ) :   0.9633
B( 52-C ,112-H ) :   0.9635 B( 54-C , 55-C ) :   1.3956 B( 54-C ,113-H ) :   1.0061
B( 55-C , 56-S ) :   1.0901 B( 55-C , 57-C ) :   1.1748 B( 57-C , 58-C ) :   1.5947
B( 57-C ,114-H ) :   0.9484 B( 58-C , 59-C ) :   1.0491 B( 58-C , 73-C ) :   0.9533
B( 59-C , 60-C ) :   1.6537 B( 59-C , 65-C ) :   1.0188 B( 60-C , 61-C ) :   1.1289
B( 60-C , 63-C ) :   1.1539 B( 61-C , 62-N ) :   2.9976 B( 63-C , 64-N ) :   3.0260
B( 65-C , 66-C ) :   1.3204 B( 65-C , 72-C ) :   1.3457 B( 66-C , 67-C ) :   1.3322
B( 66-C , 71-C ) :   0.1048 B( 66-C ,115-H ) :   0.9965 B( 67-C , 68-F ) :   1.1408
B( 67-C , 69-C ) :   1.2920 B( 69-C , 70-F ) :   1.1308 B( 69-C , 71-C ) :   1.3196
B( 71-C , 72-C ) :   1.3231 B( 71-C ,116-H ) :   1.0207 B( 72-C , 73-C ) :   0.9285
B( 73-C , 74-O ) :   2.2686

-----------------------------------------------------------------------------
         ABSORPTION SPECTRUM VIA TRANSITION ELECTRIC DIPOLE MOMENTS
-----------------------------------------------------------------------------
State   Energy  Wavelength   fosc         T2         TX        TY        TZ
        (cm-1)    (nm)                  (au**2)     (au)      (au)      (au)
-----------------------------------------------------------------------------
   0   17362.3    576.0   1.493714360  28.32279   2.58383   3.13297  -3.43964
   1   20051.9    498.7   0.804106367  13.20184   3.59940   0.49371  -0.04920
   2   25319.0    395.0   0.196195350   2.55104   0.70471   1.08013  -0.94220
   3   25658.3    389.7   0.066687003   0.85564  -0.21686   0.65722  -0.61374
   4   26283.7    380.5   0.028033607   0.35113  -0.47323  -0.34081   0.10503
   5   27889.7    358.6   0.007374311   0.08705  -0.17131  -0.07260  -0.22898
   6   28344.7    352.8   0.025693711   0.29842  -0.31443  -0.21080  -0.39385
   7   29241.5    342.0   0.052898398   0.59555  -0.70717  -0.21301   0.22380
   8   30107.0    332.1   0.215828480   2.36003   0.21257   1.40650  -0.58017
   9   30523.7    327.6   0.013114808   0.14145   0.26974   0.21604  -0.14838
  10   31363.3    318.8   0.293320037   3.07890  -0.45150  -1.33501   1.04536
  11   31704.5    315.4   0.109188152   1.13378   0.06884  -1.03762   0.22890
  12   32242.7    310.1   0.047800404   0.48806   0.64227  -0.26876  -0.05765
  13   32525.1    307.5   0.073488446   0.74383  -0.47941  -0.21916   0.68262
  14   32825.9    304.6   0.089182968   0.89442   0.56107   0.74719  -0.14605
  15   33060.5    302.5   0.004767990   0.04748   0.09880   0.11688  -0.15510
  16   34356.2    291.1   0.039116937   0.37483   0.49245   0.10635  -0.34787
  17   34621.0    288.8   0.071440179   0.67933  -0.80098  -0.14533   0.12900
  18   34879.5    286.7   0.035457440   0.33467   0.34786  -0.24904   0.38941
  19   35173.5    284.3   0.036404684   0.34074  -0.19629  -0.38006   0.39720
  20   35545.8    281.3   0.083881626   0.77688  -0.31302   0.72473  -0.39199
  21   35779.3    279.5   0.212934695   1.95925   0.63550   0.99352  -0.75386
  22   36213.3    276.1   0.056582726   0.51439  -0.56560   0.14201  -0.41752
  23   36597.7    273.2   0.048290323   0.43439  -0.43168  -0.03961  -0.49646
  24   37041.9    270.0   0.687029200   6.10602  -0.76036   2.13043  -0.99455
  25   37673.3    265.4   0.080863427   0.70663  -0.12726   0.41957  -0.71721
  26   38018.8    263.0   0.235652018   2.04055   1.05145   0.90033   0.35273
  27   38173.5    262.0   0.251013981   2.16477  -0.34395  -1.40684   0.25933
  28   38701.6    258.4   0.036010584   0.30632  -0.44548   0.30082  -0.13183
  29   39207.4    255.1   0.108697544   0.91270  -0.90636   0.09189  -0.28770
  30   40107.3    249.3   0.011080031   0.09095   0.13681   0.24722   0.10541
  31   40215.7    248.7   0.025486286   0.20863   0.33652  -0.21609   0.22066

FINAL SINGLE POINT ENERGY     -4061.104329407213

DIPOLE MOMENT
-------------
                                X             Y             Z
Electronic contribution:    -79.00278      26.68877     -22.05187
Nuclear contribution   :     82.58952     -26.96152      23.79734
                        -----------------------------------------
Total Dipole Moment    :      3.58673      -0.27275       1.74547
                        -----------------------------------------
Magnitude (a.u.)       :      3.99821
Magnitude (Debye)      :     10.16265

Rotational constants in cm-1:     0.001693     0.000252     0.000227
Rotational constants in MHz :    50.759000     7.553165     6.802929

                             ****ORCA TERMINATED NORMALLY****
TOTAL RUN TIME: 0 days 1 hours 18 minutes 43 seconds 146 msec
