                         Program Version 4.2.0 -  RELEASE  -
|  1> # ORCA input file
|  2> # H2.out: Geometry 34
|  3> ! CAM-B3LYP def2-SVP def2/J RIJCOSX Grid4 TightSCF
|  4> %maxcore 5000
|  5> %tddft
|  6>     Mode sTDDFT
|  7>     Ethresh 5.0
|  8>     maxcore 5000
|  9> end
| 10> * xyz 0 1
| 11>    C        2.16198        -2.52513        -2.22716
| 12>    O        2.60751        -2.38511        -3.34833
| 13>    C        2.92380        -2.65751        -0.95797
| 14>    C        4.30088        -2.70481        -0.77642
| 15>    C        4.80065        -2.82213         0.52226
| 16>    C        3.90838        -2.87729         1.60340
| 17>   Cl        4.54777        -3.01374         3.21603
| 18>    C        2.51803        -2.82506         1.43292
| 19>    C        2.02470        -2.72408         0.12948
| 20>    C        0.63834        -2.59306        -0.39224
| 21>    C       -0.47244        -2.23194         0.35330
| 22>    C       -1.65237        -1.71134        -0.26208
| 23>    N       -2.58651        -1.23232        -0.76064
| 24>    C       -0.47649        -2.23135         1.78097
| 25>    N       -0.49324        -2.25478         2.94312
| 26>    C        0.72019        -2.64815        -1.84108
| 27>    C       -0.20401        -2.84374        -2.83843
| 28>    C       -1.50917        -3.39285        -2.83669
| 29>    S       -2.08721        -4.52107        -1.59813
| 30>    C       -3.60737        -4.68042        -2.41508
| 31>    C       -3.64050        -3.90664        -3.59661
| 32>    C       -2.46362        -3.17843        -3.84688
| 33>    C       -2.27035        -2.19542        -4.96491
| 34>    C       -2.30659        -0.73946        -4.47264
| 35>    S       -5.13890        -4.09060        -4.51043
| 36>    C       -5.70556        -5.21456        -3.30599
| 37>    C       -4.80800        -5.40407        -2.24200
| 38>    N       -5.33619        -6.31670        -1.34684
| 39>    C       -4.50568        -6.92686        -0.31453
| 40>    C       -6.57585        -6.73381        -1.83865
| 41>    C       -6.79774        -6.07851        -3.09268
| 42>    C       -7.86832        -6.46777        -3.96004
| 43>    N       -8.11234        -6.01359        -5.18122
| 44>    S       -9.38306        -6.89490        -5.77612
| 45>    N       -9.63798        -7.88560        -4.47335
| 46>    C       -8.74452        -7.54735        -3.55322
| 47>    C       -8.59094        -8.10701        -2.24424
| 48>    C       -7.55321        -7.67418        -1.35816
| 49>    N       -7.72710        -8.32862        -0.13448
| 50>    C       -7.17982        -8.00360         1.18266
| 51>    C       -7.32709        -6.54153         1.63795
| 52>    C       -8.79417        -9.20205        -0.26883
| 53>    C       -9.34514        -9.07585        -1.55332
| 54>    S      -10.66484       -10.16819        -1.86139
| 55>    C      -10.45087       -10.85151        -0.24528
| 56>    C       -9.43442       -10.20734         0.49473
| 57>    S       -9.25583       -10.92172         2.05799
| 58>    C      -10.49687       -12.14170         1.68091
| 59>    C      -11.06741       -11.94229         0.41033
| 60>    C      -12.28024       -12.64971        -0.13486
| 61>    C      -12.08386       -13.28365        -1.51994
| 62>    C      -10.79907       -13.06761         2.72197
| 63>    C      -11.17446       -14.38905         2.60297
| 64>    C      -11.68115       -15.26657         3.65923
| 65>    C      -12.05014       -14.91300         4.94475
| 66>    C      -11.98204       -13.57592         5.44820
| 67>    N      -11.93544       -12.50513         5.89820
| 68>    C      -12.52901       -15.85794         5.90570
| 69>    N      -12.91203       -16.60641         6.70817
| 70>    C      -11.77852       -16.63733         3.09196
| 71>    C      -12.23818       -17.84151         3.63497
| 72>    C      -12.22170       -18.97876         2.81576
| 73>   Cl      -12.80966       -20.48369         3.45875
| 74>    C      -11.75391       -18.94736         1.49339
| 75>    C      -11.28740       -17.74556         0.96129
| 76>    C      -11.31485       -16.61042         1.76272
| 77>    C      -10.89794       -15.23629         1.39970
| 78>    O      -10.36145       -14.91034         0.35888
| 79>    C       -4.15110        -8.40331        -0.54490
| 80>    C       -3.30862        -8.63845        -1.81439
| 81>    C       -3.43205        -8.92951         0.71249
| 82>    C       -3.40863       -10.45111         0.82354
| 83>    C       -4.06650        -8.64909        -3.14424
| 84>    C       -8.79172        -6.08783         1.78427
| 85>    C       -9.55015        -5.80030         0.48622
| 86>    C       -6.54626        -6.37472         2.96054
| 87>    C       -6.22445        -4.92583         3.32870
| 88>    H        4.96541        -2.64572        -1.64079
| 89>    H        5.87361        -2.86761         0.71504
| 90>    H        1.87156        -2.86689         2.30669
| 91>    H        0.18655        -2.58963        -3.83275
| 92>    H       -3.04934        -2.36198        -5.72583
| 93>    H       -1.30747        -2.39298        -5.46655
| 94>    H       -3.25751        -0.51562        -3.96564
| 95>    H       -2.18075        -0.04433        -5.31630
| 96>    H       -1.50256        -0.54848        -3.74670
| 97>    H       -4.98260        -6.79155         0.66170
| 98>    H       -3.57846        -6.34028        -0.27339
| 99>    H       -6.12949        -8.31674         1.22777
|100>    H       -7.71379        -8.64074         1.90092
|101>    H       -6.84873        -5.89192         0.88402
|102>    H      -13.08618       -11.89468        -0.19015
|103>    H      -12.62295       -13.40527         0.58263
|104>    H      -11.83126       -12.53029        -2.28086
|105>    H      -13.01076       -13.78284        -1.84371
|106>    H      -11.27764       -14.02649        -1.49404
|107>    H      -10.67895       -12.66709         3.73228
|108>    H      -12.60900       -17.92759         4.65252
|109>    H      -11.76465       -19.86342         0.90133
|110>    H      -10.90952       -17.67793        -0.06037
|111>    H       -5.09572        -8.96564        -0.65194
|112>    H       -2.80447        -9.61141        -1.70422
|113>    H       -2.49768        -7.88845        -1.84709
|114>    H       -3.92058        -8.51688         1.61284
|115>    H       -2.40244        -8.52953         0.72828
|116>    H       -4.43160       -10.85979         0.86814
|117>    H       -2.87717       -10.77437         1.73133
|118>    H       -2.90271       -10.92269        -0.03231
|119>    H       -4.94290        -9.31542        -3.09788
|120>    H       -3.41478        -9.01363        -3.95297
|121>    H       -4.42522        -7.65483        -3.44157
|122>    H       -8.79373        -5.16833         2.39075
|123>    H       -9.33809        -6.83785         2.38445
|124>    H       -8.95792        -5.16139        -0.18913
|125>    H      -10.48968        -5.26997         0.70597
|126>    H       -9.81632        -6.71108        -0.06720
|127>    H       -5.59837        -6.93703         2.89375
|128>    H       -7.11700        -6.85660         3.77456
|129>    H       -5.66360        -4.42797         2.52016
|130>    H       -5.60884        -4.87594         4.23973
|131>    H       -7.13244        -4.33348         3.51639
|132> *
|133>
|134>                          ****END OF INPUT****

CARTESIAN COORDINATES (ANGSTROEM)
---------------------------------
  C      2.161980   -2.525130   -2.227160
  O      2.607510   -2.385110   -3.348330
  C      2.923800   -2.657510   -0.957970
  C      4.300880   -2.704810   -0.776420
  C      4.800650   -2.822130    0.522260
  C      3.908380   -2.877290    1.603400
  Cl     4.547770   -3.013740    3.216030
  C      2.518030   -2.825060    1.432920
  C      2.024700   -2.724080    0.129480
  C      0.638340   -2.593060   -0.392240
  C     -0.472440   -2.231940    0.353300
  C     -1.652370   -1.711340   -0.262080
  N     -2.586510   -1.232320   -0.760640
  C     -0.476490   -2.231350    1.780970
  N     -0.493240   -2.254780    2.943120
  C      0.720190   -2.648150   -1.841080
  C     -0.204010   -2.843740   -2.838430
  C     -1.509170   -3.392850   -2.836690
  S     -2.087210   -4.521070   -1.598130
  C     -3.607370   -4.680420   -2.415080
  C     -3.640500   -3.906640   -3.596610
  C     -2.463620   -3.178430   -3.846880
  C     -2.270350   -2.195420   -4.964910
  C     -2.306590   -0.739460   -4.472640
  S     -5.138900   -4.090600   -4.510430
  C     -5.705560   -5.214560   -3.305990
  C     -4.808000   -5.404070   -2.242000
  N     -5.336190   -6.316700   -1.346840
  C     -4.505680   -6.926860   -0.314530
  C     -6.575850   -6.733810   -1.838650
  C     -6.797740   -6.078510   -3.092680
  C     -7.868320   -6.467770   -3.960040
  N     -8.112340   -6.013590   -5.181220
  S     -9.383060   -6.894900   -5.776120
  N     -9.637980   -7.885600   -4.473350
  C     -8.744520   -7.547350   -3.553220
  C     -8.590940   -8.107010   -2.244240
  C     -7.553210   -7.674180   -1.358160
  N     -7.727100   -8.328620   -0.134480
  C     -7.179820   -8.003600    1.182660
  C     -7.327090   -6.541530    1.637950
  C     -8.794170   -9.202050   -0.268830
  C     -9.345140   -9.075850   -1.553320
  S    -10.664840  -10.168190   -1.861390
  C    -10.450870  -10.851510   -0.245280
  C     -9.434420  -10.207340    0.494730
  S     -9.255830  -10.921720    2.057990
  C    -10.496870  -12.141700    1.680910
  C    -11.067410  -11.942290    0.410330
  C    -12.280240  -12.649710   -0.134860
  C    -12.083860  -13.283650   -1.519940
  C    -10.799070  -13.067610    2.721970
  C    -11.174460  -14.389050    2.602970
  C    -11.681150  -15.266570    3.659230
  C    -12.050140  -14.913000    4.944750
  C    -11.982040  -13.575920    5.448200
  N    -11.935440  -12.505130    5.898200
  C    -12.529010  -15.857940    5.905700
  N    -12.912030  -16.606410    6.708170
  C    -11.778520  -16.637330    3.091960
  C    -12.238180  -17.841510    3.634970
  C    -12.221700  -18.978760    2.815760
  Cl   -12.809660  -20.483690    3.458750
  C    -11.753910  -18.947360    1.493390
  C    -11.287400  -17.745560    0.961290
  C    -11.314850  -16.610420    1.762720
  C    -10.897940  -15.236290    1.399700
  O    -10.361450  -14.910340    0.358880
  C     -4.151100   -8.403310   -0.544900
  C     -3.308620   -8.638450   -1.814390
  C     -3.432050   -8.929510    0.712490
  C     -3.408630  -10.451110    0.823540
  C     -4.066500   -8.649090   -3.144240
  C     -8.791720   -6.087830    1.784270
  C     -9.550150   -5.800300    0.486220
  C     -6.546260   -6.374720    2.960540
  C     -6.224450   -4.925830    3.328700
  H      4.965410   -2.645720   -1.640790
  H      5.873610   -2.867610    0.715040
  H      1.871560   -2.866890    2.306690
  H      0.186550   -2.589630   -3.832750
  H     -3.049340   -2.361980   -5.725830
  H     -1.307470   -2.392980   -5.466550
  H     -3.257510   -0.515620   -3.965640
  H     -2.180750   -0.044330   -5.316300
  H     -1.502560   -0.548480   -3.746700
  H     -4.982600   -6.791550    0.661700
  H     -3.578460   -6.340280   -0.273390
  H     -6.129490   -8.316740    1.227770
  H     -7.713790   -8.640740    1.900920
  H     -6.848730   -5.891920    0.884020
  H    -13.086180  -11.894680   -0.190150
  H    -12.622950  -13.405270    0.582630
  H    -11.831260  -12.530290   -2.280860
  H    -13.010760  -13.782840   -1.843710
  H    -11.277640  -14.026490   -1.494040
  H    -10.678950  -12.667090    3.732280
  H    -12.609000  -17.927590    4.652520
  H    -11.764650  -19.863420    0.901330
  H    -10.909520  -17.677930   -0.060370
  H     -5.095720   -8.965640   -0.651940
  H     -2.804470   -9.611410   -1.704220
  H     -2.497680   -7.888450   -1.847090
  H     -3.920580   -8.516880    1.612840
  H     -2.402440   -8.529530    0.728280
  H     -4.431600  -10.859790    0.868140
  H     -2.877170  -10.774370    1.731330
  H     -2.902710  -10.922690   -0.032310
  H     -4.942900   -9.315420   -3.097880
  H     -3.414780   -9.013630   -3.952970
  H     -4.425220   -7.654830   -3.441570
  H     -8.793730   -5.168330    2.390750
  H     -9.338090   -6.837850    2.384450
  H     -8.957920   -5.161390   -0.189130
  H    -10.489680   -5.269970    0.705970
  H     -9.816320   -6.711080   -0.067200
  H     -5.598370   -6.937030    2.893750
  H     -7.117000   -6.856600    3.774560
  H     -5.663600   -4.427970    2.520160
  H     -5.608840   -4.875940    4.239730
  H     -7.132440   -4.333480    3.516390

 Total Charge           Charge          ....    0
 Multiplicity           Mult            ....    1
 Number of Electrons    NEL             ....  590
 Basis Dimension        Dim             .... 1326

ORBITAL ENERGIES
----------------

  NO   OCC          E(Eh)            E(eV)
   0   2.0000    -101.594413     -2764.5245
   1   2.0000    -101.594306     -2764.5216
   2   2.0000     -89.005901     -2421.9737
   3   2.0000     -88.978209     -2421.2201
   4   2.0000     -88.975018     -2421.1333
   5   2.0000     -88.968857     -2420.9657
   6   2.0000     -88.967614     -2420.9319
   7   2.0000     -19.219996      -523.0027
   8   2.0000     -19.216541      -522.9087
   9   2.0000     -14.490259      -394.3000
  10   2.0000     -14.489904      -394.2903
  11   2.0000     -14.439297      -392.9133
  12   2.0000     -14.439051      -392.9066
  13   2.0000     -14.423665      -392.4879
  14   2.0000     -14.421582      -392.4312
  15   2.0000     -14.421572      -392.4309
  16   2.0000     -14.418402      -392.3447
  17   2.0000     -10.372633      -282.2537
  18   2.0000     -10.368822      -282.1500
  19   2.0000     -10.352327      -281.7011
  20   2.0000     -10.352230      -281.6985
  21   2.0000     -10.351648      -281.6827
  22   2.0000     -10.350363      -281.6477
  23   2.0000     -10.350009      -281.6381
  24   2.0000     -10.348662      -281.6014
  25   2.0000     -10.346505      -281.5427
  26   2.0000     -10.345686      -281.5204
  27   2.0000     -10.332559      -281.1632
  28   2.0000     -10.331605      -281.1373
  29   2.0000     -10.331025      -281.1215
  30   2.0000     -10.330541      -281.1083
  31   2.0000     -10.329954      -281.0923
  32   2.0000     -10.329437      -281.0783
  33   2.0000     -10.329353      -281.0760
  34   2.0000     -10.327123      -281.0153
  35   2.0000     -10.327023      -281.0126
  36   2.0000     -10.326857      -281.0081
  37   2.0000     -10.325555      -280.9726
  38   2.0000     -10.325265      -280.9647
  39   2.0000     -10.325194      -280.9628
  40   2.0000     -10.321737      -280.8687
  41   2.0000     -10.320938      -280.8470
  42   2.0000     -10.319722      -280.8139
  43   2.0000     -10.318588      -280.7831
  44   2.0000     -10.318165      -280.7716
  45   2.0000     -10.315460      -280.6979
  46   2.0000     -10.315180      -280.6903
  47   2.0000     -10.314820      -280.6805
  48   2.0000     -10.314101      -280.6609
  49   2.0000     -10.312406      -280.6148
  50   2.0000     -10.310514      -280.5634
  51   2.0000     -10.307428      -280.4794
  52   2.0000     -10.306744      -280.4608
  53   2.0000     -10.306556      -280.4557
  54   2.0000     -10.306275      -280.4480
  55   2.0000     -10.306186      -280.4456
  56   2.0000     -10.305875      -280.4371
  57   2.0000     -10.304679      -280.4046
  58   2.0000     -10.298809      -280.2448
  59   2.0000     -10.298426      -280.2344
  60   2.0000     -10.298338      -280.2320
  61   2.0000     -10.298109      -280.2258
  62   2.0000     -10.297906      -280.2203
  63   2.0000     -10.291000      -280.0324
  64   2.0000     -10.289638      -279.9953
  65   2.0000     -10.289514      -279.9919
  66   2.0000     -10.283714      -279.8341
  67   2.0000     -10.281761      -279.7809
  68   2.0000     -10.280176      -279.7378
  69   2.0000     -10.273942      -279.5682
  70   2.0000     -10.272501      -279.5290
  71   2.0000     -10.270499      -279.4745
  72   2.0000     -10.267126      -279.3827
  73   2.0000     -10.267005      -279.3794
  74   2.0000     -10.261036      -279.2170
  75   2.0000     -10.259454      -279.1739
  76   2.0000     -10.259306      -279.1699
  77   2.0000      -9.549162      -259.8459
  78   2.0000      -9.548992      -259.8413
  79   2.0000      -8.097676      -220.3490
  80   2.0000      -8.071679      -219.6415
  81   2.0000      -8.069203      -219.5742
  82   2.0000      -8.062491      -219.3915
  83   2.0000      -8.060962      -219.3499
  84   2.0000      -7.319442      -199.1722
  85   2.0000      -7.319303      -199.1684
  86   2.0000      -7.309408      -198.8991
  87   2.0000      -7.309222      -198.8941
  88   2.0000      -7.308934      -198.8862
  89   2.0000      -7.308769      -198.8817
  90   2.0000      -6.069314      -165.1544
  91   2.0000      -6.061895      -164.9525
  92   2.0000      -6.058810      -164.8686
  93   2.0000      -6.041442      -164.3960
  94   2.0000      -6.038910      -164.3271
  95   2.0000      -6.037348      -164.2846
  96   2.0000      -6.034819      -164.2158
  97   2.0000      -6.033116      -164.1694
  98   2.0000      -6.032445      -164.1512
  99   2.0000      -6.030955      -164.1106
 100   2.0000      -6.030646      -164.1022
 101   2.0000      -6.028429      -164.0419
 102   2.0000      -6.026857      -163.9991
 103   2.0000      -6.023391      -163.9048
 104   2.0000      -6.021888      -163.8639
 105   2.0000      -1.132750       -30.8237
 106   2.0000      -1.128486       -30.7077
 107   2.0000      -1.110571       -30.2202
 108   2.0000      -1.101197       -29.9651
 109   2.0000      -1.096487       -29.8369
 110   2.0000      -1.016578       -27.6625
 111   2.0000      -1.016328       -27.6557
 112   2.0000      -1.010584       -27.4994
 113   2.0000      -1.008911       -27.4539
 114   2.0000      -1.001879       -27.2625
 115   2.0000      -0.999586       -27.2001
 116   2.0000      -0.992244       -27.0003
 117   2.0000      -0.989538       -26.9267
 118   2.0000      -0.976953       -26.5842
 119   2.0000      -0.975841       -26.5540
 120   2.0000      -0.973865       -26.5002
 121   2.0000      -0.964153       -26.2359
 122   2.0000      -0.954029       -25.9604
 123   2.0000      -0.944002       -25.6876
 124   2.0000      -0.931075       -25.3358
 125   2.0000      -0.928596       -25.2684
 126   2.0000      -0.921919       -25.0867
 127   2.0000      -0.918361       -24.9899
 128   2.0000      -0.901707       -24.5367
 129   2.0000      -0.897824       -24.4310
 130   2.0000      -0.894399       -24.3378
 131   2.0000      -0.891924       -24.2705
 132   2.0000      -0.884747       -24.0752
 133   2.0000      -0.875158       -23.8143
 134   2.0000      -0.869265       -23.6539
 135   2.0000      -0.860354       -23.4114
 136   2.0000      -0.857072       -23.3221
 137   2.0000      -0.855258       -23.2727
 138   2.0000      -0.852765       -23.2049
 139   2.0000      -0.842374       -22.9222
 140   2.0000      -0.840212       -22.8633
 141   2.0000      -0.834770       -22.7153
 142   2.0000      -0.819015       -22.2865
 143   2.0000      -0.816847       -22.2275
 144   2.0000      -0.811953       -22.0944
 145   2.0000      -0.803513       -21.8647
 146   2.0000      -0.795193       -21.6383
 147   2.0000      -0.793704       -21.5978
 148   2.0000      -0.784843       -21.3567
 149   2.0000      -0.766702       -20.8630
 150   2.0000      -0.758273       -20.6337
 151   2.0000      -0.753706       -20.5094
 152   2.0000      -0.750069       -20.4104
 153   2.0000      -0.749360       -20.3911
 154   2.0000      -0.729742       -19.8573
 155   2.0000      -0.722901       -19.6711
 156   2.0000      -0.719247       -19.5717
 157   2.0000      -0.715610       -19.4728
 158   2.0000      -0.707753       -19.2589
 159   2.0000      -0.703072       -19.1315
 160   2.0000      -0.700541       -19.0627
 161   2.0000      -0.698103       -18.9964
 162   2.0000      -0.693462       -18.8701
 163   2.0000      -0.688933       -18.7468
 164   2.0000      -0.685375       -18.6500
 165   2.0000      -0.679528       -18.4909
 166   2.0000      -0.668310       -18.1857
 167   2.0000      -0.665344       -18.1049
 168   2.0000      -0.663018       -18.0416
 169   2.0000      -0.658944       -17.9308
 170   2.0000      -0.656159       -17.8550
 171   2.0000      -0.646387       -17.5891
 172   2.0000      -0.641252       -17.4493
 173   2.0000      -0.639946       -17.4138
 174   2.0000      -0.628204       -17.0943
 175   2.0000      -0.623470       -16.9655
 176   2.0000      -0.616234       -16.7686
 177   2.0000      -0.612146       -16.6573
 178   2.0000      -0.606373       -16.5002
 179   2.0000      -0.603207       -16.4141
 180   2.0000      -0.599637       -16.3170
 181   2.0000      -0.594299       -16.1717
 182   2.0000      -0.588148       -16.0043
 183   2.0000      -0.582971       -15.8635
 184   2.0000      -0.581564       -15.8252
 185   2.0000      -0.577464       -15.7136
 186   2.0000      -0.570482       -15.5236
 187   2.0000      -0.569633       -15.5005
 188   2.0000      -0.566603       -15.4180
 189   2.0000      -0.556680       -15.1480
 190   2.0000      -0.554332       -15.0841
 191   2.0000      -0.550568       -14.9817
 192   2.0000      -0.547548       -14.8995
 193   2.0000      -0.545094       -14.8328
 194   2.0000      -0.542544       -14.7634
 195   2.0000      -0.541718       -14.7409
 196   2.0000      -0.540001       -14.6942
 197   2.0000      -0.538234       -14.6461
 198   2.0000      -0.536740       -14.6054
 199   2.0000      -0.533499       -14.5172
 200   2.0000      -0.532201       -14.4819
 201   2.0000      -0.530709       -14.4413
 202   2.0000      -0.528725       -14.3874
 203   2.0000      -0.526863       -14.3367
 204   2.0000      -0.522787       -14.2258
 205   2.0000      -0.520064       -14.1517
 206   2.0000      -0.518595       -14.1117
 207   2.0000      -0.517551       -14.0833
 208   2.0000      -0.515922       -14.0390
 209   2.0000      -0.511925       -13.9302
 210   2.0000      -0.510244       -13.8844
 211   2.0000      -0.508690       -13.8422
 212   2.0000      -0.505024       -13.7424
 213   2.0000      -0.503602       -13.7037
 214   2.0000      -0.502264       -13.6673
 215   2.0000      -0.500896       -13.6301
 216   2.0000      -0.498012       -13.5516
 217   2.0000      -0.496454       -13.5092
 218   2.0000      -0.493078       -13.4173
 219   2.0000      -0.492757       -13.4086
 220   2.0000      -0.488931       -13.3045
 221   2.0000      -0.487896       -13.2763
 222   2.0000      -0.483722       -13.1627
 223   2.0000      -0.481483       -13.1018
 224   2.0000      -0.480282       -13.0691
 225   2.0000      -0.480169       -13.0661
 226   2.0000      -0.478839       -13.0299
 227   2.0000      -0.476403       -12.9636
 228   2.0000      -0.471951       -12.8424
 229   2.0000      -0.467061       -12.7094
 230   2.0000      -0.465332       -12.6623
 231   2.0000      -0.463116       -12.6020
 232   2.0000      -0.462187       -12.5768
 233   2.0000      -0.459453       -12.5024
 234   2.0000      -0.458420       -12.4742
 235   2.0000      -0.457527       -12.4499
 236   2.0000      -0.455962       -12.4074
 237   2.0000      -0.455046       -12.3824
 238   2.0000      -0.454016       -12.3544
 239   2.0000      -0.452901       -12.3241
 240   2.0000      -0.452084       -12.3018
 241   2.0000      -0.451153       -12.2765
 242   2.0000      -0.447296       -12.1715
 243   2.0000      -0.446220       -12.1423
 244   2.0000      -0.443971       -12.0811
 245   2.0000      -0.439403       -11.9568
 246   2.0000      -0.433447       -11.7947
 247   2.0000      -0.432343       -11.7647
 248   2.0000      -0.431747       -11.7484
 249   2.0000      -0.429618       -11.6905
 250   2.0000      -0.428395       -11.6572
 251   2.0000      -0.427443       -11.6313
 252   2.0000      -0.427132       -11.6229
 253   2.0000      -0.426047       -11.5933
 254   2.0000      -0.424718       -11.5572
 255   2.0000      -0.423804       -11.5323
 256   2.0000      -0.423634       -11.5277
 257   2.0000      -0.422690       -11.5020
 258   2.0000      -0.420640       -11.4462
 259   2.0000      -0.419964       -11.4278
 260   2.0000      -0.416290       -11.3278
 261   2.0000      -0.414824       -11.2879
 262   2.0000      -0.412030       -11.2119
 263   2.0000      -0.411674       -11.2022
 264   2.0000      -0.411392       -11.1945
 265   2.0000      -0.409472       -11.1423
 266   2.0000      -0.408361       -11.1121
 267   2.0000      -0.407609       -11.0916
 268   2.0000      -0.405054       -11.0221
 269   2.0000      -0.401513       -10.9257
 270   2.0000      -0.400360       -10.8944
 271   2.0000      -0.396446       -10.7878
 272   2.0000      -0.395437       -10.7604
 273   2.0000      -0.392301       -10.6751
 274   2.0000      -0.391850       -10.6628
 275   2.0000      -0.390994       -10.6395
 276   2.0000      -0.390860       -10.6358
 277   2.0000      -0.385398       -10.4872
 278   2.0000      -0.370632       -10.0854
 279   2.0000      -0.367204        -9.9921
 280   2.0000      -0.363162        -9.8821
 281   2.0000      -0.349909        -9.5215
 282   2.0000      -0.343937        -9.3590
 283   2.0000      -0.341857        -9.3024
 284   2.0000      -0.336514        -9.1570
 285   2.0000      -0.336168        -9.1476
 286   2.0000      -0.330926        -9.0050
 287   2.0000      -0.320510        -8.7215
 288   2.0000      -0.317453        -8.6383
 289   2.0000      -0.314752        -8.5648
 290   2.0000      -0.306543        -8.3415
 291   2.0000      -0.291087        -7.9209
 292   2.0000      -0.279528        -7.6064
 293   2.0000      -0.276815        -7.5325
 294   2.0000      -0.243051        -6.6138
 295   0.0000      -0.099663        -2.7120
 296   0.0000      -0.091200        -2.4817
 297   0.0000      -0.067161        -1.8275
 298   0.0000      -0.062059        -1.6887
 299   0.0000      -0.045459        -1.2370

MULLIKEN ATOMIC CHARGES
-----------------------
   0 C :    0.140193
   1 O :   -0.152633
   2 C :   -0.007169
   3 C :   -0.027650
   4 C :    0.037719
   5 C :    0.042963
   6 Cl:   -0.069278
   7 C :   -0.001664
   8 C :    0.016916
   9 C :    0.237501
  10 C :   -0.309704
  11 C :   -0.177903
  12 N :    0.139239
  13 C :   -0.155147
  14 N :    0.118637
  15 C :   -0.138823
  16 C :   -0.001579
  17 C :   -0.129449
  18 S :    0.163628
  19 C :   -0.041570
  20 C :   -0.103322
  21 C :   -0.011459
  22 C :    0.048297
  23 C :    0.003791
  24 S :    0.199131
  25 C :   -0.105178
  26 C :    0.031963
  27 N :   -0.186564
  28 C :    0.211880
  29 C :    0.042338
  30 C :   -0.037406
  31 C :   -0.007014
  32 N :   -0.265686
  33 S :    0.446576
  34 N :   -0.265970
  35 C :    0.003693
  36 C :   -0.038441
  37 C :    0.063892
  38 N :   -0.189592
  39 C :    0.207182
  40 C :   -0.149713
  41 C :    0.044969
  42 C :   -0.108003
  43 S :    0.189626
  44 C :   -0.120722
  45 C :   -0.045384
  46 S :    0.141809
  47 C :   -0.146139
  48 C :    0.019635
  49 C :    0.056012
  50 C :   -0.028306
  51 C :   -0.000952
  52 C :   -0.102172
  53 C :    0.264809
  54 C :   -0.316090
  55 C :   -0.176423
  56 N :    0.131360
  57 C :   -0.162190
  58 N :    0.130403
  59 C :    0.029594
  60 C :    0.001535
  61 C :    0.039934
  62 Cl:   -0.065503
  63 C :    0.041282
  64 C :   -0.024293
  65 C :   -0.025665
  66 C :    0.139410
  67 O :   -0.151464
  68 C :   -0.140246
  69 C :    0.002297
  70 C :   -0.008580
  71 C :    0.015754
  72 C :    0.017232
  73 C :    0.003637
  74 C :    0.021083
  75 C :   -0.013526
  76 C :    0.012627
  77 H :    0.013465
  78 H :    0.008494
  79 H :    0.008800
  80 H :    0.033543
  81 H :    0.014340
  82 H :    0.029659
  83 H :    0.039306
  84 H :    0.026715
  85 H :    0.029730
  86 H :    0.000054
  87 H :    0.013675
  88 H :    0.003958
  89 H :    0.014720
  90 H :    0.010373
  91 H :    0.032492
  92 H :    0.007545
  93 H :    0.021965
  94 H :    0.017940
  95 H :    0.051437
  96 H :    0.040688
  97 H :    0.007346
  98 H :    0.008546
  99 H :    0.009879
 100 H :    0.008735
 101 H :    0.005324
 102 H :   -0.002162
 103 H :    0.003778
 104 H :    0.007810
 105 H :    0.015684
 106 H :    0.022113
 107 H :    0.020711
 108 H :    0.014808
 109 H :    0.018811
 110 H :    0.032185
 111 H :    0.008045
 112 H :    0.002138
 113 H :    0.014822
 114 H :    0.019416
 115 H :    0.029676
 116 H :    0.002589
 117 H :    0.010822
 118 H :    0.018932
 119 H :    0.026574
 120 H :    0.024538
Sum of atomic charges:   -0.0000000

LOEWDIN ATOMIC CHARGES
----------------------
   0 C :    0.086168
   1 O :   -0.149880
   2 C :   -0.052006
   3 C :    0.016944
   4 C :   -0.025861
   5 C :   -0.097250
   6 Cl:    0.132614
   7 C :   -0.024493
   8 C :   -0.004568
   9 C :    0.067078
  10 C :   -0.143506
  11 C :   -0.025720
  12 N :   -0.056990
  13 C :   -0.015986
  14 N :   -0.059118
  15 C :   -0.115655
  16 C :    0.052003
  17 C :   -0.188468
  18 S :    0.432616
  19 C :   -0.183509
  20 C :   -0.189679
  21 C :   -0.005616
  22 C :   -0.032700
  23 C :   -0.048021
  24 S :    0.422992
  25 C :   -0.170801
  26 C :   -0.039256
  27 N :    0.039987
  28 C :    0.047715
  29 C :    0.013801
  30 C :   -0.077826
  31 C :   -0.052072
  32 N :   -0.277091
  33 S :    0.575157
  34 N :   -0.276935
  35 C :   -0.051908
  36 C :   -0.076580
  37 C :    0.012325
  38 N :    0.036430
  39 C :    0.047486
  40 C :   -0.044736
  41 C :   -0.039806
  42 C :   -0.174208
  43 S :    0.428746
  44 C :   -0.185992
  45 C :   -0.193304
  46 S :    0.417510
  47 C :   -0.178464
  48 C :   -0.002760
  49 C :   -0.031238
  50 C :   -0.060702
  51 C :    0.049671
  52 C :   -0.109562
  53 C :    0.076590
  54 C :   -0.137304
  55 C :   -0.017786
  56 N :   -0.054425
  57 C :   -0.014397
  58 N :   -0.053434
  59 C :   -0.007512
  60 C :   -0.021021
  61 C :   -0.097591
  62 Cl:    0.135099
  63 C :   -0.023794
  64 C :    0.016181
  65 C :   -0.051092
  66 C :    0.083935
  67 O :   -0.139661
  68 C :   -0.043344
  69 C :   -0.035238
  70 C :   -0.035320
  71 C :   -0.057696
  72 C :   -0.063972
  73 C :   -0.033703
  74 C :   -0.064820
  75 C :   -0.035230
  76 C :   -0.057870
  77 H :    0.046190
  78 H :    0.040603
  79 H :    0.043910
  80 H :    0.051414
  81 H :    0.031490
  82 H :    0.038751
  83 H :    0.035467
  84 H :    0.029907
  85 H :    0.028700
  86 H :    0.024068
  87 H :    0.025587
  88 H :    0.022279
  89 H :    0.026965
  90 H :    0.019770
  91 H :    0.040304
  92 H :    0.030459
  93 H :    0.014075
  94 H :    0.028663
  95 H :    0.031193
  96 H :    0.046094
  97 H :    0.044185
  98 H :    0.040685
  99 H :    0.045064
 100 H :    0.020043
 101 H :    0.025413
 102 H :    0.019266
 103 H :    0.017547
 104 H :    0.025664
 105 H :    0.024980
 106 H :    0.030379
 107 H :    0.024949
 108 H :    0.025426
 109 H :    0.029843
 110 H :    0.027154
 111 H :    0.026804
 112 H :    0.022777
 113 H :    0.025628
 114 H :    0.030103
 115 H :    0.026589
 116 H :    0.017357
 117 H :    0.026364
 118 H :    0.026337
 119 H :    0.032314
 120 H :    0.025670

  Mayer bond orders larger than 0.100000
B(  0-C ,  1-O ) :   2.2359 B(  0-C ,  2-C ) :   0.9315 B(  0-C , 15-C ) :   0.9486
B(  2-C ,  3-C ) :   1.3860 B(  2-C ,  8-C ) :   1.3344 B(  3-C ,  4-C ) :   1.3473
B(  3-C , 77-H ) :   0.9982 B(  4-C ,  5-C ) :   1.3877 B(  4-C , 78-H ) :   0.9871
B(  5-C ,  6-Cl) :   1.0069 B(  5-C ,  7-C ) :   1.3536 B(  7-C ,  8-C ) :   1.3665
B(  7-C , 79-H ) :   0.9795 B(  8-C ,  9-C ) :   1.0023 B(  9-C , 10-C ) :   1.6380
B(  9-C , 15-C ) :   1.0647 B( 10-C , 11-C ) :   1.1540 B( 10-C , 13-C ) :   1.1119
B( 11-C , 12-N ) :   2.9922 B( 13-C , 14-N ) :   2.9734 B( 15-C , 16-C ) :   1.6067
B( 16-C , 17-C ) :   1.2044 B( 16-C , 80-H ) :   0.9181 B( 17-C , 18-S ) :   1.0475
B( 17-C , 21-C ) :   1.4218 B( 18-S , 19-C ) :   1.0780 B( 19-C , 20-C ) :   1.4355
B( 19-C , 26-C ) :   1.2861 B( 20-C , 21-C ) :   1.3760 B( 20-C , 24-S ) :   1.0285
B( 21-C , 22-C ) :   1.0814 B( 22-C , 23-C ) :   1.0980 B( 22-C , 81-H ) :   0.9253
B( 22-C , 82-H ) :   0.9086 B( 23-C , 83-H ) :   0.9681 B( 23-C , 84-H ) :   0.9661
B( 23-C , 85-H ) :   0.9684 B( 24-S , 25-C ) :   1.0258 B( 25-C , 26-C ) :   1.4084
B( 25-C , 30-C ) :   1.3481 B( 26-C , 27-N ) :   1.1435 B( 27-N , 28-C ) :   0.9522
B( 27-N , 29-C ) :   1.1621 B( 28-C , 68-C ) :   1.0456 B( 28-C , 86-H ) :   0.9345
B( 28-C , 87-H ) :   0.9233 B( 29-C , 30-C ) :   1.3978 B( 29-C , 37-C ) :   1.1187
B( 30-C , 31-C ) :   1.0959 B( 31-C , 32-N ) :   1.6479 B( 31-C , 35-C ) :   1.1197
B( 32-N , 33-S ) :   1.1953 B( 32-N , 34-N ) :   0.1327 B( 33-S , 34-N ) :   1.1946
B( 34-N , 35-C ) :   1.6465 B( 35-C , 36-C ) :   1.0926 B( 36-C , 37-C ) :   1.4055
B( 36-C , 42-C ) :   1.3497 B( 37-C , 38-N ) :   1.1544 B( 38-N , 39-C ) :   0.9456
B( 38-N , 41-C ) :   1.1429 B( 39-C , 40-C ) :   1.0437 B( 39-C , 88-H ) :   0.9364
B( 39-C , 89-H ) :   0.9252 B( 40-C , 73-C ) :   1.0328 B( 40-C , 75-C ) :   1.0404
B( 40-C , 90-H ) :   0.9181 B( 41-C , 42-C ) :   1.4159 B( 41-C , 45-C ) :   1.2674
B( 42-C , 43-S ) :   1.0225 B( 43-S , 44-C ) :   1.0372 B( 44-C , 45-C ) :   1.4374
B( 44-C , 48-C ) :   1.3377 B( 45-C , 46-S ) :   1.0770 B( 46-S , 47-C ) :   1.0411
B( 47-C , 48-C ) :   1.4732 B( 47-C , 51-C ) :   1.1737 B( 48-C , 49-C ) :   1.0704
B( 49-C , 50-C ) :   1.0890 B( 49-C , 91-H ) :   0.9274 B( 49-C , 92-H ) :   0.9185
B( 50-C , 93-H ) :   0.9646 B( 50-C , 94-H ) :   0.9633 B( 50-C , 95-H ) :   0.9634
B( 51-C , 52-C ) :   1.5862 B( 51-C , 96-H ) :   0.9249 B( 52-C , 53-C ) :   1.0859
B( 52-C , 66-C ) :   0.9550 B( 53-C , 54-C ) :   1.6443 B( 53-C , 59-C ) :   0.9881
B( 54-C , 55-C ) :   1.1270 B( 54-C , 57-C ) :   1.1238 B( 55-C , 56-N ) :   2.9730
B( 57-C , 58-N ) :   2.9654 B( 59-C , 60-C ) :   1.3576 B( 59-C , 65-C ) :   1.3398
B( 60-C , 61-C ) :   1.3568 B( 60-C , 97-H ) :   0.9768 B( 61-C , 62-Cl) :   1.0130
B( 61-C , 63-C ) :   1.3838 B( 63-C , 64-C ) :   1.3461 B( 63-C , 98-H ) :   0.9867
B( 64-C , 65-C ) :   1.3811 B( 64-C , 99-H ) :   0.9979 B( 65-C , 66-C ) :   0.9442
B( 66-C , 67-O ) :   2.1783 B( 68-C , 69-C ) :   1.0285 B( 68-C , 70-C ) :   1.0433
B( 68-C ,100-H ) :   0.9189 B( 69-C , 72-C ) :   1.1094 B( 69-C ,101-H ) :   0.9446
B( 69-C ,102-H ) :   0.9379 B( 70-C , 71-C ) :   1.1018 B( 70-C ,103-H ) :   0.9417
B( 70-C ,104-H ) :   0.9391 B( 71-C ,105-H ) :   0.9682 B( 71-C ,106-H ) :   0.9641
B( 71-C ,107-H ) :   0.9664 B( 72-C ,108-H ) :   0.9643 B( 72-C ,109-H ) :   0.9614
B( 72-C ,110-H ) :   0.9675 B( 73-C , 74-C ) :   1.1115 B( 73-C ,111-H ) :   0.9450
B( 73-C ,112-H ) :   0.9402 B( 74-C ,113-H ) :   0.9627 B( 74-C ,114-H ) :   0.9612
B( 74-C ,115-H ) :   0.9648 B( 75-C , 76-C ) :   1.1020 B( 75-C ,116-H ) :   0.9427
B( 75-C ,117-H ) :   0.9400 B( 76-C ,118-H ) :   0.9689 B( 76-C ,119-H ) :   0.9639
B( 76-C ,120-H ) :   0.9663

-----------------------------------------------------------------------------
         ABSORPTION SPECTRUM VIA TRANSITION ELECTRIC DIPOLE MOMENTS
-----------------------------------------------------------------------------
State   Energy  Wavelength   fosc         T2         TX        TY        TZ
        (cm-1)    (nm)                  (au**2)     (au)      (au)      (au)
-----------------------------------------------------------------------------
   0   16445.5    608.1   1.634962525  32.72928  -4.05155  -3.96286   0.78101
   1   19295.7    518.3   0.655831191  11.18942   0.39626  -1.60026   2.91060
   2   23955.7    417.4   0.058222364   0.80012   0.70982   0.11730   0.53153
   3   24133.7    414.4   0.123477601   1.68438   0.48985   1.09932  -0.48572
   4   25066.4    398.9   0.101118061   1.32805  -0.79553  -0.75922  -0.34462
   5   25148.4    397.6   0.201356835   2.63592   1.60970   0.20761  -0.04092
   6   25944.5    385.4   0.123775070   1.57060  -0.06472   0.28096  -1.21962
   7   26610.7    375.8   0.067870627   0.83966   0.34547  -0.28364   0.79991
   8   27635.0    361.9   0.038889063   0.46328   0.00648  -0.03769   0.67957
   9   29182.0    342.7   0.038681915   0.43638  -0.27785  -0.26137   0.53932
  10   29648.5    337.3   0.166524970   1.84906  -1.32035   0.16230  -0.28179
  11   30192.2    331.2   0.009194813   0.10026   0.15028   0.24890   0.12540
  12   30540.7    327.4   0.103269432   1.11319  -0.11740  -0.84729   0.61766
  13   30841.9    324.2   0.087173176   0.93050  -0.19190   0.67746   0.65934
  14   31179.6    320.7   0.039279610   0.41474   0.61631  -0.03264   0.18395
  15   31779.1    314.7   0.104796141   1.08562   0.99395  -0.30199  -0.08055
  16   31931.4    313.2   0.012400240   0.12785  -0.18682  -0.27169   0.13831
  17   32596.0    306.8   0.051599647   0.52114   0.17718   0.36008   0.60008
  18   33089.4    302.2   0.017234220   0.17147  -0.12344   0.25361   0.30317
  19   33337.8    300.0   0.189920641   1.87547   0.80783  -0.43958   1.01472
  20   33639.0    297.3   0.009044696   0.08852   0.19638  -0.20280  -0.09395
  21   33727.1    296.5   0.066323500   0.64739   0.57967  -0.39237  -0.39675
  22   34070.1    293.5   0.087627983   0.84673  -0.19274   0.11747   0.89207
  23   34308.1    291.5   0.041642762   0.39959  -0.21245   0.43082   0.41091
  24   34447.1    290.3   0.039251809   0.37513  -0.40193   0.17050  -0.42956
  25   34685.8    288.3   0.145878164   1.38457  -1.03901  -0.52306   0.17728
  26   35313.3    283.2   0.260002804   2.42390   0.93767   1.01064  -0.72338
  27   35799.4    279.3   0.327336927   3.01020  -1.29098  -1.04877  -0.49361
  28   36241.0    275.9   0.008475398   0.07699   0.07222   0.11710  -0.24096
  29   36573.3    273.4   0.007421067   0.06680   0.08840  -0.19286  -0.14762
  30   36720.9    272.3   0.054005317   0.48417   0.34005   0.59361  -0.12713
  31   37425.8    267.2   0.419830421   3.69300   1.59332  -1.07346  -0.04494
  32   37919.5    263.7   0.257357597   2.23435  -0.36013  -0.40998  -1.39161
  33   38084.4    262.6   0.161721870   1.39797  -0.71119   0.38607   0.86205
  34   38456.6    260.0   0.392652122   3.36135  -0.63957   0.08573   1.71608
  35   38680.1    258.5   0.068915461   0.58655   0.03847  -0.25784  -0.72013
  36   38952.8    256.7   0.008095825   0.06842  -0.18287  -0.18372   0.03503
  37   39213.5    255.0   0.004414832   0.03706   0.09441  -0.14639   0.08197
  38   39845.3    251.0   0.094121665   0.77766   0.27571   0.75463  -0.36356
  39   40251.2    248.4   0.068775622   0.56251   0.11722   0.04147   0.73963

FINAL SINGLE POINT ENERGY     -5808.088734059994

DIPOLE MOMENT
-------------
                                X             Y             Z
Electronic contribution:     -6.57976     -26.68152       7.06715
Nuclear contribution   :      8.02763      25.95343      -9.09478
                        -----------------------------------------
Total Dipole Moment    :      1.44787      -0.72808      -2.02763
                        -----------------------------------------
Magnitude (a.u.)       :      2.59571
Magnitude (Debye)      :      6.59778

Rotational constants in cm-1:     0.001274     0.000273     0.000245
Rotational constants in MHz :    38.203673     8.176733     7.346980

                             ****ORCA TERMINATED NORMALLY****
TOTAL RUN TIME: 0 days 1 hours 24 minutes 0 seconds 728 msec
