                         Program Version 4.2.0 -  RELEASE  -
|  1> # ORCA input file
|  2> # H2.out
|  3> ! CAM-B3LYP def2-SVP def2/J RIJCOSX Grid4 TightSCF
|  4> %maxcore 5000
|  5> %tddft
|  6>     Mode sTDDFT
|  7>     Ethresh 5.0
|  8>     maxcore 5000
|  9> end
| 10> * xyz 0 1
| 11>    C        1.75640        -1.75825        -1.75321
| 12>    O        2.27973        -1.32069        -2.75288
| 13>    C        2.38931        -2.06271        -0.45189
| 14>    C        3.71959        -1.98277        -0.08604
| 15>    C        4.07804        -2.35402         1.20040
| 16>    C        3.10716        -2.79808         2.09140
| 17>   Cl        3.57918        -3.27108         3.67900
| 18>    C        1.76213        -2.87260         1.74206
| 19>    C        1.40829        -2.49761         0.45868
| 20>    C        0.10028        -2.41408        -0.19024
| 21>    C       -1.10195        -2.29907         0.45867
| 22>    C       -2.27948        -1.87127        -0.18990
| 23>    N       -3.23661        -1.46832        -0.67944
| 24>    C       -1.28077        -2.50724         1.83971
| 25>    N       -1.49237        -2.70020         2.95154
| 26>    C        0.33599        -2.16105        -1.59249
| 27>    C       -0.46150        -2.31340        -2.68873
| 28>    C       -1.65158        -3.05611        -2.81961
| 29>    S       -2.02732        -4.39309        -1.73011
| 30>    C       -3.50031        -4.69919        -2.57272
| 31>    C       -3.66072        -3.81789        -3.65081
| 32>    C       -2.61516        -2.90522        -3.81098
| 33>    C       -2.60929        -1.82432        -4.83732
| 34>    C       -3.10663        -0.51143        -4.22694
| 35>    S       -5.14755        -4.07116        -4.53579
| 36>    C       -5.54631        -5.34904        -3.44398
| 37>    C       -4.58273        -5.57308        -2.45292
| 38>    N       -4.98471        -6.58627        -1.62714
| 39>    C       -4.02602        -7.18107        -0.72814
| 40>    C       -6.21935        -7.03254        -2.06799
| 41>    C       -6.57168        -6.27820        -3.22861
| 42>    C       -7.72743        -6.55448        -3.99103
| 43>    N       -8.15052        -5.96219        -5.09673
| 44>    S       -9.49780        -6.70971        -5.59386
| 45>    N       -9.59226        -7.81674        -4.41640
| 46>    C       -8.57176        -7.63879        -3.59217
| 47>    C       -8.27148        -8.32820        -2.39723
| 48>    C       -7.13573        -8.01034        -1.59171
| 49>    N       -7.20055        -8.77778        -0.44125
| 50>    C       -6.50077        -8.66452         0.81519
| 51>    C       -6.74062        -7.32395         1.53167
| 52>    C       -8.32228        -9.55667        -0.51481
| 53>    C       -8.99533        -9.31573        -1.71788
| 54>    S      -10.44926       -10.23017        -1.90272
| 55>    C      -10.16440       -10.95628        -0.33591
| 56>    C       -8.99648       -10.48722         0.28177
| 57>    S       -8.81177       -11.16875         1.85216
| 58>    C      -10.27746       -12.13011         1.63954
| 59>    C      -10.89608       -11.88294         0.41885
| 60>    C      -12.25083       -12.35682         0.00255
| 61>    C      -12.21484       -13.13914        -1.31027
| 62>    C      -10.69301       -12.88508         2.75843
| 63>    C      -11.34526       -14.08737         2.74110
| 64>    C      -11.98010       -14.73701         3.86570
| 65>    C      -12.27732       -14.16366         5.07483
| 66>    C      -12.00673       -12.82099         5.41278
| 67>    N      -11.83786       -11.73548         5.74708
| 68>    C      -12.91546       -14.83699         6.13705
| 69>    N      -13.42348       -15.33000         7.04063
| 70>    C      -12.33681       -16.09259         3.44854
| 71>    C      -12.96121       -17.12145         4.13262
| 72>    C      -13.18221       -18.31540         3.45251
| 73>   Cl      -13.96122       -19.60871         4.28239
| 74>    C      -12.79359       -18.49643         2.12984
| 75>    C      -12.16029       -17.46799         1.45044
| 76>    C      -11.94235       -16.27414         2.11135
| 77>    C      -11.28818       -15.04782         1.61346
| 78>    O      -10.71212       -14.91188         0.55543
| 79>    C       -3.54087        -8.56611        -1.19009
| 80>    C       -2.82537        -8.48528        -2.54992
| 81>    C       -2.61706        -9.15027        -0.11089
| 82>    C       -2.46007       -10.66156        -0.23061
| 83>    C       -3.73135        -8.78649        -3.73936
| 84>    C       -8.22130        -7.14138         1.90507
| 85>    C       -9.03510        -6.39432         0.85343
| 86>    C       -5.84768        -7.26555         2.78086
| 87>    C       -5.62945        -5.84146         3.27828
| 88>    H        4.45678        -1.63628        -0.79347
| 89>    H        5.10725        -2.30353         1.51874
| 90>    H        1.03498        -3.22228         2.45692
| 91>    H       -0.08221        -1.86056        -3.60012
| 92>    H       -3.26809        -2.11765        -5.65690
| 93>    H       -1.60099        -1.68393        -5.23213
| 94>    H       -4.11183        -0.63651        -3.83310
| 95>    H       -3.12071         0.26937        -4.98249
| 96>    H       -2.45829        -0.20149        -3.41088
| 97>    H       -4.43126        -7.22354         0.28163
| 98>    H       -3.16789        -6.50406        -0.69510
| 99>    H       -5.43663        -8.84621         0.66631
|100>    H       -6.87320        -9.47074         1.45310
|101>    H       -6.45554        -6.50763         0.85890
|102>    H      -12.88189       -11.47191        -0.13133
|103>    H      -12.68906       -12.97049         0.79005
|104>    H      -11.84697       -12.51338        -2.11893
|105>    H      -13.21621       -13.47933        -1.56134
|106>    H      -11.56374       -14.00260        -1.21071
|107>    H      -10.42223       -12.46304         3.71984
|108>    H      -13.27143       -17.02375         5.15984
|109>    H      -12.98758       -19.43894         1.64285
|110>    H      -11.84537       -17.58532         0.42516
|111>    H       -4.41024        -9.22398        -1.29910
|112>    H       -2.00629        -9.20559        -2.56137
|113>    H       -2.37997        -7.49532        -2.67056
|114>    H       -3.01868        -8.92315         0.88025
|115>    H       -1.63992        -8.66856        -0.18096
|116>    H       -3.42236       -11.15581        -0.11344
|117>    H       -1.78994       -11.03143         0.54122
|118>    H       -2.05002       -10.94051        -1.19765
|119>    H       -4.17293        -9.77604        -3.63973
|120>    H       -3.15410        -8.76425        -4.66076
|121>    H       -4.53615        -8.06273        -3.83187
|122>    H       -8.28004        -6.57575         2.83568
|123>    H       -8.67323        -8.11700         2.09593
|124>    H       -8.60059        -5.41526         0.66167
|125>    H      -10.05298        -6.24959         1.20783
|126>    H       -9.08346        -6.93495        -0.08749
|127>    H       -4.87151        -7.70586         2.55931
|128>    H       -6.30144        -7.86897         3.56918
|129>    H       -5.13866        -5.23925         2.51631
|130>    H       -5.00045        -5.84532         4.16456
|131>    H       -6.57165        -5.36437         3.53377
|132> *
|133>
|134>                          ****END OF INPUT****

CARTESIAN COORDINATES (ANGSTROEM)
---------------------------------
  C      1.756400   -1.758250   -1.753210
  O      2.279730   -1.320690   -2.752880
  C      2.389310   -2.062710   -0.451890
  C      3.719590   -1.982770   -0.086040
  C      4.078040   -2.354020    1.200400
  C      3.107160   -2.798080    2.091400
  Cl     3.579180   -3.271080    3.679000
  C      1.762130   -2.872600    1.742060
  C      1.408290   -2.497610    0.458680
  C      0.100280   -2.414080   -0.190240
  C     -1.101950   -2.299070    0.458670
  C     -2.279480   -1.871270   -0.189900
  N     -3.236610   -1.468320   -0.679440
  C     -1.280770   -2.507240    1.839710
  N     -1.492370   -2.700200    2.951540
  C      0.335990   -2.161050   -1.592490
  C     -0.461500   -2.313400   -2.688730
  C     -1.651580   -3.056110   -2.819610
  S     -2.027320   -4.393090   -1.730110
  C     -3.500310   -4.699190   -2.572720
  C     -3.660720   -3.817890   -3.650810
  C     -2.615160   -2.905220   -3.810980
  C     -2.609290   -1.824320   -4.837320
  C     -3.106630   -0.511430   -4.226940
  S     -5.147550   -4.071160   -4.535790
  C     -5.546310   -5.349040   -3.443980
  C     -4.582730   -5.573080   -2.452920
  N     -4.984710   -6.586270   -1.627140
  C     -4.026020   -7.181070   -0.728140
  C     -6.219350   -7.032540   -2.067990
  C     -6.571680   -6.278200   -3.228610
  C     -7.727430   -6.554480   -3.991030
  N     -8.150520   -5.962190   -5.096730
  S     -9.497800   -6.709710   -5.593860
  N     -9.592260   -7.816740   -4.416400
  C     -8.571760   -7.638790   -3.592170
  C     -8.271480   -8.328200   -2.397230
  C     -7.135730   -8.010340   -1.591710
  N     -7.200550   -8.777780   -0.441250
  C     -6.500770   -8.664520    0.815190
  C     -6.740620   -7.323950    1.531670
  C     -8.322280   -9.556670   -0.514810
  C     -8.995330   -9.315730   -1.717880
  S    -10.449260  -10.230170   -1.902720
  C    -10.164400  -10.956280   -0.335910
  C     -8.996480  -10.487220    0.281770
  S     -8.811770  -11.168750    1.852160
  C    -10.277460  -12.130110    1.639540
  C    -10.896080  -11.882940    0.418850
  C    -12.250830  -12.356820    0.002550
  C    -12.214840  -13.139140   -1.310270
  C    -10.693010  -12.885080    2.758430
  C    -11.345260  -14.087370    2.741100
  C    -11.980100  -14.737010    3.865700
  C    -12.277320  -14.163660    5.074830
  C    -12.006730  -12.820990    5.412780
  N    -11.837860  -11.735480    5.747080
  C    -12.915460  -14.836990    6.137050
  N    -13.423480  -15.330000    7.040630
  C    -12.336810  -16.092590    3.448540
  C    -12.961210  -17.121450    4.132620
  C    -13.182210  -18.315400    3.452510
  Cl   -13.961220  -19.608710    4.282390
  C    -12.793590  -18.496430    2.129840
  C    -12.160290  -17.467990    1.450440
  C    -11.942350  -16.274140    2.111350
  C    -11.288180  -15.047820    1.613460
  O    -10.712120  -14.911880    0.555430
  C     -3.540870   -8.566110   -1.190090
  C     -2.825370   -8.485280   -2.549920
  C     -2.617060   -9.150270   -0.110890
  C     -2.460070  -10.661560   -0.230610
  C     -3.731350   -8.786490   -3.739360
  C     -8.221300   -7.141380    1.905070
  C     -9.035100   -6.394320    0.853430
  C     -5.847680   -7.265550    2.780860
  C     -5.629450   -5.841460    3.278280
  H      4.456780   -1.636280   -0.793470
  H      5.107250   -2.303530    1.518740
  H      1.034980   -3.222280    2.456920
  H     -0.082210   -1.860560   -3.600120
  H     -3.268090   -2.117650   -5.656900
  H     -1.600990   -1.683930   -5.232130
  H     -4.111830   -0.636510   -3.833100
  H     -3.120710    0.269370   -4.982490
  H     -2.458290   -0.201490   -3.410880
  H     -4.431260   -7.223540    0.281630
  H     -3.167890   -6.504060   -0.695100
  H     -5.436630   -8.846210    0.666310
  H     -6.873200   -9.470740    1.453100
  H     -6.455540   -6.507630    0.858900
  H    -12.881890  -11.471910   -0.131330
  H    -12.689060  -12.970490    0.790050
  H    -11.846970  -12.513380   -2.118930
  H    -13.216210  -13.479330   -1.561340
  H    -11.563740  -14.002600   -1.210710
  H    -10.422230  -12.463040    3.719840
  H    -13.271430  -17.023750    5.159840
  H    -12.987580  -19.438940    1.642850
  H    -11.845370  -17.585320    0.425160
  H     -4.410240   -9.223980   -1.299100
  H     -2.006290   -9.205590   -2.561370
  H     -2.379970   -7.495320   -2.670560
  H     -3.018680   -8.923150    0.880250
  H     -1.639920   -8.668560   -0.180960
  H     -3.422360  -11.155810   -0.113440
  H     -1.789940  -11.031430    0.541220
  H     -2.050020  -10.940510   -1.197650
  H     -4.172930   -9.776040   -3.639730
  H     -3.154100   -8.764250   -4.660760
  H     -4.536150   -8.062730   -3.831870
  H     -8.280040   -6.575750    2.835680
  H     -8.673230   -8.117000    2.095930
  H     -8.600590   -5.415260    0.661670
  H    -10.052980   -6.249590    1.207830
  H     -9.083460   -6.934950   -0.087490
  H     -4.871510   -7.705860    2.559310
  H     -6.301440   -7.868970    3.569180
  H     -5.138660   -5.239250    2.516310
  H     -5.000450   -5.845320    4.164560
  H     -6.571650   -5.364370    3.533770

 Total Charge           Charge          ....    0
 Multiplicity           Mult            ....    1
 Number of Electrons    NEL             ....  590
 Basis Dimension        Dim             .... 1326

ORBITAL ENERGIES
----------------

  NO   OCC          E(Eh)            E(eV)
   0   2.0000    -101.595212     -2764.5463
   1   2.0000    -101.594526     -2764.5276
   2   2.0000     -89.008679     -2422.0493
   3   2.0000     -88.974189     -2421.1108
   4   2.0000     -88.972930     -2421.0765
   5   2.0000     -88.967084     -2420.9174
   6   2.0000     -88.966032     -2420.8888
   7   2.0000     -19.218452      -522.9607
   8   2.0000     -19.214647      -522.8571
   9   2.0000     -14.487858      -394.2347
  10   2.0000     -14.487655      -394.2291
  11   2.0000     -14.431852      -392.7107
  12   2.0000     -14.431762      -392.7082
  13   2.0000     -14.417540      -392.3212
  14   2.0000     -14.416669      -392.2975
  15   2.0000     -14.415446      -392.2642
  16   2.0000     -14.414143      -392.2288
  17   2.0000     -10.369979      -282.1815
  18   2.0000     -10.366354      -282.0828
  19   2.0000     -10.349270      -281.6180
  20   2.0000     -10.349075      -281.6126
  21   2.0000     -10.344338      -281.4838
  22   2.0000     -10.344129      -281.4781
  23   2.0000     -10.342936      -281.4456
  24   2.0000     -10.342621      -281.4370
  25   2.0000     -10.342399      -281.4310
  26   2.0000     -10.342138      -281.4239
  27   2.0000     -10.329645      -281.0839
  28   2.0000     -10.328671      -281.0574
  29   2.0000     -10.325337      -280.9667
  30   2.0000     -10.324895      -280.9547
  31   2.0000     -10.324706      -280.9495
  32   2.0000     -10.324261      -280.9374
  33   2.0000     -10.324053      -280.9318
  34   2.0000     -10.321459      -280.8612
  35   2.0000     -10.320126      -280.8249
  36   2.0000     -10.319954      -280.8202
  37   2.0000     -10.319636      -280.8116
  38   2.0000     -10.319338      -280.8034
  39   2.0000     -10.318003      -280.7671
  40   2.0000     -10.316913      -280.7375
  41   2.0000     -10.315114      -280.6885
  42   2.0000     -10.314968      -280.6846
  43   2.0000     -10.313502      -280.6447
  44   2.0000     -10.313477      -280.6440
  45   2.0000     -10.310817      -280.5716
  46   2.0000     -10.309451      -280.5344
  47   2.0000     -10.309055      -280.5237
  48   2.0000     -10.308723      -280.5146
  49   2.0000     -10.307496      -280.4812
  50   2.0000     -10.305773      -280.4343
  51   2.0000     -10.303455      -280.3713
  52   2.0000     -10.303037      -280.3599
  53   2.0000     -10.302914      -280.3565
  54   2.0000     -10.302816      -280.3539
  55   2.0000     -10.302610      -280.3483
  56   2.0000     -10.301896      -280.3289
  57   2.0000     -10.297631      -280.2128
  58   2.0000     -10.295756      -280.1618
  59   2.0000     -10.295212      -280.1470
  60   2.0000     -10.293908      -280.1115
  61   2.0000     -10.293737      -280.1068
  62   2.0000     -10.293375      -280.0970
  63   2.0000     -10.286419      -279.9077
  64   2.0000     -10.286353      -279.9059
  65   2.0000     -10.282832      -279.8101
  66   2.0000     -10.278696      -279.6975
  67   2.0000     -10.277192      -279.6566
  68   2.0000     -10.272577      -279.5310
  69   2.0000     -10.270042      -279.4620
  70   2.0000     -10.266000      -279.3521
  71   2.0000     -10.265432      -279.3366
  72   2.0000     -10.261622      -279.2329
  73   2.0000     -10.258428      -279.1460
  74   2.0000     -10.257234      -279.1135
  75   2.0000     -10.252928      -278.9963
  76   2.0000     -10.252824      -278.9935
  77   2.0000      -9.550354      -259.8783
  78   2.0000      -9.549665      -259.8596
  79   2.0000      -8.100848      -220.4353
  80   2.0000      -8.067920      -219.5393
  81   2.0000      -8.067435      -219.5261
  82   2.0000      -8.061160      -219.3553
  83   2.0000      -8.059892      -219.3208
  84   2.0000      -7.320518      -199.2014
  85   2.0000      -7.319879      -199.1840
  86   2.0000      -7.310628      -198.9323
  87   2.0000      -7.310122      -198.9185
  88   2.0000      -7.309910      -198.9128
  89   2.0000      -7.309395      -198.8988
  90   2.0000      -6.072366      -165.2375
  91   2.0000      -6.064720      -165.0294
  92   2.0000      -6.062458      -164.9679
  93   2.0000      -6.037642      -164.2926
  94   2.0000      -6.037119      -164.2784
  95   2.0000      -6.033559      -164.1815
  96   2.0000      -6.032984      -164.1658
  97   2.0000      -6.030993      -164.1117
  98   2.0000      -6.029766      -164.0783
  99   2.0000      -6.029362      -164.0673
 100   2.0000      -6.028897      -164.0546
 101   2.0000      -6.027009      -164.0033
 102   2.0000      -6.025700      -163.9676
 103   2.0000      -6.022185      -163.8720
 104   2.0000      -6.020928      -163.8378
 105   2.0000      -1.133913       -30.8553
 106   2.0000      -1.129558       -30.7368
 107   2.0000      -1.119511       -30.4634
 108   2.0000      -1.111866       -30.2554
 109   2.0000      -1.105483       -30.0817
 110   2.0000      -1.023647       -27.8549
 111   2.0000      -1.021981       -27.8095
 112   2.0000      -1.015814       -27.6417
 113   2.0000      -1.014562       -27.6076
 114   2.0000      -1.006719       -27.3942
 115   2.0000      -1.006079       -27.3768
 116   2.0000      -0.994503       -27.0618
 117   2.0000      -0.994314       -27.0567
 118   2.0000      -0.982327       -26.7305
 119   2.0000      -0.982193       -26.7268
 120   2.0000      -0.974209       -26.5096
 121   2.0000      -0.969736       -26.3878
 122   2.0000      -0.957813       -26.0634
 123   2.0000      -0.949589       -25.8396
 124   2.0000      -0.935203       -25.4482
 125   2.0000      -0.933113       -25.3913
 126   2.0000      -0.925322       -25.1793
 127   2.0000      -0.920435       -25.0463
 128   2.0000      -0.904849       -24.6222
 129   2.0000      -0.901556       -24.5326
 130   2.0000      -0.899420       -24.4745
 131   2.0000      -0.896429       -24.3931
 132   2.0000      -0.888794       -24.1853
 133   2.0000      -0.879425       -23.9304
 134   2.0000      -0.873295       -23.7636
 135   2.0000      -0.866453       -23.5774
 136   2.0000      -0.861386       -23.4395
 137   2.0000      -0.859018       -23.3751
 138   2.0000      -0.856206       -23.2986
 139   2.0000      -0.845798       -23.0153
 140   2.0000      -0.840866       -22.8811
 141   2.0000      -0.837589       -22.7919
 142   2.0000      -0.821091       -22.3430
 143   2.0000      -0.818982       -22.2856
 144   2.0000      -0.814050       -22.1514
 145   2.0000      -0.805310       -21.9136
 146   2.0000      -0.796820       -21.6826
 147   2.0000      -0.795050       -21.6344
 148   2.0000      -0.788024       -21.4432
 149   2.0000      -0.770393       -20.9635
 150   2.0000      -0.762707       -20.7543
 151   2.0000      -0.756053       -20.5732
 152   2.0000      -0.752550       -20.4779
 153   2.0000      -0.751647       -20.4533
 154   2.0000      -0.732714       -19.9382
 155   2.0000      -0.725050       -19.7296
 156   2.0000      -0.721091       -19.6219
 157   2.0000      -0.716755       -19.5039
 158   2.0000      -0.709834       -19.3156
 159   2.0000      -0.705034       -19.1849
 160   2.0000      -0.700854       -19.0712
 161   2.0000      -0.699249       -19.0275
 162   2.0000      -0.694058       -18.8863
 163   2.0000      -0.691848       -18.8261
 164   2.0000      -0.687914       -18.7191
 165   2.0000      -0.682411       -18.5694
 166   2.0000      -0.670498       -18.2452
 167   2.0000      -0.668487       -18.1905
 168   2.0000      -0.666503       -18.1365
 169   2.0000      -0.661735       -18.0067
 170   2.0000      -0.659432       -17.9441
 171   2.0000      -0.648790       -17.6545
 172   2.0000      -0.643622       -17.5139
 173   2.0000      -0.642250       -17.4765
 174   2.0000      -0.630558       -17.1584
 175   2.0000      -0.626286       -17.0421
 176   2.0000      -0.619070       -16.8458
 177   2.0000      -0.615577       -16.7507
 178   2.0000      -0.610149       -16.6030
 179   2.0000      -0.606281       -16.4977
 180   2.0000      -0.599881       -16.3236
 181   2.0000      -0.597498       -16.2588
 182   2.0000      -0.591042       -16.0831
 183   2.0000      -0.589281       -16.0352
 184   2.0000      -0.585235       -15.9251
 185   2.0000      -0.580459       -15.7951
 186   2.0000      -0.573306       -15.6004
 187   2.0000      -0.570909       -15.5352
 188   2.0000      -0.568383       -15.4665
 189   2.0000      -0.559051       -15.2125
 190   2.0000      -0.557680       -15.1752
 191   2.0000      -0.556163       -15.1340
 192   2.0000      -0.549994       -14.9661
 193   2.0000      -0.548373       -14.9220
 194   2.0000      -0.547189       -14.8898
 195   2.0000      -0.544553       -14.8180
 196   2.0000      -0.542672       -14.7668
 197   2.0000      -0.541072       -14.7233
 198   2.0000      -0.539877       -14.6908
 199   2.0000      -0.537475       -14.6254
 200   2.0000      -0.535572       -14.5737
 201   2.0000      -0.533362       -14.5135
 202   2.0000      -0.530552       -14.4371
 203   2.0000      -0.528039       -14.3687
 204   2.0000      -0.524261       -14.2659
 205   2.0000      -0.523008       -14.2318
 206   2.0000      -0.520108       -14.1529
 207   2.0000      -0.519516       -14.1367
 208   2.0000      -0.517208       -14.0739
 209   2.0000      -0.512434       -13.9440
 210   2.0000      -0.510774       -13.8989
 211   2.0000      -0.508347       -13.8328
 212   2.0000      -0.507454       -13.8085
 213   2.0000      -0.505665       -13.7599
 214   2.0000      -0.504770       -13.7355
 215   2.0000      -0.503107       -13.6902
 216   2.0000      -0.500751       -13.6261
 217   2.0000      -0.498848       -13.5744
 218   2.0000      -0.497491       -13.5374
 219   2.0000      -0.496176       -13.5016
 220   2.0000      -0.493014       -13.4156
 221   2.0000      -0.490900       -13.3581
 222   2.0000      -0.485134       -13.2012
 223   2.0000      -0.483827       -13.1656
 224   2.0000      -0.482474       -13.1288
 225   2.0000      -0.481041       -13.0898
 226   2.0000      -0.480228       -13.0677
 227   2.0000      -0.477619       -12.9967
 228   2.0000      -0.473054       -12.8725
 229   2.0000      -0.469639       -12.7795
 230   2.0000      -0.466979       -12.7071
 231   2.0000      -0.464201       -12.6315
 232   2.0000      -0.462252       -12.5785
 233   2.0000      -0.459786       -12.5114
 234   2.0000      -0.459329       -12.4990
 235   2.0000      -0.458713       -12.4822
 236   2.0000      -0.455876       -12.4050
 237   2.0000      -0.454709       -12.3733
 238   2.0000      -0.454583       -12.3698
 239   2.0000      -0.450620       -12.2620
 240   2.0000      -0.450095       -12.2477
 241   2.0000      -0.449192       -12.2231
 242   2.0000      -0.445362       -12.1189
 243   2.0000      -0.443883       -12.0787
 244   2.0000      -0.443369       -12.0647
 245   2.0000      -0.440635       -11.9903
 246   2.0000      -0.436170       -11.8688
 247   2.0000      -0.434213       -11.8155
 248   2.0000      -0.432681       -11.7738
 249   2.0000      -0.431230       -11.7344
 250   2.0000      -0.429065       -11.6754
 251   2.0000      -0.428583       -11.6623
 252   2.0000      -0.427982       -11.6460
 253   2.0000      -0.427208       -11.6249
 254   2.0000      -0.426431       -11.6038
 255   2.0000      -0.426026       -11.5928
 256   2.0000      -0.424527       -11.5520
 257   2.0000      -0.422818       -11.5055
 258   2.0000      -0.422047       -11.4845
 259   2.0000      -0.420519       -11.4429
 260   2.0000      -0.419066       -11.4034
 261   2.0000      -0.416465       -11.3326
 262   2.0000      -0.413607       -11.2548
 263   2.0000      -0.412253       -11.2180
 264   2.0000      -0.411545       -11.1987
 265   2.0000      -0.411370       -11.1939
 266   2.0000      -0.408001       -11.1023
 267   2.0000      -0.407778       -11.0962
 268   2.0000      -0.405866       -11.0442
 269   2.0000      -0.400228       -10.8908
 270   2.0000      -0.398937       -10.8556
 271   2.0000      -0.394750       -10.7417
 272   2.0000      -0.394137       -10.7250
 273   2.0000      -0.392843       -10.6898
 274   2.0000      -0.392317       -10.6755
 275   2.0000      -0.391737       -10.6597
 276   2.0000      -0.391459       -10.6521
 277   2.0000      -0.388217       -10.5639
 278   2.0000      -0.367673       -10.0049
 279   2.0000      -0.364530        -9.9194
 280   2.0000      -0.363295        -9.8858
 281   2.0000      -0.350696        -9.5429
 282   2.0000      -0.343775        -9.3546
 283   2.0000      -0.341711        -9.2984
 284   2.0000      -0.336509        -9.1569
 285   2.0000      -0.335591        -9.1319
 286   2.0000      -0.331449        -9.0192
 287   2.0000      -0.320281        -8.7153
 288   2.0000      -0.317877        -8.6499
 289   2.0000      -0.313857        -8.5405
 290   2.0000      -0.305672        -8.3178
 291   2.0000      -0.289672        -7.8824
 292   2.0000      -0.278842        -7.5877
 293   2.0000      -0.274780        -7.4771
 294   2.0000      -0.240930        -6.5560
 295   0.0000      -0.097871        -2.6632
 296   0.0000      -0.088814        -2.4168
 297   0.0000      -0.066347        -1.8054
 298   0.0000      -0.060744        -1.6529
 299   0.0000      -0.041879        -1.1396

MULLIKEN ATOMIC CHARGES
-----------------------
   0 C :    0.140957
   1 O :   -0.145081
   2 C :    0.002396
   3 C :   -0.028783
   4 C :    0.042044
   5 C :    0.056607
   6 Cl:   -0.066545
   7 C :   -0.001256
   8 C :    0.005442
   9 C :    0.246420
  10 C :   -0.326611
  11 C :   -0.197130
  12 N :    0.166829
  13 C :   -0.177056
  14 N :    0.153374
  15 C :   -0.142957
  16 C :    0.026288
  17 C :   -0.146907
  18 S :    0.138235
  19 C :   -0.031716
  20 C :   -0.099308
  21 C :   -0.013178
  22 C :    0.057309
  23 C :    0.029246
  24 S :    0.196532
  25 C :   -0.097059
  26 C :    0.018393
  27 N :   -0.153346
  28 C :    0.203020
  29 C :    0.041401
  30 C :   -0.053357
  31 C :   -0.010632
  32 N :   -0.262327
  33 S :    0.469558
  34 N :   -0.261815
  35 C :   -0.005932
  36 C :   -0.056589
  37 C :    0.051542
  38 N :   -0.155938
  39 C :    0.199841
  40 C :   -0.150375
  41 C :    0.037772
  42 C :   -0.100858
  43 S :    0.192131
  44 C :   -0.115817
  45 C :   -0.051714
  46 S :    0.139070
  47 C :   -0.133207
  48 C :    0.005908
  49 C :    0.067896
  50 C :   -0.010200
  51 C :   -0.003562
  52 C :   -0.114843
  53 C :    0.302190
  54 C :   -0.339579
  55 C :   -0.208896
  56 N :    0.165830
  57 C :   -0.188606
  58 N :    0.156575
  59 C :    0.022052
  60 C :   -0.001365
  61 C :    0.054394
  62 Cl:   -0.063049
  63 C :    0.045994
  64 C :   -0.028505
  65 C :   -0.013468
  66 C :    0.139246
  67 O :   -0.149648
  68 C :   -0.152118
  69 C :    0.023592
  70 C :    0.004927
  71 C :    0.032202
  72 C :    0.016385
  73 C :    0.019688
  74 C :    0.018078
  75 C :    0.001348
  76 C :    0.030754
  77 H :    0.003321
  78 H :   -0.001526
  79 H :   -0.000453
  80 H :    0.019704
  81 H :    0.012266
  82 H :    0.020140
  83 H :    0.028609
  84 H :    0.022638
  85 H :    0.025572
  86 H :    0.002558
  87 H :    0.015385
  88 H :    0.001353
  89 H :    0.014476
  90 H :    0.006897
  91 H :    0.026528
  92 H :    0.004818
  93 H :    0.015447
  94 H :    0.012612
  95 H :    0.046551
  96 H :    0.038621
  97 H :   -0.000939
  98 H :   -0.002132
  99 H :    0.000441
 100 H :    0.005246
 101 H :    0.004931
 102 H :   -0.001051
 103 H :   -0.001238
 104 H :    0.007256
 105 H :    0.009640
 106 H :    0.018450
 107 H :    0.012145
 108 H :    0.012113
 109 H :    0.014367
 110 H :    0.027230
 111 H :    0.007065
 112 H :   -0.001688
 113 H :    0.014759
 114 H :    0.015668
 115 H :    0.024426
 116 H :   -0.005320
 117 H :    0.008819
 118 H :    0.014464
 119 H :    0.023387
 120 H :    0.014309
Sum of atomic charges:   -0.0000000

LOEWDIN ATOMIC CHARGES
----------------------
   0 C :    0.081440
   1 O :   -0.146337
   2 C :   -0.050277
   3 C :    0.020305
   4 C :   -0.025542
   5 C :   -0.102673
   6 Cl:    0.143721
   7 C :   -0.024156
   8 C :   -0.004332
   9 C :    0.059744
  10 C :   -0.145039
  11 C :   -0.031765
  12 N :   -0.051959
  13 C :   -0.022238
  14 N :   -0.053138
  15 C :   -0.112835
  16 C :    0.052657
  17 C :   -0.189333
  18 S :    0.439454
  19 C :   -0.184862
  20 C :   -0.193684
  21 C :   -0.005287
  22 C :   -0.028105
  23 C :   -0.041080
  24 S :    0.433588
  25 C :   -0.171687
  26 C :   -0.041386
  27 N :    0.050206
  28 C :    0.046603
  29 C :    0.009450
  30 C :   -0.077361
  31 C :   -0.055714
  32 N :   -0.287423
  33 S :    0.603340
  34 N :   -0.287205
  35 C :   -0.055588
  36 C :   -0.076929
  37 C :    0.007960
  38 N :    0.050773
  39 C :    0.045791
  40 C :   -0.040499
  41 C :   -0.042858
  42 C :   -0.175123
  43 S :    0.438999
  44 C :   -0.189761
  45 C :   -0.192262
  46 S :    0.425280
  47 C :   -0.180088
  48 C :   -0.003523
  49 C :   -0.028009
  50 C :   -0.055000
  51 C :    0.051918
  52 C :   -0.109657
  53 C :    0.072565
  54 C :   -0.137594
  55 C :   -0.024257
  56 N :   -0.049492
  57 C :   -0.020790
  58 N :   -0.048654
  59 C :   -0.007156
  60 C :   -0.019629
  61 C :   -0.102502
  62 Cl:    0.145464
  63 C :   -0.023260
  64 C :    0.018915
  65 C :   -0.049016
  66 C :    0.081151
  67 O :   -0.137228
  68 C :   -0.039976
  69 C :   -0.031794
  70 C :   -0.031930
  71 C :   -0.052178
  72 C :   -0.056406
  73 C :   -0.031837
  74 C :   -0.056626
  75 C :   -0.032855
  76 C :   -0.051244
  77 H :    0.042998
  78 H :    0.037432
  79 H :    0.041195
  80 H :    0.048247
  81 H :    0.029894
  82 H :    0.034518
  83 H :    0.031682
  84 H :    0.027104
  85 H :    0.027735
  86 H :    0.022333
  87 H :    0.024109
  88 H :    0.021041
  89 H :    0.023823
  90 H :    0.018034
  91 H :    0.036984
  92 H :    0.029112
  93 H :    0.012135
  94 H :    0.025488
  95 H :    0.028361
  96 H :    0.044110
  97 H :    0.042103
  98 H :    0.037576
  99 H :    0.041967
 100 H :    0.017793
 101 H :    0.022997
 102 H :    0.018504
 103 H :    0.016092
 104 H :    0.023929
 105 H :    0.022441
 106 H :    0.028026
 107 H :    0.022803
 108 H :    0.022427
 109 H :    0.027111
 110 H :    0.025404
 111 H :    0.024691
 112 H :    0.015903
 113 H :    0.023457
 114 H :    0.027832
 115 H :    0.024110
 116 H :    0.014093
 117 H :    0.024520
 118 H :    0.024050
 119 H :    0.030071
 120 H :    0.023581

  Mayer bond orders larger than 0.100000
B(  0-C ,  1-O ) :   2.2609 B(  0-C ,  2-C ) :   0.9246 B(  0-C , 15-C ) :   0.9497
B(  2-C ,  3-C ) :   1.3841 B(  2-C ,  8-C ) :   1.3359 B(  3-C ,  4-C ) :   1.3467
B(  3-C , 77-H ) :   1.0041 B(  4-C ,  5-C ) :   1.3921 B(  4-C , 78-H ) :   0.9915
B(  5-C ,  6-Cl) :   1.0036 B(  5-C ,  7-C ) :   1.3450 B(  7-C ,  8-C ) :   1.3696
B(  7-C , 79-H ) :   0.9855 B(  8-C ,  9-C ) :   1.0009 B(  9-C , 10-C ) :   1.6448
B(  9-C , 15-C ) :   1.0519 B( 10-C , 11-C ) :   1.1622 B( 10-C , 13-C ) :   1.1339
B( 11-C , 12-N ) :   2.9950 B( 13-C , 14-N ) :   2.9909 B( 15-C , 16-C ) :   1.6101
B( 16-C , 17-C ) :   1.1783 B( 16-C , 80-H ) :   0.9375 B( 17-C , 18-S ) :   1.0476
B( 17-C , 21-C ) :   1.4320 B( 18-S , 19-C ) :   1.0644 B( 19-C , 20-C ) :   1.4420
B( 19-C , 26-C ) :   1.2946 B( 20-C , 21-C ) :   1.3688 B( 20-C , 24-S ) :   1.0276
B( 21-C , 22-C ) :   1.0911 B( 22-C , 23-C ) :   1.1032 B( 22-C , 81-H ) :   0.9205
B( 22-C , 82-H ) :   0.9077 B( 23-C , 83-H ) :   0.9667 B( 23-C , 84-H ) :   0.9661
B( 23-C , 85-H ) :   0.9678 B( 24-S , 25-C ) :   1.0251 B( 25-C , 26-C ) :   1.4104
B( 25-C , 30-C ) :   1.3527 B( 26-C , 27-N ) :   1.1511 B( 26-C , 29-C ) :   0.1088
B( 27-N , 28-C ) :   0.9574 B( 27-N , 29-C ) :   1.1650 B( 28-C , 68-C ) :   1.0552
B( 28-C , 86-H ) :   0.9337 B( 28-C , 87-H ) :   0.9216 B( 29-C , 30-C ) :   1.3904
B( 29-C , 37-C ) :   1.1368 B( 30-C , 31-C ) :   1.1020 B( 30-C , 36-C ) :   0.1060
B( 31-C , 32-N ) :   1.6316 B( 31-C , 35-C ) :   1.1507 B( 32-N , 33-S ) :   1.2232
B( 32-N , 34-N ) :   0.1305 B( 33-S , 34-N ) :   1.2245 B( 34-N , 35-C ) :   1.6291
B( 35-C , 36-C ) :   1.1020 B( 36-C , 37-C ) :   1.3876 B( 36-C , 42-C ) :   1.3552
B( 37-C , 38-N ) :   1.1681 B( 37-C , 41-C ) :   0.1076 B( 38-N , 39-C ) :   0.9581
B( 38-N , 41-C ) :   1.1545 B( 39-C , 40-C ) :   1.0506 B( 39-C , 88-H ) :   0.9342
B( 39-C , 89-H ) :   0.9219 B( 40-C , 73-C ) :   1.0175 B( 40-C , 75-C ) :   1.0448
B( 40-C , 90-H ) :   0.9258 B( 41-C , 42-C ) :   1.4106 B( 41-C , 45-C ) :   1.2753
B( 42-C , 43-S ) :   1.0235 B( 43-S , 44-C ) :   1.0363 B( 44-C , 45-C ) :   1.4446
B( 44-C , 48-C ) :   1.3417 B( 45-C , 46-S ) :   1.0744 B( 46-S , 47-C ) :   1.0358
B( 47-C , 48-C ) :   1.4791 B( 47-C , 51-C ) :   1.1756 B( 48-C , 49-C ) :   1.0787
B( 49-C , 50-C ) :   1.0913 B( 49-C , 91-H ) :   0.9253 B( 49-C , 92-H ) :   0.9134
B( 50-C , 93-H ) :   0.9656 B( 50-C , 94-H ) :   0.9619 B( 50-C , 95-H ) :   0.9590
B( 51-C , 52-C ) :   1.5767 B( 51-C , 96-H ) :   0.9313 B( 52-C , 53-C ) :   1.0816
B( 52-C , 66-C ) :   0.9602 B( 53-C , 54-C ) :   1.6421 B( 53-C , 59-C ) :   0.9874
B( 54-C , 55-C ) :   1.1454 B( 54-C , 57-C ) :   1.1393 B( 55-C , 56-N ) :   2.9937
B( 57-C , 58-N ) :   2.9750 B( 59-C , 60-C ) :   1.3656 B( 59-C , 65-C ) :   1.3360
B( 60-C , 61-C ) :   1.3438 B( 60-C , 97-H ) :   0.9820 B( 61-C , 62-Cl) :   1.0123
B( 61-C , 63-C ) :   1.3902 B( 63-C , 64-C ) :   1.3448 B( 63-C , 98-H ) :   0.9904
B( 64-C , 65-C ) :   1.3775 B( 64-C , 99-H ) :   1.0050 B( 65-C , 66-C ) :   0.9395
B( 66-C , 67-O ) :   2.1756 B( 68-C , 69-C ) :   1.0156 B( 68-C , 70-C ) :   1.0466
B( 68-C ,100-H ) :   0.9252 B( 69-C , 72-C ) :   1.1067 B( 69-C ,101-H ) :   0.9441
B( 69-C ,102-H ) :   0.9350 B( 70-C , 71-C ) :   1.1032 B( 70-C ,103-H ) :   0.9435
B( 70-C ,104-H ) :   0.9400 B( 71-C ,105-H ) :   0.9686 B( 71-C ,106-H ) :   0.9641
B( 71-C ,107-H ) :   0.9676 B( 72-C ,108-H ) :   0.9673 B( 72-C ,109-H ) :   0.9618
B( 72-C ,110-H ) :   0.9689 B( 73-C , 74-C ) :   1.1083 B( 73-C ,111-H ) :   0.9432
B( 73-C ,112-H ) :   0.9346 B( 74-C ,113-H ) :   0.9672 B( 74-C ,114-H ) :   0.9616
B( 74-C ,115-H ) :   0.9683 B( 75-C , 76-C ) :   1.1046 B( 75-C ,116-H ) :   0.9425
B( 75-C ,117-H ) :   0.9394 B( 76-C ,118-H ) :   0.9686 B( 76-C ,119-H ) :   0.9635
B( 76-C ,120-H ) :   0.9669

-----------------------------------------------------------------------------
         ABSORPTION SPECTRUM VIA TRANSITION ELECTRIC DIPOLE MOMENTS
-----------------------------------------------------------------------------
State   Energy  Wavelength   fosc         T2         TX        TY        TZ
        (cm-1)    (nm)                  (au**2)     (au)      (au)      (au)
-----------------------------------------------------------------------------
   0   16284.0    614.1   1.553217244  31.40124  -3.93108  -3.91688   0.77839
   1   19245.5    519.6   0.682654773  11.67747  -0.18299  -1.39399   3.11461
   2   23571.4    424.2   0.065436526   0.91392  -0.81858   0.01564  -0.49357
   3   23894.5    418.5   0.138662500   1.91045  -0.52133  -1.23227   0.34665
   4   24971.1    400.5   0.184159420   2.42790   1.31823   0.68657   0.46774
   5   25060.4    399.0   0.118797524   1.56061   1.20444   0.32847   0.04516
   6   26014.2    384.4   0.128688536   1.62857   0.04564   0.18197  -1.26229
   7   27000.9    370.4   0.090496768   1.10339   0.02315  -0.43617   0.95531
   8   27721.5    360.7   0.054055909   0.64195  -0.06603  -0.33702   0.72389
   9   29122.4    343.4   0.031257999   0.35335   0.44761   0.30520  -0.24463
  10   29901.1    334.4   0.132416812   1.45791  -1.15029   0.00629  -0.36701
  11   30173.3    331.4   0.009528661   0.10396   0.23439  -0.21651   0.04637
  12   30573.6    327.1   0.086829544   0.93497   0.18513   0.71783  -0.62081
  13   31133.0    321.2   0.078208649   0.82701  -0.06541   0.67327   0.60782
  14   31510.9    317.4   0.030799249   0.32178  -0.51430  -0.03781  -0.23630
  15   32014.5    312.4   0.053099050   0.54603  -0.58454   0.34319  -0.29423
  16   32360.7    309.0   0.096439354   0.98110   0.96564   0.20868  -0.07136
  17   32569.0    307.0   0.048706047   0.49233   0.02993  -0.52616  -0.46324
  18   33076.6    302.3   0.009791166   0.09745  -0.21275  -0.12339   0.19226
  19   33476.7    298.7   0.112104826   1.10244   0.41317  -0.58462   0.76808
  20   33760.2    296.2   0.118636063   1.15688   0.94259  -0.49828   0.14183
  21   33953.7    294.5   0.001185581   0.01150  -0.06268  -0.07101   0.05024
  22   34173.7    292.6   0.150582307   1.45063   0.50846   0.27160   1.05752
  23   34499.6    289.9   0.054417130   0.51927   0.33630   0.19700   0.60611
  24   34698.0    288.2   0.037444453   0.35527   0.41469   0.33405  -0.26779
  25   34955.2    286.1   0.054667587   0.51487  -0.68440   0.13129   0.17097
  26   35605.1    280.9   0.317334560   2.93414  -1.02002  -1.22820   0.62065
  27   36221.8    276.1   0.315939828   2.87151  -1.36177  -0.88952  -0.47524
  28   36619.1    273.1   0.031250993   0.28095  -0.18953  -0.24082   0.43248
  29   36963.7    270.5   0.083812043   0.74646   0.72704   0.45055  -0.12195
  30   37306.9    268.0   0.027459304   0.24231   0.03181   0.25707  -0.41859
  31   37740.1    265.0   0.293166900   2.55734   0.94417  -1.24839  -0.32773
  32   38037.4    262.9   0.394513394   3.41449   0.57720   0.64511   1.63254
  33   38175.1    262.0   0.107384321   0.92605  -0.91477  -0.10716  -0.27886
  34   38499.8    259.7   0.254813754   2.17892  -0.81456   0.03214   1.23060
  35   38920.3    256.9   0.179836620   1.52117  -0.68042   0.13968   1.01916
  36   39190.0    255.2   0.001142248   0.00960  -0.06543   0.04359  -0.05843
  37   39367.6    254.0   0.037006759   0.30947   0.47137  -0.20758   0.21022
  38   40199.1    248.8   0.112983054   0.92528   0.45371   0.71316  -0.45916

FINAL SINGLE POINT ENERGY     -5808.076514620378

DIPOLE MOMENT
-------------
                                X             Y             Z
Electronic contribution:    -19.99819     -17.36021      14.82824
Nuclear contribution   :     21.96467      16.27616     -17.06025
                        -----------------------------------------
Total Dipole Moment    :      1.96649      -1.08405      -2.23201
                        -----------------------------------------
Magnitude (a.u.)       :      3.16608
Magnitude (Debye)      :      8.04755

Rotational constants in cm-1:     0.001363     0.000282     0.000251
Rotational constants in MHz :    40.865089     8.452460     7.521912

                             ****ORCA TERMINATED NORMALLY****
TOTAL RUN TIME: 0 days 1 hours 26 minutes 3 seconds 744 msec
