                         Program Version 4.2.0 -  RELEASE  -
|  1> # ORCA input file
|  2> # IDIC.out
|  3> ! CAM-B3LYP def2-SVP def2/J RIJCOSX Grid4 TightSCF
|  4> %maxcore 5000
|  5> %tddft
|  6>     Mode sTDDFT
|  7>     Ethresh 5.0
|  8>     maxcore 5000
|  9> end
| 10> * xyz 0 1
| 11>    C        2.88652         1.02659        -0.08700
| 12>    C        2.83118        -0.38114        -0.23083
| 13>    C        1.61277        -1.02068        -0.21882
| 14>    C        0.46945        -0.22943        -0.12969
| 15>    C        0.52501         1.18369        -0.03973
| 16>    C        1.74388         1.81817         0.01433
| 17>    C       -0.90866        -0.59764        -0.07326
| 18>    C       -1.71299         0.53344         0.04841
| 19>    C       -0.86804         1.78008         0.02930
| 20>    C        4.26573         1.38863        -0.05776
| 21>    C        5.07584         0.26095        -0.18322
| 22>    C        4.22668        -0.97767        -0.32318
| 23>    S       -1.81135        -2.04477        -0.10141
| 24>    C       -3.31494        -1.12372         0.04327
| 25>    C       -3.06386         0.24412         0.11096
| 26>    S        5.15732         2.83704         0.06519
| 27>    C        6.66755         1.92889        -0.06935
| 28>    C        6.42600         0.56437        -0.20584
| 29>    C       -1.07359         2.63495         1.28901
| 30>    C       -1.23448         2.55801        -1.25702
| 31>    C       -0.38346         3.78448        -1.55617
| 32>    C       -0.85488         1.84330         2.57332
| 33>    C        4.51144        -1.58692        -1.71319
| 34>    C        4.43366        -1.96230         0.84451
| 35>    C        3.70239        -2.82597        -2.07238
| 36>    C        5.80714        -2.61813         0.89981
| 37>    C        7.84450         2.69675        -0.04753
| 38>    C       -4.49522        -1.88667         0.06658
| 39>    C       -5.81797        -1.53133         0.12786
| 40>    C        9.16969         2.34844        -0.09703
| 41>    C        9.77421         0.99716        -0.09216
| 42>    C       11.23315         1.21074        -0.04539
| 43>    C       11.51369         2.58655        -0.04546
| 44>    C       10.25128         3.32172        -0.10333
| 45>    C       -6.41477        -0.17656         0.15125
| 46>    C       -7.87553        -0.38114         0.13369
| 47>    C       -8.16442        -1.75501         0.12284
| 48>    C       -6.90542        -2.49851         0.13882
| 49>    C       12.23602         0.26187        -0.00458
| 50>    C       13.55147         0.70058         0.03816
| 51>    C       13.83844         2.05806         0.04168
| 52>    C       12.83195         3.01402         0.00018
| 53>    C       -8.87259         0.57466         0.12623
| 54>    C      -10.19148         0.14498         0.10614
| 55>    C      -10.48713        -1.21065         0.09319
| 56>    C       -9.48631        -2.17340         0.10152
| 57>    O        9.22436        -0.08656        -0.11004
| 58>    O       -5.85965         0.90410         0.17539
| 59>    C       -6.81175        -3.86555         0.17815
| 60>    C       10.14898         4.68602        -0.18855
| 61>    C        8.96121         5.44015        -0.30184
| 62>    C       11.25408         5.56468        -0.19620
| 63>    C       -5.62882        -4.63393         0.22841
| 64>    C       -7.92326        -4.73621         0.18701
| 65>    N        8.05874         6.14357        -0.40815
| 66>    N       12.09718         6.34392        -0.20563
| 67>    N       -8.77025        -5.51116         0.19419
| 68>    N       -4.73134        -5.34981         0.27798
| 69>    H        1.51920        -2.09430        -0.26153
| 70>    H        1.83750         2.88468         0.14608
| 71>    H       -3.85495         0.96452         0.20418
| 72>    H        7.22959        -0.13852        -0.32027
| 73>    H       -2.09011         3.03236         1.27554
| 74>    H       -0.37878         3.47488         1.26659
| 75>    H       -2.28042         2.85886        -1.16749
| 76>    H       -1.16075         1.86619        -2.10041
| 77>    H       -0.41704         4.50100        -0.74021
| 78>    H       -0.76600         4.27462        -2.44868
| 79>    H        0.65020         3.50661        -1.74275
| 80>    H       -1.56771         1.02546         2.65019
| 81>    H       -0.98463         2.49102         3.43687
| 82>    H        0.15022         1.42736         2.60328
| 83>    H        5.57537        -1.82366        -1.75892
| 84>    H        4.31806        -0.81123        -2.45937
| 85>    H        3.66633        -2.73539         0.78279
| 86>    H        4.26415        -1.41059         1.77335
| 87>    H        3.83323        -3.61422        -1.33632
| 88>    H        4.03817        -3.20541        -3.03508
| 89>    H        2.64481        -2.59221        -2.15603
| 90>    H        5.85552        -3.27662         1.76444
| 91>    H        6.59380        -1.87597         0.99731
| 92>    H        5.99790        -3.21458         0.01217
| 93>    H        7.64416         3.75932         0.02440
| 94>    H       -4.30031        -2.95133         0.01483
| 95>    H       11.98680        -0.78820        -0.00659
| 96>    H       14.35774        -0.01668         0.06972
| 97>    H       14.86728         2.38362         0.07722
| 98>    H       13.08856         4.06028         0.00623
| 99>    H       -8.61608         1.62287         0.13628
|100>    H      -10.99353         0.86762         0.10027
|101>    H      -11.51859        -1.52928         0.07606
|102>    H       -9.75026        -3.21772         0.08928
|103> *
|104>
|105>                          ****END OF INPUT****

CARTESIAN COORDINATES (ANGSTROEM)
---------------------------------
  C      2.886520    1.026590   -0.087000
  C      2.831180   -0.381140   -0.230830
  C      1.612770   -1.020680   -0.218820
  C      0.469450   -0.229430   -0.129690
  C      0.525010    1.183690   -0.039730
  C      1.743880    1.818170    0.014330
  C     -0.908660   -0.597640   -0.073260
  C     -1.712990    0.533440    0.048410
  C     -0.868040    1.780080    0.029300
  C      4.265730    1.388630   -0.057760
  C      5.075840    0.260950   -0.183220
  C      4.226680   -0.977670   -0.323180
  S     -1.811350   -2.044770   -0.101410
  C     -3.314940   -1.123720    0.043270
  C     -3.063860    0.244120    0.110960
  S      5.157320    2.837040    0.065190
  C      6.667550    1.928890   -0.069350
  C      6.426000    0.564370   -0.205840
  C     -1.073590    2.634950    1.289010
  C     -1.234480    2.558010   -1.257020
  C     -0.383460    3.784480   -1.556170
  C     -0.854880    1.843300    2.573320
  C      4.511440   -1.586920   -1.713190
  C      4.433660   -1.962300    0.844510
  C      3.702390   -2.825970   -2.072380
  C      5.807140   -2.618130    0.899810
  C      7.844500    2.696750   -0.047530
  C     -4.495220   -1.886670    0.066580
  C     -5.817970   -1.531330    0.127860
  C      9.169690    2.348440   -0.097030
  C      9.774210    0.997160   -0.092160
  C     11.233150    1.210740   -0.045390
  C     11.513690    2.586550   -0.045460
  C     10.251280    3.321720   -0.103330
  C     -6.414770   -0.176560    0.151250
  C     -7.875530   -0.381140    0.133690
  C     -8.164420   -1.755010    0.122840
  C     -6.905420   -2.498510    0.138820
  C     12.236020    0.261870   -0.004580
  C     13.551470    0.700580    0.038160
  C     13.838440    2.058060    0.041680
  C     12.831950    3.014020    0.000180
  C     -8.872590    0.574660    0.126230
  C    -10.191480    0.144980    0.106140
  C    -10.487130   -1.210650    0.093190
  C     -9.486310   -2.173400    0.101520
  O      9.224360   -0.086560   -0.110040
  O     -5.859650    0.904100    0.175390
  C     -6.811750   -3.865550    0.178150
  C     10.148980    4.686020   -0.188550
  C      8.961210    5.440150   -0.301840
  C     11.254080    5.564680   -0.196200
  C     -5.628820   -4.633930    0.228410
  C     -7.923260   -4.736210    0.187010
  N      8.058740    6.143570   -0.408150
  N     12.097180    6.343920   -0.205630
  N     -8.770250   -5.511160    0.194190
  N     -4.731340   -5.349810    0.277980
  H      1.519200   -2.094300   -0.261530
  H      1.837500    2.884680    0.146080
  H     -3.854950    0.964520    0.204180
  H      7.229590   -0.138520   -0.320270
  H     -2.090110    3.032360    1.275540
  H     -0.378780    3.474880    1.266590
  H     -2.280420    2.858860   -1.167490
  H     -1.160750    1.866190   -2.100410
  H     -0.417040    4.501000   -0.740210
  H     -0.766000    4.274620   -2.448680
  H      0.650200    3.506610   -1.742750
  H     -1.567710    1.025460    2.650190
  H     -0.984630    2.491020    3.436870
  H      0.150220    1.427360    2.603280
  H      5.575370   -1.823660   -1.758920
  H      4.318060   -0.811230   -2.459370
  H      3.666330   -2.735390    0.782790
  H      4.264150   -1.410590    1.773350
  H      3.833230   -3.614220   -1.336320
  H      4.038170   -3.205410   -3.035080
  H      2.644810   -2.592210   -2.156030
  H      5.855520   -3.276620    1.764440
  H      6.593800   -1.875970    0.997310
  H      5.997900   -3.214580    0.012170
  H      7.644160    3.759320    0.024400
  H     -4.300310   -2.951330    0.014830
  H     11.986800   -0.788200   -0.006590
  H     14.357740   -0.016680    0.069720
  H     14.867280    2.383620    0.077220
  H     13.088560    4.060280    0.006230
  H     -8.616080    1.622870    0.136280
  H    -10.993530    0.867620    0.100270
  H    -11.518590   -1.529280    0.076060
  H     -9.750260   -3.217720    0.089280

 Total Charge           Charge          ....    0
 Multiplicity           Mult            ....    1
 Number of Electrons    NEL             ....  410
 Basis Dimension        Dim             ....  990

ORBITAL ENERGIES
----------------

  NO   OCC          E(Eh)            E(eV)
   0   2.0000     -88.974132     -2421.1092
   1   2.0000     -88.974041     -2421.1067
   2   2.0000     -19.218386      -522.9589
   3   2.0000     -19.218028      -522.9491
   4   2.0000     -14.415669      -392.2703
   5   2.0000     -14.415561      -392.2673
   6   2.0000     -14.410902      -392.1406
   7   2.0000     -14.410820      -392.1384
   8   2.0000     -10.368885      -282.1517
   9   2.0000     -10.368539      -282.1423
  10   2.0000     -10.339642      -281.3560
  11   2.0000     -10.339631      -281.3557
  12   2.0000     -10.339048      -281.3398
  13   2.0000     -10.339003      -281.3386
  14   2.0000     -10.322018      -280.8764
  15   2.0000     -10.321820      -280.8710
  16   2.0000     -10.318710      -280.7864
  17   2.0000     -10.318611      -280.7837
  18   2.0000     -10.316760      -280.7333
  19   2.0000     -10.316358      -280.7224
  20   2.0000     -10.316050      -280.7140
  21   2.0000     -10.315413      -280.6967
  22   2.0000     -10.314458      -280.6707
  23   2.0000     -10.314401      -280.6691
  24   2.0000     -10.303462      -280.3715
  25   2.0000     -10.303349      -280.3684
  26   2.0000     -10.298767      -280.2437
  27   2.0000     -10.298652      -280.2406
  28   2.0000     -10.297090      -280.1981
  29   2.0000     -10.296340      -280.1777
  30   2.0000     -10.296193      -280.1737
  31   2.0000     -10.295569      -280.1567
  32   2.0000     -10.293364      -280.0967
  33   2.0000     -10.293212      -280.0925
  34   2.0000     -10.292979      -280.0862
  35   2.0000     -10.292819      -280.0819
  36   2.0000     -10.292537      -280.0742
  37   2.0000     -10.292400      -280.0704
  38   2.0000     -10.292147      -280.0636
  39   2.0000     -10.292012      -280.0599
  40   2.0000     -10.292003      -280.0596
  41   2.0000     -10.291858      -280.0557
  42   2.0000     -10.291004      -280.0325
  43   2.0000     -10.290874      -280.0289
  44   2.0000     -10.289160      -279.9823
  45   2.0000     -10.288914      -279.9756
  46   2.0000     -10.288370      -279.9608
  47   2.0000     -10.287871      -279.9472
  48   2.0000     -10.283774      -279.8357
  49   2.0000     -10.282751      -279.8079
  50   2.0000     -10.274397      -279.5806
  51   2.0000     -10.274069      -279.5716
  52   2.0000     -10.273992      -279.5695
  53   2.0000     -10.273296      -279.5506
  54   2.0000     -10.261698      -279.2350
  55   2.0000     -10.260188      -279.1939
  56   2.0000     -10.258443      -279.1464
  57   2.0000     -10.256033      -279.0808
  58   2.0000      -8.069258      -219.5757
  59   2.0000      -8.069077      -219.5708
  60   2.0000      -6.038341      -164.3116
  61   2.0000      -6.038185      -164.3074
  62   2.0000      -6.034445      -164.2056
  63   2.0000      -6.034252      -164.2003
  64   2.0000      -6.031573      -164.1274
  65   2.0000      -6.031402      -164.1228
  66   2.0000      -1.132442       -30.8153
  67   2.0000      -1.132224       -30.8094
  68   2.0000      -1.022231       -27.8163
  69   2.0000      -1.017099       -27.6767
  70   2.0000      -1.016518       -27.6609
  71   2.0000      -1.012340       -27.5472
  72   2.0000      -0.995390       -27.0859
  73   2.0000      -0.995314       -27.0839
  74   2.0000      -0.991005       -26.9666
  75   2.0000      -0.990903       -26.9638
  76   2.0000      -0.974602       -26.5203
  77   2.0000      -0.955151       -25.9910
  78   2.0000      -0.946039       -25.7430
  79   2.0000      -0.943269       -25.6677
  80   2.0000      -0.917089       -24.9553
  81   2.0000      -0.904940       -24.6247
  82   2.0000      -0.900796       -24.5119
  83   2.0000      -0.895378       -24.3645
  84   2.0000      -0.886839       -24.1321
  85   2.0000      -0.871305       -23.7094
  86   2.0000      -0.857603       -23.3366
  87   2.0000      -0.857310       -23.3286
  88   2.0000      -0.850593       -23.1458
  89   2.0000      -0.847745       -23.0683
  90   2.0000      -0.845623       -23.0106
  91   2.0000      -0.843267       -22.9465
  92   2.0000      -0.841029       -22.8856
  93   2.0000      -0.836131       -22.7523
  94   2.0000      -0.808843       -22.0097
  95   2.0000      -0.797457       -21.6999
  96   2.0000      -0.775392       -21.0995
  97   2.0000      -0.767212       -20.8769
  98   2.0000      -0.765875       -20.8405
  99   2.0000      -0.765306       -20.8250
 100   2.0000      -0.751641       -20.4532
 101   2.0000      -0.729458       -19.8496
 102   2.0000      -0.716043       -19.4845
 103   2.0000      -0.707093       -19.2410
 104   2.0000      -0.705223       -19.1901
 105   2.0000      -0.699649       -19.0384
 106   2.0000      -0.694230       -18.8910
 107   2.0000      -0.692823       -18.8527
 108   2.0000      -0.686759       -18.6877
 109   2.0000      -0.681274       -18.5384
 110   2.0000      -0.674924       -18.3656
 111   2.0000      -0.663181       -18.0461
 112   2.0000      -0.653471       -17.7818
 113   2.0000      -0.647326       -17.6146
 114   2.0000      -0.646605       -17.5950
 115   2.0000      -0.635311       -17.2877
 116   2.0000      -0.627994       -17.0886
 117   2.0000      -0.614673       -16.7261
 118   2.0000      -0.612488       -16.6667
 119   2.0000      -0.610994       -16.6260
 120   2.0000      -0.609027       -16.5725
 121   2.0000      -0.600342       -16.3361
 122   2.0000      -0.578918       -15.7532
 123   2.0000      -0.576363       -15.6836
 124   2.0000      -0.575543       -15.6613
 125   2.0000      -0.565688       -15.3931
 126   2.0000      -0.562023       -15.2934
 127   2.0000      -0.554852       -15.0983
 128   2.0000      -0.551716       -15.0130
 129   2.0000      -0.548654       -14.9296
 130   2.0000      -0.546719       -14.8770
 131   2.0000      -0.541614       -14.7381
 132   2.0000      -0.539486       -14.6802
 133   2.0000      -0.536976       -14.6118
 134   2.0000      -0.536101       -14.5881
 135   2.0000      -0.535861       -14.5815
 136   2.0000      -0.533413       -14.5149
 137   2.0000      -0.532569       -14.4919
 138   2.0000      -0.529838       -14.4176
 139   2.0000      -0.527535       -14.3550
 140   2.0000      -0.526167       -14.3177
 141   2.0000      -0.519676       -14.1411
 142   2.0000      -0.517883       -14.0923
 143   2.0000      -0.513921       -13.9845
 144   2.0000      -0.504561       -13.7298
 145   2.0000      -0.500599       -13.6220
 146   2.0000      -0.498521       -13.5655
 147   2.0000      -0.496544       -13.5116
 148   2.0000      -0.494711       -13.4618
 149   2.0000      -0.493844       -13.4382
 150   2.0000      -0.491291       -13.3687
 151   2.0000      -0.490095       -13.3362
 152   2.0000      -0.486241       -13.2313
 153   2.0000      -0.480836       -13.0842
 154   2.0000      -0.475018       -12.9259
 155   2.0000      -0.468320       -12.7436
 156   2.0000      -0.467552       -12.7227
 157   2.0000      -0.463905       -12.6235
 158   2.0000      -0.460896       -12.5416
 159   2.0000      -0.457284       -12.4433
 160   2.0000      -0.456292       -12.4163
 161   2.0000      -0.456245       -12.4151
 162   2.0000      -0.454436       -12.3658
 163   2.0000      -0.451056       -12.2739
 164   2.0000      -0.449618       -12.2347
 165   2.0000      -0.448369       -12.2007
 166   2.0000      -0.447022       -12.1641
 167   2.0000      -0.446946       -12.1620
 168   2.0000      -0.445292       -12.1170
 169   2.0000      -0.443494       -12.0681
 170   2.0000      -0.441911       -12.0250
 171   2.0000      -0.441065       -12.0020
 172   2.0000      -0.440055       -11.9745
 173   2.0000      -0.436774       -11.8852
 174   2.0000      -0.435967       -11.8633
 175   2.0000      -0.428237       -11.6529
 176   2.0000      -0.426081       -11.5942
 177   2.0000      -0.424844       -11.5606
 178   2.0000      -0.424480       -11.5507
 179   2.0000      -0.421469       -11.4688
 180   2.0000      -0.419185       -11.4066
 181   2.0000      -0.419095       -11.4042
 182   2.0000      -0.415251       -11.2996
 183   2.0000      -0.411360       -11.1937
 184   2.0000      -0.406727       -11.0676
 185   2.0000      -0.403967       -10.9925
 186   2.0000      -0.403359       -10.9760
 187   2.0000      -0.402809       -10.9610
 188   2.0000      -0.398379       -10.8404
 189   2.0000      -0.395884       -10.7725
 190   2.0000      -0.392786       -10.6882
 191   2.0000      -0.389527       -10.5996
 192   2.0000      -0.372000       -10.1226
 193   2.0000      -0.345913        -9.4128
 194   2.0000      -0.342138        -9.3101
 195   2.0000      -0.340778        -9.2730
 196   2.0000      -0.339233        -9.2310
 197   2.0000      -0.338524        -9.2117
 198   2.0000      -0.335573        -9.1314
 199   2.0000      -0.332512        -9.0481
 200   2.0000      -0.326780        -8.8921
 201   2.0000      -0.318504        -8.6669
 202   2.0000      -0.312386        -8.5005
 203   2.0000      -0.287373        -7.8198
 204   2.0000      -0.254284        -6.9194
 205   0.0000      -0.099703        -2.7131
 206   0.0000      -0.081462        -2.2167
 207   0.0000      -0.063063        -1.7160
 208   0.0000      -0.057772        -1.5720
 209   0.0000      -0.019654        -0.5348

MULLIKEN ATOMIC CHARGES
-----------------------
   0 C :    0.056055
   1 C :    0.028836
   2 C :   -0.114826
   3 C :    0.063693
   4 C :    0.008259
   5 C :   -0.108001
   6 C :   -0.040084
   7 C :    0.013246
   8 C :   -0.110204
   9 C :   -0.048334
  10 C :    0.029682
  11 C :   -0.107281
  12 S :    0.161685
  13 C :   -0.112281
  14 C :   -0.025009
  15 S :    0.163224
  16 C :   -0.111452
  17 C :   -0.035935
  18 C :    0.048725
  19 C :    0.067163
  20 C :    0.031230
  21 C :    0.022454
  22 C :    0.045863
  23 C :    0.048452
  24 C :    0.036344
  25 C :    0.028798
  26 C :    0.043774
  27 C :    0.045935
  28 C :   -0.090933
  29 C :   -0.091997
  30 C :    0.153004
  31 C :   -0.013616
  32 C :    0.025613
  33 C :    0.308106
  34 C :    0.152473
  35 C :   -0.013691
  36 C :    0.025690
  37 C :    0.309271
  38 C :   -0.026701
  39 C :    0.041470
  40 C :    0.041383
  41 C :   -0.027253
  42 C :   -0.026410
  43 C :    0.041409
  44 C :    0.041145
  45 C :   -0.027056
  46 O :   -0.162311
  47 O :   -0.160587
  48 C :   -0.358464
  49 C :   -0.356850
  50 C :   -0.186388
  51 C :   -0.190438
  52 C :   -0.183762
  53 C :   -0.190782
  54 N :    0.146989
  55 N :    0.153215
  56 N :    0.153565
  57 N :    0.146545
  58 H :   -0.026942
  59 H :   -0.029133
  60 H :    0.006832
  61 H :    0.017700
  62 H :    0.009884
  63 H :    0.011050
  64 H :    0.009544
  65 H :    0.007433
  66 H :    0.008890
  67 H :    0.018214
  68 H :    0.017449
  69 H :    0.023475
  70 H :    0.015346
  71 H :    0.017314
  72 H :    0.015077
  73 H :    0.008731
  74 H :    0.007356
  75 H :    0.008085
  76 H :    0.008403
  77 H :    0.018265
  78 H :    0.015444
  79 H :    0.017435
  80 H :    0.023420
  81 H :    0.011142
  82 H :    0.001177
  83 H :   -0.001422
  84 H :   -0.005609
  85 H :    0.001031
  86 H :    0.000431
  87 H :    0.002910
  88 H :   -0.005776
  89 H :    0.001059
  90 H :    0.000426
  91 H :    0.002704
Sum of atomic charges:    0.0000000

LOEWDIN ATOMIC CHARGES
----------------------
   0 C :   -0.029673
   1 C :    0.016251
   2 C :   -0.019648
   3 C :   -0.028875
   4 C :    0.014149
   5 C :   -0.020102
   6 C :   -0.155042
   7 C :   -0.039641
   8 C :   -0.033822
   9 C :   -0.153168
  10 C :   -0.039624
  11 C :   -0.032180
  12 S :    0.458858
  13 C :   -0.174460
  14 C :   -0.005401
  15 S :    0.459521
  16 C :   -0.176222
  17 C :   -0.006824
  18 C :   -0.013781
  19 C :   -0.008788
  20 C :   -0.058846
  21 C :   -0.055982
  22 C :   -0.012800
  23 C :   -0.014068
  24 C :   -0.058050
  25 C :   -0.056410
  26 C :    0.046766
  27 C :    0.046199
  28 C :   -0.106757
  29 C :   -0.107375
  30 C :    0.088759
  31 C :   -0.043199
  32 C :   -0.014463
  33 C :    0.078177
  34 C :    0.088447
  35 C :   -0.043089
  36 C :   -0.014612
  37 C :    0.078316
  38 C :    0.011521
  39 C :   -0.003144
  40 C :   -0.000055
  41 C :    0.001030
  42 C :    0.011491
  43 C :   -0.003052
  44 C :   -0.000166
  45 C :    0.001038
  46 O :   -0.148878
  47 O :   -0.147436
  48 C :   -0.143470
  49 C :   -0.143483
  50 C :   -0.023724
  51 C :   -0.018310
  52 C :   -0.023465
  53 C :   -0.018288
  54 N :   -0.053827
  55 N :   -0.055405
  56 N :   -0.055387
  57 N :   -0.053715
  58 H :    0.029105
  59 H :    0.029443
  60 H :    0.033429
  61 H :    0.031999
  62 H :    0.025850
  63 H :    0.020841
  64 H :    0.025396
  65 H :    0.026922
  66 H :    0.021958
  67 H :    0.030493
  68 H :    0.023291
  69 H :    0.025533
  70 H :    0.026808
  71 H :    0.024217
  72 H :    0.024574
  73 H :    0.028487
  74 H :    0.019699
  75 H :    0.028113
  76 H :    0.021892
  77 H :    0.030831
  78 H :    0.023241
  79 H :    0.030175
  80 H :    0.028593
  81 H :    0.022479
  82 H :    0.042049
  83 H :    0.041896
  84 H :    0.038355
  85 H :    0.034376
  86 H :    0.035916
  87 H :    0.039846
  88 H :    0.038305
  89 H :    0.034370
  90 H :    0.035900
  91 H :    0.039802

  Mayer bond orders larger than 0.100000
B(  0-C ,  1-C ) :   1.3827 B(  0-C ,  5-C ) :   1.2837 B(  0-C ,  9-C ) :   1.0599
B(  1-C ,  2-C ) :   1.4106 B(  1-C , 11-C ) :   0.9166 B(  2-C ,  3-C ) :   1.2928
B(  2-C , 58-H ) :   0.9973 B(  3-C ,  4-C ) :   1.3725 B(  3-C ,  6-C ) :   1.0559
B(  4-C ,  5-C ) :   1.4137 B(  4-C ,  8-C ) :   0.9039 B(  5-C , 59-H ) :   1.0012
B(  6-C ,  7-C ) :   1.4655 B(  6-C , 12-S ) :   1.1357 B(  7-C ,  8-C ) :   0.9342
B(  7-C , 14-C ) :   1.3142 B(  8-C , 18-C ) :   1.0319 B(  8-C , 19-C ) :   1.0138
B(  9-C , 10-C ) :   1.4737 B(  9-C , 15-S ) :   1.1379 B( 10-C , 11-C ) :   0.9385
B( 10-C , 17-C ) :   1.3175 B( 11-C , 22-C ) :   1.0020 B( 11-C , 23-C ) :   1.0092
B( 12-S , 13-C ) :   1.0828 B( 13-C , 14-C ) :   1.3869 B( 13-C , 27-C ) :   1.2388
B( 14-C , 60-H ) :   0.9857 B( 15-S , 16-C ) :   1.0807 B( 16-C , 17-C ) :   1.3898
B( 16-C , 26-C ) :   1.2385 B( 17-C , 61-H ) :   0.9761 B( 18-C , 21-C ) :   1.1023
B( 18-C , 62-H ) :   0.9417 B( 18-C , 63-H ) :   0.9391 B( 19-C , 20-C ) :   1.1149
B( 19-C , 64-H ) :   0.9390 B( 19-C , 65-H ) :   0.9402 B( 20-C , 66-H ) :   0.9631
B( 20-C , 67-H ) :   0.9596 B( 20-C , 68-H ) :   0.9609 B( 21-C , 69-H ) :   0.9637
B( 21-C , 70-H ) :   0.9648 B( 21-C , 71-H ) :   0.9657 B( 22-C , 24-C ) :   1.1139
B( 22-C , 72-H ) :   0.9415 B( 22-C , 73-H ) :   0.9380 B( 23-C , 25-C ) :   1.1111
B( 23-C , 74-H ) :   0.9389 B( 23-C , 75-H ) :   0.9387 B( 24-C , 76-H ) :   0.9615
B( 24-C , 77-H ) :   0.9601 B( 24-C , 78-H ) :   0.9602 B( 25-C , 79-H ) :   0.9601
B( 25-C , 80-H ) :   0.9647 B( 25-C , 81-H ) :   0.9608 B( 26-C , 29-C ) :   1.5653
B( 26-C , 82-H ) :   0.9070 B( 27-C , 28-C ) :   1.5670 B( 27-C , 83-H ) :   0.9051
B( 28-C , 34-C ) :   0.9434 B( 28-C , 37-C ) :   1.0920 B( 29-C , 30-C ) :   0.9454
B( 29-C , 33-C ) :   1.0913 B( 30-C , 31-C ) :   0.9626 B( 30-C , 46-O ) :   2.1515
B( 31-C , 32-C ) :   1.3348 B( 31-C , 38-C ) :   1.3873 B( 32-C , 33-C ) :   0.9810
B( 32-C , 41-C ) :   1.3796 B( 33-C , 49-C ) :   1.6171 B( 34-C , 35-C ) :   0.9626
B( 34-C , 47-O ) :   2.1532 B( 35-C , 36-C ) :   1.3350 B( 35-C , 42-C ) :   1.3873
B( 36-C , 37-C ) :   0.9807 B( 36-C , 45-C ) :   1.3790 B( 37-C , 48-C ) :   1.6163
B( 38-C , 39-C ) :   1.3446 B( 38-C , 84-H ) :   1.0062 B( 39-C , 40-C ) :   1.3814
B( 39-C , 85-H ) :   0.9897 B( 40-C , 41-C ) :   1.3724 B( 40-C , 86-H ) :   0.9854
B( 41-C , 87-H ) :   0.9834 B( 42-C , 43-C ) :   1.3447 B( 42-C , 88-H ) :   1.0062
B( 43-C , 44-C ) :   1.3811 B( 43-C , 89-H ) :   0.9898 B( 44-C , 45-C ) :   1.3729
B( 44-C , 90-H ) :   0.9854 B( 45-C , 91-H ) :   0.9833 B( 48-C , 52-C ) :   1.1388
B( 48-C , 53-C ) :   1.1473 B( 49-C , 50-C ) :   1.1383 B( 49-C , 51-C ) :   1.1469
B( 50-C , 54-N ) :   2.9627 B( 51-C , 55-N ) :   2.9744 B( 52-C , 57-N ) :   2.9581
B( 53-C , 56-N ) :   2.9737

-----------------------------------------------------------------------------
         ABSORPTION SPECTRUM VIA TRANSITION ELECTRIC DIPOLE MOMENTS
-----------------------------------------------------------------------------
State   Energy  Wavelength   fosc         T2         TX        TY        TZ
        (cm-1)    (nm)                  (au**2)     (au)      (au)      (au)
-----------------------------------------------------------------------------
   0   18578.9    538.2   2.667310695  47.26393   6.52198   2.17105  -0.11916
   1   23372.1    427.9   0.000291145   0.00410   0.02656   0.03241   0.04843
   2   26445.6    378.1   0.165875408   2.06492   1.14259  -0.87122   0.01942
   3   27264.8    366.8   0.000347185   0.00419  -0.03327   0.03150   0.04575
   4   28102.0    355.8   0.000025824   0.00030   0.00140   0.01048  -0.01381
   5   30129.3    331.9   0.014859537   0.16236  -0.32991   0.22665  -0.04641
   6   30691.9    325.8   0.005848122   0.06273   0.18693  -0.16343   0.03284
   7   31176.4    320.8   0.162915534   1.72033  -0.84194   1.00134  -0.09377
   8   32223.5    310.3   0.000380114   0.00388   0.00588  -0.03156  -0.05341
   9   32741.8    305.4   0.203810161   2.04927   1.28942  -0.61909  -0.05815
  10   32962.4    303.4   0.010245519   0.10233  -0.05733   0.31427  -0.01663
  11   33166.9    301.5   0.012999437   0.12903   0.15622   0.32342  -0.00517
  12   33198.0    301.2   0.048076895   0.47676  -0.54515  -0.42359  -0.01207
  13   34655.4    288.6   0.008351292   0.07933   0.04573   0.27783  -0.00743
  14   35199.3    284.1   0.102109495   0.95501   0.33823  -0.91594  -0.04084
  15   35792.8    279.4   0.001945542   0.01789   0.11603  -0.04345  -0.05045
  16   36013.0    277.7   0.178387490   1.63073  -1.14516   0.55450  -0.10893
  17   36214.3    276.1   0.056966083   0.51786   0.54388   0.47060  -0.02422
  18   36865.2    271.3   0.000327604   0.00293  -0.00507   0.05345   0.00654
  19   37844.8    264.2   1.046903145   9.10701   1.59777  -2.55932   0.06358
  20   38709.6    258.3   0.003751112   0.03190  -0.03496   0.17213  -0.03240
  21   38966.2    256.6   0.456100919   3.85344  -0.24278   1.94752  -0.04099
  22   39161.5    255.4   0.001310856   0.01102   0.01372   0.10407   0.00083
  23   39673.4    252.1   0.127263633   1.05604   0.78484   0.66252  -0.03374

FINAL SINGLE POINT ENERGY     -3088.393968163678

DIPOLE MOMENT
-------------
                                X             Y             Z
Electronic contribution:     -3.24483       2.99464       0.90834
Nuclear contribution   :      3.29363      -3.01574      -0.93156
                        -----------------------------------------
Total Dipole Moment    :      0.04880      -0.02110      -0.02322
                        -----------------------------------------
Magnitude (a.u.)       :      0.05801
Magnitude (Debye)      :      0.14746

Rotational constants in cm-1:     0.004325     0.000407     0.000378
Rotational constants in MHz :   129.662213    12.212809    11.329853

                             ****ORCA TERMINATED NORMALLY****
TOTAL RUN TIME: 0 days 0 hours 46 minutes 43 seconds 615 msec
