                         Program Version 4.2.0 -  RELEASE  -
|  1> # ORCA input file
|  2> # IDIC.out: Geometry 18
|  3> ! CAM-B3LYP def2-SVP def2/J RIJCOSX Grid4 TightSCF
|  4> %maxcore 5000
|  5> %tddft
|  6>     Mode sTDDFT
|  7>     Ethresh 5.0
|  8>     maxcore 5000
|  9> end
| 10> * xyz 0 1
| 11>    C        2.88191         1.08454        -0.59991
| 12>    C        2.82037        -0.33452        -0.73666
| 13>    C        1.58461        -0.96482        -0.75979
| 14>    C        0.43270        -0.16393        -0.69310
| 15>    C        0.49260         1.25982        -0.62596
| 16>    C        1.72839         1.88762        -0.55896
| 17>    C       -0.95897        -0.52598        -0.59248
| 18>    C       -1.76645         0.61186        -0.50140
| 19>    C       -0.91650         1.87205        -0.56645
| 20>    C        4.27625         1.42571        -0.46215
| 21>    C        5.07977         0.28107        -0.53139
| 22>    C        4.22450        -0.95861        -0.74531
| 23>    S       -1.83943        -1.98113        -0.42668
| 24>    C       -3.35239        -1.06830        -0.21208
| 25>    C       -3.11838         0.31614        -0.30161
| 26>    S        5.17547         2.85547        -0.18956
| 27>    C        6.69201         1.92493        -0.17157
| 28>    C        6.44226         0.55933        -0.38921
| 29>    C       -1.12412         2.75594         0.68761
| 30>    C       -1.26252         2.64808        -1.87311
| 31>    C       -0.54483         3.97696        -2.10097
| 32>    C       -0.98824         2.02354         2.02149
| 33>    C        4.57353        -1.58398        -2.12967
| 34>    C        4.35770        -1.96544         0.42906
| 35>    C        3.86962        -2.89059        -2.48912
| 36>    C        5.74614        -2.57111         0.63588
| 37>    C        7.86784         2.67212         0.09247
| 38>    C       -4.49036        -1.86273         0.08392
| 39>    C       -5.81356        -1.56233         0.33093
| 40>    C        9.19973         2.32301         0.19877
| 41>    C        9.80986         0.97762        -0.01182
| 42>    C       11.27586         1.16572         0.11652
| 43>    C       11.56406         2.51317         0.40747
| 44>    C       10.28659         3.25958         0.51772
| 45>    C       -6.47688        -0.22970         0.23396
| 46>    C       -7.92580        -0.47762         0.44094
| 47>    C       -8.15023        -1.84824         0.67663
| 48>    C       -6.84425        -2.55025         0.67937
| 49>    C       12.26784         0.20281        -0.01995
| 50>    C       13.59885         0.60562         0.12575
| 51>    C       13.90312         1.94644         0.39869
| 52>    C       12.90010         2.91163         0.54432
| 53>    C       -8.95831         0.45137         0.40953
| 54>    C      -10.26474        -0.00943         0.60122
| 55>    C      -10.50589        -1.37321         0.81736
| 56>    C       -9.46188        -2.30429         0.86220
| 57>    O        9.26441        -0.08904        -0.24697
| 58>    O       -5.97747         0.86257         0.01765
| 59>    C       -6.66776        -3.88054         1.01897
| 60>    C       10.18437         4.58481         0.90544
| 61>    C        8.94856         5.28437         1.08274
| 62>    C       11.31625         5.40396         1.21293
| 63>    C       -5.39588        -4.52981         1.11275
| 64>    C       -7.74803        -4.75323         1.36323
| 65>    N        7.96937         5.89277         1.23590
| 66>    N       12.19627         6.11499         1.47883
| 67>    N       -8.58788        -5.50338         1.65077
| 68>    N       -4.38661        -5.09971         1.20653
| 69>    H        1.49589        -2.05208        -0.79544
| 70>    H        1.81565         2.96911        -0.43756
| 71>    H       -3.93759         1.02367        -0.18835
| 72>    H        7.26807        -0.14615        -0.42518
| 73>    H       -2.12524         3.21484         0.61425
| 74>    H       -0.40681         3.59177         0.65049
| 75>    H       -2.35154         2.82479        -1.86345
| 76>    H       -1.06746         1.97244        -2.72209
| 77>    H       -0.74087         4.69857        -1.29320
| 78>    H       -0.90077         4.43681        -3.03624
| 79>    H        0.54490         3.85141        -2.19162
| 80>    H       -1.75217         1.23980         2.13577
| 81>    H       -1.10509         2.72647         2.86044
| 82>    H       -0.00289         1.54051         2.11895
| 83>    H        5.66406        -1.74222        -2.15933
| 84>    H        4.35756        -0.82316        -2.89747
| 85>    H        3.62617        -2.77384         0.26819
| 86>    H        4.03905        -1.44838         1.34936
| 87>    H        4.09244        -3.69209        -1.76831
| 88>    H        4.21022        -3.24041        -3.47612
| 89>    H        2.77653        -2.77439        -2.54306
| 90>    H        5.71969        -3.32475         1.43830
| 91>    H        6.48468        -1.81125         0.92699
| 92>    H        6.12098        -3.07291        -0.26949
| 93>    H        7.65360         3.72813         0.25624
| 94>    H       -4.24181        -2.92295         0.14218
| 95>    H       11.99112        -0.83000        -0.24189
| 96>    H       14.40655        -0.12211         0.02120
| 97>    H       14.94681         2.25196         0.50462
| 98>    H       13.17608         3.93997         0.76460
| 99>    H       -8.73147         1.50463         0.23064
|100>    H      -11.10260         0.69076         0.57930
|101>    H      -11.53039        -1.72452         0.96065
|102>    H       -9.68810        -3.35294         1.04108
|103> *
|104>
|105>                          ****END OF INPUT****

CARTESIAN COORDINATES (ANGSTROEM)
---------------------------------
  C      2.881910    1.084540   -0.599910
  C      2.820370   -0.334520   -0.736660
  C      1.584610   -0.964820   -0.759790
  C      0.432700   -0.163930   -0.693100
  C      0.492600    1.259820   -0.625960
  C      1.728390    1.887620   -0.558960
  C     -0.958970   -0.525980   -0.592480
  C     -1.766450    0.611860   -0.501400
  C     -0.916500    1.872050   -0.566450
  C      4.276250    1.425710   -0.462150
  C      5.079770    0.281070   -0.531390
  C      4.224500   -0.958610   -0.745310
  S     -1.839430   -1.981130   -0.426680
  C     -3.352390   -1.068300   -0.212080
  C     -3.118380    0.316140   -0.301610
  S      5.175470    2.855470   -0.189560
  C      6.692010    1.924930   -0.171570
  C      6.442260    0.559330   -0.389210
  C     -1.124120    2.755940    0.687610
  C     -1.262520    2.648080   -1.873110
  C     -0.544830    3.976960   -2.100970
  C     -0.988240    2.023540    2.021490
  C      4.573530   -1.583980   -2.129670
  C      4.357700   -1.965440    0.429060
  C      3.869620   -2.890590   -2.489120
  C      5.746140   -2.571110    0.635880
  C      7.867840    2.672120    0.092470
  C     -4.490360   -1.862730    0.083920
  C     -5.813560   -1.562330    0.330930
  C      9.199730    2.323010    0.198770
  C      9.809860    0.977620   -0.011820
  C     11.275860    1.165720    0.116520
  C     11.564060    2.513170    0.407470
  C     10.286590    3.259580    0.517720
  C     -6.476880   -0.229700    0.233960
  C     -7.925800   -0.477620    0.440940
  C     -8.150230   -1.848240    0.676630
  C     -6.844250   -2.550250    0.679370
  C     12.267840    0.202810   -0.019950
  C     13.598850    0.605620    0.125750
  C     13.903120    1.946440    0.398690
  C     12.900100    2.911630    0.544320
  C     -8.958310    0.451370    0.409530
  C    -10.264740   -0.009430    0.601220
  C    -10.505890   -1.373210    0.817360
  C     -9.461880   -2.304290    0.862200
  O      9.264410   -0.089040   -0.246970
  O     -5.977470    0.862570    0.017650
  C     -6.667760   -3.880540    1.018970
  C     10.184370    4.584810    0.905440
  C      8.948560    5.284370    1.082740
  C     11.316250    5.403960    1.212930
  C     -5.395880   -4.529810    1.112750
  C     -7.748030   -4.753230    1.363230
  N      7.969370    5.892770    1.235900
  N     12.196270    6.114990    1.478830
  N     -8.587880   -5.503380    1.650770
  N     -4.386610   -5.099710    1.206530
  H      1.495890   -2.052080   -0.795440
  H      1.815650    2.969110   -0.437560
  H     -3.937590    1.023670   -0.188350
  H      7.268070   -0.146150   -0.425180
  H     -2.125240    3.214840    0.614250
  H     -0.406810    3.591770    0.650490
  H     -2.351540    2.824790   -1.863450
  H     -1.067460    1.972440   -2.722090
  H     -0.740870    4.698570   -1.293200
  H     -0.900770    4.436810   -3.036240
  H      0.544900    3.851410   -2.191620
  H     -1.752170    1.239800    2.135770
  H     -1.105090    2.726470    2.860440
  H     -0.002890    1.540510    2.118950
  H      5.664060   -1.742220   -2.159330
  H      4.357560   -0.823160   -2.897470
  H      3.626170   -2.773840    0.268190
  H      4.039050   -1.448380    1.349360
  H      4.092440   -3.692090   -1.768310
  H      4.210220   -3.240410   -3.476120
  H      2.776530   -2.774390   -2.543060
  H      5.719690   -3.324750    1.438300
  H      6.484680   -1.811250    0.926990
  H      6.120980   -3.072910   -0.269490
  H      7.653600    3.728130    0.256240
  H     -4.241810   -2.922950    0.142180
  H     11.991120   -0.830000   -0.241890
  H     14.406550   -0.122110    0.021200
  H     14.946810    2.251960    0.504620
  H     13.176080    3.939970    0.764600
  H     -8.731470    1.504630    0.230640
  H    -11.102600    0.690760    0.579300
  H    -11.530390   -1.724520    0.960650
  H     -9.688100   -3.352940    1.041080

 Total Charge           Charge          ....    0
 Multiplicity           Mult            ....    1
 Number of Electrons    NEL             ....  410
 Basis Dimension        Dim             ....  990

ORBITAL ENERGIES
----------------

  NO   OCC          E(Eh)            E(eV)
   0   2.0000     -88.973948     -2421.1042
   1   2.0000     -88.973930     -2421.1037
   2   2.0000     -19.219614      -522.9923
   3   2.0000     -19.219249      -522.9823
   4   2.0000     -14.420695      -392.4071
   5   2.0000     -14.420443      -392.4002
   6   2.0000     -14.416661      -392.2973
   7   2.0000     -14.416480      -392.2924
   8   2.0000     -10.371068      -282.2111
   9   2.0000     -10.370707      -282.2013
  10   2.0000     -10.346718      -281.5485
  11   2.0000     -10.346560      -281.5442
  12   2.0000     -10.345569      -281.5172
  13   2.0000     -10.345452      -281.5141
  14   2.0000     -10.325184      -280.9626
  15   2.0000     -10.325009      -280.9578
  16   2.0000     -10.324583      -280.9462
  17   2.0000     -10.324274      -280.9378
  18   2.0000     -10.320893      -280.8458
  19   2.0000     -10.320753      -280.8420
  20   2.0000     -10.320546      -280.8363
  21   2.0000     -10.319414      -280.8055
  22   2.0000     -10.319087      -280.7966
  23   2.0000     -10.318123      -280.7704
  24   2.0000     -10.308046      -280.4962
  25   2.0000     -10.307976      -280.4943
  26   2.0000     -10.302906      -280.3563
  27   2.0000     -10.302395      -280.3424
  28   2.0000     -10.302142      -280.3355
  29   2.0000     -10.301708      -280.3237
  30   2.0000     -10.300924      -280.3024
  31   2.0000     -10.300689      -280.2960
  32   2.0000     -10.297397      -280.2064
  33   2.0000     -10.297284      -280.2033
  34   2.0000     -10.296643      -280.1859
  35   2.0000     -10.296582      -280.1842
  36   2.0000     -10.296481      -280.1815
  37   2.0000     -10.296399      -280.1793
  38   2.0000     -10.296245      -280.1751
  39   2.0000     -10.296196      -280.1737
  40   2.0000     -10.295753      -280.1617
  41   2.0000     -10.295637      -280.1585
  42   2.0000     -10.295009      -280.1414
  43   2.0000     -10.294478      -280.1270
  44   2.0000     -10.294096      -280.1166
  45   2.0000     -10.292257      -280.0666
  46   2.0000     -10.291826      -280.0548
  47   2.0000     -10.291597      -280.0486
  48   2.0000     -10.287381      -279.9339
  49   2.0000     -10.287228      -279.9297
  50   2.0000     -10.277912      -279.6762
  51   2.0000     -10.277669      -279.6696
  52   2.0000     -10.276772      -279.6452
  53   2.0000     -10.276658      -279.6421
  54   2.0000     -10.266409      -279.3632
  55   2.0000     -10.265886      -279.3489
  56   2.0000     -10.262515      -279.2572
  57   2.0000     -10.260183      -279.1938
  58   2.0000      -8.068766      -219.5623
  59   2.0000      -8.068728      -219.5612
  60   2.0000      -6.037899      -164.2996
  61   2.0000      -6.037858      -164.2985
  62   2.0000      -6.033967      -164.1926
  63   2.0000      -6.033964      -164.1925
  64   2.0000      -6.031079      -164.1140
  65   2.0000      -6.031014      -164.1122
  66   2.0000      -1.129703       -30.7408
  67   2.0000      -1.129216       -30.7275
  68   2.0000      -1.015303       -27.6278
  69   2.0000      -1.010883       -27.5075
  70   2.0000      -1.010287       -27.4913
  71   2.0000      -1.006009       -27.3749
  72   2.0000      -0.990233       -26.9456
  73   2.0000      -0.990076       -26.9413
  74   2.0000      -0.987059       -26.8592
  75   2.0000      -0.986892       -26.8547
  76   2.0000      -0.968250       -26.3474
  77   2.0000      -0.948679       -25.8149
  78   2.0000      -0.940542       -25.5934
  79   2.0000      -0.937495       -25.5105
  80   2.0000      -0.911075       -24.7916
  81   2.0000      -0.899802       -24.4849
  82   2.0000      -0.896046       -24.3826
  83   2.0000      -0.889844       -24.2139
  84   2.0000      -0.881763       -23.9940
  85   2.0000      -0.866656       -23.5829
  86   2.0000      -0.853501       -23.2249
  87   2.0000      -0.853330       -23.2203
  88   2.0000      -0.846261       -23.0279
  89   2.0000      -0.844067       -22.9682
  90   2.0000      -0.841313       -22.8933
  91   2.0000      -0.838326       -22.8120
  92   2.0000      -0.836117       -22.7519
  93   2.0000      -0.832121       -22.6432
  94   2.0000      -0.805368       -21.9152
  95   2.0000      -0.793199       -21.5840
  96   2.0000      -0.771990       -21.0069
  97   2.0000      -0.763733       -20.7822
  98   2.0000      -0.760333       -20.6897
  99   2.0000      -0.759525       -20.6677
 100   2.0000      -0.748768       -20.3750
 101   2.0000      -0.725586       -19.7442
 102   2.0000      -0.711521       -19.3615
 103   2.0000      -0.704123       -19.1602
 104   2.0000      -0.701245       -19.0818
 105   2.0000      -0.698300       -19.0017
 106   2.0000      -0.690676       -18.7943
 107   2.0000      -0.689515       -18.7627
 108   2.0000      -0.683794       -18.6070
 109   2.0000      -0.678239       -18.4558
 110   2.0000      -0.672811       -18.3081
 111   2.0000      -0.660485       -17.9727
 112   2.0000      -0.649308       -17.6686
 113   2.0000      -0.646433       -17.5903
 114   2.0000      -0.644441       -17.5361
 115   2.0000      -0.632509       -17.2115
 116   2.0000      -0.623934       -16.9781
 117   2.0000      -0.611175       -16.6309
 118   2.0000      -0.608565       -16.5599
 119   2.0000      -0.607781       -16.5386
 120   2.0000      -0.606265       -16.4973
 121   2.0000      -0.595379       -16.2011
 122   2.0000      -0.574960       -15.6455
 123   2.0000      -0.573379       -15.6024
 124   2.0000      -0.572091       -15.5674
 125   2.0000      -0.563837       -15.3428
 126   2.0000      -0.557331       -15.1657
 127   2.0000      -0.549982       -14.9658
 128   2.0000      -0.546794       -14.8790
 129   2.0000      -0.544777       -14.8241
 130   2.0000      -0.543206       -14.7814
 131   2.0000      -0.539045       -14.6682
 132   2.0000      -0.536107       -14.5882
 133   2.0000      -0.533731       -14.5236
 134   2.0000      -0.531571       -14.4648
 135   2.0000      -0.530809       -14.4441
 136   2.0000      -0.530714       -14.4415
 137   2.0000      -0.527923       -14.3655
 138   2.0000      -0.526354       -14.3228
 139   2.0000      -0.524596       -14.2750
 140   2.0000      -0.523744       -14.2518
 141   2.0000      -0.516941       -14.0667
 142   2.0000      -0.514059       -13.9883
 143   2.0000      -0.510321       -13.8865
 144   2.0000      -0.501649       -13.6506
 145   2.0000      -0.497555       -13.5392
 146   2.0000      -0.496294       -13.5048
 147   2.0000      -0.494010       -13.4427
 148   2.0000      -0.490376       -13.3438
 149   2.0000      -0.489899       -13.3308
 150   2.0000      -0.487782       -13.2732
 151   2.0000      -0.485386       -13.2080
 152   2.0000      -0.484012       -13.1706
 153   2.0000      -0.478850       -13.0302
 154   2.0000      -0.474210       -12.9039
 155   2.0000      -0.467065       -12.7095
 156   2.0000      -0.464449       -12.6383
 157   2.0000      -0.462007       -12.5719
 158   2.0000      -0.457862       -12.4590
 159   2.0000      -0.455562       -12.3965
 160   2.0000      -0.454812       -12.3761
 161   2.0000      -0.454243       -12.3606
 162   2.0000      -0.451886       -12.2964
 163   2.0000      -0.449834       -12.2406
 164   2.0000      -0.449562       -12.2332
 165   2.0000      -0.449358       -12.2277
 166   2.0000      -0.447747       -12.1838
 167   2.0000      -0.446988       -12.1632
 168   2.0000      -0.444014       -12.0822
 169   2.0000      -0.443257       -12.0616
 170   2.0000      -0.442673       -12.0457
 171   2.0000      -0.440343       -11.9823
 172   2.0000      -0.439503       -11.9595
 173   2.0000      -0.435312       -11.8454
 174   2.0000      -0.432863       -11.7788
 175   2.0000      -0.426397       -11.6029
 176   2.0000      -0.423752       -11.5309
 177   2.0000      -0.423386       -11.5209
 178   2.0000      -0.421474       -11.4689
 179   2.0000      -0.418599       -11.3907
 180   2.0000      -0.416260       -11.3270
 181   2.0000      -0.415737       -11.3128
 182   2.0000      -0.412196       -11.2164
 183   2.0000      -0.407994       -11.1021
 184   2.0000      -0.405555       -11.0357
 185   2.0000      -0.404440       -11.0054
 186   2.0000      -0.404187       -10.9985
 187   2.0000      -0.401689       -10.9305
 188   2.0000      -0.396907       -10.8004
 189   2.0000      -0.395274       -10.7559
 190   2.0000      -0.389734       -10.6052
 191   2.0000      -0.388002       -10.5581
 192   2.0000      -0.369998       -10.0682
 193   2.0000      -0.343766        -9.3543
 194   2.0000      -0.340387        -9.2624
 195   2.0000      -0.339608        -9.2412
 196   2.0000      -0.339055        -9.2262
 197   2.0000      -0.338413        -9.2087
 198   2.0000      -0.333974        -9.0879
 199   2.0000      -0.331114        -9.0101
 200   2.0000      -0.325713        -8.8631
 201   2.0000      -0.318093        -8.6558
 202   2.0000      -0.312561        -8.5052
 203   2.0000      -0.287560        -7.8249
 204   2.0000      -0.254855        -6.9350
 205   0.0000      -0.099850        -2.7171
 206   0.0000      -0.082753        -2.2518
 207   0.0000      -0.063783        -1.7356
 208   0.0000      -0.058398        -1.5891
 209   0.0000      -0.021464        -0.5841

MULLIKEN ATOMIC CHARGES
-----------------------
   0 C :    0.051125
   1 C :    0.018355
   2 C :   -0.100451
   3 C :    0.061487
   4 C :    0.004795
   5 C :   -0.095909
   6 C :   -0.044497
   7 C :    0.011169
   8 C :   -0.108511
   9 C :   -0.050184
  10 C :    0.026555
  11 C :   -0.111220
  12 S :    0.160012
  13 C :   -0.130690
  14 C :   -0.013846
  15 S :    0.162732
  16 C :   -0.129327
  17 C :   -0.028290
  18 C :    0.025323
  19 C :    0.059992
  20 C :    0.010637
  21 C :    0.012502
  22 C :    0.046060
  23 C :    0.039347
  24 C :    0.013596
  25 C :    0.005914
  26 C :    0.054401
  27 C :    0.047433
  28 C :   -0.092715
  29 C :   -0.095272
  30 C :    0.158418
  31 C :   -0.025177
  32 C :    0.025776
  33 C :    0.279381
  34 C :    0.157290
  35 C :   -0.027223
  36 C :    0.025751
  37 C :    0.276410
  38 C :   -0.023079
  39 C :    0.032623
  40 C :    0.027999
  41 C :   -0.027615
  42 C :   -0.023981
  43 C :    0.032746
  44 C :    0.028561
  45 C :   -0.028507
  46 O :   -0.168174
  47 O :   -0.165622
  48 C :   -0.329106
  49 C :   -0.331349
  50 C :   -0.161808
  51 C :   -0.160652
  52 C :   -0.168035
  53 C :   -0.160875
  54 N :    0.114525
  55 N :    0.125975
  56 N :    0.126808
  57 N :    0.119022
  58 H :   -0.017210
  59 H :   -0.018468
  60 H :    0.020256
  61 H :    0.026837
  62 H :    0.013621
  63 H :    0.016290
  64 H :    0.014014
  65 H :    0.009803
  66 H :    0.018527
  67 H :    0.022609
  68 H :    0.017842
  69 H :    0.026839
  70 H :    0.021165
  71 H :    0.020682
  72 H :    0.018962
  73 H :    0.011067
  74 H :    0.011344
  75 H :    0.012778
  76 H :    0.017811
  77 H :    0.022507
  78 H :    0.016513
  79 H :    0.022708
  80 H :    0.029773
  81 H :    0.014919
  82 H :    0.005528
  83 H :    0.011458
  84 H :    0.003673
  85 H :    0.009743
  86 H :    0.009904
  87 H :    0.011684
  88 H :    0.004521
  89 H :    0.009815
  90 H :    0.009527
  91 H :    0.012350
Sum of atomic charges:   -0.0000000

LOEWDIN ATOMIC CHARGES
----------------------
   0 C :   -0.029120
   1 C :    0.015844
   2 C :   -0.023017
   3 C :   -0.028729
   4 C :    0.013848
   5 C :   -0.023449
   6 C :   -0.155117
   7 C :   -0.041582
   8 C :   -0.028800
   9 C :   -0.152860
  10 C :   -0.041614
  11 C :   -0.028363
  12 S :    0.455668
  13 C :   -0.173166
  14 C :   -0.006604
  15 S :    0.454060
  16 C :   -0.175729
  17 C :   -0.008224
  18 C :   -0.019974
  19 C :   -0.014313
  20 C :   -0.064395
  21 C :   -0.061565
  22 C :   -0.017374
  23 C :   -0.018330
  24 C :   -0.063740
  25 C :   -0.062477
  26 C :    0.046347
  27 C :    0.044560
  28 C :   -0.107859
  29 C :   -0.108949
  30 C :    0.094250
  31 C :   -0.045180
  32 C :   -0.014674
  33 C :    0.081567
  34 C :    0.092926
  35 C :   -0.045254
  36 C :   -0.014672
  37 C :    0.081268
  38 C :    0.008727
  39 C :   -0.005166
  40 C :   -0.003345
  41 C :   -0.001515
  42 C :    0.008546
  43 C :   -0.005047
  44 C :   -0.003288
  45 C :   -0.001656
  46 O :   -0.152877
  47 O :   -0.152268
  48 C :   -0.142804
  49 C :   -0.143269
  50 C :   -0.015720
  51 C :   -0.014028
  52 C :   -0.017084
  53 C :   -0.013925
  54 N :   -0.059937
  55 N :   -0.059491
  56 N :   -0.059236
  57 N :   -0.059375
  58 H :    0.031337
  59 H :    0.031664
  60 H :    0.038282
  61 H :    0.035706
  62 H :    0.027171
  63 H :    0.023157
  64 H :    0.027277
  65 H :    0.028109
  66 H :    0.025096
  67 H :    0.032524
  68 H :    0.024228
  69 H :    0.027377
  70 H :    0.029865
  71 H :    0.026461
  72 H :    0.026672
  73 H :    0.029303
  74 H :    0.021678
  75 H :    0.029309
  76 H :    0.024692
  77 H :    0.032728
  78 H :    0.024125
  79 H :    0.032239
  80 H :    0.029770
  81 H :    0.024651
  82 H :    0.043114
  83 H :    0.043054
  84 H :    0.041403
  85 H :    0.036961
  86 H :    0.038641
  87 H :    0.041866
  88 H :    0.041595
  89 H :    0.036965
  90 H :    0.038564
  91 H :    0.041969

  Mayer bond orders larger than 0.100000
B(  0-C ,  1-C ) :   1.3755 B(  0-C ,  5-C ) :   1.2946 B(  0-C ,  9-C ) :   1.0573
B(  1-C ,  2-C ) :   1.4182 B(  1-C , 11-C ) :   0.9218 B(  2-C ,  3-C ) :   1.2985
B(  2-C , 58-H ) :   0.9907 B(  3-C ,  4-C ) :   1.3676 B(  3-C ,  6-C ) :   1.0557
B(  4-C ,  5-C ) :   1.4213 B(  4-C ,  8-C ) :   0.9094 B(  5-C , 59-H ) :   0.9926
B(  6-C ,  7-C ) :   1.4717 B(  6-C , 12-S ) :   1.1432 B(  7-C ,  8-C ) :   0.9360
B(  7-C , 14-C ) :   1.3074 B(  8-C , 18-C ) :   1.0301 B(  8-C , 19-C ) :   1.0103
B(  9-C , 10-C ) :   1.4785 B(  9-C , 15-S ) :   1.1419 B( 10-C , 11-C ) :   0.9386
B( 10-C , 17-C ) :   1.3108 B( 11-C , 22-C ) :   0.9984 B( 11-C , 23-C ) :   1.0160
B( 12-S , 13-C ) :   1.0861 B( 13-C , 14-C ) :   1.3905 B( 13-C , 27-C ) :   1.2319
B( 14-C , 60-H ) :   0.9810 B( 15-S , 16-C ) :   1.0825 B( 16-C , 17-C ) :   1.3911
B( 16-C , 26-C ) :   1.2385 B( 17-C , 61-H ) :   0.9681 B( 18-C , 21-C ) :   1.1020
B( 18-C , 62-H ) :   0.9415 B( 18-C , 63-H ) :   0.9394 B( 19-C , 20-C ) :   1.1083
B( 19-C , 64-H ) :   0.9411 B( 19-C , 65-H ) :   0.9415 B( 20-C , 66-H ) :   0.9634
B( 20-C , 67-H ) :   0.9618 B( 20-C , 68-H ) :   0.9638 B( 21-C , 69-H ) :   0.9633
B( 21-C , 70-H ) :   0.9656 B( 21-C , 71-H ) :   0.9669 B( 22-C , 24-C ) :   1.1095
B( 22-C , 72-H ) :   0.9431 B( 22-C , 73-H ) :   0.9396 B( 23-C , 25-C ) :   1.1079
B( 23-C , 74-H ) :   0.9382 B( 23-C , 75-H ) :   0.9403 B( 24-C , 76-H ) :   0.9618
B( 24-C , 77-H ) :   0.9615 B( 24-C , 78-H ) :   0.9631 B( 25-C , 79-H ) :   0.9617
B( 25-C , 80-H ) :   0.9633 B( 25-C , 81-H ) :   0.9641 B( 26-C , 29-C ) :   1.5686
B( 26-C , 82-H ) :   0.9037 B( 27-C , 28-C ) :   1.5744 B( 27-C , 83-H ) :   0.9056
B( 28-C , 34-C ) :   0.9498 B( 28-C , 37-C ) :   1.0868 B( 29-C , 30-C ) :   0.9498
B( 29-C , 33-C ) :   1.0900 B( 30-C , 31-C ) :   0.9627 B( 30-C , 46-O ) :   2.1386
B( 31-C , 32-C ) :   1.3383 B( 31-C , 38-C ) :   1.3928 B( 32-C , 33-C ) :   0.9864
B( 32-C , 41-C ) :   1.3747 B( 33-C , 49-C ) :   1.6215 B( 34-C , 35-C ) :   0.9597
B( 34-C , 47-O ) :   2.1526 B( 35-C , 36-C ) :   1.3385 B( 35-C , 42-C ) :   1.3926
B( 36-C , 37-C ) :   0.9877 B( 36-C , 45-C ) :   1.3745 B( 37-C , 48-C ) :   1.6248
B( 38-C , 39-C ) :   1.3476 B( 38-C , 84-H ) :   0.9981 B( 39-C , 40-C ) :   1.3787
B( 39-C , 85-H ) :   0.9862 B( 40-C , 41-C ) :   1.3834 B( 40-C , 86-H ) :   0.9814
B( 41-C , 87-H ) :   0.9783 B( 42-C , 43-C ) :   1.3481 B( 42-C , 88-H ) :   0.9981
B( 43-C , 44-C ) :   1.3786 B( 43-C , 89-H ) :   0.9864 B( 44-C , 45-C ) :   1.3830
B( 44-C , 90-H ) :   0.9816 B( 45-C , 91-H ) :   0.9785 B( 46-O , 61-H ) :   0.1010
B( 48-C , 52-C ) :   1.1275 B( 48-C , 53-C ) :   1.1292 B( 49-C , 50-C ) :   1.1280
B( 49-C , 51-C ) :   1.1304 B( 50-C , 54-N ) :   2.9495 B( 51-C , 55-N ) :   2.9669
B( 52-C , 57-N ) :   2.9595 B( 53-C , 56-N ) :   2.9686

-----------------------------------------------------------------------------
         ABSORPTION SPECTRUM VIA TRANSITION ELECTRIC DIPOLE MOMENTS
-----------------------------------------------------------------------------
State   Energy  Wavelength   fosc         T2         TX        TY        TZ
        (cm-1)    (nm)                  (au**2)     (au)      (au)      (au)
-----------------------------------------------------------------------------
   0   18612.9    537.3   2.577273585  45.58500   6.41169   2.11409  -0.07618
   1   23200.0    431.0   0.063663220   0.90339   0.07072  -0.05689   0.94613
   2   26428.7    378.4   0.169652296   2.11329  -1.21520   0.79778   0.01183
   3   27293.4    366.4   0.007088938   0.08551   0.01589   0.01600  -0.29154
   4   28088.8    356.0   0.010520460   0.12330   0.02111  -0.02072   0.34990
   5   30142.8    331.8   0.016982109   0.18547  -0.33194   0.27272   0.03018
   6   30829.5    324.4   0.002073020   0.02214  -0.10759   0.10276   0.00124
   7   31143.4    321.1   0.154343104   1.63154   0.77448  -1.01563   0.01454
   8   32090.4    311.6   0.000439902   0.00451  -0.05037  -0.02702  -0.03530
   9   32493.4    307.8   0.228419964   2.31427  -1.36382   0.66794   0.09019
  10   32838.3    304.5   0.029263954   0.29338  -0.12541  -0.52682   0.01047
  11   32958.6    303.4   0.031783728   0.31748  -0.48958  -0.27837   0.01725
  12   33104.0    302.1   0.000423823   0.00421  -0.01556   0.02226  -0.05897
  13   34296.2    291.6   0.000753771   0.00724   0.00756   0.00959  -0.08418
  14   34659.7    288.5   0.091736610   0.87135   0.26880  -0.89304  -0.03981
  15   35384.5    282.6   0.005356428   0.04984   0.01380   0.07578   0.20953
  16   35449.7    282.1   0.168762821   1.56726  -1.22197   0.27096   0.02492
  17   35919.1    278.4   0.042062091   0.38551  -0.37647  -0.49237  -0.03681
  18   36587.9    273.3   0.008647486   0.07781   0.02001   0.03274   0.27629
  19   37491.0    266.7   1.073053404   9.42258   1.73299  -2.53185  -0.09508
  20   38422.3    260.3   0.029838538   0.25566   0.08044   0.02884   0.49836
  21   38651.6    258.7   0.287090076   2.44527   0.15821  -1.55378  -0.07756
  22   38710.0    258.3   0.003466926   0.02948  -0.00527  -0.16987   0.02451
  23   39208.1    255.0   0.097807200   0.82124   0.67014   0.60822  -0.04719

FINAL SINGLE POINT ENERGY     -3088.402625981641

DIPOLE MOMENT
-------------
                                X             Y             Z
Electronic contribution:     -2.34815       2.14931       9.70011
Nuclear contribution   :      2.25677      -2.16733     -11.09936
                        -----------------------------------------
Total Dipole Moment    :     -0.09138      -0.01802      -1.39925
                        -----------------------------------------
Magnitude (a.u.)       :      1.40234
Magnitude (Debye)      :      3.56448

Rotational constants in cm-1:     0.003992     0.000404     0.000378
Rotational constants in MHz :   119.676587    12.121101    11.343179

                             ****ORCA TERMINATED NORMALLY****
TOTAL RUN TIME: 0 days 0 hours 44 minutes 58 seconds 27 msec
