                         Program Version 4.2.0 -  RELEASE  -
|  1> # ORCA input file
|  2> # IDST-4F.out: Geometry 76
|  3> ! CAM-B3LYP def2-SVP def2/J RIJCOSX Grid4 TightSCF
|  4> %maxcore 5000
|  5> %tddft
|  6>     Mode sTDDFT
|  7>     Ethresh 5.0
|  8>     maxcore 5000
|  9> end
| 10> * xyz 0 1
| 11>    C       -1.89673        -1.18007         0.39681
| 12>    C       -2.61718        -0.16143        -0.24005
| 13>    C       -2.17535         1.12414         0.13787
| 14>    C       -2.54363         2.56986        -0.18389
| 15>    C       -1.52296         3.32933         0.68106
| 16>    C       -0.70184         2.41928         1.40881
| 17>    C       -1.14041         1.09164         1.06226
| 18>    S       -0.68122        -0.50770         1.49626
| 19>    C        0.34476         2.85179         2.23568
| 20>    C        0.58930         4.21472         2.31787
| 21>    C        1.63317         4.94456         3.16820
| 22>    C        1.28594         6.39001         2.85784
| 23>    C        0.20911         6.45728         1.97291
| 24>    C       -0.23854         5.13248         1.60673
| 25>    C       -1.28655         4.69492         0.77491
| 26>    S       -0.25171         8.07639         1.61047
| 27>    C        1.03296         8.69901         2.65543
| 28>    C        1.77921         7.65085         3.21245
| 29>    C       -2.34295         2.89696        -1.68524
| 30>    C       -0.91861         2.67908        -2.19069
| 31>    C       -4.01224         2.81349         0.26714
| 32>    C       -4.54501         4.23950         0.15417
| 33>    C        1.43385         4.62315         4.67307
| 34>    C        0.01573         4.86839         5.18700
| 35>    C        3.09190         4.67039         2.70239
| 36>    C        3.59793         3.23328         2.79706
| 37>    C        1.26870        10.08774         2.85234
| 38>    C        0.42382        11.16836         2.77211
| 39>    C       -1.02764        11.30240         2.80182
| 40>    C       -1.35130        12.66723         2.31482
| 41>    C       -0.15103        13.39881         2.19124
| 42>    C        1.00610        12.52896         2.53356
| 43>    C       -2.57451        13.30152         2.05962
| 44>    C       -2.54830        14.63860         1.67097
| 45>    C       -1.34207        15.35265         1.54557
| 46>    C       -0.12532        14.73632         1.81262
| 47>    O        2.17694        12.84872         2.56504
| 48>    C       -1.92667        10.43585         3.40134
| 49>    C       -3.34003        10.63630         3.35278
| 50>    C       -1.50983         9.33177         4.20805
| 51>    F       -3.68566        15.27765         1.41095
| 52>    F       -1.39159        16.62651         1.16705
| 53>    N       -4.49281        10.77516         3.29693
| 54>    N       -1.19744         8.46520         4.91597
| 55>    C       -0.88434        -6.35950         0.66151
| 56>    C        0.36116        -6.73639         1.09990
| 57>    C        1.65010        -6.05658         1.13376
| 58>    C        2.43959        -6.67758         2.22391
| 59>    C        1.76866        -7.84085         2.65939
| 60>    C        0.49471        -7.99880         1.90023
| 61>    C        3.65741        -6.31363         2.81252
| 62>    C        4.14105        -7.11289         3.84558
| 63>    C        3.45329        -8.25932         4.28337
| 64>    C        2.26116        -8.64631         3.68139
| 65>    O       -0.29406        -8.91716         1.96805
| 66>    C        2.13278        -5.17273         0.18637
| 67>    C        3.41728        -4.55684         0.29245
| 68>    C        1.41518        -4.89045        -1.01780
| 69>    F        5.28020        -6.80080         4.45740
| 70>    F        3.96817        -8.95550         5.29246
| 71>    N        4.45123        -4.03352         0.38155
| 72>    N        0.85652        -4.69432        -2.01748
| 73>    C       -1.97188        -2.61036         0.26058
| 74>    S       -0.66294        -3.58179         0.88888
| 75>    C       -1.41540        -5.06963         0.37410
| 76>    C       -2.64367        -4.80223        -0.23023
| 77>    C       -2.95770        -3.42749        -0.32836
| 78>    S       -4.43082        -2.77087        -1.04304
| 79>    C       -5.01095        -4.15141        -2.09669
| 80>    C       -5.99510        -3.60185        -3.12806
| 81>    C       -6.60301        -4.70433        -3.99260
| 82>    H       -3.39852        -0.36842        -0.96925
| 83>    H        0.94055         2.12964         2.79585
| 84>    H       -1.88496         5.41750         0.21708
| 85>    H        2.61878         7.83807         3.88311
| 86>    H       -2.63758         3.94423        -1.85955
| 87>    H       -3.05116         2.28250        -2.26627
| 88>    H       -0.20261         3.30389        -1.63694
| 89>    H       -0.83542         2.94416        -3.25622
| 90>    H       -0.60472         1.62990        -2.07551
| 91>    H       -4.10235         2.47395         1.31229
| 92>    H       -4.64991         2.13736        -0.32725
| 93>    H       -3.98530         4.93451         0.79527
| 94>    H       -5.59532         4.27393         0.48297
| 95>    H       -4.51097         4.62336        -0.87738
| 96>    H        2.15708         5.22537         5.24814
| 97>    H        1.71278         3.57069         4.84362
| 98>    H       -0.28153         5.92443         5.09518
| 99>    H       -0.06496         4.58581         6.24830
|100>    H       -0.71442         4.26256         4.63017
|101>    H        3.74916         5.32716         3.29719
|102>    H        3.18101         5.01676         1.65912
|103>    H        3.55759         2.83670         3.82342
|104>    H        4.64722         3.18421         2.46675
|105>    H        3.02541         2.55655         2.14798
|106>    H        2.31538        10.36186         3.04110
|107>    H       -3.54074        12.80842         2.15200
|108>    H        0.81307        15.28644         1.72665
|109>    H       -1.61675        -7.17718         0.64648
|110>    H        4.23098        -5.43647         2.51651
|111>    H        1.73080        -9.53946         4.01500
|112>    H       -3.28788        -5.60360        -0.58827
|113>    H       -5.48984        -4.91763        -1.46652
|114>    H       -4.13892        -4.60351        -2.59407
|115>    H       -5.46799        -2.86755        -3.75988
|116>    H       -6.79837        -3.04875        -2.61068
|117>    H       -5.82353        -5.26957        -4.52989
|118>    H       -7.28673        -4.28017        -4.74423
|119>    H       -7.17658        -5.42279        -3.38401
|120> *
|121>
|122>                          ****END OF INPUT****

CARTESIAN COORDINATES (ANGSTROEM)
---------------------------------
  C     -1.896730   -1.180070    0.396810
  C     -2.617180   -0.161430   -0.240050
  C     -2.175350    1.124140    0.137870
  C     -2.543630    2.569860   -0.183890
  C     -1.522960    3.329330    0.681060
  C     -0.701840    2.419280    1.408810
  C     -1.140410    1.091640    1.062260
  S     -0.681220   -0.507700    1.496260
  C      0.344760    2.851790    2.235680
  C      0.589300    4.214720    2.317870
  C      1.633170    4.944560    3.168200
  C      1.285940    6.390010    2.857840
  C      0.209110    6.457280    1.972910
  C     -0.238540    5.132480    1.606730
  C     -1.286550    4.694920    0.774910
  S     -0.251710    8.076390    1.610470
  C      1.032960    8.699010    2.655430
  C      1.779210    7.650850    3.212450
  C     -2.342950    2.896960   -1.685240
  C     -0.918610    2.679080   -2.190690
  C     -4.012240    2.813490    0.267140
  C     -4.545010    4.239500    0.154170
  C      1.433850    4.623150    4.673070
  C      0.015730    4.868390    5.187000
  C      3.091900    4.670390    2.702390
  C      3.597930    3.233280    2.797060
  C      1.268700   10.087740    2.852340
  C      0.423820   11.168360    2.772110
  C     -1.027640   11.302400    2.801820
  C     -1.351300   12.667230    2.314820
  C     -0.151030   13.398810    2.191240
  C      1.006100   12.528960    2.533560
  C     -2.574510   13.301520    2.059620
  C     -2.548300   14.638600    1.670970
  C     -1.342070   15.352650    1.545570
  C     -0.125320   14.736320    1.812620
  O      2.176940   12.848720    2.565040
  C     -1.926670   10.435850    3.401340
  C     -3.340030   10.636300    3.352780
  C     -1.509830    9.331770    4.208050
  F     -3.685660   15.277650    1.410950
  F     -1.391590   16.626510    1.167050
  N     -4.492810   10.775160    3.296930
  N     -1.197440    8.465200    4.915970
  C     -0.884340   -6.359500    0.661510
  C      0.361160   -6.736390    1.099900
  C      1.650100   -6.056580    1.133760
  C      2.439590   -6.677580    2.223910
  C      1.768660   -7.840850    2.659390
  C      0.494710   -7.998800    1.900230
  C      3.657410   -6.313630    2.812520
  C      4.141050   -7.112890    3.845580
  C      3.453290   -8.259320    4.283370
  C      2.261160   -8.646310    3.681390
  O     -0.294060   -8.917160    1.968050
  C      2.132780   -5.172730    0.186370
  C      3.417280   -4.556840    0.292450
  C      1.415180   -4.890450   -1.017800
  F      5.280200   -6.800800    4.457400
  F      3.968170   -8.955500    5.292460
  N      4.451230   -4.033520    0.381550
  N      0.856520   -4.694320   -2.017480
  C     -1.971880   -2.610360    0.260580
  S     -0.662940   -3.581790    0.888880
  C     -1.415400   -5.069630    0.374100
  C     -2.643670   -4.802230   -0.230230
  C     -2.957700   -3.427490   -0.328360
  S     -4.430820   -2.770870   -1.043040
  C     -5.010950   -4.151410   -2.096690
  C     -5.995100   -3.601850   -3.128060
  C     -6.603010   -4.704330   -3.992600
  H     -3.398520   -0.368420   -0.969250
  H      0.940550    2.129640    2.795850
  H     -1.884960    5.417500    0.217080
  H      2.618780    7.838070    3.883110
  H     -2.637580    3.944230   -1.859550
  H     -3.051160    2.282500   -2.266270
  H     -0.202610    3.303890   -1.636940
  H     -0.835420    2.944160   -3.256220
  H     -0.604720    1.629900   -2.075510
  H     -4.102350    2.473950    1.312290
  H     -4.649910    2.137360   -0.327250
  H     -3.985300    4.934510    0.795270
  H     -5.595320    4.273930    0.482970
  H     -4.510970    4.623360   -0.877380
  H      2.157080    5.225370    5.248140
  H      1.712780    3.570690    4.843620
  H     -0.281530    5.924430    5.095180
  H     -0.064960    4.585810    6.248300
  H     -0.714420    4.262560    4.630170
  H      3.749160    5.327160    3.297190
  H      3.181010    5.016760    1.659120
  H      3.557590    2.836700    3.823420
  H      4.647220    3.184210    2.466750
  H      3.025410    2.556550    2.147980
  H      2.315380   10.361860    3.041100
  H     -3.540740   12.808420    2.152000
  H      0.813070   15.286440    1.726650
  H     -1.616750   -7.177180    0.646480
  H      4.230980   -5.436470    2.516510
  H      1.730800   -9.539460    4.015000
  H     -3.287880   -5.603600   -0.588270
  H     -5.489840   -4.917630   -1.466520
  H     -4.138920   -4.603510   -2.594070
  H     -5.467990   -2.867550   -3.759880
  H     -6.798370   -3.048750   -2.610680
  H     -5.823530   -5.269570   -4.529890
  H     -7.286730   -4.280170   -4.744230
  H     -7.176580   -5.422790   -3.384010

 Total Charge           Charge          ....    0
 Multiplicity           Mult            ....    1
 Number of Electrons    NEL             ....  524
 Basis Dimension        Dim             .... 1200

ORBITAL ENERGIES
----------------

  NO   OCC          E(Eh)            E(eV)
   0   2.0000     -88.975000     -2421.1328
   1   2.0000     -88.974328     -2421.1146
   2   2.0000     -88.969051     -2420.9710
   3   2.0000     -88.939750     -2420.1736
   4   2.0000     -24.804986      -674.9780
   5   2.0000     -24.804159      -674.9555
   6   2.0000     -24.803555      -674.9390
   7   2.0000     -24.802339      -674.9060
   8   2.0000     -19.221715      -523.0495
   9   2.0000     -19.219074      -522.9776
  10   2.0000     -14.424227      -392.5032
  11   2.0000     -14.422133      -392.4462
  12   2.0000     -14.420416      -392.3995
  13   2.0000     -14.419268      -392.3682
  14   2.0000     -10.389477      -282.7120
  15   2.0000     -10.388836      -282.6946
  16   2.0000     -10.387611      -282.6613
  17   2.0000     -10.387214      -282.6505
  18   2.0000     -10.375788      -282.3395
  19   2.0000     -10.372047      -282.2377
  20   2.0000     -10.354022      -281.7473
  21   2.0000     -10.351936      -281.6905
  22   2.0000     -10.351377      -281.6753
  23   2.0000     -10.350872      -281.6615
  24   2.0000     -10.335865      -281.2532
  25   2.0000     -10.330242      -281.1002
  26   2.0000     -10.327705      -281.0312
  27   2.0000     -10.327400      -281.0228
  28   2.0000     -10.325684      -280.9762
  29   2.0000     -10.324366      -280.9403
  30   2.0000     -10.323892      -280.9274
  31   2.0000     -10.323715      -280.9226
  32   2.0000     -10.323656      -280.9210
  33   2.0000     -10.322018      -280.8764
  34   2.0000     -10.321948      -280.8745
  35   2.0000     -10.321751      -280.8691
  36   2.0000     -10.320379      -280.8318
  37   2.0000     -10.316561      -280.7279
  38   2.0000     -10.313617      -280.6478
  39   2.0000     -10.313449      -280.6432
  40   2.0000     -10.311167      -280.5811
  41   2.0000     -10.310947      -280.5751
  42   2.0000     -10.309273      -280.5296
  43   2.0000     -10.308325      -280.5038
  44   2.0000     -10.308037      -280.4959
  45   2.0000     -10.304988      -280.4130
  46   2.0000     -10.304868      -280.4097
  47   2.0000     -10.304514      -280.4001
  48   2.0000     -10.302639      -280.3491
  49   2.0000     -10.301203      -280.3100
  50   2.0000     -10.298405      -280.2339
  51   2.0000     -10.297335      -280.2047
  52   2.0000     -10.296725      -280.1881
  53   2.0000     -10.296223      -280.1745
  54   2.0000     -10.292244      -280.0662
  55   2.0000     -10.290159      -280.0095
  56   2.0000     -10.289414      -279.9892
  57   2.0000     -10.288347      -279.9602
  58   2.0000     -10.286467      -279.9090
  59   2.0000     -10.285091      -279.8715
  60   2.0000     -10.283799      -279.8364
  61   2.0000     -10.282590      -279.8035
  62   2.0000     -10.276267      -279.6315
  63   2.0000     -10.274772      -279.5908
  64   2.0000     -10.274199      -279.5752
  65   2.0000     -10.271570      -279.5036
  66   2.0000     -10.271225      -279.4942
  67   2.0000     -10.262789      -279.2647
  68   2.0000     -10.262361      -279.2530
  69   2.0000     -10.256935      -279.1054
  70   2.0000     -10.247167      -278.8396
  71   2.0000      -8.069285      -219.5764
  72   2.0000      -8.069095      -219.5713
  73   2.0000      -8.063781      -219.4266
  74   2.0000      -8.034646      -218.6338
  75   2.0000      -6.038744      -164.3226
  76   2.0000      -6.038479      -164.3154
  77   2.0000      -6.034580      -164.2093
  78   2.0000      -6.034425      -164.2050
  79   2.0000      -6.033190      -164.1715
  80   2.0000      -6.031196      -164.1172
  81   2.0000      -6.031089      -164.1143
  82   2.0000      -6.029123      -164.0608
  83   2.0000      -6.025763      -163.9693
  84   2.0000      -6.005085      -163.4067
  85   2.0000      -6.001004      -163.2956
  86   2.0000      -5.994383      -163.1155
  87   2.0000      -1.331840       -36.2412
  88   2.0000      -1.329913       -36.1888
  89   2.0000      -1.315239       -35.7895
  90   2.0000      -1.313751       -35.7490
  91   2.0000      -1.134249       -30.8645
  92   2.0000      -1.130925       -30.7740
  93   2.0000      -1.018378       -27.7115
  94   2.0000      -1.016450       -27.6590
  95   2.0000      -1.011909       -27.5354
  96   2.0000      -1.007440       -27.4138
  97   2.0000      -0.998557       -27.1721
  98   2.0000      -0.996944       -27.1282
  99   2.0000      -0.996849       -27.1256
 100   2.0000      -0.990524       -26.9535
 101   2.0000      -0.990013       -26.9396
 102   2.0000      -0.964375       -26.2420
 103   2.0000      -0.955342       -25.9962
 104   2.0000      -0.951596       -25.8942
 105   2.0000      -0.939473       -25.5644
 106   2.0000      -0.922130       -25.0924
 107   2.0000      -0.906800       -24.6753
 108   2.0000      -0.903713       -24.5913
 109   2.0000      -0.900789       -24.5117
 110   2.0000      -0.893590       -24.3158
 111   2.0000      -0.889059       -24.1925
 112   2.0000      -0.875774       -23.8310
 113   2.0000      -0.873286       -23.7633
 114   2.0000      -0.871093       -23.7036
 115   2.0000      -0.867110       -23.5953
 116   2.0000      -0.852205       -23.1897
 117   2.0000      -0.841399       -22.8956
 118   2.0000      -0.839487       -22.8436
 119   2.0000      -0.837424       -22.7875
 120   2.0000      -0.833932       -22.6924
 121   2.0000      -0.832798       -22.6616
 122   2.0000      -0.830564       -22.6008
 123   2.0000      -0.812987       -22.1225
 124   2.0000      -0.804812       -21.9001
 125   2.0000      -0.790016       -21.4974
 126   2.0000      -0.771536       -20.9946
 127   2.0000      -0.769746       -20.9459
 128   2.0000      -0.767868       -20.8948
 129   2.0000      -0.763848       -20.7854
 130   2.0000      -0.756367       -20.5818
 131   2.0000      -0.744174       -20.2500
 132   2.0000      -0.739994       -20.1363
 133   2.0000      -0.724654       -19.7188
 134   2.0000      -0.715537       -19.4708
 135   2.0000      -0.706469       -19.2240
 136   2.0000      -0.703717       -19.1491
 137   2.0000      -0.696871       -18.9628
 138   2.0000      -0.694056       -18.8862
 139   2.0000      -0.692279       -18.8379
 140   2.0000      -0.687692       -18.7131
 141   2.0000      -0.684971       -18.6390
 142   2.0000      -0.680942       -18.5294
 143   2.0000      -0.674927       -18.3657
 144   2.0000      -0.667398       -18.1608
 145   2.0000      -0.660742       -17.9797
 146   2.0000      -0.655176       -17.8282
 147   2.0000      -0.648541       -17.6477
 148   2.0000      -0.644679       -17.5426
 149   2.0000      -0.642995       -17.4968
 150   2.0000      -0.641070       -17.4444
 151   2.0000      -0.636349       -17.3159
 152   2.0000      -0.627662       -17.0795
 153   2.0000      -0.618214       -16.8225
 154   2.0000      -0.616601       -16.7786
 155   2.0000      -0.614188       -16.7129
 156   2.0000      -0.607612       -16.5340
 157   2.0000      -0.602696       -16.4002
 158   2.0000      -0.598268       -16.2797
 159   2.0000      -0.595837       -16.2135
 160   2.0000      -0.593420       -16.1478
 161   2.0000      -0.591551       -16.0969
 162   2.0000      -0.589224       -16.0336
 163   2.0000      -0.582295       -15.8450
 164   2.0000      -0.570284       -15.5182
 165   2.0000      -0.564409       -15.3583
 166   2.0000      -0.563618       -15.3368
 167   2.0000      -0.554481       -15.0882
 168   2.0000      -0.553957       -15.0739
 169   2.0000      -0.552468       -15.0334
 170   2.0000      -0.551361       -15.0033
 171   2.0000      -0.549452       -14.9514
 172   2.0000      -0.549227       -14.9452
 173   2.0000      -0.548290       -14.9197
 174   2.0000      -0.544872       -14.8267
 175   2.0000      -0.540370       -14.7042
 176   2.0000      -0.535463       -14.5707
 177   2.0000      -0.533835       -14.5264
 178   2.0000      -0.531114       -14.4523
 179   2.0000      -0.530318       -14.4307
 180   2.0000      -0.529551       -14.4098
 181   2.0000      -0.527004       -14.3405
 182   2.0000      -0.526085       -14.3155
 183   2.0000      -0.524912       -14.2836
 184   2.0000      -0.521305       -14.1854
 185   2.0000      -0.518864       -14.1190
 186   2.0000      -0.515138       -14.0176
 187   2.0000      -0.514613       -14.0033
 188   2.0000      -0.510949       -13.9036
 189   2.0000      -0.507922       -13.8213
 190   2.0000      -0.505420       -13.7532
 191   2.0000      -0.502438       -13.6720
 192   2.0000      -0.501161       -13.6373
 193   2.0000      -0.497414       -13.5353
 194   2.0000      -0.495507       -13.4834
 195   2.0000      -0.494967       -13.4687
 196   2.0000      -0.492782       -13.4093
 197   2.0000      -0.490736       -13.3536
 198   2.0000      -0.489541       -13.3211
 199   2.0000      -0.485790       -13.2190
 200   2.0000      -0.484565       -13.1857
 201   2.0000      -0.479604       -13.0507
 202   2.0000      -0.477695       -12.9987
 203   2.0000      -0.473866       -12.8945
 204   2.0000      -0.471328       -12.8255
 205   2.0000      -0.468339       -12.7442
 206   2.0000      -0.460615       -12.5340
 207   2.0000      -0.459187       -12.4951
 208   2.0000      -0.458662       -12.4808
 209   2.0000      -0.457212       -12.4414
 210   2.0000      -0.454091       -12.3564
 211   2.0000      -0.453572       -12.3423
 212   2.0000      -0.453149       -12.3308
 213   2.0000      -0.452086       -12.3019
 214   2.0000      -0.451147       -12.2763
 215   2.0000      -0.451009       -12.2726
 216   2.0000      -0.449938       -12.2434
 217   2.0000      -0.447827       -12.1860
 218   2.0000      -0.446318       -12.1449
 219   2.0000      -0.443997       -12.0818
 220   2.0000      -0.440668       -11.9912
 221   2.0000      -0.437261       -11.8985
 222   2.0000      -0.436883       -11.8882
 223   2.0000      -0.434585       -11.8257
 224   2.0000      -0.432184       -11.7603
 225   2.0000      -0.431075       -11.7301
 226   2.0000      -0.428024       -11.6471
 227   2.0000      -0.427246       -11.6259
 228   2.0000      -0.426454       -11.6044
 229   2.0000      -0.422109       -11.4862
 230   2.0000      -0.421168       -11.4606
 231   2.0000      -0.419325       -11.4104
 232   2.0000      -0.418105       -11.3772
 233   2.0000      -0.415830       -11.3153
 234   2.0000      -0.414201       -11.2710
 235   2.0000      -0.413699       -11.2573
 236   2.0000      -0.408607       -11.1188
 237   2.0000      -0.406508       -11.0616
 238   2.0000      -0.402843       -10.9619
 239   2.0000      -0.401720       -10.9314
 240   2.0000      -0.400170       -10.8892
 241   2.0000      -0.397851       -10.8261
 242   2.0000      -0.391993       -10.6667
 243   2.0000      -0.389469       -10.5980
 244   2.0000      -0.387256       -10.5378
 245   2.0000      -0.382548       -10.4097
 246   2.0000      -0.375437       -10.2162
 247   2.0000      -0.362396        -9.8613
 248   2.0000      -0.352962        -9.6046
 249   2.0000      -0.350132        -9.5276
 250   2.0000      -0.347445        -9.4545
 251   2.0000      -0.342873        -9.3300
 252   2.0000      -0.338660        -9.2154
 253   2.0000      -0.331852        -9.0301
 254   2.0000      -0.328666        -8.9434
 255   2.0000      -0.321627        -8.7519
 256   2.0000      -0.320366        -8.7176
 257   2.0000      -0.314031        -8.5452
 258   2.0000      -0.308590        -8.3972
 259   2.0000      -0.300143        -8.1673
 260   2.0000      -0.274066        -7.4577
 261   2.0000      -0.242599        -6.6014
 262   0.0000      -0.101286        -2.7561
 263   0.0000      -0.092263        -2.5106
 264   0.0000      -0.066102        -1.7987
 265   0.0000      -0.061974        -1.6864
 266   0.0000      -0.036082        -0.9818

MULLIKEN ATOMIC CHARGES
-----------------------
   0 C :   -0.101346
   1 C :   -0.032688
   2 C :    0.020157
   3 C :   -0.117028
   4 C :   -0.008297
   5 C :    0.078470
   6 C :   -0.063666
   7 S :    0.136982
   8 C :   -0.103517
   9 C :   -0.009622
  10 C :   -0.112646
  11 C :    0.036263
  12 C :   -0.054490
  13 C :    0.064660
  14 C :   -0.097910
  15 S :    0.171106
  16 C :   -0.113766
  17 C :    0.007729
  18 C :    0.042136
  19 C :    0.006238
  20 C :    0.060888
  21 C :    0.009529
  22 C :    0.045636
  23 C :   -0.005384
  24 C :    0.057325
  25 C :    0.010625
  26 C :    0.037759
  27 C :   -0.140999
  28 C :    0.240143
  29 C :    0.035974
  30 C :   -0.003274
  31 C :    0.137022
  32 C :   -0.095023
  33 C :    0.228859
  34 C :    0.229955
  35 C :   -0.100723
  36 O :   -0.148551
  37 C :   -0.311482
  38 C :   -0.154541
  39 C :   -0.177059
  40 F :   -0.159296
  41 F :   -0.160974
  42 N :    0.120818
  43 N :    0.157634
  44 C :    0.057374
  45 C :   -0.141457
  46 C :    0.216733
  47 C :    0.034275
  48 C :   -0.005247
  49 C :    0.140381
  50 C :   -0.088124
  51 C :    0.228119
  52 C :    0.226866
  53 C :   -0.096227
  54 O :   -0.145512
  55 C :   -0.301977
  56 C :   -0.158602
  57 C :   -0.183161
  58 F :   -0.158777
  59 F :   -0.161277
  60 N :    0.130670
  61 N :    0.152286
  62 C :   -0.070723
  63 S :    0.151204
  64 C :   -0.070779
  65 C :    0.007611
  66 C :    0.008292
  67 S :    0.000551
  68 C :   -0.117465
  69 C :   -0.008958
  70 C :   -0.014316
  71 H :    0.002774
  72 H :   -0.025166
  73 H :   -0.025386
  74 H :    0.001873
  75 H :    0.010155
  76 H :    0.005952
  77 H :    0.024532
  78 H :    0.018189
  79 H :    0.029174
  80 H :    0.013322
  81 H :    0.005013
  82 H :    0.023451
  83 H :    0.022593
  84 H :    0.012621
  85 H :    0.003885
  86 H :    0.008813
  87 H :    0.044878
  88 H :    0.014825
  89 H :    0.019586
  90 H :    0.003429
  91 H :    0.011412
  92 H :    0.014170
  93 H :    0.022543
  94 H :    0.023932
  95 H :    0.041681
  96 H :    0.024611
  97 H :    0.020554
  98 H :    0.034390
  99 H :    0.025759
 100 H :    0.021803
 101 H :    0.004851
 102 H :    0.056562
 103 H :    0.066099
 104 H :    0.026498
 105 H :    0.024431
 106 H :    0.021890
 107 H :    0.028705
 108 H :    0.020212
Sum of atomic charges:    0.0000000

LOEWDIN ATOMIC CHARGES
----------------------
   0 C :   -0.183291
   1 C :   -0.045688
   2 C :   -0.036640
   3 C :   -0.027101
   4 C :    0.008097
   5 C :   -0.021270
   6 C :   -0.173098
   7 S :    0.422211
   8 C :   -0.029450
   9 C :    0.015925
  10 C :   -0.029972
  11 C :   -0.038917
  12 C :   -0.144376
  13 C :   -0.034551
  14 C :   -0.022694
  15 S :    0.452096
  16 C :   -0.184101
  17 C :   -0.005203
  18 C :   -0.018887
  19 C :   -0.062021
  20 C :   -0.015084
  21 C :   -0.064462
  22 C :   -0.016968
  23 C :   -0.065649
  24 C :   -0.015252
  25 C :   -0.064141
  26 C :    0.056448
  27 C :   -0.113919
  28 C :    0.068493
  29 C :   -0.012073
  30 C :   -0.047962
  31 C :    0.087157
  32 C :   -0.026050
  33 C :    0.069872
  34 C :    0.065711
  35 C :   -0.010895
  36 O :   -0.145996
  37 C :   -0.141442
  38 C :   -0.015173
  39 C :   -0.019689
  40 F :   -0.037679
  41 F :   -0.038218
  42 N :   -0.057423
  43 N :   -0.051605
  44 C :    0.052759
  45 C :   -0.106468
  46 C :    0.062909
  47 C :   -0.011031
  48 C :   -0.047648
  49 C :    0.088794
  50 C :   -0.025765
  51 C :    0.070326
  52 C :    0.065663
  53 C :   -0.010615
  54 O :   -0.143479
  55 C :   -0.137977
  56 C :   -0.015431
  57 C :   -0.030157
  58 F :   -0.037140
  59 F :   -0.037970
  60 N :   -0.053793
  61 N :   -0.048238
  62 C :   -0.172987
  63 S :    0.456578
  64 C :   -0.186504
  65 C :   -0.031918
  66 C :   -0.193256
  67 S :    0.305330
  68 C :   -0.129339
  69 C :   -0.054827
  70 C :   -0.059236
  71 H :    0.024569
  72 H :    0.030110
  73 H :    0.029931
  74 H :    0.039745
  75 H :    0.021612
  76 H :    0.024010
  77 H :    0.026731
  78 H :    0.028357
  79 H :    0.028487
  80 H :    0.029720
  81 H :    0.023754
  82 H :    0.025800
  83 H :    0.032646
  84 H :    0.022670
  85 H :    0.023248
  86 H :    0.020504
  87 H :    0.030811
  88 H :    0.028201
  89 H :    0.024931
  90 H :    0.022875
  91 H :    0.028524
  92 H :    0.023541
  93 H :    0.032637
  94 H :    0.025814
  95 H :    0.055189
  96 H :    0.053232
  97 H :    0.055161
  98 H :    0.054333
  99 H :    0.053622
 100 H :    0.055311
 101 H :    0.038098
 102 H :    0.021372
 103 H :    0.029218
 104 H :    0.027392
 105 H :    0.025655
 106 H :    0.026887
 107 H :    0.031679
 108 H :    0.025973

  Mayer bond orders larger than 0.100000
B(  0-C ,  1-C ) :   1.4707 B(  0-C ,  7-S ) :   1.1027 B(  0-C , 62-C ) :   1.1410
B(  1-C ,  2-C ) :   1.2905 B(  1-C , 71-H ) :   0.9837 B(  2-C ,  3-C ) :   0.9401
B(  2-C ,  6-C ) :   1.5342 B(  3-C ,  4-C ) :   0.9085 B(  3-C , 18-C ) :   1.0236
B(  3-C , 20-C ) :   1.0156 B(  4-C ,  5-C ) :   1.3706 B(  4-C , 14-C ) :   1.4237
B(  5-C ,  6-C ) :   1.0610 B(  5-C ,  8-C ) :   1.2949 B(  6-C ,  7-S ) :   1.0998
B(  8-C ,  9-C ) :   1.4148 B(  8-C , 72-H ) :   0.9919 B(  9-C , 10-C ) :   0.9114
B(  9-C , 13-C ) :   1.3759 B( 10-C , 11-C ) :   0.9343 B( 10-C , 22-C ) :   1.0221
B( 10-C , 24-C ) :   1.0168 B( 11-C , 12-C ) :   1.4942 B( 11-C , 17-C ) :   1.3208
B( 12-C , 13-C ) :   1.0677 B( 12-C , 15-S ) :   1.1235 B( 13-C , 14-C ) :   1.2848
B( 14-C , 73-H ) :   0.9918 B( 15-S , 16-C ) :   1.0918 B( 16-C , 17-C ) :   1.3813
B( 16-C , 26-C ) :   1.1635 B( 17-C , 74-H ) :   1.0028 B( 18-C , 19-C ) :   1.0987
B( 18-C , 75-H ) :   0.9397 B( 18-C , 76-H ) :   0.9435 B( 19-C , 77-H ) :   0.9641
B( 19-C , 78-H ) :   0.9658 B( 19-C , 79-H ) :   0.9673 B( 20-C , 21-C ) :   1.1107
B( 20-C , 80-H ) :   0.9415 B( 20-C , 81-H ) :   0.9401 B( 21-C , 82-H ) :   0.9616
B( 21-C , 83-H ) :   0.9608 B( 21-C , 84-H ) :   0.9642 B( 22-C , 23-C ) :   1.0970
B( 22-C , 85-H ) :   0.9426 B( 22-C , 86-H ) :   0.9396 B( 23-C , 87-H ) :   0.9593
B( 23-C , 88-H ) :   0.9630 B( 23-C , 89-H ) :   0.9622 B( 24-C , 25-C ) :   1.1132
B( 24-C , 90-H ) :   0.9397 B( 24-C , 91-H ) :   0.9418 B( 25-C , 92-H ) :   0.9641
B( 25-C , 93-H ) :   0.9605 B( 25-C , 94-H ) :   0.9613 B( 26-C , 27-C ) :   1.6154
B( 26-C , 95-H ) :   0.9377 B( 27-C , 28-C ) :   1.0575 B( 27-C , 31-C ) :   0.9491
B( 28-C , 29-C ) :   1.0205 B( 28-C , 37-C ) :   1.6461 B( 29-C , 30-C ) :   1.3552
B( 29-C , 32-C ) :   1.3076 B( 30-C , 31-C ) :   0.9352 B( 30-C , 35-C ) :   1.3177
B( 31-C , 36-O ) :   2.2542 B( 32-C , 33-C ) :   1.3500 B( 32-C , 35-C ) :   0.1044
B( 32-C , 96-H ) :   0.9878 B( 33-C , 34-C ) :   1.2789 B( 33-C , 40-F ) :   1.1460
B( 34-C , 35-C ) :   1.3296 B( 34-C , 41-F ) :   1.1379 B( 35-C , 97-H ) :   1.0130
B( 37-C , 38-C ) :   1.1122 B( 37-C , 39-C ) :   1.1433 B( 38-C , 42-N ) :   2.9764
B( 39-C , 43-N ) :   3.0032 B( 44-C , 45-C ) :   1.6281 B( 44-C , 64-C ) :   1.1727
B( 44-C , 98-H ) :   0.9392 B( 45-C , 46-C ) :   1.0419 B( 45-C , 49-C ) :   0.9452
B( 46-C , 47-C ) :   1.0236 B( 46-C , 55-C ) :   1.6627 B( 47-C , 48-C ) :   1.3519
B( 47-C , 50-C ) :   1.3126 B( 48-C , 49-C ) :   0.9311 B( 48-C , 53-C ) :   1.3229
B( 49-C , 54-O ) :   2.2554 B( 50-C , 51-C ) :   1.3502 B( 50-C , 53-C ) :   0.1030
B( 50-C , 99-H ) :   0.9885 B( 51-C , 52-C ) :   1.2782 B( 51-C , 58-F ) :   1.1462
B( 52-C , 53-C ) :   1.3333 B( 52-C , 59-F ) :   1.1380 B( 53-C ,100-H ) :   1.0113
B( 55-C , 56-C ) :   1.1146 B( 55-C , 57-C ) :   1.1400 B( 56-C , 60-N ) :   2.9837
B( 57-C , 61-N ) :   3.0245 B( 62-C , 63-S ) :   1.1523 B( 62-C , 66-C ) :   1.4770
B( 63-S , 64-C ) :   1.0960 B( 64-C , 65-C ) :   1.4201 B( 65-C , 66-C ) :   1.2813
B( 65-C ,101-H ) :   0.9939 B( 66-C , 67-S ) :   1.0186 B( 67-S , 68-C ) :   0.9990
B( 68-C , 69-C ) :   1.0527 B( 68-C ,102-H ) :   0.9454 B( 68-C ,103-H ) :   0.9471
B( 69-C , 70-C ) :   1.1009 B( 69-C ,104-H ) :   0.9509 B( 69-C ,105-H ) :   0.9482
B( 70-C ,106-H ) :   0.9740 B( 70-C ,107-H ) :   0.9703 B( 70-C ,108-H ) :   0.9730

-----------------------------------------------------------------------------
         ABSORPTION SPECTRUM VIA TRANSITION ELECTRIC DIPOLE MOMENTS
-----------------------------------------------------------------------------
State   Energy  Wavelength   fosc         T2         TX        TY        TZ
        (cm-1)    (nm)                  (au**2)     (au)      (au)      (au)
-----------------------------------------------------------------------------
   0   15627.7    639.9   1.269538151  26.74404  -1.14687   5.02091   0.46820
   1   18382.8    544.0   0.202278983   3.62255  -0.36977  -1.74340  -0.66812
   2   24064.2    415.6   0.392918889   5.37534  -0.89658  -2.13776  -0.03829
   3   24359.4    410.5   0.091989813   1.24322  -0.16459  -1.10094  -0.06380
   4   25460.3    392.8   0.094629910   1.22361  -0.83232  -0.69952  -0.20379
   5   26176.8    382.0   0.034411808   0.43278   0.03651  -0.55862  -0.34553
   6   27975.9    357.5   0.230920335   2.71740   1.61505   0.26240  -0.20041
   7   29455.0    339.5   0.282333479   3.15558  -0.55511   1.40085  -0.94077
   8   29717.5    336.5   0.203843816   2.25819  -0.72162  -1.31717  -0.05035
   9   30571.6    327.1   0.204953001   2.20705  -0.91709  -0.97541  -0.64387
  10   31360.6    318.9   0.101450469   1.06499  -0.50699   0.73528  -0.51703
  11   31589.2    316.6   0.058536609   0.61005   0.49280  -0.05488   0.60347
  12   31708.8    315.4   0.014868134   0.15437   0.12131  -0.06210   0.36850
  13   32210.4    310.5   0.085033807   0.86910  -0.89347  -0.26380  -0.03496
  14   32444.5    308.2   0.080592935   0.81777  -0.59522  -0.64244   0.22527
  15   32833.4    304.6   0.010143253   0.10170   0.07283  -0.08148  -0.29960
  16   32941.7    303.6   0.059512910   0.59476  -0.65456  -0.37711  -0.15521
  17   33092.8    302.2   0.180761847   1.79825   0.82237  -0.61751   0.86060
  18   33983.3    294.3   0.033695515   0.32642   0.53025  -0.09024   0.19265
  19   34207.1    292.3   0.170082119   1.63689   0.33467   1.22247  -0.17450
  20   34874.9    286.7   0.014264692   0.13466   0.27681   0.02705   0.23937
  21   35578.6    281.1   0.160459002   1.48474  -0.58192   0.95825  -0.47736
  22   36121.0    276.8   0.143894038   1.31147   0.41362   1.02277  -0.30713
  23   36159.8    276.6   0.026535106   0.24159  -0.18717  -0.45364  -0.02762
  24   36510.1    273.9   0.482446421   4.35022   0.65322  -1.34674   1.45252
  25   36628.6    273.0   0.008361879   0.07516  -0.00477  -0.26878   0.05377
  26   37526.1    266.5   0.228270660   2.00259   0.54711   1.14407  -0.62799
  27   37619.5    265.8   0.039563453   0.34622  -0.40597   0.10997  -0.41148
  28   37731.2    265.0   0.144851689   1.26386   0.84583   0.60175  -0.43166
  29   38094.8    262.5   0.253060614   2.18693  -0.63452  -1.07203   0.79691
  30   38366.8    260.6   0.014015515   0.12026   0.02613   0.18370  -0.29297
  31   38498.2    259.8   0.007927608   0.06779  -0.08147  -0.24120   0.05454
  32   38882.7    257.2   0.027858825   0.23588  -0.44705  -0.10958  -0.15497
  33   38948.4    256.8   0.051455109   0.43493  -0.52235   0.00047  -0.40258
  34   39798.9    251.3   0.023724739   0.19625  -0.31676  -0.12763   0.28217
  35   40179.9    248.9   0.018150475   0.14871  -0.24139  -0.27865   0.11315

FINAL SINGLE POINT ENERGY     -4552.283930277007

DIPOLE MOMENT
-------------
                                X             Y             Z
Electronic contribution:     38.22698      18.47429      34.13979
Nuclear contribution   :    -39.21646     -19.43264     -34.96807
                        -----------------------------------------
Total Dipole Moment    :     -0.98949      -0.95834      -0.82829
                        -----------------------------------------
Magnitude (a.u.)       :      1.60735
Magnitude (Debye)      :      4.08556

Rotational constants in cm-1:     0.001643     0.000288     0.000256
Rotational constants in MHz :    49.256467     8.630308     7.681499

                             ****ORCA TERMINATED NORMALLY****
TOTAL RUN TIME: 0 days 1 hours 2 minutes 27 seconds 640 msec
