                         Program Version 4.2.0 -  RELEASE  -
|  1> # ORCA input file
|  2> # IDST-4F.out
|  3> ! CAM-B3LYP def2-SVP def2/J RIJCOSX Grid4 TightSCF
|  4> %maxcore 5000
|  5> %tddft
|  6>     Mode sTDDFT
|  7>     Ethresh 5.0
|  8>     maxcore 5000
|  9> end
| 10> * xyz 0 1
| 11>    C       -1.53426        -1.06870         0.24803
| 12>    C       -2.17270        -0.04059        -0.43094
| 13>    C       -1.78757         1.20961         0.03395
| 14>    C       -2.13897         2.64044        -0.27657
| 15>    C       -1.22453         3.37610         0.68495
| 16>    C       -0.50983         2.46455         1.50247
| 17>    C       -0.87260         1.15236         1.07521
| 18>    S       -0.44544        -0.45764         1.48334
| 19>    C        0.37443         2.88383         2.49455
| 20>    C        0.56779         4.23767         2.64425
| 21>    C        1.44180         4.97604         3.64140
| 22>    C        1.10379         6.40704         3.31586
| 23>    C        0.21156         6.45881         2.25055
| 24>    C       -0.13571         5.14712         1.81606
| 25>    C       -1.02365         4.72831         0.82623
| 26>    S       -0.22589         8.05657         1.82904
| 27>    C        0.80539         8.68615         3.10857
| 28>    C        1.46653         7.66015         3.77801
| 29>    C       -1.85320         3.00109        -1.74203
| 30>    C       -0.42173         2.67667        -2.15385
| 31>    C       -3.63295         2.82792         0.08043
| 32>    C       -4.16566         4.25144        -0.00729
| 33>    C        1.06627         4.62824         5.09161
| 34>    C       -0.38911         4.95025         5.41343
| 35>    C        2.95251         4.78120         3.37399
| 36>    C        3.46721         3.35131         3.46601
| 37>    C        0.97279        10.06493         3.33845
| 38>    C        0.16428        11.10189         2.96802
| 39>    C       -1.21913        11.14258         2.55435
| 40>    C       -1.42853        12.42062         1.87442
| 41>    C       -0.29591        13.22881         2.07873
| 42>    C        0.72108        12.47038         2.84715
| 43>    C       -2.50800        12.90205         1.15280
| 44>    C       -2.42698        14.19156         0.64823
| 45>    C       -1.30505        14.99250         0.86388
| 46>    C       -0.22195        14.51649         1.58599
| 47>    O        1.79219        12.86431         3.24600
| 48>    C       -2.21452        10.29849         2.97481
| 49>    C       -3.56793        10.43475         2.60876
| 50>    C       -1.99762         9.25281         3.89632
| 51>    F       -3.45030        14.67421        -0.06576
| 52>    F       -1.27353        16.23404         0.36413
| 53>    N       -4.67749        10.49118         2.32068
| 54>    N       -1.86471         8.42820         4.68399
| 55>    C       -0.82129        -6.25553         0.33974
| 56>    C        0.38343        -6.69805         0.80403
| 57>    C        1.67713        -6.05997         0.89252
| 58>    C        2.46114        -6.81084         1.87240
| 59>    C        1.77615        -8.00036         2.17933
| 60>    C        0.48064        -8.02587         1.45886
| 61>    C        3.69018        -6.54362         2.45176
| 62>    C        4.20929        -7.48167         3.33189
| 63>    C        3.53080        -8.66577         3.62294
| 64>    C        2.30043        -8.93880         3.04614
| 65>    O       -0.34266        -8.91089         1.44571
| 66>    C        2.18191        -5.13298         0.01854
| 67>    C        3.48390        -4.60125         0.10081
| 68>    C        1.47655        -4.69260        -1.12137
| 69>    F        5.38785        -7.24028         3.91651
| 70>    F        4.07358        -9.54654         4.47231
| 71>    N        4.52731        -4.12483         0.14057
| 72>    N        0.95394        -4.36329        -2.08869
| 73>    C       -1.64503        -2.46448         0.05170
| 74>    S       -0.47979        -3.52626         0.77842
| 75>    C       -1.24724        -4.93439         0.09371
| 76>    C       -2.36854        -4.56687        -0.62935
| 77>    C       -2.59285        -3.19093        -0.67688
| 78>    S       -3.93277        -2.42393        -1.50507
| 79>    C       -5.04163        -3.83431        -1.86795
| 80>    C       -6.37944        -3.29461        -2.35006
| 81>    C       -7.34201        -4.43255        -2.66669
| 82>    H       -2.85351        -0.21181        -1.24243
| 83>    H        0.86805         2.15504         3.11761
| 84>    H       -1.52150         5.45690         0.20594
| 85>    H        2.14130         7.85495         4.59200
| 86>    H       -2.03189         4.06696        -1.88631
| 87>    H       -2.54878         2.45012        -2.37797
| 88>    H        0.28901         3.21308        -1.52865
| 89>    H       -0.25666         2.96651        -3.18862
| 90>    H       -0.22396         1.61125        -2.06202
| 91>    H       -3.78294         2.46018         1.09879
| 92>    H       -4.20897         2.18637        -0.59021
| 93>    H       -3.68546         4.89407         0.72518
| 94>    H       -5.23305         4.24610         0.20140
| 95>    H       -4.02019         4.67092        -0.99891
| 96>    H        1.72042         5.18792         5.76316
| 97>    H        1.24140         3.56450         5.25663
| 98>    H       -0.59565         6.01066         5.29066
| 99>    H       -0.60936         4.67765         6.44259
|100>    H       -1.05881         4.39382         4.76099
|101>    H        3.49191         5.40212         4.09272
|102>    H        3.17037         5.16755         2.37479
|103>    H        3.24088         2.90844         4.43177
|104>    H        4.54777         3.35238         3.34216
|105>    H        3.04120         2.73219         2.68191
|106>    H        1.90955        10.35376         3.80599
|107>    H       -3.39271        12.31697         0.96062
|108>    H        0.64489        15.13565         1.75320
|109>    H       -1.58135        -7.02239         0.22386
|110>    H        4.24629        -5.64117         2.25606
|111>    H        1.77689        -9.85431         3.27082
|112>    H       -2.97119        -5.29917        -1.13404
|113>    H       -5.16341        -4.40682        -0.94817
|114>    H       -4.57258        -4.44852        -2.63725
|115>    H       -6.22129        -2.68450        -3.24155
|116>    H       -6.80658        -2.65213        -1.57739
|117>    H       -6.93816        -5.06969        -3.45006
|118>    H       -8.29470        -4.03462        -3.00498
|119>    H       -7.51871        -5.04241        -1.78360
|120> *
|121>
|122>                          ****END OF INPUT****

CARTESIAN COORDINATES (ANGSTROEM)
---------------------------------
  C     -1.534260   -1.068700    0.248030
  C     -2.172700   -0.040590   -0.430940
  C     -1.787570    1.209610    0.033950
  C     -2.138970    2.640440   -0.276570
  C     -1.224530    3.376100    0.684950
  C     -0.509830    2.464550    1.502470
  C     -0.872600    1.152360    1.075210
  S     -0.445440   -0.457640    1.483340
  C      0.374430    2.883830    2.494550
  C      0.567790    4.237670    2.644250
  C      1.441800    4.976040    3.641400
  C      1.103790    6.407040    3.315860
  C      0.211560    6.458810    2.250550
  C     -0.135710    5.147120    1.816060
  C     -1.023650    4.728310    0.826230
  S     -0.225890    8.056570    1.829040
  C      0.805390    8.686150    3.108570
  C      1.466530    7.660150    3.778010
  C     -1.853200    3.001090   -1.742030
  C     -0.421730    2.676670   -2.153850
  C     -3.632950    2.827920    0.080430
  C     -4.165660    4.251440   -0.007290
  C      1.066270    4.628240    5.091610
  C     -0.389110    4.950250    5.413430
  C      2.952510    4.781200    3.373990
  C      3.467210    3.351310    3.466010
  C      0.972790   10.064930    3.338450
  C      0.164280   11.101890    2.968020
  C     -1.219130   11.142580    2.554350
  C     -1.428530   12.420620    1.874420
  C     -0.295910   13.228810    2.078730
  C      0.721080   12.470380    2.847150
  C     -2.508000   12.902050    1.152800
  C     -2.426980   14.191560    0.648230
  C     -1.305050   14.992500    0.863880
  C     -0.221950   14.516490    1.585990
  O      1.792190   12.864310    3.246000
  C     -2.214520   10.298490    2.974810
  C     -3.567930   10.434750    2.608760
  C     -1.997620    9.252810    3.896320
  F     -3.450300   14.674210   -0.065760
  F     -1.273530   16.234040    0.364130
  N     -4.677490   10.491180    2.320680
  N     -1.864710    8.428200    4.683990
  C     -0.821290   -6.255530    0.339740
  C      0.383430   -6.698050    0.804030
  C      1.677130   -6.059970    0.892520
  C      2.461140   -6.810840    1.872400
  C      1.776150   -8.000360    2.179330
  C      0.480640   -8.025870    1.458860
  C      3.690180   -6.543620    2.451760
  C      4.209290   -7.481670    3.331890
  C      3.530800   -8.665770    3.622940
  C      2.300430   -8.938800    3.046140
  O     -0.342660   -8.910890    1.445710
  C      2.181910   -5.132980    0.018540
  C      3.483900   -4.601250    0.100810
  C      1.476550   -4.692600   -1.121370
  F      5.387850   -7.240280    3.916510
  F      4.073580   -9.546540    4.472310
  N      4.527310   -4.124830    0.140570
  N      0.953940   -4.363290   -2.088690
  C     -1.645030   -2.464480    0.051700
  S     -0.479790   -3.526260    0.778420
  C     -1.247240   -4.934390    0.093710
  C     -2.368540   -4.566870   -0.629350
  C     -2.592850   -3.190930   -0.676880
  S     -3.932770   -2.423930   -1.505070
  C     -5.041630   -3.834310   -1.867950
  C     -6.379440   -3.294610   -2.350060
  C     -7.342010   -4.432550   -2.666690
  H     -2.853510   -0.211810   -1.242430
  H      0.868050    2.155040    3.117610
  H     -1.521500    5.456900    0.205940
  H      2.141300    7.854950    4.592000
  H     -2.031890    4.066960   -1.886310
  H     -2.548780    2.450120   -2.377970
  H      0.289010    3.213080   -1.528650
  H     -0.256660    2.966510   -3.188620
  H     -0.223960    1.611250   -2.062020
  H     -3.782940    2.460180    1.098790
  H     -4.208970    2.186370   -0.590210
  H     -3.685460    4.894070    0.725180
  H     -5.233050    4.246100    0.201400
  H     -4.020190    4.670920   -0.998910
  H      1.720420    5.187920    5.763160
  H      1.241400    3.564500    5.256630
  H     -0.595650    6.010660    5.290660
  H     -0.609360    4.677650    6.442590
  H     -1.058810    4.393820    4.760990
  H      3.491910    5.402120    4.092720
  H      3.170370    5.167550    2.374790
  H      3.240880    2.908440    4.431770
  H      4.547770    3.352380    3.342160
  H      3.041200    2.732190    2.681910
  H      1.909550   10.353760    3.805990
  H     -3.392710   12.316970    0.960620
  H      0.644890   15.135650    1.753200
  H     -1.581350   -7.022390    0.223860
  H      4.246290   -5.641170    2.256060
  H      1.776890   -9.854310    3.270820
  H     -2.971190   -5.299170   -1.134040
  H     -5.163410   -4.406820   -0.948170
  H     -4.572580   -4.448520   -2.637250
  H     -6.221290   -2.684500   -3.241550
  H     -6.806580   -2.652130   -1.577390
  H     -6.938160   -5.069690   -3.450060
  H     -8.294700   -4.034620   -3.004980
  H     -7.518710   -5.042410   -1.783600

 Total Charge           Charge          ....    0
 Multiplicity           Mult            ....    1
 Number of Electrons    NEL             ....  524
 Basis Dimension        Dim             .... 1200

ORBITAL ENERGIES
----------------

  NO   OCC          E(Eh)            E(eV)
   0   2.0000     -88.973765     -2421.0992
   1   2.0000     -88.972956     -2421.0772
   2   2.0000     -88.969928     -2420.9948
   3   2.0000     -88.938806     -2420.1479
   4   2.0000     -24.802241      -674.9033
   5   2.0000     -24.802083      -674.8990
   6   2.0000     -24.800490      -674.8556
   7   2.0000     -24.800033      -674.8432
   8   2.0000     -19.219599      -522.9919
   9   2.0000     -19.216246      -522.9006
  10   2.0000     -14.418759      -392.3544
  11   2.0000     -14.416639      -392.2967
  12   2.0000     -14.415528      -392.2665
  13   2.0000     -14.414367      -392.2349
  14   2.0000     -10.388096      -282.6745
  15   2.0000     -10.387107      -282.6475
  16   2.0000     -10.385970      -282.6166
  17   2.0000     -10.385144      -282.5941
  18   2.0000     -10.371909      -282.2340
  19   2.0000     -10.368685      -282.1463
  20   2.0000     -10.347021      -281.5568
  21   2.0000     -10.345901      -281.5263
  22   2.0000     -10.344400      -281.4854
  23   2.0000     -10.343681      -281.4659
  24   2.0000     -10.330445      -281.1057
  25   2.0000     -10.325168      -280.9621
  26   2.0000     -10.322074      -280.8779
  27   2.0000     -10.320979      -280.8481
  28   2.0000     -10.320138      -280.8252
  29   2.0000     -10.319213      -280.8001
  30   2.0000     -10.319048      -280.7956
  31   2.0000     -10.318731      -280.7869
  32   2.0000     -10.317931      -280.7652
  33   2.0000     -10.317776      -280.7610
  34   2.0000     -10.316514      -280.7266
  35   2.0000     -10.316408      -280.7237
  36   2.0000     -10.315980      -280.7121
  37   2.0000     -10.313114      -280.6341
  38   2.0000     -10.310486      -280.5626
  39   2.0000     -10.310198      -280.5547
  40   2.0000     -10.308449      -280.5072
  41   2.0000     -10.308327      -280.5038
  42   2.0000     -10.307660      -280.4857
  43   2.0000     -10.304308      -280.3945
  44   2.0000     -10.303221      -280.3649
  45   2.0000     -10.302906      -280.3563
  46   2.0000     -10.301892      -280.3287
  47   2.0000     -10.298894      -280.2471
  48   2.0000     -10.298887      -280.2470
  49   2.0000     -10.294448      -280.1262
  50   2.0000     -10.294073      -280.1160
  51   2.0000     -10.293184      -280.0918
  52   2.0000     -10.292020      -280.0601
  53   2.0000     -10.292007      -280.0597
  54   2.0000     -10.287347      -279.9330
  55   2.0000     -10.287002      -279.9236
  56   2.0000     -10.286466      -279.9090
  57   2.0000     -10.285030      -279.8699
  58   2.0000     -10.284113      -279.8449
  59   2.0000     -10.281560      -279.7755
  60   2.0000     -10.281404      -279.7712
  61   2.0000     -10.278621      -279.6955
  62   2.0000     -10.273283      -279.5502
  63   2.0000     -10.271437      -279.5000
  64   2.0000     -10.271114      -279.4912
  65   2.0000     -10.268896      -279.4309
  66   2.0000     -10.267992      -279.4063
  67   2.0000     -10.258594      -279.1505
  68   2.0000     -10.256929      -279.1052
  69   2.0000     -10.252821      -278.9934
  70   2.0000     -10.244565      -278.7688
  71   2.0000      -8.068278      -219.5490
  72   2.0000      -8.068209      -219.5471
  73   2.0000      -8.064978      -219.4592
  74   2.0000      -8.033866      -218.6126
  75   2.0000      -6.037633      -164.2923
  76   2.0000      -6.037557      -164.2903
  77   2.0000      -6.034334      -164.2026
  78   2.0000      -6.033565      -164.1816
  79   2.0000      -6.033506      -164.1801
  80   2.0000      -6.030422      -164.0961
  81   2.0000      -6.030291      -164.0926
  82   2.0000      -6.029981      -164.0841
  83   2.0000      -6.026972      -164.0022
  84   2.0000      -6.004238      -163.3836
  85   2.0000      -6.000113      -163.2714
  86   2.0000      -5.993735      -163.0978
  87   2.0000      -1.325875       -36.0789
  88   2.0000      -1.323931       -36.0260
  89   2.0000      -1.310626       -35.6640
  90   2.0000      -1.308716       -35.6120
  91   2.0000      -1.135142       -30.8888
  92   2.0000      -1.131856       -30.7994
  93   2.0000      -1.024983       -27.8912
  94   2.0000      -1.023445       -27.8493
  95   2.0000      -1.018888       -27.7253
  96   2.0000      -1.013986       -27.5920
  97   2.0000      -1.003736       -27.3130
  98   2.0000      -1.003353       -27.3026
  99   2.0000      -1.002194       -27.2711
 100   2.0000      -0.994556       -27.0632
 101   2.0000      -0.993988       -27.0478
 102   2.0000      -0.970780       -26.4163
 103   2.0000      -0.960303       -26.1312
 104   2.0000      -0.956771       -26.0351
 105   2.0000      -0.945971       -25.7412
 106   2.0000      -0.926154       -25.2019
 107   2.0000      -0.913422       -24.8555
 108   2.0000      -0.908427       -24.7195
 109   2.0000      -0.905677       -24.6447
 110   2.0000      -0.898964       -24.4621
 111   2.0000      -0.894032       -24.3279
 112   2.0000      -0.880337       -23.9552
 113   2.0000      -0.876294       -23.8452
 114   2.0000      -0.874341       -23.7920
 115   2.0000      -0.871779       -23.7223
 116   2.0000      -0.856116       -23.2961
 117   2.0000      -0.846034       -23.0218
 118   2.0000      -0.843586       -22.9552
 119   2.0000      -0.842888       -22.9362
 120   2.0000      -0.838983       -22.8299
 121   2.0000      -0.838393       -22.8138
 122   2.0000      -0.834286       -22.7021
 123   2.0000      -0.815780       -22.1985
 124   2.0000      -0.808164       -21.9913
 125   2.0000      -0.793760       -21.5993
 126   2.0000      -0.775225       -21.0949
 127   2.0000      -0.773686       -21.0531
 128   2.0000      -0.771676       -20.9984
 129   2.0000      -0.766465       -20.8566
 130   2.0000      -0.759430       -20.6651
 131   2.0000      -0.747064       -20.3286
 132   2.0000      -0.741934       -20.1890
 133   2.0000      -0.725951       -19.7541
 134   2.0000      -0.717982       -19.5373
 135   2.0000      -0.710333       -19.3291
 136   2.0000      -0.706530       -19.2257
 137   2.0000      -0.700069       -19.0499
 138   2.0000      -0.696692       -18.9580
 139   2.0000      -0.695140       -18.9157
 140   2.0000      -0.690029       -18.7766
 141   2.0000      -0.688006       -18.7216
 142   2.0000      -0.683471       -18.5982
 143   2.0000      -0.676305       -18.4032
 144   2.0000      -0.669756       -18.2250
 145   2.0000      -0.662521       -18.0281
 146   2.0000      -0.657369       -17.8879
 147   2.0000      -0.650725       -17.7071
 148   2.0000      -0.645917       -17.5763
 149   2.0000      -0.643267       -17.5042
 150   2.0000      -0.641250       -17.4493
 151   2.0000      -0.638496       -17.3743
 152   2.0000      -0.632695       -17.2165
 153   2.0000      -0.621572       -16.9138
 154   2.0000      -0.619688       -16.8626
 155   2.0000      -0.614971       -16.7342
 156   2.0000      -0.608395       -16.5553
 157   2.0000      -0.606581       -16.5059
 158   2.0000      -0.599359       -16.3094
 159   2.0000      -0.596764       -16.2388
 160   2.0000      -0.592587       -16.1251
 161   2.0000      -0.590663       -16.0728
 162   2.0000      -0.588817       -16.0225
 163   2.0000      -0.585368       -15.9287
 164   2.0000      -0.572801       -15.5867
 165   2.0000      -0.571630       -15.5548
 166   2.0000      -0.565847       -15.3975
 167   2.0000      -0.557838       -15.1795
 168   2.0000      -0.554619       -15.0920
 169   2.0000      -0.553575       -15.0635
 170   2.0000      -0.552006       -15.0208
 171   2.0000      -0.551152       -14.9976
 172   2.0000      -0.550753       -14.9868
 173   2.0000      -0.548935       -14.9373
 174   2.0000      -0.547487       -14.8979
 175   2.0000      -0.543482       -14.7889
 176   2.0000      -0.539250       -14.6737
 177   2.0000      -0.538670       -14.6579
 178   2.0000      -0.535650       -14.5758
 179   2.0000      -0.532436       -14.4883
 180   2.0000      -0.531633       -14.4665
 181   2.0000      -0.529555       -14.4099
 182   2.0000      -0.528493       -14.3810
 183   2.0000      -0.526912       -14.3380
 184   2.0000      -0.524284       -14.2665
 185   2.0000      -0.522350       -14.2139
 186   2.0000      -0.519804       -14.1446
 187   2.0000      -0.517447       -14.0804
 188   2.0000      -0.516182       -14.0460
 189   2.0000      -0.510658       -13.8957
 190   2.0000      -0.507231       -13.8025
 191   2.0000      -0.505940       -13.7673
 192   2.0000      -0.504775       -13.7356
 193   2.0000      -0.497792       -13.5456
 194   2.0000      -0.496814       -13.5190
 195   2.0000      -0.495155       -13.4739
 196   2.0000      -0.495008       -13.4699
 197   2.0000      -0.492637       -13.4053
 198   2.0000      -0.490927       -13.3588
 199   2.0000      -0.489201       -13.3118
 200   2.0000      -0.487477       -13.2649
 201   2.0000      -0.482322       -13.1246
 202   2.0000      -0.480611       -13.0781
 203   2.0000      -0.476663       -12.9707
 204   2.0000      -0.473740       -12.8911
 205   2.0000      -0.470206       -12.7950
 206   2.0000      -0.463748       -12.6192
 207   2.0000      -0.461504       -12.5582
 208   2.0000      -0.460918       -12.5422
 209   2.0000      -0.458945       -12.4885
 210   2.0000      -0.455966       -12.4075
 211   2.0000      -0.454998       -12.3811
 212   2.0000      -0.453604       -12.3432
 213   2.0000      -0.452906       -12.3242
 214   2.0000      -0.452175       -12.3043
 215   2.0000      -0.451327       -12.2812
 216   2.0000      -0.450422       -12.2566
 217   2.0000      -0.448700       -12.2097
 218   2.0000      -0.445989       -12.1360
 219   2.0000      -0.443617       -12.0714
 220   2.0000      -0.440961       -11.9992
 221   2.0000      -0.439414       -11.9571
 222   2.0000      -0.438312       -11.9271
 223   2.0000      -0.436882       -11.8882
 224   2.0000      -0.435099       -11.8397
 225   2.0000      -0.433530       -11.7969
 226   2.0000      -0.430803       -11.7228
 227   2.0000      -0.429859       -11.6971
 228   2.0000      -0.429056       -11.6752
 229   2.0000      -0.424660       -11.5556
 230   2.0000      -0.424373       -11.5478
 231   2.0000      -0.422924       -11.5083
 232   2.0000      -0.420531       -11.4432
 233   2.0000      -0.418309       -11.3828
 234   2.0000      -0.416037       -11.3209
 235   2.0000      -0.415057       -11.2943
 236   2.0000      -0.409520       -11.1436
 237   2.0000      -0.407832       -11.0977
 238   2.0000      -0.406662       -11.0658
 239   2.0000      -0.403476       -10.9791
 240   2.0000      -0.399455       -10.8697
 241   2.0000      -0.395506       -10.7623
 242   2.0000      -0.393466       -10.7068
 243   2.0000      -0.391653       -10.6574
 244   2.0000      -0.390475       -10.6254
 245   2.0000      -0.385326       -10.4852
 246   2.0000      -0.377050       -10.2601
 247   2.0000      -0.364895        -9.9293
 248   2.0000      -0.354122        -9.6361
 249   2.0000      -0.350993        -9.5510
 250   2.0000      -0.348167        -9.4741
 251   2.0000      -0.342279        -9.3139
 252   2.0000      -0.338348        -9.2069
 253   2.0000      -0.333195        -9.0667
 254   2.0000      -0.330443        -8.9918
 255   2.0000      -0.323130        -8.7928
 256   2.0000      -0.321461        -8.7474
 257   2.0000      -0.314523        -8.5586
 258   2.0000      -0.309010        -8.4086
 259   2.0000      -0.299439        -8.1481
 260   2.0000      -0.272658        -7.4194
 261   2.0000      -0.240535        -6.5453
 262   0.0000      -0.101411        -2.7595
 263   0.0000      -0.090500        -2.4626
 264   0.0000      -0.064770        -1.7625
 265   0.0000      -0.060367        -1.6427
 266   0.0000      -0.034739        -0.9453

MULLIKEN ATOMIC CHARGES
-----------------------
   0 C :   -0.082619
   1 C :   -0.050198
   2 C :    0.017865
   3 C :   -0.116862
   4 C :    0.003174
   5 C :    0.076644
   6 C :   -0.054778
   7 S :    0.142308
   8 C :   -0.116780
   9 C :    0.010753
  10 C :   -0.115703
  11 C :    0.034508
  12 C :   -0.038018
  13 C :    0.065573
  14 C :   -0.109054
  15 S :    0.159337
  16 C :   -0.097636
  17 C :   -0.001833
  18 C :    0.048978
  19 C :    0.023705
  20 C :    0.072606
  21 C :    0.031076
  22 C :    0.050337
  23 C :    0.014892
  24 C :    0.071378
  25 C :    0.030447
  26 C :    0.048797
  27 C :   -0.142353
  28 C :    0.242317
  29 C :    0.028080
  30 C :    0.008689
  31 C :    0.137384
  32 C :   -0.089921
  33 C :    0.237017
  34 C :    0.234014
  35 C :   -0.106349
  36 O :   -0.140688
  37 C :   -0.322015
  38 C :   -0.178822
  39 C :   -0.204730
  40 F :   -0.166845
  41 F :   -0.169796
  42 N :    0.154191
  43 N :    0.181931
  44 C :    0.049285
  45 C :   -0.135188
  46 C :    0.237596
  47 C :    0.026065
  48 C :    0.008981
  49 C :    0.137225
  50 C :   -0.088405
  51 C :    0.236830
  52 C :    0.233710
  53 C :   -0.101004
  54 O :   -0.140067
  55 C :   -0.314114
  56 C :   -0.178601
  57 C :   -0.209088
  58 F :   -0.165446
  59 F :   -0.170006
  60 N :    0.158170
  61 N :    0.175511
  62 C :   -0.072936
  63 S :    0.147437
  64 C :   -0.066548
  65 C :    0.010718
  66 C :    0.028428
  67 S :   -0.027130
  68 C :   -0.105554
  69 C :   -0.000827
  70 C :    0.009814
  71 H :    0.000444
  72 H :   -0.035505
  73 H :   -0.034323
  74 H :   -0.009783
  75 H :    0.009943
  76 H :    0.003529
  77 H :    0.018600
  78 H :    0.013639
  79 H :    0.026592
  80 H :    0.007824
  81 H :    0.001121
  82 H :    0.022217
  83 H :    0.018844
  84 H :    0.004548
  85 H :    0.000040
  86 H :    0.008427
  87 H :    0.039686
  88 H :    0.009932
  89 H :    0.016202
  90 H :   -0.001032
  91 H :    0.006412
  92 H :    0.005326
  93 H :    0.018897
  94 H :    0.021603
  95 H :    0.026693
  96 H :    0.017100
  97 H :    0.012089
  98 H :    0.024915
  99 H :    0.017475
 100 H :    0.012197
 101 H :   -0.006389
 102 H :    0.055010
 103 H :    0.062550
 104 H :    0.021940
 105 H :    0.023708
 106 H :    0.015402
 107 H :    0.023693
 108 H :    0.014571
Sum of atomic charges:    0.0000000

LOEWDIN ATOMIC CHARGES
----------------------
   0 C :   -0.184228
   1 C :   -0.045892
   2 C :   -0.033245
   3 C :   -0.033021
   4 C :    0.008922
   5 C :   -0.019839
   6 C :   -0.174184
   7 S :    0.430302
   8 C :   -0.027395
   9 C :    0.016865
  10 C :   -0.033286
  11 C :   -0.038970
  12 C :   -0.143137
  13 C :   -0.035965
  14 C :   -0.018599
  15 S :    0.467444
  16 C :   -0.182038
  17 C :   -0.001804
  18 C :   -0.014399
  19 C :   -0.055660
  20 C :   -0.008569
  21 C :   -0.058795
  22 C :   -0.013885
  23 C :   -0.057991
  24 C :   -0.009750
  25 C :   -0.058761
  26 C :    0.057072
  27 C :   -0.115128
  28 C :    0.062339
  29 C :   -0.012100
  30 C :   -0.046088
  31 C :    0.082027
  32 C :   -0.021349
  33 C :    0.073483
  34 C :    0.068781
  35 C :   -0.005763
  36 O :   -0.143105
  37 C :   -0.145804
  38 C :   -0.022366
  39 C :   -0.028129
  40 F :   -0.044600
  41 F :   -0.046823
  42 N :   -0.051783
  43 N :   -0.048764
  44 C :    0.054589
  45 C :   -0.107298
  46 C :    0.059173
  47 C :   -0.011345
  48 C :   -0.046838
  49 C :    0.082886
  50 C :   -0.021104
  51 C :    0.074203
  52 C :    0.068939
  53 C :   -0.005032
  54 O :   -0.141715
  55 C :   -0.139593
  56 C :   -0.021590
  57 C :   -0.036369
  58 F :   -0.043663
  59 F :   -0.046355
  60 N :   -0.047945
  61 N :   -0.044625
  62 C :   -0.174808
  63 S :    0.463134
  64 C :   -0.183779
  65 C :   -0.029275
  66 C :   -0.191849
  67 S :    0.310556
  68 C :   -0.124928
  69 C :   -0.050435
  70 C :   -0.052073
  71 H :    0.020346
  72 H :    0.027675
  73 H :    0.027827
  74 H :    0.036437
  75 H :    0.020567
  76 H :    0.022865
  77 H :    0.024849
  78 H :    0.026021
  79 H :    0.026872
  80 H :    0.027688
  81 H :    0.022028
  82 H :    0.024843
  83 H :    0.030604
  84 H :    0.020588
  85 H :    0.021378
  86 H :    0.019543
  87 H :    0.028403
  88 H :    0.025577
  89 H :    0.024066
  90 H :    0.021090
  91 H :    0.026498
  92 H :    0.021031
  93 H :    0.030342
  94 H :    0.024469
  95 H :    0.051764
  96 H :    0.050940
  97 H :    0.052095
  98 H :    0.051350
  99 H :    0.051218
 100 H :    0.052201
 101 H :    0.034975
 102 H :    0.023690
 103 H :    0.022486
 104 H :    0.025209
 105 H :    0.025511
 106 H :    0.024420
 107 H :    0.029491
 108 H :    0.024161

  Mayer bond orders larger than 0.100000
B(  0-C ,  1-C ) :   1.4528 B(  0-C ,  7-S ) :   1.0996 B(  0-C , 62-C ) :   1.1693
B(  1-C ,  2-C ) :   1.3087 B(  1-C , 71-H ) :   0.9861 B(  2-C ,  3-C ) :   0.9376
B(  2-C ,  6-C ) :   1.5257 B(  3-C ,  4-C ) :   0.9014 B(  3-C , 18-C ) :   1.0314
B(  3-C , 20-C ) :   1.0145 B(  4-C ,  5-C ) :   1.3701 B(  4-C , 14-C ) :   1.4230
B(  5-C ,  6-C ) :   1.0606 B(  5-C ,  8-C ) :   1.2884 B(  6-C ,  7-S ) :   1.0949
B(  8-C ,  9-C ) :   1.4098 B(  8-C , 72-H ) :   1.0001 B(  9-C , 10-C ) :   0.9053
B(  9-C , 13-C ) :   1.3729 B( 10-C , 11-C ) :   0.9316 B( 10-C , 22-C ) :   1.0289
B( 10-C , 24-C ) :   1.0163 B( 11-C , 12-C ) :   1.4809 B( 11-C , 17-C ) :   1.3236
B( 12-C , 13-C ) :   1.0730 B( 12-C , 15-S ) :   1.1255 B( 13-C , 14-C ) :   1.2786
B( 14-C , 73-H ) :   0.9988 B( 15-S , 16-C ) :   1.0890 B( 16-C , 17-C ) :   1.3657
B( 16-C , 26-C ) :   1.1755 B( 17-C , 74-H ) :   1.0131 B( 18-C , 19-C ) :   1.1030
B( 18-C , 75-H ) :   0.9393 B( 18-C , 76-H ) :   0.9408 B( 19-C , 77-H ) :   0.9654
B( 19-C , 78-H ) :   0.9647 B( 19-C , 79-H ) :   0.9635 B( 20-C , 21-C ) :   1.1151
B( 20-C , 80-H ) :   0.9394 B( 20-C , 81-H ) :   0.9377 B( 21-C , 82-H ) :   0.9608
B( 21-C , 83-H ) :   0.9595 B( 21-C , 84-H ) :   0.9629 B( 22-C , 23-C ) :   1.1001
B( 22-C , 85-H ) :   0.9406 B( 22-C , 86-H ) :   0.9396 B( 23-C , 87-H ) :   0.9580
B( 23-C , 88-H ) :   0.9620 B( 23-C , 89-H ) :   0.9643 B( 24-C , 25-C ) :   1.1175
B( 24-C , 90-H ) :   0.9376 B( 24-C , 91-H ) :   0.9402 B( 25-C , 92-H ) :   0.9630
B( 25-C , 93-H ) :   0.9594 B( 25-C , 94-H ) :   0.9607 B( 26-C , 27-C ) :   1.5868
B( 26-C , 95-H ) :   0.9496 B( 27-C , 28-C ) :   1.0572 B( 27-C , 31-C ) :   0.9547
B( 28-C , 29-C ) :   1.0176 B( 28-C , 37-C ) :   1.6481 B( 29-C , 30-C ) :   1.3443
B( 29-C , 32-C ) :   1.3217 B( 30-C , 31-C ) :   0.9261 B( 30-C , 35-C ) :   1.3245
B( 31-C , 36-O ) :   2.2743 B( 32-C , 33-C ) :   1.3329 B( 32-C , 35-C ) :   0.1050
B( 32-C , 96-H ) :   0.9952 B( 33-C , 34-C ) :   1.2926 B( 33-C , 40-F ) :   1.1394
B( 34-C , 35-C ) :   1.3199 B( 34-C , 41-F ) :   1.1300 B( 35-C , 97-H ) :   1.0200
B( 37-C , 38-C ) :   1.1306 B( 37-C , 39-C ) :   1.1526 B( 38-C , 42-N ) :   2.9960
B( 39-C , 43-N ) :   3.0158 B( 44-C , 45-C ) :   1.6079 B( 44-C , 64-C ) :   1.1619
B( 44-C , 98-H ) :   0.9484 B( 45-C , 46-C ) :   1.0462 B( 45-C , 49-C ) :   0.9525
B( 46-C , 47-C ) :   1.0190 B( 46-C , 55-C ) :   1.6567 B( 47-C , 48-C ) :   1.3434
B( 47-C , 50-C ) :   1.3208 B( 48-C , 49-C ) :   0.9289 B( 48-C , 53-C ) :   1.3247
B( 49-C , 54-O ) :   2.2729 B( 50-C , 51-C ) :   1.3343 B( 50-C , 53-C ) :   0.1047
B( 50-C , 99-H ) :   0.9955 B( 51-C , 52-C ) :   1.2911 B( 51-C , 58-F ) :   1.1408
B( 52-C , 53-C ) :   1.3199 B( 52-C , 59-F ) :   1.1297 B( 53-C ,100-H ) :   1.0199
B( 55-C , 56-C ) :   1.1323 B( 55-C , 57-C ) :   1.1507 B( 56-C , 60-N ) :   2.9963
B( 57-C , 61-N ) :   3.0301 B( 62-C , 63-S ) :   1.1418 B( 62-C , 66-C ) :   1.4729
B( 63-S , 64-C ) :   1.0942 B( 64-C , 65-C ) :   1.4111 B( 65-C , 66-C ) :   1.2865
B( 65-C ,101-H ) :   0.9992 B( 66-C , 67-S ) :   1.0136 B( 67-S , 68-C ) :   0.9993
B( 68-C , 69-C ) :   1.0603 B( 68-C ,102-H ) :   0.9464 B( 68-C ,103-H ) :   0.9447
B( 69-C , 70-C ) :   1.1059 B( 69-C ,104-H ) :   0.9469 B( 69-C ,105-H ) :   0.9493
B( 70-C ,106-H ) :   0.9727 B( 70-C ,107-H ) :   0.9691 B( 70-C ,108-H ) :   0.9730

-----------------------------------------------------------------------------
         ABSORPTION SPECTRUM VIA TRANSITION ELECTRIC DIPOLE MOMENTS
-----------------------------------------------------------------------------
State   Energy  Wavelength   fosc         T2         TX        TY        TZ
        (cm-1)    (nm)                  (au**2)     (au)      (au)      (au)
-----------------------------------------------------------------------------
   0   15134.8    660.7   1.344460897  29.24472   1.15942  -5.25200  -0.56297
   1   18173.1    550.3   0.177446594   3.21451   0.22991   1.72065   0.44835
   2   23789.4    420.4   0.216286561   2.99310   0.80399   1.51676   0.21479
   3   23972.8    417.1   0.263629130   3.62035   0.41375   1.85473   0.09558
   4   25225.7    396.4   0.097705615   1.27512  -0.78514  -0.73892  -0.33565
   5   25935.8    385.6   0.024943077   0.31661   0.02228  -0.49712  -0.26265
   6   28030.8    356.7   0.221318079   2.59930  -1.59303  -0.24654  -0.02758
   7   29395.9    340.2   0.231917166   2.59729   0.55346  -1.24165   0.86560
   8   29721.3    336.5   0.160693000   1.77994  -0.64001  -1.17050   0.01579
   9   30524.1    327.6   0.189139399   2.03993   0.81488   0.91150   0.73829
  10   31451.0    318.0   0.145139399   1.51924   0.23726  -0.98926   0.69593
  11   31534.6    317.1   0.015165175   0.15832  -0.18264  -0.27912  -0.21691
  12   31772.1    314.7   0.013716019   0.14212  -0.22359  -0.15302   0.26213
  13   32161.0    310.9   0.137417663   1.40666  -1.05325  -0.00086  -0.54527
  14   32565.1    307.1   0.072779719   0.73575   0.68854   0.51061  -0.03085
  15   32998.9    303.0   0.057997463   0.57861   0.56606   0.12367   0.49284
  16   33083.4    302.3   0.040328464   0.40131  -0.01445   0.44190  -0.45368
  17   33264.4    300.6   0.124015685   1.22736   0.79382  -0.46552   0.61684
  18   34056.9    293.6   0.061382531   0.59336   0.35748  -0.56593   0.38116
  19   34232.8    292.1   0.154163002   1.48256  -0.38820  -1.15042   0.09165
  20   35008.4    285.6   0.017778398   0.16718   0.34894   0.12248   0.17443
  21   35769.6    279.6   0.174107936   1.60243   0.51687  -0.98884   0.59790
  22   36223.9    276.1   0.021513439   0.19552   0.30793   0.30684   0.08089
  23   36645.5    272.9   0.057821772   0.51945   0.60727   0.17958   0.34414
  24   36920.7    270.9   0.502139960   4.47744  -0.22013   1.60838  -1.35724
  25   37117.8    269.4   0.040764261   0.36155  -0.08091  -0.57177   0.16760
  26   37645.9    265.6   0.061147375   0.53473  -0.08644   0.46980  -0.55367
  27   37727.9    265.1   0.180868038   1.57825   0.23380   1.05126  -0.64687
  28   37950.9    263.5   0.098949635   0.85836   0.81334   0.44362   0.00586
  29   38247.9    261.5   0.345959954   2.97779  -0.96341  -1.29915   0.60153
  30   38325.0    260.9   0.003570202   0.03067   0.08084   0.13963   0.06808
  31   38478.8    259.9   0.047107491   0.40304  -0.07729   0.45557  -0.43534
  32   39045.7    256.1   0.060991968   0.51425  -0.49756  -0.03022  -0.51553
  33   39186.9    255.2   0.010868768   0.09131  -0.18451  -0.23750  -0.02926
  34   39878.6    250.8   0.035170425   0.29034  -0.50493  -0.18384   0.03984
  35   40300.8    248.1   0.029958246   0.24473   0.37541   0.32109  -0.02636

FINAL SINGLE POINT ENERGY     -4552.270942587240

DIPOLE MOMENT
-------------
                                X             Y             Z
Electronic contribution:     41.05952      12.82239      18.70302
Nuclear contribution   :    -42.06127     -13.89680     -19.06208
                        -----------------------------------------
Total Dipole Moment    :     -1.00175      -1.07441      -0.35907
                        -----------------------------------------
Magnitude (a.u.)       :      1.51221
Magnitude (Debye)      :      3.84374

Rotational constants in cm-1:     0.001717     0.000292     0.000261
Rotational constants in MHz :    51.485562     8.759856     7.829477

                             ****ORCA TERMINATED NORMALLY****
TOTAL RUN TIME: 0 days 1 hours 5 minutes 51 seconds 200 msec
