                         Program Version 4.2.0 -  RELEASE  -
|  1> # ORCA input file
|  2> # IDTCF.out: Geometry 15
|  3> ! CAM-B3LYP def2-SVP def2/J RIJCOSX Grid4 TightSCF
|  4> %maxcore 5000
|  5> %tddft
|  6>     Mode sTDDFT
|  7>     Ethresh 5.0
|  8>     maxcore 5000
|  9> end
| 10> * xyz 0 1
| 11>    C        2.64853         1.22107        -0.53170
| 12>    C        2.82642        -0.19418        -0.54917
| 13>    C        1.71829        -1.02750        -0.63989
| 14>    C        0.45052        -0.43424        -0.75726
| 15>    C        0.28039         0.98255        -0.78465
| 16>    C        1.38117         1.81519        -0.65105
| 17>    C       -0.87432        -1.01231        -0.79590
| 18>    C       -1.84454        -0.01235        -0.84581
| 19>    C       -1.19968         1.35937        -0.93046
| 20>    C        3.95487         1.80500        -0.34863
| 21>    C        4.93554         0.81362        -0.26833
| 22>    C        4.30919        -0.56883        -0.39407
| 23>    S       -1.55781        -2.58702        -0.67249
| 24>    C       -3.18517        -1.90149        -0.62367
| 25>    C       -3.15078        -0.50842        -0.75089
| 26>    S        4.59883         3.39297        -0.21657
| 27>    C        6.23288         2.74377        -0.07352
| 28>    C        6.22543         1.34280        -0.13306
| 29>    C       -1.69329         2.29512         0.19825
| 30>    C       -1.49177         1.95409        -2.34298
| 31>    C       -0.98208         3.36868        -2.61157
| 32>    C       -1.66476         1.67583         1.59492
| 33>    C        4.88087        -1.26122        -1.66589
| 34>    C        4.50513        -1.41249         0.89614
| 35>    C        4.38461        -2.67419        -1.97098
| 36>    C        5.94648        -1.79864         1.22626
| 37>    C        7.33913         3.62994         0.08775
| 38>    C       -4.30602        -2.75160        -0.36998
| 39>    C        8.64469         3.21144         0.13682
| 40>    C        9.80556         4.01154         0.32280
| 41>    C       11.18144         3.37024         0.28913
| 42>    O       12.08289         4.48612         0.50765
| 43>    C       11.40203         5.62593         0.67182
| 44>    C        9.97838         5.36204         0.56520
| 45>    C       11.50661         2.76748        -1.07714
| 46>    C       11.38074         2.38284         1.43917
| 47>    C        8.92705         6.30621         0.69470
| 48>    C       12.08212         6.80497         0.89829
| 49>    C       11.40928         8.05051         1.07430
| 50>    C       13.50931         6.79218         0.95541
| 51>    N       10.88916         9.07922         1.22122
| 52>    N       14.67021         6.78556         1.00232
| 53>    N        7.99739         6.99784         0.78210
| 54>    C       -5.50444        -2.29311         0.11226
| 55>    C       -6.63956        -3.08113         0.46251
| 56>    C       -7.76638        -2.49693         1.30019
| 57>    O       -8.69278        -3.60746         1.43967
| 58>    C       -8.22832        -4.70016         0.82533
| 59>    C       -6.94985        -4.40207         0.20402
| 60>    C       -6.15511        -5.29539        -0.56166
| 61>    C       -8.95753        -5.87082         0.85163
| 62>    C       -8.49808        -7.06708         0.22447
| 63>    C      -10.20992        -5.90420         1.53698
| 64>    C       -8.51381        -1.36319         0.60130
| 65>    C       -7.29551        -2.10599         2.70371
| 66>    N      -11.22870        -5.93555         2.09420
| 67>    N       -8.14754        -8.05486        -0.27689
| 68>    N       -5.44473        -5.95908        -1.19791
| 69>    H        1.81384        -2.11376        -0.59696
| 70>    H        1.27475         2.90091        -0.61504
| 71>    H       -4.05518         0.09970        -0.76716
| 72>    H        7.13859         0.75385        -0.07237
| 73>    H       -2.72006         2.61708        -0.04970
| 74>    H       -1.08296         3.21183         0.18718
| 75>    H       -2.58612         1.93180        -2.48375
| 76>    H       -1.07449         1.25979        -3.08994
| 77>    H       -1.39904         4.09933        -1.90274
| 78>    H       -1.28251         3.69098        -3.62070
| 79>    H        0.11588         3.43098        -2.56085
| 80>    H       -2.35942         0.82630         1.67717
| 81>    H       -1.95253         2.41718         2.35571
| 82>    H       -0.66021         1.30068         1.84862
| 83>    H        5.97804        -1.28110        -1.56392
| 84>    H        4.67241        -0.60188        -2.52410
| 85>    H        3.89599        -2.32566         0.80388
| 86>    H        4.07100        -0.84424         1.73489
| 87>    H        4.54561        -3.36398        -1.12813
| 88>    H        4.92990        -3.08541        -2.83419
| 89>    H        3.31502        -2.69172        -2.22589
| 90>    H        6.41701        -2.37985         0.41822
| 91>    H        5.97959        -2.41851         2.13547
| 92>    H        6.57155        -0.91386         1.41635
| 93>    H        7.11094         4.69433         0.18027
| 94>    H       -4.15956        -3.82414        -0.51896
| 95>    H        8.83994         2.14379         0.01073
| 96>    H       11.39643         3.52710        -1.86406
| 97>    H       10.82621         1.93329        -1.29768
| 98>    H       12.53932         2.38984        -1.08652
| 99>    H       11.13798         2.86186         2.39906
|100>    H       12.42675         2.04551         1.46481
|101>    H       10.73376         1.50343         1.30970
|102>    H       -5.58952        -1.22594         0.33260
|103>    H       -8.87878        -1.68946        -0.38277
|104>    H       -7.85471        -0.49356         0.46704
|105>    H       -9.37518        -1.05743         1.21240
|106>    H       -6.80729        -2.95825         3.19761
|107>    H       -8.15678        -1.78731         3.30851
|108>    H       -6.57684        -1.27463         2.65001
|109> *
|110>
|111>                          ****END OF INPUT****

CARTESIAN COORDINATES (ANGSTROEM)
---------------------------------
  C      2.648530    1.221070   -0.531700
  C      2.826420   -0.194180   -0.549170
  C      1.718290   -1.027500   -0.639890
  C      0.450520   -0.434240   -0.757260
  C      0.280390    0.982550   -0.784650
  C      1.381170    1.815190   -0.651050
  C     -0.874320   -1.012310   -0.795900
  C     -1.844540   -0.012350   -0.845810
  C     -1.199680    1.359370   -0.930460
  C      3.954870    1.805000   -0.348630
  C      4.935540    0.813620   -0.268330
  C      4.309190   -0.568830   -0.394070
  S     -1.557810   -2.587020   -0.672490
  C     -3.185170   -1.901490   -0.623670
  C     -3.150780   -0.508420   -0.750890
  S      4.598830    3.392970   -0.216570
  C      6.232880    2.743770   -0.073520
  C      6.225430    1.342800   -0.133060
  C     -1.693290    2.295120    0.198250
  C     -1.491770    1.954090   -2.342980
  C     -0.982080    3.368680   -2.611570
  C     -1.664760    1.675830    1.594920
  C      4.880870   -1.261220   -1.665890
  C      4.505130   -1.412490    0.896140
  C      4.384610   -2.674190   -1.970980
  C      5.946480   -1.798640    1.226260
  C      7.339130    3.629940    0.087750
  C     -4.306020   -2.751600   -0.369980
  C      8.644690    3.211440    0.136820
  C      9.805560    4.011540    0.322800
  C     11.181440    3.370240    0.289130
  O     12.082890    4.486120    0.507650
  C     11.402030    5.625930    0.671820
  C      9.978380    5.362040    0.565200
  C     11.506610    2.767480   -1.077140
  C     11.380740    2.382840    1.439170
  C      8.927050    6.306210    0.694700
  C     12.082120    6.804970    0.898290
  C     11.409280    8.050510    1.074300
  C     13.509310    6.792180    0.955410
  N     10.889160    9.079220    1.221220
  N     14.670210    6.785560    1.002320
  N      7.997390    6.997840    0.782100
  C     -5.504440   -2.293110    0.112260
  C     -6.639560   -3.081130    0.462510
  C     -7.766380   -2.496930    1.300190
  O     -8.692780   -3.607460    1.439670
  C     -8.228320   -4.700160    0.825330
  C     -6.949850   -4.402070    0.204020
  C     -6.155110   -5.295390   -0.561660
  C     -8.957530   -5.870820    0.851630
  C     -8.498080   -7.067080    0.224470
  C    -10.209920   -5.904200    1.536980
  C     -8.513810   -1.363190    0.601300
  C     -7.295510   -2.105990    2.703710
  N    -11.228700   -5.935550    2.094200
  N     -8.147540   -8.054860   -0.276890
  N     -5.444730   -5.959080   -1.197910
  H      1.813840   -2.113760   -0.596960
  H      1.274750    2.900910   -0.615040
  H     -4.055180    0.099700   -0.767160
  H      7.138590    0.753850   -0.072370
  H     -2.720060    2.617080   -0.049700
  H     -1.082960    3.211830    0.187180
  H     -2.586120    1.931800   -2.483750
  H     -1.074490    1.259790   -3.089940
  H     -1.399040    4.099330   -1.902740
  H     -1.282510    3.690980   -3.620700
  H      0.115880    3.430980   -2.560850
  H     -2.359420    0.826300    1.677170
  H     -1.952530    2.417180    2.355710
  H     -0.660210    1.300680    1.848620
  H      5.978040   -1.281100   -1.563920
  H      4.672410   -0.601880   -2.524100
  H      3.895990   -2.325660    0.803880
  H      4.071000   -0.844240    1.734890
  H      4.545610   -3.363980   -1.128130
  H      4.929900   -3.085410   -2.834190
  H      3.315020   -2.691720   -2.225890
  H      6.417010   -2.379850    0.418220
  H      5.979590   -2.418510    2.135470
  H      6.571550   -0.913860    1.416350
  H      7.110940    4.694330    0.180270
  H     -4.159560   -3.824140   -0.518960
  H      8.839940    2.143790    0.010730
  H     11.396430    3.527100   -1.864060
  H     10.826210    1.933290   -1.297680
  H     12.539320    2.389840   -1.086520
  H     11.137980    2.861860    2.399060
  H     12.426750    2.045510    1.464810
  H     10.733760    1.503430    1.309700
  H     -5.589520   -1.225940    0.332600
  H     -8.878780   -1.689460   -0.382770
  H     -7.854710   -0.493560    0.467040
  H     -9.375180   -1.057430    1.212400
  H     -6.807290   -2.958250    3.197610
  H     -8.156780   -1.787310    3.308510
  H     -6.576840   -1.274630    2.650010

 Total Charge           Charge          ....    0
 Multiplicity           Mult            ....    1
 Number of Electrons    NEL             ....  418
 Basis Dimension        Dim             .... 1020

ORBITAL ENERGIES
----------------

  NO   OCC          E(Eh)            E(eV)
   0   2.0000     -88.989498     -2421.5274
   1   2.0000     -88.989033     -2421.5147
   2   2.0000     -19.290833      -524.9302
   3   2.0000     -19.289078      -524.8825
   4   2.0000     -14.426944      -392.5771
   5   2.0000     -14.425623      -392.5412
   6   2.0000     -14.400521      -391.8581
   7   2.0000     -14.399094      -391.8193
   8   2.0000     -14.398863      -391.8130
   9   2.0000     -14.397128      -391.7658
  10   2.0000     -10.396711      -282.9089
  11   2.0000     -10.395067      -282.8642
  12   2.0000     -10.379886      -282.4511
  13   2.0000     -10.377541      -282.3872
  14   2.0000     -10.347785      -281.5776
  15   2.0000     -10.345528      -281.5161
  16   2.0000     -10.341559      -281.4081
  17   2.0000     -10.338992      -281.3383
  18   2.0000     -10.334807      -281.2244
  19   2.0000     -10.334470      -281.2152
  20   2.0000     -10.333973      -281.2017
  21   2.0000     -10.333744      -281.1955
  22   2.0000     -10.330845      -281.1166
  23   2.0000     -10.329194      -281.0717
  24   2.0000     -10.328782      -281.0604
  25   2.0000     -10.328424      -281.0507
  26   2.0000     -10.327896      -281.0363
  27   2.0000     -10.327515      -281.0260
  28   2.0000     -10.317152      -280.7440
  29   2.0000     -10.316459      -280.7251
  30   2.0000     -10.314917      -280.6832
  31   2.0000     -10.314889      -280.6824
  32   2.0000     -10.314346      -280.6676
  33   2.0000     -10.313902      -280.6555
  34   2.0000     -10.313784      -280.6523
  35   2.0000     -10.313703      -280.6501
  36   2.0000     -10.306983      -280.4673
  37   2.0000     -10.306232      -280.4468
  38   2.0000     -10.305674      -280.4317
  39   2.0000     -10.305568      -280.4288
  40   2.0000     -10.305374      -280.4235
  41   2.0000     -10.304684      -280.4047
  42   2.0000     -10.304375      -280.3963
  43   2.0000     -10.303225      -280.3650
  44   2.0000     -10.303163      -280.3633
  45   2.0000     -10.301802      -280.3263
  46   2.0000     -10.299829      -280.2726
  47   2.0000     -10.299070      -280.2519
  48   2.0000     -10.298360      -280.2326
  49   2.0000     -10.297838      -280.2184
  50   2.0000     -10.292711      -280.0789
  51   2.0000     -10.292642      -280.0770
  52   2.0000     -10.292318      -280.0682
  53   2.0000     -10.291927      -280.0576
  54   2.0000     -10.282088      -279.7898
  55   2.0000     -10.279831      -279.7284
  56   2.0000     -10.278134      -279.6822
  57   2.0000     -10.276329      -279.6331
  58   2.0000      -8.084195      -219.9821
  59   2.0000      -8.083750      -219.9700
  60   2.0000      -6.053394      -164.7212
  61   2.0000      -6.053007      -164.7107
  62   2.0000      -6.049427      -164.6133
  63   2.0000      -6.048986      -164.6013
  64   2.0000      -6.046452      -164.5323
  65   2.0000      -6.045945      -164.5185
  66   2.0000      -1.210593       -32.9419
  67   2.0000      -1.209025       -32.8992
  68   2.0000      -1.028202       -27.9788
  69   2.0000      -1.020696       -27.7746
  70   2.0000      -1.005609       -27.3640
  71   2.0000      -1.004341       -27.3295
  72   2.0000      -0.986676       -26.8488
  73   2.0000      -0.985157       -26.8075
  74   2.0000      -0.983066       -26.7506
  75   2.0000      -0.970258       -26.4021
  76   2.0000      -0.968786       -26.3620
  77   2.0000      -0.967379       -26.3237
  78   2.0000      -0.963841       -26.2275
  79   2.0000      -0.956341       -26.0234
  80   2.0000      -0.937488       -25.5103
  81   2.0000      -0.935587       -25.4586
  82   2.0000      -0.924903       -25.1679
  83   2.0000      -0.913996       -24.8711
  84   2.0000      -0.907625       -24.6977
  85   2.0000      -0.887261       -24.1436
  86   2.0000      -0.879167       -23.9233
  87   2.0000      -0.877201       -23.8699
  88   2.0000      -0.860501       -23.4154
  89   2.0000      -0.857944       -23.3458
  90   2.0000      -0.856422       -23.3044
  91   2.0000      -0.853707       -23.2305
  92   2.0000      -0.851856       -23.1802
  93   2.0000      -0.846581       -23.0366
  94   2.0000      -0.815014       -22.1777
  95   2.0000      -0.811678       -22.0869
  96   2.0000      -0.811121       -22.0717
  97   2.0000      -0.802978       -21.8501
  98   2.0000      -0.785596       -21.3771
  99   2.0000      -0.776965       -21.1423
 100   2.0000      -0.767496       -20.8846
 101   2.0000      -0.757162       -20.6034
 102   2.0000      -0.751976       -20.4623
 103   2.0000      -0.744395       -20.2560
 104   2.0000      -0.730288       -19.8721
 105   2.0000      -0.726022       -19.7561
 106   2.0000      -0.717406       -19.5216
 107   2.0000      -0.713180       -19.4066
 108   2.0000      -0.701246       -19.0819
 109   2.0000      -0.696344       -18.9485
 110   2.0000      -0.692161       -18.8347
 111   2.0000      -0.675816       -18.3899
 112   2.0000      -0.664038       -18.0694
 113   2.0000      -0.660886       -17.9836
 114   2.0000      -0.657020       -17.8784
 115   2.0000      -0.649099       -17.6629
 116   2.0000      -0.646730       -17.5984
 117   2.0000      -0.642000       -17.4697
 118   2.0000      -0.640433       -17.4271
 119   2.0000      -0.627066       -17.0633
 120   2.0000      -0.621045       -16.8995
 121   2.0000      -0.613424       -16.6921
 122   2.0000      -0.606805       -16.5120
 123   2.0000      -0.601558       -16.3692
 124   2.0000      -0.588112       -16.0033
 125   2.0000      -0.586811       -15.9679
 126   2.0000      -0.582308       -15.8454
 127   2.0000      -0.574380       -15.6297
 128   2.0000      -0.573230       -15.5984
 129   2.0000      -0.564267       -15.3545
 130   2.0000      -0.563660       -15.3380
 131   2.0000      -0.558393       -15.1946
 132   2.0000      -0.557673       -15.1751
 133   2.0000      -0.556500       -15.1431
 134   2.0000      -0.553752       -15.0684
 135   2.0000      -0.548426       -14.9234
 136   2.0000      -0.545841       -14.8531
 137   2.0000      -0.539810       -14.6890
 138   2.0000      -0.535361       -14.5679
 139   2.0000      -0.525843       -14.3089
 140   2.0000      -0.522367       -14.2143
 141   2.0000      -0.513385       -13.9699
 142   2.0000      -0.511070       -13.9069
 143   2.0000      -0.510143       -13.8817
 144   2.0000      -0.508630       -13.8405
 145   2.0000      -0.507727       -13.8160
 146   2.0000      -0.505884       -13.7658
 147   2.0000      -0.504463       -13.7271
 148   2.0000      -0.502829       -13.6827
 149   2.0000      -0.501827       -13.6554
 150   2.0000      -0.500158       -13.6100
 151   2.0000      -0.498026       -13.5520
 152   2.0000      -0.497082       -13.5263
 153   2.0000      -0.492049       -13.3893
 154   2.0000      -0.488924       -13.3043
 155   2.0000      -0.483933       -13.1685
 156   2.0000      -0.481780       -13.1099
 157   2.0000      -0.480124       -13.0649
 158   2.0000      -0.477247       -12.9866
 159   2.0000      -0.475311       -12.9339
 160   2.0000      -0.470569       -12.8048
 161   2.0000      -0.468440       -12.7469
 162   2.0000      -0.468032       -12.7358
 163   2.0000      -0.467551       -12.7227
 164   2.0000      -0.466865       -12.7040
 165   2.0000      -0.464517       -12.6401
 166   2.0000      -0.461828       -12.5670
 167   2.0000      -0.461108       -12.5474
 168   2.0000      -0.459259       -12.4971
 169   2.0000      -0.457620       -12.4525
 170   2.0000      -0.454988       -12.3808
 171   2.0000      -0.452575       -12.3152
 172   2.0000      -0.448951       -12.2166
 173   2.0000      -0.447858       -12.1868
 174   2.0000      -0.446362       -12.1461
 175   2.0000      -0.441941       -12.0258
 176   2.0000      -0.439417       -11.9571
 177   2.0000      -0.437868       -11.9150
 178   2.0000      -0.435688       -11.8557
 179   2.0000      -0.431205       -11.7337
 180   2.0000      -0.430324       -11.7097
 181   2.0000      -0.429148       -11.6777
 182   2.0000      -0.426375       -11.6023
 183   2.0000      -0.424881       -11.5616
 184   2.0000      -0.423994       -11.5375
 185   2.0000      -0.422865       -11.5067
 186   2.0000      -0.421342       -11.4653
 187   2.0000      -0.419650       -11.4193
 188   2.0000      -0.418130       -11.3779
 189   2.0000      -0.416048       -11.3212
 190   2.0000      -0.412303       -11.2193
 191   2.0000      -0.410399       -11.1675
 192   2.0000      -0.405888       -11.0448
 193   2.0000      -0.404354       -11.0030
 194   2.0000      -0.402168       -10.9436
 195   2.0000      -0.401903       -10.9363
 196   2.0000      -0.400662       -10.9026
 197   2.0000      -0.393301       -10.7023
 198   2.0000      -0.391320       -10.6483
 199   2.0000      -0.390134       -10.6161
 200   2.0000      -0.372795       -10.1443
 201   2.0000      -0.352499        -9.5920
 202   2.0000      -0.348722        -9.4892
 203   2.0000      -0.347040        -9.4435
 204   2.0000      -0.338365        -9.2074
 205   2.0000      -0.318902        -8.6778
 206   2.0000      -0.301929        -8.2159
 207   2.0000      -0.284785        -7.7494
 208   2.0000      -0.260948        -7.1008
 209   0.0000      -0.109341        -2.9753
 210   0.0000      -0.093430        -2.5424
 211   0.0000      -0.039455        -1.0736
 212   0.0000      -0.011720        -0.3189
 213   0.0000      -0.003419        -0.0930

MULLIKEN ATOMIC CHARGES
-----------------------
   0 C :    0.051521
   1 C :    0.014253
   2 C :   -0.102254
   3 C :    0.063573
   4 C :   -0.000532
   5 C :   -0.096364
   6 C :   -0.062480
   7 C :    0.011602
   8 C :   -0.111182
   9 C :   -0.068309
  10 C :    0.034748
  11 C :   -0.111321
  12 S :    0.176682
  13 C :   -0.116148
  14 C :   -0.018308
  15 S :    0.183171
  16 C :   -0.111997
  17 C :   -0.034874
  18 C :    0.027425
  19 C :    0.062547
  20 C :    0.012973
  21 C :    0.016634
  22 C :    0.042507
  23 C :    0.046703
  24 C :    0.010875
  25 C :    0.006075
  26 C :    0.085127
  27 C :    0.081060
  28 C :   -0.088599
  29 C :    0.112733
  30 C :   -0.085686
  31 O :   -0.256318
  32 C :    0.338349
  33 C :   -0.168763
  34 C :    0.099410
  35 C :    0.099144
  36 C :   -0.206369
  37 C :   -0.403133
  38 C :   -0.184619
  39 C :   -0.145490
  40 N :    0.154387
  41 N :    0.129610
  42 N :    0.172140
  43 C :   -0.086593
  44 C :    0.107162
  45 C :   -0.083715
  46 O :   -0.256324
  47 C :    0.336239
  48 C :   -0.166492
  49 C :   -0.212714
  50 C :   -0.405909
  51 C :   -0.183891
  52 C :   -0.143915
  53 C :    0.093615
  54 C :    0.099883
  55 N :    0.132418
  56 N :    0.157790
  57 N :    0.180844
  58 H :   -0.020666
  59 H :   -0.020320
  60 H :   -0.003623
  61 H :   -0.000703
  62 H :    0.004812
  63 H :    0.019353
  64 H :    0.006168
  65 H :    0.012968
  66 H :    0.017227
  67 H :    0.025686
  68 H :    0.019700
  69 H :    0.017036
  70 H :    0.022075
  71 H :    0.024543
  72 H :    0.007957
  73 H :    0.014737
  74 H :    0.012617
  75 H :    0.015083
  76 H :    0.015866
  77 H :    0.025589
  78 H :    0.023009
  79 H :    0.016989
  80 H :    0.027426
  81 H :    0.013300
  82 H :    0.024916
  83 H :    0.032052
  84 H :   -0.007755
  85 H :    0.037915
  86 H :    0.020359
  87 H :    0.047155
  88 H :    0.036847
  89 H :    0.048199
  90 H :    0.019834
  91 H :   -0.002527
  92 H :    0.037431
  93 H :    0.022091
  94 H :    0.049137
  95 H :    0.036163
  96 H :    0.047999
  97 H :    0.024454
Sum of atomic charges:    0.0000000

LOEWDIN ATOMIC CHARGES
----------------------
   0 C :   -0.029456
   1 C :    0.012503
   2 C :   -0.025918
   3 C :   -0.027031
   4 C :    0.010782
   5 C :   -0.025852
   6 C :   -0.165095
   7 C :   -0.035578
   8 C :   -0.029660
   9 C :   -0.161271
  10 C :   -0.036336
  11 C :   -0.027707
  12 S :    0.453347
  13 C :   -0.177040
  14 C :   -0.033803
  15 S :    0.458945
  16 C :   -0.181622
  17 C :   -0.031398
  18 C :   -0.020557
  19 C :   -0.013233
  20 C :   -0.063783
  21 C :   -0.061433
  22 C :   -0.017988
  23 C :   -0.017498
  24 C :   -0.063880
  25 C :   -0.063248
  26 C :    0.034225
  27 C :    0.032431
  28 C :   -0.070002
  29 C :    0.053379
  30 C :    0.061404
  31 O :   -0.052706
  32 C :    0.134468
  33 C :   -0.115228
  34 C :   -0.039627
  35 C :   -0.039503
  36 C :   -0.024400
  37 C :   -0.190089
  38 C :   -0.031139
  39 C :   -0.020439
  40 N :   -0.053581
  41 N :   -0.063569
  42 N :   -0.040768
  43 C :   -0.066290
  44 C :    0.052824
  45 C :    0.062802
  46 O :   -0.052608
  47 C :    0.133477
  48 C :   -0.111134
  49 C :   -0.027068
  50 C :   -0.188561
  51 C :   -0.031311
  52 C :   -0.020520
  53 C :   -0.040050
  54 C :   -0.039545
  55 N :   -0.061861
  56 N :   -0.051884
  57 N :   -0.036143
  58 H :    0.030804
  59 H :    0.030948
  60 H :    0.034188
  61 H :    0.031326
  62 H :    0.023383
  63 H :    0.024801
  64 H :    0.023820
  65 H :    0.029722
  66 H :    0.024892
  67 H :    0.033731
  68 H :    0.025238
  69 H :    0.024118
  70 H :    0.029756
  71 H :    0.028685
  72 H :    0.021909
  73 H :    0.030610
  74 H :    0.022798
  75 H :    0.030573
  76 H :    0.024362
  77 H :    0.033976
  78 H :    0.026035
  79 H :    0.024248
  80 H :    0.034230
  81 H :    0.023334
  82 H :    0.046047
  83 H :    0.046554
  84 H :    0.028087
  85 H :    0.039549
  86 H :    0.032707
  87 H :    0.042315
  88 H :    0.039056
  89 H :    0.042886
  90 H :    0.032050
  91 H :    0.029541
  92 H :    0.039023
  93 H :    0.032489
  94 H :    0.043615
  95 H :    0.038841
  96 H :    0.042378
  97 H :    0.034205

  Mayer bond orders larger than 0.100000
B(  0-C ,  1-C ) :   1.3857 B(  0-C ,  5-C ) :   1.2941 B(  0-C ,  9-C ) :   1.0607
B(  1-C ,  2-C ) :   1.4145 B(  1-C , 11-C ) :   0.9201 B(  2-C ,  3-C ) :   1.3019
B(  2-C , 58-H ) :   0.9904 B(  3-C ,  4-C ) :   1.3710 B(  3-C ,  6-C ) :   1.0561
B(  4-C ,  5-C ) :   1.4248 B(  4-C ,  8-C ) :   0.9083 B(  5-C , 59-H ) :   0.9908
B(  6-C ,  7-C ) :   1.5070 B(  6-C , 12-S ) :   1.1203 B(  7-C ,  8-C ) :   0.9373
B(  7-C , 14-C ) :   1.3248 B(  8-C , 18-C ) :   1.0312 B(  8-C , 19-C ) :   1.0081
B(  9-C , 10-C ) :   1.5065 B(  9-C , 15-S ) :   1.1261 B( 10-C , 11-C ) :   0.9391
B( 10-C , 17-C ) :   1.3327 B( 11-C , 22-C ) :   1.0036 B( 11-C , 23-C ) :   1.0103
B( 12-S , 13-C ) :   1.1048 B( 13-C , 14-C ) :   1.4253 B( 13-C , 27-C ) :   1.1478
B( 14-C , 60-H ) :   0.9947 B( 15-S , 16-C ) :   1.1017 B( 16-C , 17-C ) :   1.4163
B( 16-C , 26-C ) :   1.1623 B( 17-C , 61-H ) :   0.9855 B( 18-C , 21-C ) :   1.1037
B( 18-C , 62-H ) :   0.9397 B( 18-C , 63-H ) :   0.9393 B( 19-C , 20-C ) :   1.1104
B( 19-C , 64-H ) :   0.9399 B( 19-C , 65-H ) :   0.9411 B( 20-C , 66-H ) :   0.9625
B( 20-C , 67-H ) :   0.9617 B( 20-C , 68-H ) :   0.9635 B( 21-C , 69-H ) :   0.9611
B( 21-C , 70-H ) :   0.9658 B( 21-C , 71-H ) :   0.9672 B( 22-C , 24-C ) :   1.1085
B( 22-C , 72-H ) :   0.9418 B( 22-C , 73-H ) :   0.9402 B( 23-C , 25-C ) :   1.1065
B( 23-C , 74-H ) :   0.9398 B( 23-C , 75-H ) :   0.9405 B( 24-C , 76-H ) :   0.9633
B( 24-C , 77-H ) :   0.9614 B( 24-C , 78-H ) :   0.9628 B( 25-C , 79-H ) :   0.9634
B( 25-C , 80-H ) :   0.9622 B( 25-C , 81-H ) :   0.9639 B( 26-C , 28-C ) :   1.6131
B( 26-C , 82-H ) :   0.9485 B( 27-C , 43-C ) :   1.6310 B( 27-C , 83-H ) :   0.9479
B( 28-C , 29-C ) :   1.1976 B( 28-C , 84-H ) :   0.9533 B( 29-C , 30-C ) :   0.9584
B( 29-C , 33-C ) :   1.6005 B( 30-C , 31-O ) :   0.9034 B( 30-C , 34-C ) :   1.0483
B( 30-C , 35-C ) :   1.0479 B( 31-O , 32-C ) :   1.2444 B( 32-C , 33-C ) :   1.0518
B( 32-C , 37-C ) :   1.5984 B( 33-C , 36-C ) :   1.1457 B( 34-C , 85-H ) :   0.9537
B( 34-C , 86-H ) :   0.9551 B( 34-C , 87-H ) :   0.9581 B( 35-C , 88-H ) :   0.9538
B( 35-C , 89-H ) :   0.9570 B( 35-C , 90-H ) :   0.9557 B( 36-C , 42-N ) :   2.9570
B( 37-C , 38-C ) :   1.1730 B( 37-C , 39-C ) :   1.1029 B( 38-C , 40-N ) :   3.0108
B( 39-C , 41-N ) :   3.0416 B( 43-C , 44-C ) :   1.1858 B( 43-C , 91-H ) :   0.9540
B( 44-C , 45-C ) :   0.9575 B( 44-C , 48-C ) :   1.6184 B( 45-C , 46-O ) :   0.9010
B( 45-C , 53-C ) :   1.0463 B( 45-C , 54-C ) :   1.0489 B( 46-O , 47-C ) :   1.2464
B( 47-C , 48-C ) :   1.0484 B( 47-C , 50-C ) :   1.6032 B( 48-C , 49-C ) :   1.1415
B( 49-C , 57-N ) :   2.9701 B( 50-C , 51-C ) :   1.1722 B( 50-C , 52-C ) :   1.1024
B( 51-C , 56-N ) :   3.0127 B( 52-C , 55-N ) :   3.0417 B( 53-C , 92-H ) :   0.9546
B( 53-C , 93-H ) :   0.9566 B( 53-C , 94-H ) :   0.9571 B( 54-C , 95-H ) :   0.9534
B( 54-C , 96-H ) :   0.9580 B( 54-C , 97-H ) :   0.9547

-----------------------------------------------------------------------------
         ABSORPTION SPECTRUM VIA TRANSITION ELECTRIC DIPOLE MOMENTS
-----------------------------------------------------------------------------
State   Energy  Wavelength   fosc         T2         TX        TY        TZ
        (cm-1)    (nm)                  (au**2)     (au)      (au)      (au)
-----------------------------------------------------------------------------
   0   18468.4    541.5   2.955530862  52.68451  -6.21011  -3.75435  -0.15477
   1   22697.7    440.6   0.043107212   0.62523  -0.13029   0.00531   0.77989
   2   26186.7    381.9   0.003485949   0.04382   0.10420  -0.04505  -0.17589
   3   27434.4    364.5   0.109647110   1.31576  -0.20552  -1.12834  -0.01910
   4   30204.5    331.1   0.006471745   0.07054   0.03967   0.06466   0.25453
   5   31378.8    318.7   0.102230964   1.07256  -0.73865  -0.71992   0.09313
   6   33324.0    300.1   0.034392742   0.33977   0.45332  -0.36606   0.01661
   7   34688.7    288.3   0.152481087   1.44712   1.16830   0.28007   0.06135
   8   35774.4    279.5   0.021947122   0.20197  -0.07695   0.43586  -0.07793
   9   36217.0    276.1   0.137366765   1.24866   0.15484  -1.10166   0.10506
  10   36707.4    272.4   0.015263158   0.13689   0.34192  -0.14065   0.01408
  11   36884.8    271.1   0.032610422   0.29106  -0.49726   0.16505   0.12865
  12   39065.4    256.0   0.000185103   0.00156  -0.00825   0.00934   0.03748
  13   39883.3    250.7   0.009165913   0.07566  -0.06814   0.26490  -0.02904
  14   39939.3    250.4   0.021625278   0.17825   0.33741  -0.25369   0.00739

FINAL SINGLE POINT ENERGY     -3125.194688753033

DIPOLE MOMENT
-------------
                                X             Y             Z
Electronic contribution:     -5.16879       2.74526       3.68215
Nuclear contribution   :      5.30128      -3.00063      -4.40021
                        -----------------------------------------
Total Dipole Moment    :      0.13250      -0.25536      -0.71806
                        -----------------------------------------
Magnitude (a.u.)       :      0.77355
Magnitude (Debye)      :      1.96621

Rotational constants in cm-1:     0.004318     0.000325     0.000312
Rotational constants in MHz :   129.463166     9.738263     9.360710

                             ****ORCA TERMINATED NORMALLY****
TOTAL RUN TIME: 0 days 0 hours 46 minutes 49 seconds 781 msec
