                         Program Version 4.2.0 -  RELEASE  -
|  1> # ORCA input file
|  2> # IDTCF.out
|  3> ! CAM-B3LYP def2-SVP def2/J RIJCOSX Grid4 TightSCF
|  4> %maxcore 5000
|  5> %tddft
|  6>     Mode sTDDFT
|  7>     Ethresh 5.0
|  8>     maxcore 5000
|  9> end
| 10> * xyz 0 1
| 11>    C        2.71923         1.14877        -0.08754
| 12>    C        2.83688        -0.25690        -0.20035
| 13>    C        1.70485        -1.03952        -0.19162
| 14>    C        0.47277        -0.39111        -0.13449
| 15>    C        0.35719         1.01954        -0.07735
| 16>    C        1.48848         1.79859        -0.02208
| 17>    C       -0.85233        -0.91999        -0.07908
| 18>    C       -1.78665         0.10687         0.01016
| 19>    C       -1.09804         1.44606        -0.03681
| 20>    C        4.04276         1.67603        -0.03931
| 21>    C        4.98741         0.65686        -0.11920
| 22>    C        4.29767        -0.68000        -0.25107
| 23>    S       -1.57474        -2.46992        -0.07184
| 24>    C       -3.16751        -1.74028         0.04754
| 25>    C       -3.09228        -0.35039         0.07676
| 26>    S        4.74171         3.23096         0.06699
| 27>    C        6.34518         2.52323        -0.01367
| 28>    C        6.28915         1.13603        -0.11892
| 29>    C       -1.41522         2.30570         1.19612
| 30>    C       -1.53504         2.14093        -1.34845
| 31>    C       -0.81825         3.44253        -1.68000
| 32>    C       -1.11921         1.58162         2.50456
| 33>    C        4.68473        -1.27455        -1.62265
| 34>    C        4.58583        -1.61459         0.93990
| 35>    C        4.02301        -2.59789        -1.98245
| 36>    C        6.02741        -2.09110         1.05688
| 37>    C        7.45338         3.39482         0.02678
| 38>    C       -4.29443        -2.58748         0.09642
| 39>    C        8.76270         3.01923        -0.01009
| 40>    C        9.85236         3.91385         0.02444
| 41>    C       11.28537         3.42528         0.00727
| 42>    O       12.07344         4.62101         0.05169
| 43>    C       11.27334         5.69659         0.09145
| 44>    C        9.88866         5.29105         0.07600
| 45>    C       11.62554         2.67681        -1.28407
| 46>    C       11.62017         2.58592         1.24308
| 47>    C        8.80711         6.18142         0.10460
| 48>    C       11.78891         6.96475         0.13815
| 49>    C       10.99236         8.12291         0.18081
| 50>    C       13.18323         7.17152         0.14549
| 51>    N       10.39537         9.10194         0.21674
| 52>    N       14.31703         7.34436         0.15227
| 53>    N        7.89854         6.88269         0.12330
| 54>    C       -5.58700        -2.16234         0.17381
| 55>    C       -6.71573        -3.00547         0.22155
| 56>    C       -8.12098        -2.44549         0.28963
| 57>    O       -8.96670        -3.60126         0.32471
| 58>    C       -8.22226        -4.71610         0.28347
| 59>    C       -6.82047        -4.37993         0.21883
| 60>    C       -5.78270        -5.31978         0.16684
| 61>    C       -8.80090        -5.95743         0.30486
| 62>    C       -8.06425        -7.15459         0.26369
| 63>    C      -10.20245        -6.09273         0.37126
| 64>    C       -8.47556        -1.63075        -0.95720
| 65>    C       -8.35981        -1.63888         1.56865
| 66>    N      -11.34248        -6.20614         0.42579
| 67>    N       -7.51660        -8.16225         0.23188
| 68>    N       -4.90615        -6.05978         0.12327
| 69>    H        1.74185        -2.11723        -0.21130
| 70>    H        1.45137         2.87104         0.08662
| 71>    H       -3.95883         0.28077         0.15078
| 72>    H        7.17228         0.52974        -0.20243
| 73>    H       -2.47018         2.58589         1.16461
| 74>    H       -0.82179         3.21913         1.15426
| 75>    H       -2.60829         2.33153        -1.27609
| 76>    H       -1.37928         1.43608        -2.16941
| 77>    H       -0.93375         4.17456        -0.88553
| 78>    H       -1.24387         3.86310        -2.58833
| 79>    H        0.24023         3.27065        -1.85341
| 80>    H       -1.72479         0.68280         2.59711
| 81>    H       -1.33931         2.23109         3.34821
| 82>    H       -0.07105         1.29501         2.55553
| 83>    H        5.76890        -1.39760        -1.63950
| 84>    H        4.43012        -0.53422        -2.38594
| 85>    H        3.92652        -2.47995         0.86435
| 86>    H        4.31396        -1.07762         1.85262
| 87>    H        4.21715        -3.35831        -1.23119
| 88>    H        4.42261        -2.95155        -2.93041
| 89>    H        2.94948        -2.47876        -2.09618
| 90>    H        6.33130        -2.65618         0.18001
| 91>    H        6.12248        -2.73978         1.92485
| 92>    H        6.70499        -1.25235         1.18925
| 93>    H        7.21563         4.44692         0.09331
| 94>    H       -4.09057        -3.64821         0.06554
| 95>    H        9.00971         1.96848        -0.06800
| 96>    H       11.38004         3.29052        -2.14839
| 97>    H       11.06964         1.74579        -1.34140
| 98>    H       12.69029         2.46055        -1.30181
| 99>    H       11.37624         3.13858         2.14811
|100>    H       12.68374         2.36337         1.24717
|101>    H       11.05893         1.65634         1.23409
|102>    H       -5.78857        -1.10072         0.19991
|103>    H       -8.30707        -2.22499        -1.85300
|104>    H       -7.86776        -0.73237        -1.00937
|105>    H       -9.52511        -1.35231        -0.91642
|106>    H       -8.09987        -2.23454         2.44132
|107>    H       -9.41090        -1.37033         1.63086
|108>    H       -7.75851        -0.73466         1.56540
|109> *
|110>
|111>                          ****END OF INPUT****

CARTESIAN COORDINATES (ANGSTROEM)
---------------------------------
  C      2.719230    1.148770   -0.087540
  C      2.836880   -0.256900   -0.200350
  C      1.704850   -1.039520   -0.191620
  C      0.472770   -0.391110   -0.134490
  C      0.357190    1.019540   -0.077350
  C      1.488480    1.798590   -0.022080
  C     -0.852330   -0.919990   -0.079080
  C     -1.786650    0.106870    0.010160
  C     -1.098040    1.446060   -0.036810
  C      4.042760    1.676030   -0.039310
  C      4.987410    0.656860   -0.119200
  C      4.297670   -0.680000   -0.251070
  S     -1.574740   -2.469920   -0.071840
  C     -3.167510   -1.740280    0.047540
  C     -3.092280   -0.350390    0.076760
  S      4.741710    3.230960    0.066990
  C      6.345180    2.523230   -0.013670
  C      6.289150    1.136030   -0.118920
  C     -1.415220    2.305700    1.196120
  C     -1.535040    2.140930   -1.348450
  C     -0.818250    3.442530   -1.680000
  C     -1.119210    1.581620    2.504560
  C      4.684730   -1.274550   -1.622650
  C      4.585830   -1.614590    0.939900
  C      4.023010   -2.597890   -1.982450
  C      6.027410   -2.091100    1.056880
  C      7.453380    3.394820    0.026780
  C     -4.294430   -2.587480    0.096420
  C      8.762700    3.019230   -0.010090
  C      9.852360    3.913850    0.024440
  C     11.285370    3.425280    0.007270
  O     12.073440    4.621010    0.051690
  C     11.273340    5.696590    0.091450
  C      9.888660    5.291050    0.076000
  C     11.625540    2.676810   -1.284070
  C     11.620170    2.585920    1.243080
  C      8.807110    6.181420    0.104600
  C     11.788910    6.964750    0.138150
  C     10.992360    8.122910    0.180810
  C     13.183230    7.171520    0.145490
  N     10.395370    9.101940    0.216740
  N     14.317030    7.344360    0.152270
  N      7.898540    6.882690    0.123300
  C     -5.587000   -2.162340    0.173810
  C     -6.715730   -3.005470    0.221550
  C     -8.120980   -2.445490    0.289630
  O     -8.966700   -3.601260    0.324710
  C     -8.222260   -4.716100    0.283470
  C     -6.820470   -4.379930    0.218830
  C     -5.782700   -5.319780    0.166840
  C     -8.800900   -5.957430    0.304860
  C     -8.064250   -7.154590    0.263690
  C    -10.202450   -6.092730    0.371260
  C     -8.475560   -1.630750   -0.957200
  C     -8.359810   -1.638880    1.568650
  N    -11.342480   -6.206140    0.425790
  N     -7.516600   -8.162250    0.231880
  N     -4.906150   -6.059780    0.123270
  H      1.741850   -2.117230   -0.211300
  H      1.451370    2.871040    0.086620
  H     -3.958830    0.280770    0.150780
  H      7.172280    0.529740   -0.202430
  H     -2.470180    2.585890    1.164610
  H     -0.821790    3.219130    1.154260
  H     -2.608290    2.331530   -1.276090
  H     -1.379280    1.436080   -2.169410
  H     -0.933750    4.174560   -0.885530
  H     -1.243870    3.863100   -2.588330
  H      0.240230    3.270650   -1.853410
  H     -1.724790    0.682800    2.597110
  H     -1.339310    2.231090    3.348210
  H     -0.071050    1.295010    2.555530
  H      5.768900   -1.397600   -1.639500
  H      4.430120   -0.534220   -2.385940
  H      3.926520   -2.479950    0.864350
  H      4.313960   -1.077620    1.852620
  H      4.217150   -3.358310   -1.231190
  H      4.422610   -2.951550   -2.930410
  H      2.949480   -2.478760   -2.096180
  H      6.331300   -2.656180    0.180010
  H      6.122480   -2.739780    1.924850
  H      6.704990   -1.252350    1.189250
  H      7.215630    4.446920    0.093310
  H     -4.090570   -3.648210    0.065540
  H      9.009710    1.968480   -0.068000
  H     11.380040    3.290520   -2.148390
  H     11.069640    1.745790   -1.341400
  H     12.690290    2.460550   -1.301810
  H     11.376240    3.138580    2.148110
  H     12.683740    2.363370    1.247170
  H     11.058930    1.656340    1.234090
  H     -5.788570   -1.100720    0.199910
  H     -8.307070   -2.224990   -1.853000
  H     -7.867760   -0.732370   -1.009370
  H     -9.525110   -1.352310   -0.916420
  H     -8.099870   -2.234540    2.441320
  H     -9.410900   -1.370330    1.630860
  H     -7.758510   -0.734660    1.565400

 Total Charge           Charge          ....    0
 Multiplicity           Mult            ....    1
 Number of Electrons    NEL             ....  418
 Basis Dimension        Dim             .... 1020

ORBITAL ENERGIES
----------------

  NO   OCC          E(Eh)            E(eV)
   0   2.0000     -88.989005     -2421.5139
   1   2.0000     -88.988748     -2421.5069
   2   2.0000     -19.289747      -524.9007
   3   2.0000     -19.289701      -524.8994
   4   2.0000     -14.421362      -392.4252
   5   2.0000     -14.421336      -392.4245
   6   2.0000     -14.393064      -391.6552
   7   2.0000     -14.392857      -391.6495
   8   2.0000     -14.391941      -391.6246
   9   2.0000     -14.391818      -391.6213
  10   2.0000     -10.391524      -282.7677
  11   2.0000     -10.391389      -282.7641
  12   2.0000     -10.374311      -282.2993
  13   2.0000     -10.374297      -282.2990
  14   2.0000     -10.342013      -281.4205
  15   2.0000     -10.341917      -281.4179
  16   2.0000     -10.333146      -281.1792
  17   2.0000     -10.332924      -281.1732
  18   2.0000     -10.331031      -281.1216
  19   2.0000     -10.330472      -281.1064
  20   2.0000     -10.329187      -281.0715
  21   2.0000     -10.328869      -281.0628
  22   2.0000     -10.325991      -280.9845
  23   2.0000     -10.325728      -280.9773
  24   2.0000     -10.322532      -280.8904
  25   2.0000     -10.322368      -280.8859
  26   2.0000     -10.321896      -280.8731
  27   2.0000     -10.321866      -280.8722
  28   2.0000     -10.312150      -280.6079
  29   2.0000     -10.311837      -280.5993
  30   2.0000     -10.311230      -280.5828
  31   2.0000     -10.310076      -280.5514
  32   2.0000     -10.310056      -280.5509
  33   2.0000     -10.309999      -280.5493
  34   2.0000     -10.309961      -280.5483
  35   2.0000     -10.309566      -280.5375
  36   2.0000     -10.303481      -280.3720
  37   2.0000     -10.303172      -280.3636
  38   2.0000     -10.302242      -280.3383
  39   2.0000     -10.301974      -280.3310
  40   2.0000     -10.300497      -280.2908
  41   2.0000     -10.299232      -280.2564
  42   2.0000     -10.297608      -280.2122
  43   2.0000     -10.297431      -280.2074
  44   2.0000     -10.297062      -280.1973
  45   2.0000     -10.296951      -280.1943
  46   2.0000     -10.293059      -280.0884
  47   2.0000     -10.293021      -280.0873
  48   2.0000     -10.292984      -280.0863
  49   2.0000     -10.292883      -280.0836
  50   2.0000     -10.289355      -279.9876
  51   2.0000     -10.289182      -279.9829
  52   2.0000     -10.288989      -279.9776
  53   2.0000     -10.288092      -279.9532
  54   2.0000     -10.277446      -279.6635
  55   2.0000     -10.274786      -279.5911
  56   2.0000     -10.273134      -279.5462
  57   2.0000     -10.269672      -279.4520
  58   2.0000      -8.084092      -219.9793
  59   2.0000      -8.083961      -219.9758
  60   2.0000      -6.053209      -164.7162
  61   2.0000      -6.053040      -164.7116
  62   2.0000      -6.049242      -164.6083
  63   2.0000      -6.049113      -164.6047
  64   2.0000      -6.046425      -164.5316
  65   2.0000      -6.046300      -164.5282
  66   2.0000      -1.212287       -32.9880
  67   2.0000      -1.212201       -32.9857
  68   2.0000      -1.035684       -28.1824
  69   2.0000      -1.027473       -27.9590
  70   2.0000      -1.009765       -27.4771
  71   2.0000      -1.009549       -27.4712
  72   2.0000      -0.990720       -26.9589
  73   2.0000      -0.989649       -26.9297
  74   2.0000      -0.988802       -26.9067
  75   2.0000      -0.973646       -26.4943
  76   2.0000      -0.971319       -26.4309
  77   2.0000      -0.970941       -26.4206
  78   2.0000      -0.966280       -26.2938
  79   2.0000      -0.960828       -26.1455
  80   2.0000      -0.939100       -25.5542
  81   2.0000      -0.939033       -25.5524
  82   2.0000      -0.930899       -25.3311
  83   2.0000      -0.918439       -24.9920
  84   2.0000      -0.910411       -24.7735
  85   2.0000      -0.891313       -24.2539
  86   2.0000      -0.880673       -23.9643
  87   2.0000      -0.879538       -23.9334
  88   2.0000      -0.865002       -23.5379
  89   2.0000      -0.862343       -23.4655
  90   2.0000      -0.860833       -23.4245
  91   2.0000      -0.858554       -23.3624
  92   2.0000      -0.856855       -23.3162
  93   2.0000      -0.851247       -23.1636
  94   2.0000      -0.818485       -22.2721
  95   2.0000      -0.811638       -22.0858
  96   2.0000      -0.811601       -22.0848
  97   2.0000      -0.807367       -21.9696
  98   2.0000      -0.788285       -21.4503
  99   2.0000      -0.780710       -21.2442
 100   2.0000      -0.769993       -20.9526
 101   2.0000      -0.760464       -20.6933
 102   2.0000      -0.755418       -20.5560
 103   2.0000      -0.748417       -20.3655
 104   2.0000      -0.733442       -19.9580
 105   2.0000      -0.728533       -19.8244
 106   2.0000      -0.721103       -19.6222
 107   2.0000      -0.714210       -19.4346
 108   2.0000      -0.702121       -19.1057
 109   2.0000      -0.698527       -19.0079
 110   2.0000      -0.695554       -18.9270
 111   2.0000      -0.678976       -18.4759
 112   2.0000      -0.668843       -18.2002
 113   2.0000      -0.663032       -18.0420
 114   2.0000      -0.659482       -17.9454
 115   2.0000      -0.651964       -17.7408
 116   2.0000      -0.649504       -17.6739
 117   2.0000      -0.643516       -17.5109
 118   2.0000      -0.641160       -17.4468
 119   2.0000      -0.630261       -17.1503
 120   2.0000      -0.624627       -16.9970
 121   2.0000      -0.616124       -16.7656
 122   2.0000      -0.608963       -16.5707
 123   2.0000      -0.605155       -16.4671
 124   2.0000      -0.588370       -16.0104
 125   2.0000      -0.588310       -16.0087
 126   2.0000      -0.585755       -15.9392
 127   2.0000      -0.576669       -15.6920
 128   2.0000      -0.575328       -15.6555
 129   2.0000      -0.567793       -15.4504
 130   2.0000      -0.566849       -15.4247
 131   2.0000      -0.564437       -15.3591
 132   2.0000      -0.558781       -15.2052
 133   2.0000      -0.557326       -15.1656
 134   2.0000      -0.555007       -15.1025
 135   2.0000      -0.550792       -14.9878
 136   2.0000      -0.547353       -14.8942
 137   2.0000      -0.545770       -14.8512
 138   2.0000      -0.538313       -14.6482
 139   2.0000      -0.528830       -14.3902
 140   2.0000      -0.523284       -14.2393
 141   2.0000      -0.516726       -14.0608
 142   2.0000      -0.513274       -13.9669
 143   2.0000      -0.511429       -13.9167
 144   2.0000      -0.509189       -13.8557
 145   2.0000      -0.508786       -13.8448
 146   2.0000      -0.508430       -13.8351
 147   2.0000      -0.506400       -13.7799
 148   2.0000      -0.505835       -13.7645
 149   2.0000      -0.504987       -13.7414
 150   2.0000      -0.503788       -13.7088
 151   2.0000      -0.500873       -13.6294
 152   2.0000      -0.500565       -13.6211
 153   2.0000      -0.495328       -13.4786
 154   2.0000      -0.491087       -13.3631
 155   2.0000      -0.485785       -13.2189
 156   2.0000      -0.483796       -13.1648
 157   2.0000      -0.482760       -13.1366
 158   2.0000      -0.480439       -13.0734
 159   2.0000      -0.478491       -13.0204
 160   2.0000      -0.472953       -12.8697
 161   2.0000      -0.470266       -12.7966
 162   2.0000      -0.469832       -12.7848
 163   2.0000      -0.468096       -12.7375
 164   2.0000      -0.467856       -12.7310
 165   2.0000      -0.465393       -12.6640
 166   2.0000      -0.463165       -12.6034
 167   2.0000      -0.460753       -12.5377
 168   2.0000      -0.458423       -12.4743
 169   2.0000      -0.457569       -12.4511
 170   2.0000      -0.455111       -12.3842
 171   2.0000      -0.454566       -12.3694
 172   2.0000      -0.449698       -12.2369
 173   2.0000      -0.447342       -12.1728
 174   2.0000      -0.447029       -12.1643
 175   2.0000      -0.444123       -12.0852
 176   2.0000      -0.441659       -12.0181
 177   2.0000      -0.437630       -11.9085
 178   2.0000      -0.437118       -11.8946
 179   2.0000      -0.432367       -11.7653
 180   2.0000      -0.428512       -11.6604
 181   2.0000      -0.428474       -11.6594
 182   2.0000      -0.426136       -11.5957
 183   2.0000      -0.424045       -11.5389
 184   2.0000      -0.423732       -11.5303
 185   2.0000      -0.422410       -11.4944
 186   2.0000      -0.422292       -11.4912
 187   2.0000      -0.422176       -11.4880
 188   2.0000      -0.418883       -11.3984
 189   2.0000      -0.417732       -11.3671
 190   2.0000      -0.413690       -11.2571
 191   2.0000      -0.410595       -11.1729
 192   2.0000      -0.406194       -11.0531
 193   2.0000      -0.406048       -11.0491
 194   2.0000      -0.403560       -10.9814
 195   2.0000      -0.402070       -10.9409
 196   2.0000      -0.401925       -10.9369
 197   2.0000      -0.395783       -10.7698
 198   2.0000      -0.388100       -10.5607
 199   2.0000      -0.387780       -10.5520
 200   2.0000      -0.373812       -10.1719
 201   2.0000      -0.353269        -9.6129
 202   2.0000      -0.350777        -9.5451
 203   2.0000      -0.349078        -9.4989
 204   2.0000      -0.340131        -9.2554
 205   2.0000      -0.319054        -8.6819
 206   2.0000      -0.301065        -8.1924
 207   2.0000      -0.281945        -7.6721
 208   2.0000      -0.258978        -7.0472
 209   0.0000      -0.109690        -2.9848
 210   0.0000      -0.091419        -2.4876
 211   0.0000      -0.036154        -0.9838
 212   0.0000      -0.008646        -0.2353
 213   0.0000      -0.002246        -0.0611

MULLIKEN ATOMIC CHARGES
-----------------------
   0 C :    0.060930
   1 C :    0.024290
   2 C :   -0.115428
   3 C :    0.067680
   4 C :    0.003564
   5 C :   -0.109485
   6 C :   -0.055727
   7 C :    0.021386
   8 C :   -0.109733
   9 C :   -0.064167
  10 C :    0.038807
  11 C :   -0.108801
  12 S :    0.182093
  13 C :   -0.094691
  14 C :   -0.033551
  15 S :    0.182407
  16 C :   -0.092446
  17 C :   -0.042926
  18 C :    0.048684
  19 C :    0.068278
  20 C :    0.030434
  21 C :    0.024326
  22 C :    0.046524
  23 C :    0.050227
  24 C :    0.034848
  25 C :    0.030564
  26 C :    0.086462
  27 C :    0.087522
  28 C :   -0.080834
  29 C :    0.108270
  30 C :   -0.087783
  31 O :   -0.245938
  32 C :    0.338348
  33 C :   -0.171284
  34 C :    0.115338
  35 C :    0.116612
  36 C :   -0.227068
  37 C :   -0.420676
  38 C :   -0.201785
  39 C :   -0.169766
  40 N :    0.181072
  41 N :    0.154662
  42 N :    0.200801
  43 C :   -0.084878
  44 C :    0.112416
  45 C :   -0.088397
  46 O :   -0.246152
  47 C :    0.339097
  48 C :   -0.171255
  49 C :   -0.227803
  50 C :   -0.420495
  51 C :   -0.201655
  52 C :   -0.168846
  53 C :    0.116238
  54 C :    0.115081
  55 N :    0.153981
  56 N :    0.180039
  57 N :    0.202199
  58 H :   -0.028303
  59 H :   -0.030022
  60 H :   -0.017142
  61 H :   -0.009743
  62 H :    0.000912
  63 H :    0.013805
  64 H :   -0.000541
  65 H :    0.010143
  66 H :    0.009810
  67 H :    0.020354
  68 H :    0.020607
  69 H :    0.020210
  70 H :    0.017797
  71 H :    0.020612
  72 H :    0.005766
  73 H :    0.011415
  74 H :    0.010316
  75 H :    0.011249
  76 H :    0.008989
  77 H :    0.020713
  78 H :    0.019154
  79 H :    0.012729
  80 H :    0.023182
  81 H :    0.005756
  82 H :    0.010463
  83 H :    0.011442
  84 H :   -0.016390
  85 H :    0.030237
  86 H :    0.015018
  87 H :    0.042629
  88 H :    0.029851
  89 H :    0.042166
  90 H :    0.015054
  91 H :   -0.014803
  92 H :    0.030261
  93 H :    0.015053
  94 H :    0.041877
  95 H :    0.030188
  96 H :    0.042480
  97 H :    0.015098
Sum of atomic charges:   -0.0000000

LOEWDIN ATOMIC CHARGES
----------------------
   0 C :   -0.029653
   1 C :    0.013595
   2 C :   -0.021585
   3 C :   -0.028706
   4 C :    0.011910
   5 C :   -0.021969
   6 C :   -0.163846
   7 C :   -0.034056
   8 C :   -0.033684
   9 C :   -0.162266
  10 C :   -0.034231
  11 C :   -0.031453
  12 S :    0.467426
  13 C :   -0.178651
  14 C :   -0.027829
  15 S :    0.469275
  16 C :   -0.180001
  17 C :   -0.028706
  18 C :   -0.014098
  19 C :   -0.009126
  20 C :   -0.058301
  21 C :   -0.055637
  22 C :   -0.013324
  23 C :   -0.013636
  24 C :   -0.057674
  25 C :   -0.056923
  26 C :    0.031927
  27 C :    0.032666
  28 C :   -0.068294
  29 C :    0.053046
  30 C :    0.056103
  31 O :   -0.046173
  32 C :    0.134997
  33 C :   -0.117317
  34 C :   -0.034795
  35 C :   -0.034592
  36 C :   -0.034181
  37 C :   -0.190713
  38 C :   -0.035501
  39 C :   -0.024427
  40 N :   -0.047676
  41 N :   -0.058804
  42 N :   -0.030396
  43 C :   -0.067429
  44 C :    0.052692
  45 C :    0.056068
  46 O :   -0.046155
  47 C :    0.135056
  48 C :   -0.116775
  49 C :   -0.033906
  50 C :   -0.190486
  51 C :   -0.035426
  52 C :   -0.024359
  53 C :   -0.034657
  54 C :   -0.034799
  55 N :   -0.058706
  56 N :   -0.047583
  57 N :   -0.030445
  58 H :    0.028719
  59 H :    0.029159
  60 H :    0.030636
  61 H :    0.029534
  62 H :    0.021972
  63 H :    0.022352
  64 H :    0.021053
  65 H :    0.027826
  66 H :    0.022350
  67 H :    0.031338
  68 H :    0.024518
  69 H :    0.024442
  70 H :    0.027710
  71 H :    0.025741
  72 H :    0.020604
  73 H :    0.029492
  74 H :    0.021356
  75 H :    0.029402
  76 H :    0.022098
  77 H :    0.031819
  78 H :    0.024666
  79 H :    0.022514
  80 H :    0.032431
  81 H :    0.021378
  82 H :    0.041904
  83 H :    0.042297
  84 H :    0.026469
  85 H :    0.035952
  86 H :    0.029810
  87 H :    0.040287
  88 H :    0.035923
  89 H :    0.040057
  90 H :    0.029964
  91 H :    0.026440
  92 H :    0.036018
  93 H :    0.029923
  94 H :    0.040002
  95 H :    0.035944
  96 H :    0.040267
  97 H :    0.029824

  Mayer bond orders larger than 0.100000
B(  0-C ,  1-C ) :   1.3875 B(  0-C ,  5-C ) :   1.2844 B(  0-C ,  9-C ) :   1.0641
B(  1-C ,  2-C ) :   1.4099 B(  1-C , 11-C ) :   0.9149 B(  2-C ,  3-C ) :   1.2941
B(  2-C , 58-H ) :   0.9966 B(  3-C ,  4-C ) :   1.3766 B(  3-C ,  6-C ) :   1.0604
B(  4-C ,  5-C ) :   1.4139 B(  4-C ,  8-C ) :   0.9020 B(  5-C , 59-H ) :   1.0004
B(  6-C ,  7-C ) :   1.4881 B(  6-C , 12-S ) :   1.1231 B(  7-C ,  8-C ) :   0.9349
B(  7-C , 14-C ) :   1.3394 B(  8-C , 18-C ) :   1.0319 B(  8-C , 19-C ) :   1.0127
B(  9-C , 10-C ) :   1.4967 B(  9-C , 15-S ) :   1.1263 B( 10-C , 11-C ) :   0.9389
B( 10-C , 17-C ) :   1.3384 B( 11-C , 22-C ) :   1.0016 B( 11-C , 23-C ) :   1.0101
B( 12-S , 13-C ) :   1.1053 B( 13-C , 14-C ) :   1.4035 B( 13-C , 27-C ) :   1.1719
B( 14-C , 60-H ) :   1.0010 B( 15-S , 16-C ) :   1.1039 B( 16-C , 17-C ) :   1.4069
B( 16-C , 26-C ) :   1.1731 B( 17-C , 61-H ) :   0.9942 B( 18-C , 21-C ) :   1.1029
B( 18-C , 62-H ) :   0.9413 B( 18-C , 63-H ) :   0.9387 B( 19-C , 20-C ) :   1.1162
B( 19-C , 64-H ) :   0.9378 B( 19-C , 65-H ) :   0.9403 B( 20-C , 66-H ) :   0.9633
B( 20-C , 67-H ) :   0.9591 B( 20-C , 68-H ) :   0.9609 B( 21-C , 69-H ) :   0.9634
B( 21-C , 70-H ) :   0.9649 B( 21-C , 71-H ) :   0.9655 B( 22-C , 24-C ) :   1.1145
B( 22-C , 72-H ) :   0.9408 B( 22-C , 73-H ) :   0.9382 B( 23-C , 25-C ) :   1.1107
B( 23-C , 74-H ) :   0.9389 B( 23-C , 75-H ) :   0.9393 B( 24-C , 76-H ) :   0.9620
B( 24-C , 77-H ) :   0.9597 B( 24-C , 78-H ) :   0.9604 B( 25-C , 79-H ) :   0.9616
B( 25-C , 80-H ) :   0.9608 B( 25-C , 81-H ) :   0.9638 B( 26-C , 28-C ) :   1.6000
B( 26-C , 82-H ) :   0.9422 B( 27-C , 43-C ) :   1.5989 B( 27-C , 83-H ) :   0.9456
B( 28-C , 29-C ) :   1.2098 B( 28-C , 84-H ) :   0.9613 B( 29-C , 30-C ) :   0.9491
B( 29-C , 33-C ) :   1.5906 B( 30-C , 31-O ) :   0.9199 B( 30-C , 34-C ) :   1.0468
B( 30-C , 35-C ) :   1.0469 B( 31-O , 32-C ) :   1.2475 B( 32-C , 33-C ) :   1.0696
B( 32-C , 37-C ) :   1.6053 B( 33-C , 36-C ) :   1.1628 B( 34-C , 85-H ) :   0.9534
B( 34-C , 86-H ) :   0.9559 B( 34-C , 87-H ) :   0.9574 B( 35-C , 88-H ) :   0.9532
B( 35-C , 89-H ) :   0.9576 B( 35-C , 90-H ) :   0.9558 B( 36-C , 42-N ) :   2.9426
B( 37-C , 38-C ) :   1.1790 B( 37-C , 39-C ) :   1.1145 B( 38-C , 40-N ) :   3.0265
B( 39-C , 41-N ) :   3.0546 B( 43-C , 44-C ) :   1.2070 B( 43-C , 91-H ) :   0.9608
B( 44-C , 45-C ) :   0.9502 B( 44-C , 48-C ) :   1.5922 B( 45-C , 46-O ) :   0.9197
B( 45-C , 53-C ) :   1.0467 B( 45-C , 54-C ) :   1.0466 B( 46-O , 47-C ) :   1.2473
B( 47-C , 48-C ) :   1.0682 B( 47-C , 50-C ) :   1.6048 B( 48-C , 49-C ) :   1.1632
B( 49-C , 57-N ) :   2.9453 B( 50-C , 51-C ) :   1.1797 B( 50-C , 52-C ) :   1.1141
B( 51-C , 56-N ) :   3.0254 B( 52-C , 55-N ) :   3.0541 B( 53-C , 92-H ) :   0.9533
B( 53-C , 93-H ) :   0.9559 B( 53-C , 94-H ) :   0.9577 B( 54-C , 95-H ) :   0.9535
B( 54-C , 96-H ) :   0.9574 B( 54-C , 97-H ) :   0.9559

-----------------------------------------------------------------------------
         ABSORPTION SPECTRUM VIA TRANSITION ELECTRIC DIPOLE MOMENTS
-----------------------------------------------------------------------------
State   Energy  Wavelength   fosc         T2         TX        TY        TZ
        (cm-1)    (nm)                  (au**2)     (au)      (au)      (au)
-----------------------------------------------------------------------------
   0   18090.9    552.8   3.024650155  55.04139  -6.30046  -3.91696   0.05450
   1   22666.0    441.2   0.002992400   0.04346  -0.01980   0.10785   0.17731
   2   25785.2    387.8   0.000120590   0.00154  -0.02981  -0.00227   0.02542
   3   27314.8    366.1   0.112315339   1.35368   0.16826  -1.15115  -0.01538
   4   30184.4    331.3   0.000234488   0.00256  -0.00393   0.00220   0.05037
   5   31211.1    320.4   0.132481010   1.39740   0.73839   0.92300  -0.01609
   6   33448.5    299.0   0.034308003   0.33767  -0.45284   0.36220   0.03766
   7   34974.7    285.9   0.117208458   1.10327  -1.04952  -0.04159   0.00719
   8   36145.0    276.7   0.011804149   0.10751  -0.04816   0.32430  -0.00491
   9   36539.0    273.7   0.121513212   1.09482  -0.10220  -1.04124  -0.01413
  10   36815.7    271.6   0.001657243   0.01482   0.09176   0.07953   0.00859
  11   37043.2    270.0   0.117540743   1.04461   0.48933  -0.89409  -0.07592
  12   39524.2    253.0   0.000378475   0.00315  -0.02182   0.05149   0.00503
  13   39884.2    250.7   0.001299150   0.01072   0.06572  -0.08002   0.00012
  14   40017.2    249.9   0.019920286   0.16388  -0.16860   0.36650   0.03362

FINAL SINGLE POINT ENERGY     -3125.185909825484

DIPOLE MOMENT
-------------
                                X             Y             Z
Electronic contribution:     -4.56556       2.70450       2.02123
Nuclear contribution   :      4.80826      -2.84715      -2.36179
                        -----------------------------------------
Total Dipole Moment    :      0.24270      -0.14266      -0.34056
                        -----------------------------------------
Magnitude (a.u.)       :      0.44185
Magnitude (Debye)      :      1.12310

Rotational constants in cm-1:     0.004650     0.000331     0.000314
Rotational constants in MHz :   139.404053     9.911544     9.407532

                             ****ORCA TERMINATED NORMALLY****
TOTAL RUN TIME: 0 days 0 hours 47 minutes 28 seconds 430 msec
