                         Program Version 4.2.0 -  RELEASE  -
|  1> # ORCA input file
|  2> # M34.out: Geometry 47
|  3> ! CAM-B3LYP def2-SVP def2/J RIJCOSX Grid4 TightSCF
|  4> %maxcore 5000
|  5> %tddft
|  6>     Mode sTDDFT
|  7>     Ethresh 5.0
|  8>     maxcore 5000
|  9> end
| 10> * xyz 0 1
| 11>    C       -1.19310        -0.52550         0.10064
| 12>    C       -1.83687        -0.37330         1.37737
| 13>    C       -1.27956        -1.05732         2.48530
| 14>    C       -0.19584        -1.91013         2.26793
| 15>    C        0.42590        -2.07385         0.98579
| 16>    C       -0.12023        -1.38600        -0.11681
| 17>    O        0.40206        -1.54659        -1.36886
| 18>    C       -0.37981        -2.30146        -2.31877
| 19>    O       -1.74950        -0.90359         3.76034
| 20>    C       -1.45244         0.36590         4.38614
| 21>    S        0.52168        -2.90950         3.53991
| 22>    C        1.70295        -3.50520         2.39395
| 23>    C        1.55362        -2.95651         1.09934
| 24>    S       -1.83794         0.52478        -1.16566
| 25>    C       -3.04564         1.09515        -0.05098
| 26>    C       -2.95693         0.52602         1.23609
| 27>    C       -4.15109         1.95932        -0.06087
| 28>    C       -4.73593         1.88007         1.22936
| 29>    N       -4.00170         0.99994         2.02943
| 30>    S       -5.00266         3.00632        -1.13268
| 31>    C       -6.18808         3.35755         0.15045
| 32>    C       -5.88416         2.66920         1.34943
| 33>    C        2.83352        -4.34447         2.35991
| 34>    C        3.35610        -4.25244         1.04165
| 35>    N        2.57551        -3.40401         0.27323
| 36>    S        3.83590        -5.33708         3.36031
| 37>    C        4.98690        -5.57732         2.02158
| 38>    C        4.55936        -4.93569         0.85365
| 39>    C       -7.31767         4.21151         0.07005
| 40>    C       -7.89549         4.93539        -0.95805
| 41>    C        6.13200        -6.39140         2.21673
| 42>    C        7.27516        -6.52747         1.45234
| 43>    C       -7.42980         4.95915        -2.36604
| 44>    C       -8.43629         5.73071        -3.13200
| 45>    C       -9.45489         6.17077        -2.26662
| 46>    C       -9.12145         5.73675        -0.88356
| 47>    C        8.09321        -7.77795         1.61346
| 48>    C        9.00547        -7.81534         0.43459
| 49>    C        8.83883        -6.63796        -0.32261
| 50>    C        7.86393        -5.75595         0.36842
| 51>    C       -8.43604         5.98971        -4.49751
| 52>    C       -9.50766         6.70989        -5.01141
| 53>    C      -10.54964         7.13646        -4.16813
| 54>    C      -10.53855         6.88649        -2.79750
| 55>    C        9.89895        -8.81763         0.06605
| 56>    C       10.63085        -8.63129        -1.10341
| 57>    C       10.47388        -7.45916        -1.86595
| 58>    C        9.59075        -6.45197        -1.48930
| 59>    F       -9.57352         7.00682        -6.30576
| 60>    F      -11.56758         7.79532        -4.71705
| 61>    O       -6.43238         4.44221        -2.83840
| 62>    C       -9.85349         6.07816         0.24118
| 63>    C       -9.47556         5.71796         1.57213
| 64>    C      -11.05966         6.84235         0.17181
| 65>    C       -4.63785         0.24257         3.11332
| 66>    C       -5.61208        -0.80624         2.58066
| 67>    C        3.12451        -2.73003        -0.91138
| 68>    C        3.22218        -3.63265        -2.13411
| 69>    C       -0.70094        -3.71050        -1.85040
| 70>    C        0.01576         0.52562         4.73179
| 71>    O        8.00421        -8.60904         2.49262
| 72>    C        7.73078        -4.39727         0.12022
| 73>    F       11.19619        -7.32114        -2.97412
| 74>    F       11.49045        -9.55405        -1.53000
| 75>    N      -12.04538         7.45648         0.12676
| 76>    N       -9.18438         5.43761         2.66234
| 77>    C        7.06396        -3.50296         1.00871
| 78>    C        8.31766        -3.75730        -1.01452
| 79>    N        8.75798        -3.22887        -1.95183
| 80>    N        6.53598        -2.74419         1.71359
| 81>    H        0.24266        -2.30919        -3.22456
| 82>    H       -1.30612        -1.75106        -2.55445
| 83>    H       -2.07407         0.37957         5.29278
| 84>    H       -1.79633         1.18222         3.72812
| 85>    H       -6.50208         2.78028         2.24126
| 86>    H        5.10554        -5.00022        -0.08355
| 87>    H       -7.82697         4.26602         1.03206
| 88>    H        6.09633        -7.09124         3.06252
| 89>    H       -7.63025         5.63702        -5.14345
| 90>    H      -11.37192         7.25658        -2.20428
| 91>    H       10.02686        -9.71982         0.66683
| 92>    H        9.51750        -5.56876        -2.12011
| 93>    H       -5.14813         0.96537         3.76943
| 94>    H       -3.84926        -0.24849         3.69328
| 95>    H       -6.41330        -0.34667         1.98120
| 96>    H       -6.07795        -1.35451         3.41384
| 97>    H       -5.08035        -1.53475         1.94815
| 98>    H        4.11858        -2.34076        -0.63360
| 99>    H        2.47757        -1.87657        -1.13142
|100>    H        3.84098        -4.52332        -1.94808
|101>    H        3.68111        -3.07790        -2.96669
|102>    H        2.22892        -3.97769        -2.45541
|103>    H        0.21193        -4.26387        -1.58540
|104>    H       -1.21889        -4.25829        -2.65355
|105>    H       -1.35891        -3.70166        -0.96853
|106>    H        0.64108         0.54073         3.82690
|107>    H        0.36088        -0.29551         5.37662
|108>    H        0.16738         1.47625         5.26757
|109> *
|110>
|111>                          ****END OF INPUT****

CARTESIAN COORDINATES (ANGSTROEM)
---------------------------------
  C     -1.193100   -0.525500    0.100640
  C     -1.836870   -0.373300    1.377370
  C     -1.279560   -1.057320    2.485300
  C     -0.195840   -1.910130    2.267930
  C      0.425900   -2.073850    0.985790
  C     -0.120230   -1.386000   -0.116810
  O      0.402060   -1.546590   -1.368860
  C     -0.379810   -2.301460   -2.318770
  O     -1.749500   -0.903590    3.760340
  C     -1.452440    0.365900    4.386140
  S      0.521680   -2.909500    3.539910
  C      1.702950   -3.505200    2.393950
  C      1.553620   -2.956510    1.099340
  S     -1.837940    0.524780   -1.165660
  C     -3.045640    1.095150   -0.050980
  C     -2.956930    0.526020    1.236090
  C     -4.151090    1.959320   -0.060870
  C     -4.735930    1.880070    1.229360
  N     -4.001700    0.999940    2.029430
  S     -5.002660    3.006320   -1.132680
  C     -6.188080    3.357550    0.150450
  C     -5.884160    2.669200    1.349430
  C      2.833520   -4.344470    2.359910
  C      3.356100   -4.252440    1.041650
  N      2.575510   -3.404010    0.273230
  S      3.835900   -5.337080    3.360310
  C      4.986900   -5.577320    2.021580
  C      4.559360   -4.935690    0.853650
  C     -7.317670    4.211510    0.070050
  C     -7.895490    4.935390   -0.958050
  C      6.132000   -6.391400    2.216730
  C      7.275160   -6.527470    1.452340
  C     -7.429800    4.959150   -2.366040
  C     -8.436290    5.730710   -3.132000
  C     -9.454890    6.170770   -2.266620
  C     -9.121450    5.736750   -0.883560
  C      8.093210   -7.777950    1.613460
  C      9.005470   -7.815340    0.434590
  C      8.838830   -6.637960   -0.322610
  C      7.863930   -5.755950    0.368420
  C     -8.436040    5.989710   -4.497510
  C     -9.507660    6.709890   -5.011410
  C    -10.549640    7.136460   -4.168130
  C    -10.538550    6.886490   -2.797500
  C      9.898950   -8.817630    0.066050
  C     10.630850   -8.631290   -1.103410
  C     10.473880   -7.459160   -1.865950
  C      9.590750   -6.451970   -1.489300
  F     -9.573520    7.006820   -6.305760
  F    -11.567580    7.795320   -4.717050
  O     -6.432380    4.442210   -2.838400
  C     -9.853490    6.078160    0.241180
  C     -9.475560    5.717960    1.572130
  C    -11.059660    6.842350    0.171810
  C     -4.637850    0.242570    3.113320
  C     -5.612080   -0.806240    2.580660
  C      3.124510   -2.730030   -0.911380
  C      3.222180   -3.632650   -2.134110
  C     -0.700940   -3.710500   -1.850400
  C      0.015760    0.525620    4.731790
  O      8.004210   -8.609040    2.492620
  C      7.730780   -4.397270    0.120220
  F     11.196190   -7.321140   -2.974120
  F     11.490450   -9.554050   -1.530000
  N    -12.045380    7.456480    0.126760
  N     -9.184380    5.437610    2.662340
  C      7.063960   -3.502960    1.008710
  C      8.317660   -3.757300   -1.014520
  N      8.757980   -3.228870   -1.951830
  N      6.535980   -2.744190    1.713590
  H      0.242660   -2.309190   -3.224560
  H     -1.306120   -1.751060   -2.554450
  H     -2.074070    0.379570    5.292780
  H     -1.796330    1.182220    3.728120
  H     -6.502080    2.780280    2.241260
  H      5.105540   -5.000220   -0.083550
  H     -7.826970    4.266020    1.032060
  H      6.096330   -7.091240    3.062520
  H     -7.630250    5.637020   -5.143450
  H    -11.371920    7.256580   -2.204280
  H     10.026860   -9.719820    0.666830
  H      9.517500   -5.568760   -2.120110
  H     -5.148130    0.965370    3.769430
  H     -3.849260   -0.248490    3.693280
  H     -6.413300   -0.346670    1.981200
  H     -6.077950   -1.354510    3.413840
  H     -5.080350   -1.534750    1.948150
  H      4.118580   -2.340760   -0.633600
  H      2.477570   -1.876570   -1.131420
  H      3.840980   -4.523320   -1.948080
  H      3.681110   -3.077900   -2.966690
  H      2.228920   -3.977690   -2.455410
  H      0.211930   -4.263870   -1.585400
  H     -1.218890   -4.258290   -2.653550
  H     -1.358910   -3.701660   -0.968530
  H      0.641080    0.540730    3.826900
  H      0.360880   -0.295510    5.376620
  H      0.167380    1.476250    5.267570

 Total Charge           Charge          ....    0
 Multiplicity           Mult            ....    1
 Number of Electrons    NEL             ....  514
 Basis Dimension        Dim             .... 1136

ORBITAL ENERGIES
----------------

  NO   OCC          E(Eh)            E(eV)
   0   2.0000     -88.972469     -2421.0640
   1   2.0000     -88.969058     -2420.9712
   2   2.0000     -88.967792     -2420.9367
   3   2.0000     -88.965072     -2420.8627
   4   2.0000     -24.804636      -674.9685
   5   2.0000     -24.803676      -674.9423
   6   2.0000     -24.803579      -674.9397
   7   2.0000     -24.801233      -674.8759
   8   2.0000     -19.256049      -523.9837
   9   2.0000     -19.255976      -523.9818
  10   2.0000     -19.223018      -523.0849
  11   2.0000     -19.220386      -523.0133
  12   2.0000     -14.478843      -393.9893
  13   2.0000     -14.476914      -393.9369
  14   2.0000     -14.425126      -392.5276
  15   2.0000     -14.424887      -392.5211
  16   2.0000     -14.423494      -392.4832
  17   2.0000     -14.421191      -392.4205
  18   2.0000     -10.388820      -282.6942
  19   2.0000     -10.388328      -282.6808
  20   2.0000     -10.387294      -282.6527
  21   2.0000     -10.386410      -282.6286
  22   2.0000     -10.373650      -282.2814
  23   2.0000     -10.373526      -282.2780
  24   2.0000     -10.356123      -281.8044
  25   2.0000     -10.354276      -281.7542
  26   2.0000     -10.353573      -281.7350
  27   2.0000     -10.352299      -281.7004
  28   2.0000     -10.352181      -281.6972
  29   2.0000     -10.350631      -281.6550
  30   2.0000     -10.339538      -281.3531
  31   2.0000     -10.338871      -281.3350
  32   2.0000     -10.337445      -281.2962
  33   2.0000     -10.333755      -281.1958
  34   2.0000     -10.329980      -281.0930
  35   2.0000     -10.329189      -281.0715
  36   2.0000     -10.329019      -281.0669
  37   2.0000     -10.328874      -281.0630
  38   2.0000     -10.325627      -280.9746
  39   2.0000     -10.325496      -280.9710
  40   2.0000     -10.325440      -280.9695
  41   2.0000     -10.325345      -280.9669
  42   2.0000     -10.325298      -280.9656
  43   2.0000     -10.323754      -280.9236
  44   2.0000     -10.323604      -280.9196
  45   2.0000     -10.323304      -280.9114
  46   2.0000     -10.322568      -280.8913
  47   2.0000     -10.322417      -280.8872
  48   2.0000     -10.320832      -280.8441
  49   2.0000     -10.319194      -280.7995
  50   2.0000     -10.317992      -280.7668
  51   2.0000     -10.316610      -280.7292
  52   2.0000     -10.314331      -280.6672
  53   2.0000     -10.313190      -280.6362
  54   2.0000     -10.313132      -280.6346
  55   2.0000     -10.313071      -280.6329
  56   2.0000     -10.312865      -280.6273
  57   2.0000     -10.312481      -280.6169
  58   2.0000     -10.311730      -280.5964
  59   2.0000     -10.310663      -280.5674
  60   2.0000     -10.310552      -280.5644
  61   2.0000     -10.309972      -280.5486
  62   2.0000     -10.306769      -280.4614
  63   2.0000     -10.303584      -280.3748
  64   2.0000     -10.303118      -280.3621
  65   2.0000     -10.302904      -280.3563
  66   2.0000     -10.280033      -279.7339
  67   2.0000     -10.278852      -279.7018
  68   2.0000     -10.278798      -279.7003
  69   2.0000     -10.273273      -279.5500
  70   2.0000      -8.066631      -219.5042
  71   2.0000      -8.061910      -219.3757
  72   2.0000      -8.061855      -219.3742
  73   2.0000      -8.058778      -219.2905
  74   2.0000      -6.036377      -164.2582
  75   2.0000      -6.032303      -164.1473
  76   2.0000      -6.031921      -164.1369
  77   2.0000      -6.031691      -164.1307
  78   2.0000      -6.028895      -164.0546
  79   2.0000      -6.027998      -164.0302
  80   2.0000      -6.027926      -164.0282
  81   2.0000      -6.027272      -164.0104
  82   2.0000      -6.024868      -163.9450
  83   2.0000      -6.023377      -163.9044
  84   2.0000      -6.022526      -163.8813
  85   2.0000      -6.019349      -163.7948
  86   2.0000      -1.330737       -36.2112
  87   2.0000      -1.329468       -36.1767
  88   2.0000      -1.314702       -35.7749
  89   2.0000      -1.313047       -35.7298
  90   2.0000      -1.157957       -31.5096
  91   2.0000      -1.156097       -31.4590
  92   2.0000      -1.135017       -30.8854
  93   2.0000      -1.132658       -30.8212
  94   2.0000      -1.096265       -29.8309
  95   2.0000      -1.095992       -29.8235
  96   2.0000      -1.017865       -27.6975
  97   2.0000      -1.016508       -27.6606
  98   2.0000      -0.999034       -27.1851
  99   2.0000      -0.998864       -27.1805
 100   2.0000      -0.997748       -27.1501
 101   2.0000      -0.994291       -27.0560
 102   2.0000      -0.992975       -27.0202
 103   2.0000      -0.983979       -26.7754
 104   2.0000      -0.983467       -26.7615
 105   2.0000      -0.974799       -26.5256
 106   2.0000      -0.953006       -25.9326
 107   2.0000      -0.952144       -25.9091
 108   2.0000      -0.925997       -25.1977
 109   2.0000      -0.907974       -24.7072
 110   2.0000      -0.901508       -24.5313
 111   2.0000      -0.897502       -24.4223
 112   2.0000      -0.888416       -24.1750
 113   2.0000      -0.886937       -24.1348
 114   2.0000      -0.874295       -23.7908
 115   2.0000      -0.873046       -23.7568
 116   2.0000      -0.872005       -23.7285
 117   2.0000      -0.870432       -23.6857
 118   2.0000      -0.856094       -23.2955
 119   2.0000      -0.852567       -23.1995
 120   2.0000      -0.851484       -23.1701
 121   2.0000      -0.847210       -23.0538
 122   2.0000      -0.829941       -22.5838
 123   2.0000      -0.822729       -22.3876
 124   2.0000      -0.814082       -22.1523
 125   2.0000      -0.811159       -22.0728
 126   2.0000      -0.793888       -21.6028
 127   2.0000      -0.789689       -21.4885
 128   2.0000      -0.772469       -21.0199
 129   2.0000      -0.769200       -20.9310
 130   2.0000      -0.765709       -20.8360
 131   2.0000      -0.750867       -20.4321
 132   2.0000      -0.741276       -20.1712
 133   2.0000      -0.734348       -19.9826
 134   2.0000      -0.730713       -19.8837
 135   2.0000      -0.723099       -19.6765
 136   2.0000      -0.714050       -19.4303
 137   2.0000      -0.712529       -19.3889
 138   2.0000      -0.705399       -19.1949
 139   2.0000      -0.699254       -19.0277
 140   2.0000      -0.688202       -18.7269
 141   2.0000      -0.687261       -18.7013
 142   2.0000      -0.681022       -18.5316
 143   2.0000      -0.674553       -18.3555
 144   2.0000      -0.671251       -18.2657
 145   2.0000      -0.667727       -18.1698
 146   2.0000      -0.657615       -17.8946
 147   2.0000      -0.650037       -17.6884
 148   2.0000      -0.646826       -17.6010
 149   2.0000      -0.644507       -17.5379
 150   2.0000      -0.641946       -17.4682
 151   2.0000      -0.641450       -17.4548
 152   2.0000      -0.634756       -17.2726
 153   2.0000      -0.619740       -16.8640
 154   2.0000      -0.612774       -16.6744
 155   2.0000      -0.611769       -16.6471
 156   2.0000      -0.608135       -16.5482
 157   2.0000      -0.604206       -16.4413
 158   2.0000      -0.601086       -16.3564
 159   2.0000      -0.595536       -16.2054
 160   2.0000      -0.592630       -16.1263
 161   2.0000      -0.592516       -16.1232
 162   2.0000      -0.591237       -16.0884
 163   2.0000      -0.590596       -16.0709
 164   2.0000      -0.586265       -15.9531
 165   2.0000      -0.583256       -15.8712
 166   2.0000      -0.576786       -15.6951
 167   2.0000      -0.573263       -15.5993
 168   2.0000      -0.563104       -15.3228
 169   2.0000      -0.558586       -15.1999
 170   2.0000      -0.557620       -15.1736
 171   2.0000      -0.555856       -15.1256
 172   2.0000      -0.553496       -15.0614
 173   2.0000      -0.551833       -15.0161
 174   2.0000      -0.550870       -14.9899
 175   2.0000      -0.549713       -14.9585
 176   2.0000      -0.549111       -14.9421
 177   2.0000      -0.543247       -14.7825
 178   2.0000      -0.539961       -14.6931
 179   2.0000      -0.538383       -14.6502
 180   2.0000      -0.535278       -14.5657
 181   2.0000      -0.532541       -14.4912
 182   2.0000      -0.531986       -14.4761
 183   2.0000      -0.529400       -14.4057
 184   2.0000      -0.527909       -14.3651
 185   2.0000      -0.524052       -14.2602
 186   2.0000      -0.523087       -14.2339
 187   2.0000      -0.520848       -14.1730
 188   2.0000      -0.511281       -13.9127
 189   2.0000      -0.509344       -13.8600
 190   2.0000      -0.504362       -13.7244
 191   2.0000      -0.500871       -13.6294
 192   2.0000      -0.499816       -13.6007
 193   2.0000      -0.497923       -13.5492
 194   2.0000      -0.496427       -13.5085
 195   2.0000      -0.496083       -13.4991
 196   2.0000      -0.493880       -13.4392
 197   2.0000      -0.492503       -13.4017
 198   2.0000      -0.491863       -13.3843
 199   2.0000      -0.490308       -13.3420
 200   2.0000      -0.486038       -13.2258
 201   2.0000      -0.484011       -13.1706
 202   2.0000      -0.480394       -13.0722
 203   2.0000      -0.478028       -13.0078
 204   2.0000      -0.475270       -12.9327
 205   2.0000      -0.472648       -12.8614
 206   2.0000      -0.470999       -12.8165
 207   2.0000      -0.468003       -12.7350
 208   2.0000      -0.466073       -12.6825
 209   2.0000      -0.462872       -12.5954
 210   2.0000      -0.460330       -12.5262
 211   2.0000      -0.459564       -12.5054
 212   2.0000      -0.457829       -12.4582
 213   2.0000      -0.455630       -12.3983
 214   2.0000      -0.454679       -12.3724
 215   2.0000      -0.454637       -12.3713
 216   2.0000      -0.452655       -12.3174
 217   2.0000      -0.452551       -12.3146
 218   2.0000      -0.448415       -12.2020
 219   2.0000      -0.447962       -12.1897
 220   2.0000      -0.446193       -12.1415
 221   2.0000      -0.443580       -12.0704
 222   2.0000      -0.440228       -11.9792
 223   2.0000      -0.437536       -11.9060
 224   2.0000      -0.435300       -11.8451
 225   2.0000      -0.432122       -11.7586
 226   2.0000      -0.429310       -11.6821
 227   2.0000      -0.428450       -11.6587
 228   2.0000      -0.426799       -11.6138
 229   2.0000      -0.425087       -11.5672
 230   2.0000      -0.423604       -11.5268
 231   2.0000      -0.420902       -11.4533
 232   2.0000      -0.417953       -11.3731
 233   2.0000      -0.415247       -11.2994
 234   2.0000      -0.411945       -11.2096
 235   2.0000      -0.409170       -11.1341
 236   2.0000      -0.406474       -11.0607
 237   2.0000      -0.403351       -10.9757
 238   2.0000      -0.392421       -10.6783
 239   2.0000      -0.380190       -10.3455
 240   2.0000      -0.375600       -10.2206
 241   2.0000      -0.373791       -10.1714
 242   2.0000      -0.360016        -9.7965
 243   2.0000      -0.353643        -9.6231
 244   2.0000      -0.349674        -9.5151
 245   2.0000      -0.347474        -9.4552
 246   2.0000      -0.342983        -9.3330
 247   2.0000      -0.341565        -9.2945
 248   2.0000      -0.339195        -9.2300
 249   2.0000      -0.328478        -8.9383
 250   2.0000      -0.316527        -8.6131
 251   2.0000      -0.314115        -8.5475
 252   2.0000      -0.310782        -8.4568
 253   2.0000      -0.292388        -7.9563
 254   2.0000      -0.276176        -7.5151
 255   2.0000      -0.272311        -7.4100
 256   2.0000      -0.244626        -6.6566
 257   0.0000      -0.101558        -2.7635
 258   0.0000      -0.091170        -2.4809
 259   0.0000      -0.067053        -1.8246
 260   0.0000      -0.062762        -1.7078
 261   0.0000      -0.028537        -0.7765

MULLIKEN ATOMIC CHARGES
-----------------------
   0 C :   -0.149143
   1 C :    0.099201
   2 C :    0.030050
   3 C :   -0.130451
   4 C :    0.124724
   5 C :    0.042194
   6 O :   -0.354687
   7 C :    0.166986
   8 O :   -0.348346
   9 C :    0.150272
  10 S :    0.169697
  11 C :   -0.107642
  12 C :    0.041937
  13 S :    0.163528
  14 C :   -0.099095
  15 C :    0.038352
  16 C :   -0.104990
  17 C :    0.194127
  18 N :   -0.196465
  19 S :    0.210245
  20 C :   -0.074618
  21 C :   -0.106945
  22 C :   -0.094498
  23 C :    0.130344
  24 N :   -0.190808
  25 S :    0.167218
  26 C :   -0.125768
  27 C :   -0.016462
  28 C :   -0.016731
  29 C :   -0.081923
  30 C :    0.085044
  31 C :   -0.143424
  32 C :    0.140322
  33 C :   -0.017958
  34 C :    0.045584
  35 C :    0.271715
  36 C :    0.131967
  37 C :   -0.001153
  38 C :    0.032031
  39 C :    0.242979
  40 C :   -0.100605
  41 C :    0.229419
  42 C :    0.225672
  43 C :   -0.090132
  44 C :   -0.099466
  45 C :    0.227187
  46 C :    0.227353
  47 C :   -0.095830
  48 F :   -0.160932
  49 F :   -0.160045
  50 O :   -0.163997
  51 C :   -0.326180
  52 C :   -0.164098
  53 C :   -0.161526
  54 C :    0.076697
  55 C :   -0.016500
  56 C :    0.100260
  57 C :   -0.017213
  58 C :   -0.044339
  59 C :   -0.020632
  60 O :   -0.145736
  61 C :   -0.339343
  62 F :   -0.158706
  63 F :   -0.162570
  64 N :    0.127442
  65 N :    0.115501
  66 C :   -0.180483
  67 C :   -0.157359
  68 N :    0.124581
  69 N :    0.150020
  70 H :    0.031360
  71 H :    0.027764
  72 H :    0.031023
  73 H :    0.028421
  74 H :    0.015476
  75 H :    0.010922
  76 H :    0.012248
  77 H :    0.033568
  78 H :    0.019444
  79 H :    0.023341
  80 H :    0.021887
  81 H :    0.022967
  82 H :    0.028747
  83 H :    0.053981
  84 H :    0.033209
  85 H :    0.032488
  86 H :    0.034864
  87 H :    0.036166
  88 H :    0.056292
  89 H :    0.019253
  90 H :    0.036056
  91 H :    0.019318
  92 H :    0.031666
  93 H :    0.034097
  94 H :    0.041490
  95 H :    0.040774
  96 H :    0.038442
  97 H :    0.028887
Sum of atomic charges:   -0.0000000

LOEWDIN ATOMIC CHARGES
----------------------
   0 C :   -0.156689
   1 C :   -0.069967
   2 C :    0.016399
   3 C :   -0.153962
   4 C :   -0.064484
   5 C :    0.014773
   6 O :   -0.130217
   7 C :    0.085856
   8 O :   -0.136132
   9 C :    0.085068
  10 S :    0.398450
  11 C :   -0.212930
  12 C :    0.006653
  13 S :    0.403876
  14 C :   -0.216980
  15 C :    0.003607
  16 C :   -0.198438
  17 C :   -0.020454
  18 N :    0.014719
  19 S :    0.468457
  20 C :   -0.177402
  21 C :   -0.025877
  22 C :   -0.192898
  23 C :   -0.011908
  24 N :    0.025767
  25 S :    0.428466
  26 C :   -0.177904
  27 C :   -0.021775
  28 C :    0.054356
  29 C :   -0.119139
  30 C :    0.054088
  31 C :   -0.112113
  32 C :    0.083472
  33 C :   -0.045836
  34 C :   -0.014666
  35 C :    0.082262
  36 C :    0.087192
  37 C :   -0.047624
  38 C :   -0.013355
  39 C :    0.070100
  40 C :   -0.011978
  41 C :    0.066641
  42 C :    0.069103
  43 C :   -0.023474
  44 C :   -0.011094
  45 C :    0.066268
  46 C :    0.069254
  47 C :   -0.027621
  48 F :   -0.037995
  49 F :   -0.038614
  50 O :   -0.159700
  51 C :   -0.145212
  52 C :   -0.013450
  53 C :   -0.013727
  54 C :    0.038316
  55 C :   -0.065938
  56 C :    0.043036
  57 C :   -0.065088
  58 C :   -0.078049
  59 C :   -0.074493
  60 O :   -0.144062
  61 C :   -0.151064
  62 F :   -0.037409
  63 F :   -0.039571
  64 N :   -0.057738
  65 N :   -0.063177
  66 C :   -0.017969
  67 C :   -0.017373
  68 N :   -0.060238
  69 N :   -0.047987
  70 H :    0.026336
  71 H :    0.007631
  72 H :    0.025554
  73 H :    0.015673
  74 H :    0.043678
  75 H :    0.037604
  76 H :    0.051217
  77 H :    0.050509
  78 H :    0.054629
  79 H :    0.053066
  80 H :    0.055278
  81 H :    0.052431
  82 H :    0.028509
  83 H :    0.032134
  84 H :    0.028978
  85 H :    0.035685
  86 H :    0.032671
  87 H :    0.030494
  88 H :    0.033175
  89 H :    0.024305
  90 H :    0.038733
  91 H :    0.026873
  92 H :    0.027188
  93 H :    0.039655
  94 H :    0.033962
  95 H :    0.033175
  96 H :    0.030589
  97 H :    0.037860

  Mayer bond orders larger than 0.100000
B(  0-C ,  1-C ) :   1.2991 B(  0-C ,  5-C ) :   1.3916 B(  0-C , 13-S ) :   1.0318
B(  1-C ,  2-C ) :   1.2577 B(  1-C ,  4-C ) :   0.1170 B(  1-C , 15-C ) :   1.1092
B(  2-C ,  3-C ) :   1.4281 B(  2-C ,  8-O ) :   1.1916 B(  3-C ,  4-C ) :   1.3051
B(  3-C , 10-S ) :   1.0352 B(  4-C ,  5-C ) :   1.2939 B(  4-C , 12-C ) :   1.1104
B(  5-C ,  6-O ) :   1.1692 B(  6-O ,  7-C ) :   0.9096 B(  7-C , 58-C ) :   1.0999
B(  7-C , 70-H ) :   0.9597 B(  7-C , 71-H ) :   0.9498 B(  8-O ,  9-C ) :   0.8904
B(  9-C , 59-C ) :   1.1144 B(  9-C , 72-H ) :   0.9577 B(  9-C , 73-H ) :   0.9496
B( 10-S , 11-C ) :   0.9785 B( 11-C , 12-C ) :   1.4573 B( 11-C , 22-C ) :   1.3976
B( 12-C , 24-N ) :   1.1890 B( 13-S , 14-C ) :   0.9871 B( 14-C , 15-C ) :   1.4700
B( 14-C , 16-C ) :   1.3827 B( 15-C , 18-N ) :   1.1672 B( 16-C , 17-C ) :   1.3410
B( 16-C , 19-S ) :   1.0383 B( 17-C , 18-N ) :   1.1130 B( 17-C , 21-C ) :   1.2627
B( 18-N , 54-C ) :   0.9454 B( 19-S , 20-C ) :   1.0639 B( 20-C , 21-C ) :   1.3366
B( 20-C , 28-C ) :   1.2923 B( 21-C , 74-H ) :   1.0200 B( 22-C , 23-C ) :   1.3578
B( 22-C , 25-S ) :   1.0613 B( 23-C , 24-N ) :   1.1319 B( 23-C , 27-C ) :   1.3144
B( 24-N , 56-C ) :   0.9205 B( 25-S , 26-C ) :   1.0694 B( 26-C , 27-C ) :   1.3878
B( 26-C , 30-C ) :   1.1959 B( 27-C , 75-H ) :   0.9834 B( 28-C , 29-C ) :   1.4859
B( 28-C , 76-H ) :   0.9308 B( 29-C , 32-C ) :   0.9696 B( 29-C , 35-C ) :   1.0969
B( 30-C , 31-C ) :   1.6087 B( 30-C , 77-H ) :   0.9251 B( 31-C , 36-C ) :   0.9528
B( 31-C , 39-C ) :   1.0696 B( 32-C , 33-C ) :   0.9621 B( 32-C , 50-O ) :   2.1897
B( 33-C , 34-C ) :   1.3570 B( 33-C , 40-C ) :   1.3184 B( 34-C , 35-C ) :   1.0026
B( 34-C , 43-C ) :   1.3043 B( 35-C , 51-C ) :   1.6275 B( 36-C , 37-C ) :   0.9296
B( 36-C , 60-O ) :   2.2525 B( 37-C , 38-C ) :   1.3536 B( 37-C , 44-C ) :   1.3251
B( 38-C , 39-C ) :   1.0240 B( 38-C , 47-C ) :   1.3080 B( 39-C , 61-C ) :   1.6150
B( 40-C , 41-C ) :   1.3233 B( 40-C , 43-C ) :   0.1040 B( 40-C , 78-H ) :   1.0120
B( 41-C , 42-C ) :   1.2816 B( 41-C , 48-F ) :   1.1378 B( 42-C , 43-C ) :   1.3509
B( 42-C , 49-F ) :   1.1467 B( 43-C , 79-H ) :   0.9849 B( 44-C , 45-C ) :   1.3300
B( 44-C , 47-C ) :   0.1037 B( 44-C , 80-H ) :   1.0108 B( 45-C , 46-C ) :   1.2793
B( 45-C , 63-F ) :   1.1355 B( 46-C , 47-C ) :   1.3521 B( 46-C , 62-F ) :   1.1483
B( 47-C , 81-H ) :   0.9853 B( 51-C , 52-C ) :   1.1306 B( 51-C , 53-C ) :   1.1240
B( 52-C , 65-N ) :   2.9579 B( 53-C , 64-N ) :   2.9690 B( 54-C , 55-C ) :   1.1020
B( 54-C , 82-H ) :   0.9505 B( 54-C , 83-H ) :   0.9366 B( 55-C , 84-H ) :   0.9669
B( 55-C , 85-H ) :   0.9665 B( 55-C , 86-H ) :   0.9678 B( 56-C , 57-C ) :   1.1042
B( 56-C , 87-H ) :   0.9495 B( 56-C , 88-H ) :   0.9358 B( 57-C , 89-H ) :   0.9695
B( 57-C , 90-H ) :   0.9627 B( 57-C , 91-H ) :   0.9638 B( 58-C , 92-H ) :   0.9628
B( 58-C , 93-H ) :   0.9593 B( 58-C , 94-H ) :   0.9600 B( 59-C , 95-H ) :   0.9659
B( 59-C , 96-H ) :   0.9645 B( 59-C , 97-H ) :   0.9579 B( 61-C , 66-C ) :   1.1662
B( 61-C , 67-C ) :   1.1094 B( 66-C , 69-N ) :   2.9813 B( 67-C , 68-N ) :   2.9760

-----------------------------------------------------------------------------
         ABSORPTION SPECTRUM VIA TRANSITION ELECTRIC DIPOLE MOMENTS
-----------------------------------------------------------------------------
State   Energy  Wavelength   fosc         T2         TX        TY        TZ
        (cm-1)    (nm)                  (au**2)     (au)      (au)      (au)
-----------------------------------------------------------------------------
   0   16460.6    607.5   1.827808822  36.55621  -5.13825   3.14206  -0.53105
   1   19724.9    507.0   0.547427274   9.13663   1.61389  -2.21593   1.27344
   2   22136.5    451.7   0.367517086   5.46568  -1.97538   0.61781   1.08713
   3   23979.0    417.0   0.142435792   1.95553  -0.95588   1.01921  -0.05500
   4   24698.8    404.9   0.344078662   4.58624   1.46468  -1.39557   0.70239
   5   25691.2    389.2   0.043015699   0.55121  -0.26262  -0.14650   0.67881
   6   25875.0    386.5   0.009586745   0.12197  -0.23362  -0.17105   0.19529
   7   27910.2    358.3   0.026485682   0.31241  -0.46229   0.30390  -0.07960
   8   29311.8    341.2   0.056284905   0.63216  -0.16873   0.77697   0.00347
   9   29456.2    339.5   0.004322527   0.04831   0.18357  -0.04903   0.11049
  10   29993.5    333.4   0.167100296   1.83411   0.74422  -1.13144  -0.01031
  11   30623.1    326.6   0.051844137   0.55735   0.01927   0.00075  -0.74631
  12   31040.8    322.2   0.068797020   0.72965   0.13878   0.17313  -0.82487
  13   31529.4    317.2   0.006744700   0.07042  -0.07869   0.23901   0.08429
  14   31767.4    314.8   0.070037666   0.72581   0.51518  -0.44395   0.51313
  15   32087.7    311.6   0.224905761   2.30748   0.57621  -0.43484  -1.33655
  16   32430.4    308.4   0.161864626   1.64314   0.67862  -1.08312   0.09735
  17   32666.3    306.1   0.000994900   0.01003   0.04140   0.06433  -0.06460
  18   32875.0    304.2   0.090959745   0.91088   0.69726  -0.50008   0.41788
  19   33594.0    297.7   0.098578457   0.96604  -0.57538   0.77944  -0.16568
  20   33862.2    295.3   0.027818221   0.27045   0.35177  -0.33269   0.18980
  21   35145.6    284.5   0.067194794   0.62942   0.11163  -0.40030   0.67581
  22   35485.0    281.8   0.163974958   1.52128  -0.38234   0.64569  -0.97887
  23   35779.3    279.5   0.022339268   0.20555  -0.11938   0.41485  -0.13856
  24   36024.7    277.6   0.183793167   1.67960   0.56948  -0.99305  -0.60757
  25   36224.9    276.1   0.082231311   0.74732  -0.26704   0.22777   0.79002
  26   36694.9    272.5   0.192778804   1.72953  -0.41681   0.89268  -0.87117
  27   37499.3    266.7   0.250589091   2.19996  -0.74754   1.18710   0.48159
  28   37857.2    264.2   0.328832236   2.85957  -0.91676  -0.17596   1.41002
  29   37896.9    263.9   0.035676268   0.30992   0.31919  -0.09027  -0.44709
  30   38295.2    261.1   0.081707055   0.70241  -0.39347   0.73970  -0.02096
  31   38591.5    259.1   0.123867704   1.05668   0.72998  -0.44577  -0.57017
  32   38845.3    257.4   0.089590072   0.75927   0.37579  -0.73904  -0.26810
  33   39101.6    255.7   0.033193913   0.27947  -0.17744   0.24998  -0.43069
  34   39493.7    253.2   0.007809848   0.06510   0.19796  -0.13910   0.08103
  35   39840.0    251.0   0.280586839   2.31859   1.14766  -0.42945  -0.90390

FINAL SINGLE POINT ENERGY     -4615.655397969913

DIPOLE MOMENT
-------------
                                X             Y             Z
Electronic contribution:      8.08432      15.34390     -28.22647
Nuclear contribution   :     -8.17161     -17.42274      28.10916
                        -----------------------------------------
Total Dipole Moment    :     -0.08729      -2.07883      -0.11731
                        -----------------------------------------
Magnitude (a.u.)       :      2.08397
Magnitude (Debye)      :      5.29703

Rotational constants in cm-1:     0.002563     0.000238     0.000223
Rotational constants in MHz :    76.840507     7.135988     6.680129

                             ****ORCA TERMINATED NORMALLY****
TOTAL RUN TIME: 0 days 0 hours 57 minutes 55 seconds 189 msec
