                         Program Version 4.2.0 -  RELEASE  -
|  1> # ORCA input file
|  2> # M34.out
|  3> ! CAM-B3LYP def2-SVP def2/J RIJCOSX Grid4 TightSCF
|  4> %maxcore 5000
|  5> %tddft
|  6>     Mode sTDDFT
|  7>     Ethresh 5.0
|  8>     maxcore 5000
|  9> end
| 10> * xyz 0 1
| 11>    C       -1.15780        -0.55646        -0.11151
| 12>    C       -1.80821        -0.44266         1.15485
| 13>    C       -1.20500        -1.02894         2.27491
| 14>    C       -0.07249        -1.79735         2.07557
| 15>    C        0.53508        -1.99503         0.80789
| 16>    C       -0.02989        -1.34638        -0.31365
| 17>    O        0.62345        -1.51828        -1.49175
| 18>    C       -0.05473        -1.50843        -2.74043
| 19>    O       -1.66550        -0.85581         3.55920
| 20>    C       -1.37197         0.42374         4.12335
| 21>    S        0.71106        -2.61245         3.40716
| 22>    C        1.88974        -3.21990         2.29994
| 23>    C        1.69137        -2.81936         0.95870
| 24>    S       -1.90390         0.46970        -1.34214
| 25>    C       -3.12877         0.94320        -0.22260
| 26>    C       -2.98595         0.34935         1.04371
| 27>    C       -4.27549         1.73147        -0.19789
| 28>    C       -4.82689         1.56260         1.09935
| 29>    N       -4.03664         0.72127         1.84711
| 30>    S       -5.19956         2.79381        -1.18290
| 31>    C       -6.34461         3.01432         0.14377
| 32>    C       -5.99159         2.28175         1.28438
| 33>    C        3.03787        -3.99947         2.34308
| 34>    C        3.52212        -4.05560         1.01290
| 35>    N        2.70373        -3.33250         0.18818
| 36>    S        4.04264        -4.86849         3.42716
| 37>    C        5.14511        -5.26820         2.10329
| 38>    C        4.70386        -4.77154         0.88163
| 39>    C       -7.49152         3.81634         0.12573
| 40>    C       -8.01374         4.61819        -0.86073
| 41>    C        6.26588        -6.05640         2.40591
| 42>    C        7.38682        -6.33704         1.66947
| 43>    C       -7.43945         4.82414        -2.19317
| 44>    C       -8.33119         5.78618        -2.87506
| 45>    C       -9.38537         6.13426        -2.01448
| 46>    C       -9.21944         5.41380        -0.75036
| 47>    C        8.18632        -7.53108         2.04163
| 48>    C        9.10545        -7.75539         0.90137
| 49>    C        8.95091        -6.71557        -0.03116
| 50>    C        7.98337        -5.74917         0.49668
| 51>    C       -8.21448         6.30867        -4.14733
| 52>    C       -9.18444         7.20634        -4.56379
| 53>    C      -10.23534         7.55936        -3.71722
| 54>    C      -10.35167         7.03272        -2.43906
| 55>    C        9.98921        -8.79586         0.69683
| 56>    C       10.72372        -8.79459        -0.47870
| 57>    C       10.56661        -7.77279        -1.41498
| 58>    C        9.68677        -6.72098        -1.20459
| 59>    F       -9.11239         7.73987        -5.78905
| 60>    F      -11.15752         8.42913        -4.14449
| 61>    O       -6.43753         4.32021        -2.66374
| 62>    C      -10.07432         5.49693         0.31817
| 63>    C       -9.94192         4.80386         1.53970
| 64>    C      -11.23423         6.30071         0.34268
| 65>    C       -4.52768         0.06536         3.03878
| 66>    C       -5.65061        -0.91439         2.70343
| 67>    C        2.96975        -3.20728        -1.22424
| 68>    C        2.37438        -4.37770        -2.00252
| 69>    C       -1.18480        -2.52490        -2.82217
| 70>    C        0.11429         0.65131         4.35870
| 71>    O        8.07835        -8.19825         3.04402
| 72>    C        7.88254        -4.44659         0.07501
| 73>    F       11.27723        -7.80483        -2.54823
| 74>    F       11.58980        -9.78602        -0.72042
| 75>    N      -12.18969         6.93042         0.43202
| 76>    N       -9.91349         4.27945         2.56168
| 77>    C        7.16823        -3.44579         0.76159
| 78>    C        8.53814        -3.92992        -1.06062
| 79>    N        9.00951        -3.45695        -1.99457
| 80>    N        6.62213        -2.58468         1.28927
| 81>    H        0.73362        -1.76619        -3.45334
| 82>    H       -0.41906        -0.50549        -2.98379
| 83>    H       -1.91091         0.42805         5.07355
| 84>    H       -1.77486         1.21632         3.47833
| 85>    H       -6.57968         2.30916         2.18426
| 86>    H        5.20406        -4.97710        -0.04717
| 87>    H       -8.03957         3.78592         1.05967
| 88>    H        6.21761        -6.59071         3.35068
| 89>    H       -7.39982         6.03198        -4.79714
| 90>    H      -11.18255         7.34014        -1.82613
| 91>    H       10.10885        -9.58438         1.42244
| 92>    H        9.60004        -5.95560        -1.95846
| 93>    H       -4.89172         0.83489         3.72583
| 94>    H       -3.70760        -0.47681         3.50587
| 95>    H       -6.49046        -0.40148         2.24096
| 96>    H       -5.99475        -1.39872         3.61249
| 97>    H       -5.29043        -1.67868         2.01845
| 98>    H        4.05544        -3.18154        -1.35183
| 99>    H        2.55360        -2.26598        -1.57576
|100>    H        2.78678        -5.32144        -1.65207
|101>    H        2.59517        -4.27175        -3.06077
|102>    H        1.29604        -4.40310        -1.87001
|103>    H       -0.81680        -3.52205        -2.59199
|104>    H       -1.59249        -2.52495        -3.82843
|105>    H       -1.98254        -2.28024        -2.12557
|106>    H        0.65743         0.66173         3.41577
|107>    H        0.52027        -0.13628         4.98800
|108>    H        0.25590         1.60845         4.85266
|109> *
|110>
|111>                          ****END OF INPUT****

CARTESIAN COORDINATES (ANGSTROEM)
---------------------------------
  C     -1.157800   -0.556460   -0.111510
  C     -1.808210   -0.442660    1.154850
  C     -1.205000   -1.028940    2.274910
  C     -0.072490   -1.797350    2.075570
  C      0.535080   -1.995030    0.807890
  C     -0.029890   -1.346380   -0.313650
  O      0.623450   -1.518280   -1.491750
  C     -0.054730   -1.508430   -2.740430
  O     -1.665500   -0.855810    3.559200
  C     -1.371970    0.423740    4.123350
  S      0.711060   -2.612450    3.407160
  C      1.889740   -3.219900    2.299940
  C      1.691370   -2.819360    0.958700
  S     -1.903900    0.469700   -1.342140
  C     -3.128770    0.943200   -0.222600
  C     -2.985950    0.349350    1.043710
  C     -4.275490    1.731470   -0.197890
  C     -4.826890    1.562600    1.099350
  N     -4.036640    0.721270    1.847110
  S     -5.199560    2.793810   -1.182900
  C     -6.344610    3.014320    0.143770
  C     -5.991590    2.281750    1.284380
  C      3.037870   -3.999470    2.343080
  C      3.522120   -4.055600    1.012900
  N      2.703730   -3.332500    0.188180
  S      4.042640   -4.868490    3.427160
  C      5.145110   -5.268200    2.103290
  C      4.703860   -4.771540    0.881630
  C     -7.491520    3.816340    0.125730
  C     -8.013740    4.618190   -0.860730
  C      6.265880   -6.056400    2.405910
  C      7.386820   -6.337040    1.669470
  C     -7.439450    4.824140   -2.193170
  C     -8.331190    5.786180   -2.875060
  C     -9.385370    6.134260   -2.014480
  C     -9.219440    5.413800   -0.750360
  C      8.186320   -7.531080    2.041630
  C      9.105450   -7.755390    0.901370
  C      8.950910   -6.715570   -0.031160
  C      7.983370   -5.749170    0.496680
  C     -8.214480    6.308670   -4.147330
  C     -9.184440    7.206340   -4.563790
  C    -10.235340    7.559360   -3.717220
  C    -10.351670    7.032720   -2.439060
  C      9.989210   -8.795860    0.696830
  C     10.723720   -8.794590   -0.478700
  C     10.566610   -7.772790   -1.414980
  C      9.686770   -6.720980   -1.204590
  F     -9.112390    7.739870   -5.789050
  F    -11.157520    8.429130   -4.144490
  O     -6.437530    4.320210   -2.663740
  C    -10.074320    5.496930    0.318170
  C     -9.941920    4.803860    1.539700
  C    -11.234230    6.300710    0.342680
  C     -4.527680    0.065360    3.038780
  C     -5.650610   -0.914390    2.703430
  C      2.969750   -3.207280   -1.224240
  C      2.374380   -4.377700   -2.002520
  C     -1.184800   -2.524900   -2.822170
  C      0.114290    0.651310    4.358700
  O      8.078350   -8.198250    3.044020
  C      7.882540   -4.446590    0.075010
  F     11.277230   -7.804830   -2.548230
  F     11.589800   -9.786020   -0.720420
  N    -12.189690    6.930420    0.432020
  N     -9.913490    4.279450    2.561680
  C      7.168230   -3.445790    0.761590
  C      8.538140   -3.929920   -1.060620
  N      9.009510   -3.456950   -1.994570
  N      6.622130   -2.584680    1.289270
  H      0.733620   -1.766190   -3.453340
  H     -0.419060   -0.505490   -2.983790
  H     -1.910910    0.428050    5.073550
  H     -1.774860    1.216320    3.478330
  H     -6.579680    2.309160    2.184260
  H      5.204060   -4.977100   -0.047170
  H     -8.039570    3.785920    1.059670
  H      6.217610   -6.590710    3.350680
  H     -7.399820    6.031980   -4.797140
  H    -11.182550    7.340140   -1.826130
  H     10.108850   -9.584380    1.422440
  H      9.600040   -5.955600   -1.958460
  H     -4.891720    0.834890    3.725830
  H     -3.707600   -0.476810    3.505870
  H     -6.490460   -0.401480    2.240960
  H     -5.994750   -1.398720    3.612490
  H     -5.290430   -1.678680    2.018450
  H      4.055440   -3.181540   -1.351830
  H      2.553600   -2.265980   -1.575760
  H      2.786780   -5.321440   -1.652070
  H      2.595170   -4.271750   -3.060770
  H      1.296040   -4.403100   -1.870010
  H     -0.816800   -3.522050   -2.591990
  H     -1.592490   -2.524950   -3.828430
  H     -1.982540   -2.280240   -2.125570
  H      0.657430    0.661730    3.415770
  H      0.520270   -0.136280    4.988000
  H      0.255900    1.608450    4.852660

 Total Charge           Charge          ....    0
 Multiplicity           Mult            ....    1
 Number of Electrons    NEL             ....  514
 Basis Dimension        Dim             .... 1136

ORBITAL ENERGIES
----------------

  NO   OCC          E(Eh)            E(eV)
   0   2.0000     -88.968044     -2420.9436
   1   2.0000     -88.966915     -2420.9128
   2   2.0000     -88.966104     -2420.8908
   3   2.0000     -88.961523     -2420.7661
   4   2.0000     -24.802190      -674.9019
   5   2.0000     -24.800974      -674.8688
   6   2.0000     -24.800557      -674.8575
   7   2.0000     -24.800432      -674.8541
   8   2.0000     -19.267768      -524.3026
   9   2.0000     -19.256994      -524.0094
  10   2.0000     -19.224571      -523.1272
  11   2.0000     -19.216553      -522.9090
  12   2.0000     -14.480034      -394.0218
  13   2.0000     -14.478286      -393.9742
  14   2.0000     -14.420842      -392.4111
  15   2.0000     -14.418074      -392.3358
  16   2.0000     -14.417408      -392.3176
  17   2.0000     -14.415926      -392.2773
  18   2.0000     -10.386829      -282.6400
  19   2.0000     -10.386236      -282.6238
  20   2.0000     -10.386212      -282.6232
  21   2.0000     -10.385550      -282.6052
  22   2.0000     -10.373576      -282.2793
  23   2.0000     -10.368169      -282.1322
  24   2.0000     -10.362667      -281.9825
  25   2.0000     -10.348648      -281.6010
  26   2.0000     -10.345947      -281.5275
  27   2.0000     -10.345548      -281.5167
  28   2.0000     -10.344318      -281.4832
  29   2.0000     -10.344277      -281.4821
  30   2.0000     -10.343236      -281.4538
  31   2.0000     -10.335829      -281.2522
  32   2.0000     -10.334389      -281.2130
  33   2.0000     -10.331901      -281.1453
  34   2.0000     -10.324926      -280.9555
  35   2.0000     -10.324081      -280.9325
  36   2.0000     -10.323990      -280.9300
  37   2.0000     -10.322207      -280.8815
  38   2.0000     -10.321194      -280.8540
  39   2.0000     -10.320929      -280.8468
  40   2.0000     -10.320754      -280.8420
  41   2.0000     -10.320204      -280.8270
  42   2.0000     -10.319412      -280.8055
  43   2.0000     -10.319099      -280.7970
  44   2.0000     -10.318628      -280.7842
  45   2.0000     -10.317471      -280.7527
  46   2.0000     -10.317444      -280.7519
  47   2.0000     -10.317414      -280.7511
  48   2.0000     -10.316864      -280.7362
  49   2.0000     -10.316789      -280.7341
  50   2.0000     -10.313001      -280.6310
  51   2.0000     -10.311199      -280.5820
  52   2.0000     -10.309591      -280.5382
  53   2.0000     -10.309285      -280.5299
  54   2.0000     -10.308856      -280.5182
  55   2.0000     -10.308854      -280.5182
  56   2.0000     -10.308724      -280.5146
  57   2.0000     -10.308606      -280.5114
  58   2.0000     -10.308518      -280.5090
  59   2.0000     -10.307238      -280.4742
  60   2.0000     -10.306504      -280.4542
  61   2.0000     -10.305128      -280.4168
  62   2.0000     -10.302690      -280.3504
  63   2.0000     -10.301942      -280.3301
  64   2.0000     -10.297065      -280.1974
  65   2.0000     -10.295028      -280.1420
  66   2.0000     -10.276560      -279.6394
  67   2.0000     -10.276113      -279.6273
  68   2.0000     -10.274360      -279.5795
  69   2.0000     -10.268040      -279.4076
  70   2.0000      -8.062933      -219.4035
  71   2.0000      -8.061248      -219.3577
  72   2.0000      -8.058889      -219.2935
  73   2.0000      -8.056141      -219.2187
  74   2.0000      -6.032600      -164.1554
  75   2.0000      -6.031365      -164.1218
  76   2.0000      -6.028745      -164.0505
  77   2.0000      -6.028549      -164.0452
  78   2.0000      -6.027212      -164.0088
  79   2.0000      -6.026080      -163.9780
  80   2.0000      -6.024286      -163.9292
  81   2.0000      -6.024180      -163.9263
  82   2.0000      -6.022098      -163.8696
  83   2.0000      -6.021814      -163.8619
  84   2.0000      -6.020333      -163.8216
  85   2.0000      -6.016850      -163.7268
  86   2.0000      -1.325026       -36.0558
  87   2.0000      -1.324429       -36.0395
  88   2.0000      -1.309781       -35.6409
  89   2.0000      -1.309231       -35.6260
  90   2.0000      -1.172207       -31.8974
  91   2.0000      -1.160167       -31.5697
  92   2.0000      -1.140775       -31.0421
  93   2.0000      -1.132480       -30.8163
  94   2.0000      -1.107854       -30.1462
  95   2.0000      -1.105918       -30.0935
  96   2.0000      -1.023350       -27.8468
  97   2.0000      -1.022794       -27.8316
  98   2.0000      -1.005363       -27.3573
  99   2.0000      -1.004698       -27.3392
 100   2.0000      -1.003540       -27.3077
 101   2.0000      -0.997328       -27.1387
 102   2.0000      -0.996680       -27.1210
 103   2.0000      -0.988861       -26.9083
 104   2.0000      -0.988262       -26.8920
 105   2.0000      -0.981548       -26.7093
 106   2.0000      -0.958144       -26.0724
 107   2.0000      -0.956884       -26.0381
 108   2.0000      -0.932379       -25.3713
 109   2.0000      -0.913211       -24.8497
 110   2.0000      -0.906212       -24.6593
 111   2.0000      -0.902939       -24.5702
 112   2.0000      -0.896677       -24.3998
 113   2.0000      -0.890554       -24.2332
 114   2.0000      -0.881379       -23.9835
 115   2.0000      -0.877213       -23.8702
 116   2.0000      -0.875120       -23.8132
 117   2.0000      -0.874627       -23.7998
 118   2.0000      -0.859392       -23.3852
 119   2.0000      -0.855896       -23.2901
 120   2.0000      -0.853517       -23.2254
 121   2.0000      -0.850186       -23.1347
 122   2.0000      -0.833634       -22.6843
 123   2.0000      -0.826362       -22.4864
 124   2.0000      -0.817357       -22.2414
 125   2.0000      -0.813714       -22.1423
 126   2.0000      -0.797532       -21.7019
 127   2.0000      -0.793144       -21.5825
 128   2.0000      -0.776635       -21.1333
 129   2.0000      -0.774887       -21.0857
 130   2.0000      -0.769164       -20.9300
 131   2.0000      -0.756762       -20.5925
 132   2.0000      -0.748096       -20.3567
 133   2.0000      -0.737531       -20.0692
 134   2.0000      -0.734645       -19.9907
 135   2.0000      -0.727378       -19.7930
 136   2.0000      -0.718598       -19.5540
 137   2.0000      -0.714364       -19.4388
 138   2.0000      -0.708905       -19.2903
 139   2.0000      -0.703003       -19.1297
 140   2.0000      -0.690934       -18.8013
 141   2.0000      -0.689693       -18.7675
 142   2.0000      -0.685541       -18.6545
 143   2.0000      -0.677232       -18.4284
 144   2.0000      -0.674575       -18.3561
 145   2.0000      -0.668831       -18.1998
 146   2.0000      -0.658754       -17.9256
 147   2.0000      -0.649851       -17.6834
 148   2.0000      -0.648157       -17.6372
 149   2.0000      -0.645549       -17.5663
 150   2.0000      -0.644197       -17.5295
 151   2.0000      -0.640850       -17.4384
 152   2.0000      -0.638524       -17.3751
 153   2.0000      -0.624208       -16.9855
 154   2.0000      -0.616727       -16.7820
 155   2.0000      -0.614424       -16.7193
 156   2.0000      -0.612379       -16.6637
 157   2.0000      -0.607186       -16.5224
 158   2.0000      -0.605169       -16.4675
 159   2.0000      -0.601792       -16.3756
 160   2.0000      -0.596285       -16.2257
 161   2.0000      -0.593799       -16.1581
 162   2.0000      -0.590054       -16.0562
 163   2.0000      -0.589541       -16.0422
 164   2.0000      -0.588255       -16.0072
 165   2.0000      -0.585328       -15.9276
 166   2.0000      -0.582011       -15.8373
 167   2.0000      -0.570107       -15.5134
 168   2.0000      -0.565218       -15.3804
 169   2.0000      -0.564537       -15.3618
 170   2.0000      -0.561392       -15.2763
 171   2.0000      -0.558730       -15.2038
 172   2.0000      -0.553347       -15.0573
 173   2.0000      -0.552701       -15.0398
 174   2.0000      -0.551766       -15.0143
 175   2.0000      -0.551103       -14.9963
 176   2.0000      -0.549944       -14.9647
 177   2.0000      -0.549519       -14.9532
 178   2.0000      -0.545654       -14.8480
 179   2.0000      -0.540985       -14.7210
 180   2.0000      -0.539659       -14.6849
 181   2.0000      -0.537837       -14.6353
 182   2.0000      -0.535975       -14.5846
 183   2.0000      -0.534758       -14.5515
 184   2.0000      -0.529528       -14.4092
 185   2.0000      -0.527670       -14.3586
 186   2.0000      -0.525560       -14.3012
 187   2.0000      -0.524748       -14.2791
 188   2.0000      -0.513239       -13.9659
 189   2.0000      -0.511006       -13.9052
 190   2.0000      -0.504319       -13.7232
 191   2.0000      -0.502713       -13.6795
 192   2.0000      -0.501268       -13.6402
 193   2.0000      -0.500402       -13.6166
 194   2.0000      -0.498049       -13.5526
 195   2.0000      -0.497187       -13.5292
 196   2.0000      -0.495711       -13.4890
 197   2.0000      -0.493900       -13.4397
 198   2.0000      -0.492109       -13.3910
 199   2.0000      -0.490200       -13.3390
 200   2.0000      -0.488775       -13.3003
 201   2.0000      -0.487096       -13.2546
 202   2.0000      -0.482871       -13.1396
 203   2.0000      -0.481186       -13.0937
 204   2.0000      -0.476484       -12.9658
 205   2.0000      -0.475820       -12.9477
 206   2.0000      -0.473345       -12.8804
 207   2.0000      -0.469785       -12.7835
 208   2.0000      -0.468341       -12.7442
 209   2.0000      -0.465076       -12.6554
 210   2.0000      -0.462675       -12.5900
 211   2.0000      -0.460927       -12.5425
 212   2.0000      -0.458894       -12.4871
 213   2.0000      -0.457098       -12.4383
 214   2.0000      -0.456630       -12.4255
 215   2.0000      -0.453337       -12.3359
 216   2.0000      -0.453067       -12.3286
 217   2.0000      -0.451542       -12.2871
 218   2.0000      -0.449195       -12.2232
 219   2.0000      -0.445719       -12.1286
 220   2.0000      -0.445260       -12.1161
 221   2.0000      -0.444839       -12.1047
 222   2.0000      -0.443147       -12.0586
 223   2.0000      -0.442050       -12.0288
 224   2.0000      -0.438018       -11.9191
 225   2.0000      -0.435164       -11.8414
 226   2.0000      -0.432102       -11.7581
 227   2.0000      -0.430248       -11.7076
 228   2.0000      -0.430011       -11.7012
 229   2.0000      -0.427003       -11.6193
 230   2.0000      -0.424311       -11.5461
 231   2.0000      -0.421715       -11.4755
 232   2.0000      -0.417811       -11.3692
 233   2.0000      -0.415274       -11.3002
 234   2.0000      -0.411778       -11.2051
 235   2.0000      -0.410516       -11.1707
 236   2.0000      -0.407304       -11.0833
 237   2.0000      -0.406208       -11.0535
 238   2.0000      -0.399459       -10.8698
 239   2.0000      -0.391676       -10.6580
 240   2.0000      -0.376119       -10.2347
 241   2.0000      -0.373281       -10.1575
 242   2.0000      -0.361113        -9.8264
 243   2.0000      -0.351662        -9.5692
 244   2.0000      -0.350657        -9.5419
 245   2.0000      -0.348093        -9.4721
 246   2.0000      -0.341528        -9.2935
 247   2.0000      -0.340076        -9.2539
 248   2.0000      -0.339599        -9.2410
 249   2.0000      -0.328946        -8.9511
 250   2.0000      -0.317017        -8.6265
 251   2.0000      -0.314116        -8.5475
 252   2.0000      -0.307932        -8.3793
 253   2.0000      -0.289493        -7.8775
 254   2.0000      -0.274236        -7.4624
 255   2.0000      -0.269921        -7.3449
 256   2.0000      -0.240664        -6.5488
 257   0.0000      -0.099669        -2.7121
 258   0.0000      -0.088367        -2.4046
 259   0.0000      -0.066766        -1.8168
 260   0.0000      -0.061362        -1.6698
 261   0.0000      -0.025587        -0.6963

MULLIKEN ATOMIC CHARGES
-----------------------
   0 C :   -0.168331
   1 C :    0.114289
   2 C :   -0.001828
   3 C :   -0.104696
   4 C :    0.074192
   5 C :    0.095324
   6 O :   -0.338789
   7 C :    0.146420
   8 O :   -0.346911
   9 C :    0.156025
  10 S :    0.166223
  11 C :   -0.119040
  12 C :    0.062100
  13 S :    0.112358
  14 C :   -0.098260
  15 C :    0.042359
  16 C :   -0.081314
  17 C :    0.192460
  18 N :   -0.160780
  19 S :    0.197140
  20 C :   -0.050403
  21 C :   -0.120143
  22 C :   -0.082920
  23 C :    0.137749
  24 N :   -0.157437
  25 S :    0.158477
  26 C :   -0.110576
  27 C :   -0.037188
  28 C :   -0.023396
  29 C :   -0.100413
  30 C :    0.086680
  31 C :   -0.147201
  32 C :    0.158487
  33 C :   -0.007411
  34 C :    0.039514
  35 C :    0.323358
  36 C :    0.130539
  37 C :    0.011063
  38 C :    0.026478
  39 C :    0.268407
  40 C :   -0.106367
  41 C :    0.234962
  42 C :    0.237054
  43 C :   -0.090774
  44 C :   -0.103821
  45 C :    0.233021
  46 C :    0.235665
  47 C :   -0.095103
  48 F :   -0.169012
  49 F :   -0.165476
  50 O :   -0.170200
  51 C :   -0.358774
  52 C :   -0.182320
  53 C :   -0.191054
  54 C :    0.072653
  55 C :    0.009007
  56 C :    0.107773
  57 C :   -0.000200
  58 C :   -0.012639
  59 C :   -0.010295
  60 O :   -0.141988
  61 C :   -0.350127
  62 F :   -0.166875
  63 F :   -0.170083
  64 N :    0.155098
  65 N :    0.138827
  66 C :   -0.213672
  67 C :   -0.183004
  68 N :    0.155203
  69 N :    0.180656
  70 H :    0.023155
  71 H :    0.041975
  72 H :    0.025080
  73 H :    0.022193
  74 H :    0.002035
  75 H :   -0.002825
  76 H :    0.003132
  77 H :    0.022079
  78 H :    0.009931
  79 H :    0.015238
  80 H :    0.012196
  81 H :    0.016146
  82 H :    0.022048
  83 H :    0.061310
  84 H :    0.024676
  85 H :    0.026903
  86 H :    0.026428
  87 H :    0.025526
  88 H :    0.047005
  89 H :    0.019345
  90 H :    0.024891
  91 H :    0.021127
  92 H :    0.021792
  93 H :    0.030941
  94 H :    0.038934
  95 H :    0.038630
  96 H :    0.036027
  97 H :    0.023342
Sum of atomic charges:    0.0000000

LOEWDIN ATOMIC CHARGES
----------------------
   0 C :   -0.173259
   1 C :   -0.066406
   2 C :    0.007855
   3 C :   -0.152607
   4 C :   -0.069271
   5 C :    0.032059
   6 O :   -0.098877
   7 C :    0.073392
   8 O :   -0.130073
   9 C :    0.081524
  10 S :    0.417299
  11 C :   -0.220711
  12 C :    0.008930
  13 S :    0.402382
  14 C :   -0.223070
  15 C :    0.002900
  16 C :   -0.202003
  17 C :   -0.022774
  18 N :    0.037698
  19 S :    0.480187
  20 C :   -0.177726
  21 C :   -0.027050
  22 C :   -0.197784
  23 C :   -0.013611
  24 N :    0.052031
  25 S :    0.433731
  26 C :   -0.178182
  27 C :   -0.019426
  28 C :    0.055974
  29 C :   -0.122270
  30 C :    0.052442
  31 C :   -0.113822
  32 C :    0.082531
  33 C :   -0.043941
  34 C :   -0.014592
  35 C :    0.077991
  36 C :    0.081805
  37 C :   -0.046202
  38 C :   -0.013098
  39 C :    0.066411
  40 C :   -0.006900
  41 C :    0.069772
  42 C :    0.072647
  43 C :   -0.018150
  44 C :   -0.005654
  45 C :    0.068337
  46 C :    0.072746
  47 C :   -0.022957
  48 F :   -0.046036
  49 F :   -0.044129
  50 O :   -0.161559
  51 C :   -0.144778
  52 C :   -0.019473
  53 C :   -0.020431
  54 C :    0.035090
  55 C :   -0.058388
  56 C :    0.040531
  57 C :   -0.061701
  58 C :   -0.072127
  59 C :   -0.071406
  60 O :   -0.143031
  61 C :   -0.150501
  62 F :   -0.045065
  63 F :   -0.046672
  64 N :   -0.052083
  65 N :   -0.057149
  66 C :   -0.020829
  67 C :   -0.024126
  68 N :   -0.054711
  69 N :   -0.041808
  70 H :    0.026746
  71 H :    0.004181
  72 H :    0.023796
  73 H :    0.012611
  74 H :    0.039405
  75 H :    0.035013
  76 H :    0.049869
  77 H :    0.046027
  78 H :    0.051439
  79 H :    0.051340
  80 H :    0.052119
  81 H :    0.050401
  82 H :    0.025763
  83 H :    0.031875
  84 H :    0.025287
  85 H :    0.033014
  86 H :    0.030282
  87 H :    0.028664
  88 H :    0.029349
  89 H :    0.025793
  90 H :    0.030195
  91 H :    0.024517
  92 H :    0.027514
  93 H :    0.038155
  94 H :    0.026339
  95 H :    0.030687
  96 H :    0.025254
  97 H :    0.034521

  Mayer bond orders larger than 0.100000
B(  0-C ,  1-C ) :   1.2933 B(  0-C ,  5-C ) :   1.3821 B(  0-C , 13-S ) :   1.0112
B(  1-C ,  2-C ) :   1.2796 B(  1-C ,  4-C ) :   0.1292 B(  1-C , 15-C ) :   1.1139
B(  2-C ,  3-C ) :   1.4049 B(  2-C ,  8-O ) :   1.1826 B(  3-C ,  4-C ) :   1.3442
B(  3-C , 10-S ) :   1.0441 B(  4-C ,  5-C ) :   1.3008 B(  4-C , 12-C ) :   1.1001
B(  5-C ,  6-O ) :   1.1790 B(  6-O ,  7-C ) :   0.9203 B(  7-C , 58-C ) :   1.1055
B(  7-C , 70-H ) :   0.9522 B(  7-C , 71-H ) :   0.9448 B(  8-O ,  9-C ) :   0.9044
B(  9-C , 59-C ) :   1.1129 B(  9-C , 72-H ) :   0.9586 B(  9-C , 73-H ) :   0.9490
B( 10-S , 11-C ) :   0.9769 B( 11-C , 12-C ) :   1.4366 B( 11-C , 22-C ) :   1.4235
B( 12-C , 24-N ) :   1.2035 B( 13-S , 14-C ) :   0.9794 B( 14-C , 15-C ) :   1.4432
B( 14-C , 16-C ) :   1.3974 B( 15-C , 18-N ) :   1.1901 B( 16-C , 17-C ) :   1.3219
B( 16-C , 19-S ) :   1.0185 B( 17-C , 18-N ) :   1.1270 B( 17-C , 21-C ) :   1.2634
B( 18-N , 54-C ) :   0.9430 B( 19-S , 20-C ) :   1.0627 B( 20-C , 21-C ) :   1.3174
B( 20-C , 28-C ) :   1.3039 B( 21-C , 74-H ) :   1.0306 B( 22-C , 23-C ) :   1.3470
B( 22-C , 25-S ) :   1.0550 B( 23-C , 24-N ) :   1.1439 B( 23-C , 27-C ) :   1.3089
B( 24-N , 56-C ) :   0.9467 B( 25-S , 26-C ) :   1.0640 B( 26-C , 27-C ) :   1.3722
B( 26-C , 30-C ) :   1.2053 B( 27-C , 75-H ) :   0.9942 B( 28-C , 29-C ) :   1.4587
B( 28-C , 76-H ) :   0.9362 B( 29-C , 32-C ) :   0.9802 B( 29-C , 35-C ) :   1.0995
B( 30-C , 31-C ) :   1.5897 B( 30-C , 77-H ) :   0.9248 B( 31-C , 36-C ) :   0.9611
B( 31-C , 39-C ) :   1.0731 B( 32-C , 33-C ) :   0.9643 B( 32-C , 50-O ) :   2.1506
B( 33-C , 34-C ) :   1.3447 B( 33-C , 40-C ) :   1.3198 B( 34-C , 35-C ) :   0.9970
B( 34-C , 43-C ) :   1.3166 B( 35-C , 51-C ) :   1.6179 B( 36-C , 37-C ) :   0.9274
B( 36-C , 60-O ) :   2.2632 B( 37-C , 38-C ) :   1.3457 B( 37-C , 44-C ) :   1.3285
B( 38-C , 39-C ) :   1.0117 B( 38-C , 47-C ) :   1.3193 B( 39-C , 61-C ) :   1.6198
B( 40-C , 41-C ) :   1.3114 B( 40-C , 43-C ) :   0.1054 B( 40-C , 78-H ) :   1.0211
B( 41-C , 42-C ) :   1.2944 B( 41-C , 48-F ) :   1.1311 B( 42-C , 43-C ) :   1.3316
B( 42-C , 49-F ) :   1.1459 B( 43-C , 79-H ) :   0.9920 B( 44-C , 45-C ) :   1.3158
B( 44-C , 47-C ) :   0.1051 B( 44-C , 80-H ) :   1.0196 B( 45-C , 46-C ) :   1.2947
B( 45-C , 63-F ) :   1.1301 B( 46-C , 47-C ) :   1.3337 B( 46-C , 62-F ) :   1.1415
B( 47-C , 81-H ) :   0.9934 B( 51-C , 52-C ) :   1.1471 B( 51-C , 53-C ) :   1.1415
B( 52-C , 65-N ) :   2.9542 B( 53-C , 64-N ) :   2.9767 B( 54-C , 55-C ) :   1.1084
B( 54-C , 82-H ) :   0.9474 B( 54-C , 83-H ) :   0.9290 B( 55-C , 84-H ) :   0.9656
B( 55-C , 85-H ) :   0.9657 B( 55-C , 86-H ) :   0.9675 B( 56-C , 57-C ) :   1.1066
B( 56-C , 87-H ) :   0.9442 B( 56-C , 88-H ) :   0.9335 B( 57-C , 89-H ) :   0.9644
B( 57-C , 90-H ) :   0.9678 B( 57-C , 91-H ) :   0.9651 B( 58-C , 92-H ) :   0.9629
B( 58-C , 93-H ) :   0.9583 B( 58-C , 94-H ) :   0.9598 B( 59-C , 95-H ) :   0.9663
B( 59-C , 96-H ) :   0.9625 B( 59-C , 97-H ) :   0.9572 B( 61-C , 66-C ) :   1.1749
B( 61-C , 67-C ) :   1.1261 B( 66-C , 69-N ) :   2.9975 B( 67-C , 68-N ) :   2.9918

-----------------------------------------------------------------------------
         ABSORPTION SPECTRUM VIA TRANSITION ELECTRIC DIPOLE MOMENTS
-----------------------------------------------------------------------------
State   Energy  Wavelength   fosc         T2         TX        TY        TZ
        (cm-1)    (nm)                  (au**2)     (au)      (au)      (au)
-----------------------------------------------------------------------------
   0   16222.9    616.4   2.021331582  41.01889  -5.42048   3.33522  -0.71663
   1   19459.6    513.9   0.306980957   5.19342  -1.10990   1.68975  -1.05179
   2   22101.1    452.5   0.478621719   7.12940   2.25799  -0.92947  -1.08026
   3   23719.4    421.6   0.093521599   1.29803  -0.77728   0.82164  -0.13698
   4   24189.7    413.4   0.376148573   5.11922   1.43459  -1.48834   0.91980
   5   25199.2    396.8   0.039299585   0.51343   0.58451  -0.09970  -0.40228
   6   25720.1    388.8   0.012072734   0.15453  -0.06351   0.33127  -0.20187
   7   27665.5    361.5   0.025522418   0.30371  -0.49478   0.24145   0.02465
   8   29202.4    342.4   0.004152326   0.04681   0.19618   0.01431   0.09010
   9   29684.9    336.9   0.039179719   0.43451   0.24547  -0.60991   0.04757
  10   30275.5    330.3   0.009374028   0.10193   0.00532  -0.31050   0.07412
  11   30354.9    329.4   0.086256972   0.93549  -0.37900   0.86115  -0.22420
  12   30696.8    325.8   0.019021893   0.20400  -0.33112   0.06838   0.29948
  13   31673.2    315.7   0.056430465   0.58654   0.40158  -0.61373   0.22047
  14   31852.5    313.9   0.211334704   2.18426  -0.00542  -0.58184   1.35856
  15   32270.4    309.9   0.001185116   0.01209   0.06859  -0.08586   0.00374
  16   32360.7    309.0   0.278000960   2.82816   1.03630  -1.21482  -0.52769
  17   32513.7    307.6   0.086485796   0.87570   0.47966  -0.66021   0.45798
  18   32764.9    305.2   0.075632706   0.75993   0.67012  -0.32884   0.45027
  19   33310.3    300.2   0.057327240   0.56658   0.53617  -0.52740  -0.03064
  20   33573.0    297.9   0.013677678   0.13412   0.08630  -0.16338   0.31620
  21   34696.2    288.2   0.204989263   1.94503  -0.43945   0.87234  -0.99545
  22   35503.2    281.7   0.038630627   0.35821  -0.21874   0.27857  -0.48246
  23   36123.0    276.8   0.028170048   0.25673   0.16990   0.12665  -0.46024
  24   36436.7    274.4   0.174774125   1.57912  -0.52395  -0.04702   1.14122
  25   36684.7    272.6   0.171552836   1.53953   0.72315  -0.93580  -0.37533
  26   37140.9    269.2   0.277257807   2.45758   0.20283  -1.32541   0.81223
  27   37491.3    266.7   0.048114329   0.42249  -0.12154   0.54572  -0.33153
  28   37849.1    264.2   0.091169862   0.79300  -0.72099   0.40358   0.33210
  29   38267.7    261.3   0.166834950   1.43526  -0.62798  -0.40234   0.93756
  30   38519.4    259.6   0.387312342   3.31022  -1.24601   1.02663   0.83888
  31   38812.7    257.6   0.048565359   0.41193   0.23578  -0.56352   0.19694
  32   38843.1    257.4   0.024127741   0.20449  -0.08323   0.36340  -0.25594
  33   39393.1    253.9   0.045863183   0.38328  -0.14280   0.36154  -0.48185
  34   39479.6    253.3   0.022223727   0.18532   0.31722  -0.12284  -0.26381
  35   39955.4    250.3   0.300126157   2.47289  -1.14439   0.22240   1.05536

FINAL SINGLE POINT ENERGY     -4615.643855626504

DIPOLE MOMENT
-------------
                                X             Y             Z
Electronic contribution:     12.38237      14.66353     -21.65077
Nuclear contribution   :    -12.40805     -16.26638      21.19419
                        -----------------------------------------
Total Dipole Moment    :     -0.02568      -1.60285      -0.45657
                        -----------------------------------------
Magnitude (a.u.)       :      1.66681
Magnitude (Debye)      :      4.23670

Rotational constants in cm-1:     0.002794     0.000238     0.000224
Rotational constants in MHz :    83.755002     7.124170     6.704385

                             ****ORCA TERMINATED NORMALLY****
TOTAL RUN TIME: 0 days 0 hours 56 minutes 49 seconds 501 msec
