                         Program Version 4.2.0 -  RELEASE  -
|  1> # ORCA input file
|  2> # M8.out: Geometry 83
|  3> ! CAM-B3LYP def2-SVP def2/J RIJCOSX Grid4 TightSCF
|  4> %maxcore 5000
|  5> %tddft
|  6>     Mode sTDDFT
|  7>     Ethresh 5.0
|  8>     maxcore 5000
|  9> end
| 10> * xyz 0 1
| 11>    C       -0.33965         0.26688        -0.38377
| 12>    C       -0.85681         0.57339         0.92275
| 13>    C       -0.15402         0.16596         2.08311
| 14>    C        0.99235        -0.59849         1.85691
| 15>    C        1.45866        -0.94501         0.54497
| 16>    C        0.78994        -0.50752        -0.61212
| 17>    O        1.26288        -0.87204        -1.82760
| 18>    C        0.34336        -1.37114        -2.82090
| 19>    O       -0.61279         0.45189         3.33344
| 20>    C       -0.22693         1.73078         3.87099
| 21>    O        1.76666        -1.18292         2.83688
| 22>    C        2.70395        -1.93069         2.17409
| 23>    C        2.57406        -1.80181         0.78055
| 24>    O       -1.14410         0.75037        -1.38965
| 25>    C       -2.20204         1.31871        -0.75463
| 26>    C       -2.10222         1.24243         0.64186
| 27>    C       -3.39746         1.94741        -1.09332
| 28>    C       -4.04490         2.22083         0.15361
| 29>    N       -3.23481         1.80266         1.20951
| 30>    S       -4.31090         2.49986        -2.43523
| 31>    C       -5.59781         3.07897        -1.34092
| 32>    C       -5.29752         2.83542         0.01090
| 33>    C        3.71838        -2.86734         2.43315
| 34>    C        4.19008        -3.25595         1.13716
| 35>    N        3.49428        -2.59438         0.14142
| 36>    S        4.57016        -3.72944         3.67275
| 37>    C        5.54242        -4.60167         2.44950
| 38>    C        5.20426        -4.20968         1.14845
| 39>    C       -6.64141         3.76418        -2.00814
| 40>    C       -7.84883         4.29395        -1.59855
| 41>    C        6.38800        -5.65233         2.87268
| 42>    C        7.26382        -6.48553         2.19601
| 43>    C       -8.53068         4.06441        -0.29723
| 44>    C       -9.91253         4.59413        -0.46603
| 45>    C      -10.04092         5.18948        -1.73627
| 46>    C       -8.75087         5.06813        -2.45363
| 47>    C        7.56546        -7.80400         2.84945
| 48>    C        8.18401        -8.64830         1.79276
| 49>    C        8.35809        -7.88292         0.62262
| 50>    C        7.90350        -6.48948         0.89224
| 51>    C      -10.96924         4.52868         0.43604
| 52>    C      -12.18822         5.06935         0.03853
| 53>    C      -12.32554         5.67684        -1.22203
| 54>    C      -11.26552         5.74911        -2.11958
| 55>    C        8.55431        -9.98584         1.87645
| 56>    C        9.11128       -10.57230         0.74501
| 57>    C        9.29839        -9.82199        -0.42935
| 58>    C        8.93079        -8.47983        -0.50951
| 59>    F      -13.25315         5.02089         0.83405
| 60>    F      -13.50935         6.18280        -1.55300
| 61>    O       -8.09343         3.53033         0.70868
| 62>    C       -8.47025         5.64617        -3.67998
| 63>    C       -7.19284         5.57495        -4.32056
| 64>    C       -9.42475         6.41004        -4.42191
| 65>    C       -3.67061         1.69442         2.59877
| 66>    C       -4.08166         0.27469         2.97689
| 67>    C        3.76677        -2.72753        -1.28693
| 68>    C        3.34938        -4.09017        -1.83526
| 69>    C       -0.54182        -2.48704        -2.29684
| 70>    C        1.23741         1.79656         4.26685
| 71>    O        7.31636        -8.13083         3.99163
| 72>    C        8.23058        -5.39652         0.10045
| 73>    F        9.84640       -10.42850        -1.48108
| 74>    F        9.47941       -11.85050         0.74798
| 75>    N      -10.17037         7.03880        -5.05426
| 76>    N       -6.17075         5.53245        -4.87304
| 77>    C        8.07304        -4.04900         0.53751
| 78>    C        8.84976        -5.53077        -1.18074
| 79>    N        9.33231        -5.62788        -2.23398
| 80>    N        7.95865        -2.94274         0.87689
| 81>    H        1.00082        -1.73636        -3.62293
| 82>    H       -0.25777        -0.54050        -3.21913
| 83>    H       -0.87512         1.86977         4.74885
| 84>    H       -0.47297         2.51928         3.13696
| 85>    H       -5.99469         3.12125         0.79638
| 86>    H        5.63923        -4.66167         0.26219
| 87>    H       -6.42670         3.89051        -3.06983
| 88>    H        6.25439        -5.97271         3.91451
| 89>    H      -10.85652         4.05919         1.41425
| 90>    H      -11.43604         6.22851        -3.08101
| 91>    H        8.41163       -10.55998         2.79357
| 92>    H        9.11080        -7.95552        -1.44611
| 93>    H       -4.50815         2.39561         2.72308
| 94>    H       -2.85838         2.04883         3.24844
| 95>    H       -4.85983        -0.10266         2.29603
| 96>    H       -4.48420         0.25489         4.00168
| 97>    H       -3.21316        -0.39885         2.94014
| 98>    H        4.84525        -2.55812        -1.44119
| 99>    H        3.22587        -1.92043        -1.79325
|100>    H        3.85980        -4.91157        -1.31154
|101>    H        3.60576        -4.16442        -2.90364
|102>    H        2.26440        -4.24090        -1.72316
|103>    H        0.06142        -3.28435        -1.83657
|104>    H       -1.11765        -2.92374        -3.12745
|105>    H       -1.25831        -2.12291        -1.54603
|106>    H        1.49257         0.96852         4.94345
|107>    H        1.44381         2.74863         4.78163
|108>    H        1.89500         1.73658         3.38699
|109> *
|110>
|111>                          ****END OF INPUT****

CARTESIAN COORDINATES (ANGSTROEM)
---------------------------------
  C     -0.339650    0.266880   -0.383770
  C     -0.856810    0.573390    0.922750
  C     -0.154020    0.165960    2.083110
  C      0.992350   -0.598490    1.856910
  C      1.458660   -0.945010    0.544970
  C      0.789940   -0.507520   -0.612120
  O      1.262880   -0.872040   -1.827600
  C      0.343360   -1.371140   -2.820900
  O     -0.612790    0.451890    3.333440
  C     -0.226930    1.730780    3.870990
  O      1.766660   -1.182920    2.836880
  C      2.703950   -1.930690    2.174090
  C      2.574060   -1.801810    0.780550
  O     -1.144100    0.750370   -1.389650
  C     -2.202040    1.318710   -0.754630
  C     -2.102220    1.242430    0.641860
  C     -3.397460    1.947410   -1.093320
  C     -4.044900    2.220830    0.153610
  N     -3.234810    1.802660    1.209510
  S     -4.310900    2.499860   -2.435230
  C     -5.597810    3.078970   -1.340920
  C     -5.297520    2.835420    0.010900
  C      3.718380   -2.867340    2.433150
  C      4.190080   -3.255950    1.137160
  N      3.494280   -2.594380    0.141420
  S      4.570160   -3.729440    3.672750
  C      5.542420   -4.601670    2.449500
  C      5.204260   -4.209680    1.148450
  C     -6.641410    3.764180   -2.008140
  C     -7.848830    4.293950   -1.598550
  C      6.388000   -5.652330    2.872680
  C      7.263820   -6.485530    2.196010
  C     -8.530680    4.064410   -0.297230
  C     -9.912530    4.594130   -0.466030
  C    -10.040920    5.189480   -1.736270
  C     -8.750870    5.068130   -2.453630
  C      7.565460   -7.804000    2.849450
  C      8.184010   -8.648300    1.792760
  C      8.358090   -7.882920    0.622620
  C      7.903500   -6.489480    0.892240
  C    -10.969240    4.528680    0.436040
  C    -12.188220    5.069350    0.038530
  C    -12.325540    5.676840   -1.222030
  C    -11.265520    5.749110   -2.119580
  C      8.554310   -9.985840    1.876450
  C      9.111280  -10.572300    0.745010
  C      9.298390   -9.821990   -0.429350
  C      8.930790   -8.479830   -0.509510
  F    -13.253150    5.020890    0.834050
  F    -13.509350    6.182800   -1.553000
  O     -8.093430    3.530330    0.708680
  C     -8.470250    5.646170   -3.679980
  C     -7.192840    5.574950   -4.320560
  C     -9.424750    6.410040   -4.421910
  C     -3.670610    1.694420    2.598770
  C     -4.081660    0.274690    2.976890
  C      3.766770   -2.727530   -1.286930
  C      3.349380   -4.090170   -1.835260
  C     -0.541820   -2.487040   -2.296840
  C      1.237410    1.796560    4.266850
  O      7.316360   -8.130830    3.991630
  C      8.230580   -5.396520    0.100450
  F      9.846400  -10.428500   -1.481080
  F      9.479410  -11.850500    0.747980
  N    -10.170370    7.038800   -5.054260
  N     -6.170750    5.532450   -4.873040
  C      8.073040   -4.049000    0.537510
  C      8.849760   -5.530770   -1.180740
  N      9.332310   -5.627880   -2.233980
  N      7.958650   -2.942740    0.876890
  H      1.000820   -1.736360   -3.622930
  H     -0.257770   -0.540500   -3.219130
  H     -0.875120    1.869770    4.748850
  H     -0.472970    2.519280    3.136960
  H     -5.994690    3.121250    0.796380
  H      5.639230   -4.661670    0.262190
  H     -6.426700    3.890510   -3.069830
  H      6.254390   -5.972710    3.914510
  H    -10.856520    4.059190    1.414250
  H    -11.436040    6.228510   -3.081010
  H      8.411630  -10.559980    2.793570
  H      9.110800   -7.955520   -1.446110
  H     -4.508150    2.395610    2.723080
  H     -2.858380    2.048830    3.248440
  H     -4.859830   -0.102660    2.296030
  H     -4.484200    0.254890    4.001680
  H     -3.213160   -0.398850    2.940140
  H      4.845250   -2.558120   -1.441190
  H      3.225870   -1.920430   -1.793250
  H      3.859800   -4.911570   -1.311540
  H      3.605760   -4.164420   -2.903640
  H      2.264400   -4.240900   -1.723160
  H      0.061420   -3.284350   -1.836570
  H     -1.117650   -2.923740   -3.127450
  H     -1.258310   -2.122910   -1.546030
  H      1.492570    0.968520    4.943450
  H      1.443810    2.748630    4.781630
  H      1.895000    1.736580    3.386990

 Total Charge           Charge          ....    0
 Multiplicity           Mult            ....    1
 Number of Electrons    NEL             ....  498
 Basis Dimension        Dim             .... 1128

ORBITAL ENERGIES
----------------

  NO   OCC          E(Eh)            E(eV)
   0   2.0000     -88.973295     -2421.0864
   1   2.0000     -88.972682     -2421.0698
   2   2.0000     -24.805315      -674.9869
   3   2.0000     -24.803398      -674.9348
   4   2.0000     -24.802700      -674.9158
   5   2.0000     -24.801294      -674.8775
   6   2.0000     -19.302931      -525.2594
   7   2.0000     -19.296532      -525.0853
   8   2.0000     -19.263621      -524.1898
   9   2.0000     -19.252750      -523.8940
  10   2.0000     -19.225896      -523.1632
  11   2.0000     -19.217991      -522.9481
  12   2.0000     -14.486774      -394.2052
  13   2.0000     -14.483007      -394.1027
  14   2.0000     -14.423304      -392.4780
  15   2.0000     -14.422566      -392.4580
  16   2.0000     -14.421629      -392.4325
  17   2.0000     -14.421422      -392.4268
  18   2.0000     -10.389164      -282.7035
  19   2.0000     -10.388008      -282.6721
  20   2.0000     -10.386396      -282.6282
  21   2.0000     -10.386043      -282.6186
  22   2.0000     -10.378516      -282.4138
  23   2.0000     -10.370466      -282.1947
  24   2.0000     -10.360038      -281.9110
  25   2.0000     -10.355837      -281.7967
  26   2.0000     -10.355594      -281.7900
  27   2.0000     -10.355089      -281.7763
  28   2.0000     -10.351682      -281.6836
  29   2.0000     -10.351615      -281.6818
  30   2.0000     -10.350890      -281.6620
  31   2.0000     -10.350285      -281.6456
  32   2.0000     -10.346927      -281.5542
  33   2.0000     -10.345369      -281.5118
  34   2.0000     -10.340196      -281.3710
  35   2.0000     -10.339657      -281.3564
  36   2.0000     -10.335762      -281.2504
  37   2.0000     -10.333021      -281.1758
  38   2.0000     -10.332360      -281.1578
  39   2.0000     -10.330966      -281.1199
  40   2.0000     -10.329445      -281.0785
  41   2.0000     -10.327145      -281.0159
  42   2.0000     -10.327054      -281.0134
  43   2.0000     -10.326994      -281.0118
  44   2.0000     -10.326798      -281.0064
  45   2.0000     -10.325536      -280.9721
  46   2.0000     -10.325515      -280.9715
  47   2.0000     -10.325468      -280.9703
  48   2.0000     -10.324117      -280.9335
  49   2.0000     -10.323605      -280.9196
  50   2.0000     -10.323192      -280.9083
  51   2.0000     -10.322822      -280.8983
  52   2.0000     -10.321527      -280.8630
  53   2.0000     -10.320800      -280.8432
  54   2.0000     -10.318428      -280.7787
  55   2.0000     -10.313367      -280.6410
  56   2.0000     -10.311561      -280.5918
  57   2.0000     -10.311203      -280.5821
  58   2.0000     -10.310973      -280.5758
  59   2.0000     -10.310512      -280.5633
  60   2.0000     -10.310383      -280.5598
  61   2.0000     -10.308675      -280.5133
  62   2.0000     -10.306850      -280.4637
  63   2.0000     -10.304177      -280.3909
  64   2.0000     -10.303719      -280.3785
  65   2.0000     -10.300139      -280.2810
  66   2.0000     -10.284396      -279.8527
  67   2.0000     -10.281935      -279.7857
  68   2.0000     -10.278606      -279.6951
  69   2.0000     -10.273396      -279.5533
  70   2.0000      -8.067714      -219.5337
  71   2.0000      -8.066332      -219.4961
  72   2.0000      -6.037355      -164.2848
  73   2.0000      -6.036206      -164.2535
  74   2.0000      -6.033333      -164.1753
  75   2.0000      -6.032076      -164.1411
  76   2.0000      -6.029090      -164.0599
  77   2.0000      -6.027532      -164.0175
  78   2.0000      -1.331559       -36.2336
  79   2.0000      -1.328646       -36.1543
  80   2.0000      -1.315187       -35.7881
  81   2.0000      -1.312345       -35.7107
  82   2.0000      -1.217520       -33.1304
  83   2.0000      -1.206427       -32.8285
  84   2.0000      -1.162670       -31.6379
  85   2.0000      -1.153074       -31.3767
  86   2.0000      -1.135882       -30.9089
  87   2.0000      -1.130419       -30.7603
  88   2.0000      -1.099823       -29.9277
  89   2.0000      -1.099012       -29.9056
  90   2.0000      -1.017165       -27.6785
  91   2.0000      -1.015190       -27.6247
  92   2.0000      -0.999298       -27.1923
  93   2.0000      -0.996642       -27.1200
  94   2.0000      -0.992638       -27.0111
  95   2.0000      -0.992226       -26.9998
  96   2.0000      -0.988903       -26.9094
  97   2.0000      -0.984737       -26.7961
  98   2.0000      -0.967385       -26.3239
  99   2.0000      -0.953968       -25.9588
 100   2.0000      -0.950680       -25.8693
 101   2.0000      -0.927796       -25.2466
 102   2.0000      -0.923592       -25.1322
 103   2.0000      -0.905874       -24.6501
 104   2.0000      -0.900176       -24.4950
 105   2.0000      -0.896446       -24.3935
 106   2.0000      -0.883175       -24.0324
 107   2.0000      -0.877712       -23.8837
 108   2.0000      -0.872802       -23.7502
 109   2.0000      -0.870600       -23.6902
 110   2.0000      -0.869849       -23.6698
 111   2.0000      -0.863374       -23.4936
 112   2.0000      -0.861097       -23.4316
 113   2.0000      -0.856910       -23.3177
 114   2.0000      -0.835891       -22.7458
 115   2.0000      -0.832864       -22.6634
 116   2.0000      -0.828717       -22.5505
 117   2.0000      -0.824672       -22.4405
 118   2.0000      -0.808420       -21.9982
 119   2.0000      -0.796316       -21.6689
 120   2.0000      -0.774608       -21.0782
 121   2.0000      -0.770944       -20.9785
 122   2.0000      -0.766427       -20.8556
 123   2.0000      -0.760051       -20.6820
 124   2.0000      -0.752962       -20.4891
 125   2.0000      -0.744405       -20.2563
 126   2.0000      -0.740440       -20.1484
 127   2.0000      -0.729187       -19.8422
 128   2.0000      -0.720467       -19.6049
 129   2.0000      -0.716288       -19.4912
 130   2.0000      -0.715184       -19.4611
 131   2.0000      -0.707850       -19.2616
 132   2.0000      -0.703241       -19.1362
 133   2.0000      -0.697804       -18.9882
 134   2.0000      -0.693248       -18.8642
 135   2.0000      -0.686516       -18.6810
 136   2.0000      -0.677119       -18.4254
 137   2.0000      -0.669934       -18.2298
 138   2.0000      -0.662609       -18.0305
 139   2.0000      -0.658702       -17.9242
 140   2.0000      -0.650671       -17.7057
 141   2.0000      -0.644907       -17.5488
 142   2.0000      -0.643663       -17.5150
 143   2.0000      -0.639616       -17.4048
 144   2.0000      -0.637356       -17.3433
 145   2.0000      -0.630324       -17.1520
 146   2.0000      -0.622400       -16.9364
 147   2.0000      -0.618242       -16.8232
 148   2.0000      -0.613938       -16.7061
 149   2.0000      -0.609108       -16.5747
 150   2.0000      -0.607800       -16.5391
 151   2.0000      -0.603952       -16.4344
 152   2.0000      -0.602459       -16.3937
 153   2.0000      -0.596978       -16.2446
 154   2.0000      -0.593478       -16.1494
 155   2.0000      -0.593126       -16.1398
 156   2.0000      -0.592458       -16.1216
 157   2.0000      -0.590508       -16.0685
 158   2.0000      -0.586497       -15.9594
 159   2.0000      -0.583304       -15.8725
 160   2.0000      -0.572499       -15.5785
 161   2.0000      -0.569954       -15.5092
 162   2.0000      -0.567717       -15.4484
 163   2.0000      -0.565828       -15.3970
 164   2.0000      -0.560888       -15.2625
 165   2.0000      -0.555230       -15.1086
 166   2.0000      -0.554703       -15.0942
 167   2.0000      -0.553876       -15.0717
 168   2.0000      -0.551844       -15.0164
 169   2.0000      -0.551261       -15.0006
 170   2.0000      -0.550919       -14.9913
 171   2.0000      -0.548333       -14.9209
 172   2.0000      -0.544215       -14.8088
 173   2.0000      -0.538161       -14.6441
 174   2.0000      -0.535843       -14.5810
 175   2.0000      -0.535705       -14.5773
 176   2.0000      -0.534679       -14.5494
 177   2.0000      -0.530814       -14.4442
 178   2.0000      -0.529618       -14.4116
 179   2.0000      -0.529351       -14.4044
 180   2.0000      -0.524436       -14.2706
 181   2.0000      -0.522644       -14.2219
 182   2.0000      -0.520909       -14.1747
 183   2.0000      -0.515011       -14.0142
 184   2.0000      -0.509717       -13.8701
 185   2.0000      -0.507381       -13.8065
 186   2.0000      -0.504206       -13.7201
 187   2.0000      -0.500026       -13.6064
 188   2.0000      -0.498780       -13.5725
 189   2.0000      -0.497103       -13.5269
 190   2.0000      -0.494315       -13.4510
 191   2.0000      -0.493242       -13.4218
 192   2.0000      -0.492530       -13.4024
 193   2.0000      -0.489523       -13.3206
 194   2.0000      -0.487698       -13.2709
 195   2.0000      -0.484458       -13.1828
 196   2.0000      -0.479757       -13.0549
 197   2.0000      -0.477265       -12.9871
 198   2.0000      -0.476563       -12.9680
 199   2.0000      -0.472550       -12.8587
 200   2.0000      -0.468057       -12.7365
 201   2.0000      -0.467110       -12.7107
 202   2.0000      -0.466846       -12.7035
 203   2.0000      -0.462472       -12.5845
 204   2.0000      -0.460051       -12.5186
 205   2.0000      -0.457913       -12.4605
 206   2.0000      -0.456497       -12.4219
 207   2.0000      -0.455982       -12.4079
 208   2.0000      -0.454615       -12.3707
 209   2.0000      -0.452593       -12.3157
 210   2.0000      -0.452396       -12.3103
 211   2.0000      -0.451738       -12.2924
 212   2.0000      -0.450561       -12.2604
 213   2.0000      -0.447949       -12.1893
 214   2.0000      -0.447322       -12.1722
 215   2.0000      -0.445198       -12.1145
 216   2.0000      -0.443305       -12.0629
 217   2.0000      -0.442568       -12.0429
 218   2.0000      -0.439200       -11.9512
 219   2.0000      -0.431560       -11.7433
 220   2.0000      -0.431386       -11.7386
 221   2.0000      -0.427473       -11.6321
 222   2.0000      -0.426569       -11.6075
 223   2.0000      -0.426317       -11.6007
 224   2.0000      -0.423334       -11.5195
 225   2.0000      -0.422831       -11.5058
 226   2.0000      -0.417003       -11.3472
 227   2.0000      -0.413672       -11.2566
 228   2.0000      -0.411059       -11.1855
 229   2.0000      -0.408550       -11.1172
 230   2.0000      -0.403110       -10.9692
 231   2.0000      -0.390779       -10.6336
 232   2.0000      -0.377548       -10.2736
 233   2.0000      -0.374617       -10.1938
 234   2.0000      -0.370289       -10.0761
 235   2.0000      -0.364594        -9.9211
 236   2.0000      -0.354111        -9.6358
 237   2.0000      -0.348957        -9.4956
 238   2.0000      -0.347814        -9.4645
 239   2.0000      -0.345050        -9.3893
 240   2.0000      -0.339950        -9.2505
 241   2.0000      -0.328792        -8.9469
 242   2.0000      -0.316429        -8.6105
 243   2.0000      -0.313860        -8.5406
 244   2.0000      -0.312914        -8.5148
 245   2.0000      -0.298386        -8.1195
 246   2.0000      -0.283279        -7.7084
 247   2.0000      -0.276769        -7.5313
 248   2.0000      -0.244433        -6.6514
 249   0.0000      -0.101433        -2.7601
 250   0.0000      -0.089868        -2.4454
 251   0.0000      -0.068599        -1.8667
 252   0.0000      -0.062485        -1.7003
 253   0.0000      -0.024829        -0.6756

MULLIKEN ATOMIC CHARGES
-----------------------
   0 C :    0.098250
   1 C :    0.057493
   2 C :   -0.036288
   3 C :    0.155618
   4 C :    0.020579
   5 C :    0.034970
   6 O :   -0.327474
   7 C :    0.170388
   8 O :   -0.337455
   9 C :    0.157324
  10 O :   -0.233778
  11 C :    0.065722
  12 C :    0.050447
  13 O :   -0.235563
  14 C :    0.082805
  15 C :    0.053547
  16 C :   -0.075955
  17 C :    0.131082
  18 N :   -0.199768
  19 S :    0.166443
  20 C :   -0.117597
  21 C :   -0.036278
  22 C :   -0.052227
  23 C :    0.089665
  24 N :   -0.172356
  25 S :    0.173511
  26 C :   -0.116665
  27 C :    0.006254
  28 C :    0.036031
  29 C :   -0.096367
  30 C :    0.079928
  31 C :   -0.150159
  32 C :    0.155086
  33 C :   -0.017872
  34 C :    0.038764
  35 C :    0.268446
  36 C :    0.131102
  37 C :   -0.001254
  38 C :    0.037367
  39 C :    0.250693
  40 C :   -0.100938
  41 C :    0.227578
  42 C :    0.226199
  43 C :   -0.086156
  44 C :   -0.102207
  45 C :    0.228578
  46 C :    0.227427
  47 C :   -0.099360
  48 F :   -0.162062
  49 F :   -0.157511
  50 O :   -0.166126
  51 C :   -0.324727
  52 C :   -0.180147
  53 C :   -0.163571
  54 C :    0.110428
  55 C :   -0.016829
  56 C :    0.101548
  57 C :   -0.023640
  58 C :   -0.033259
  59 C :   -0.014079
  60 O :   -0.150140
  61 C :   -0.334612
  62 F :   -0.161319
  63 F :   -0.161917
  64 N :    0.131292
  65 N :    0.131409
  66 C :   -0.192710
  67 C :   -0.161399
  68 N :    0.125859
  69 N :    0.151532
  70 H :    0.026931
  71 H :    0.041135
  72 H :    0.035362
  73 H :    0.015358
  74 H :    0.023190
  75 H :    0.010983
  76 H :    0.021814
  77 H :    0.031319
  78 H :    0.016332
  79 H :    0.024718
  80 H :    0.019815
  81 H :    0.022114
  82 H :    0.033362
  83 H :    0.022890
  84 H :    0.030815
  85 H :    0.030906
  86 H :    0.044829
  87 H :    0.040286
  88 H :    0.050888
  89 H :    0.024098
  90 H :    0.036497
  91 H :    0.024193
  92 H :    0.023120
  93 H :    0.037405
  94 H :    0.036541
  95 H :    0.040448
  96 H :    0.026504
  97 H :    0.034545
Sum of atomic charges:   -0.0000000

LOEWDIN ATOMIC CHARGES
----------------------
   0 C :    0.031044
   1 C :   -0.063367
   2 C :    0.006022
   3 C :    0.050290
   4 C :   -0.069123
   5 C :    0.021431
   6 O :   -0.109323
   7 C :    0.088225
   8 O :   -0.128796
   9 C :    0.084256
  10 O :   -0.029585
  11 C :   -0.003111
  12 C :    0.003913
  13 O :   -0.025468
  14 C :   -0.007978
  15 C :   -0.001024
  16 C :   -0.204206
  17 C :   -0.010907
  18 N :    0.028086
  19 S :    0.435862
  20 C :   -0.170759
  21 C :   -0.019263
  22 C :   -0.194217
  23 C :   -0.011549
  24 N :    0.038937
  25 S :    0.423730
  26 C :   -0.175283
  27 C :   -0.015149
  28 C :    0.046071
  29 C :   -0.112980
  30 C :    0.051433
  31 C :   -0.115376
  32 C :    0.091395
  33 C :   -0.045881
  34 C :   -0.014733
  35 C :    0.078841
  36 C :    0.087357
  37 C :   -0.048054
  38 C :   -0.012713
  39 C :    0.069797
  40 C :   -0.013224
  41 C :    0.066227
  42 C :    0.068418
  43 C :   -0.023159
  44 C :   -0.011488
  45 C :    0.064825
  46 C :    0.069451
  47 C :   -0.027814
  48 F :   -0.038733
  49 F :   -0.036390
  50 O :   -0.156192
  51 C :   -0.142016
  52 C :   -0.019148
  53 C :   -0.015347
  54 C :    0.044798
  55 C :   -0.065090
  56 C :    0.042176
  57 C :   -0.066522
  58 C :   -0.076088
  59 C :   -0.074188
  60 O :   -0.146854
  61 C :   -0.153811
  62 F :   -0.039735
  63 F :   -0.039106
  64 N :   -0.056009
  65 N :   -0.054768
  66 C :   -0.021657
  67 C :   -0.017045
  68 N :   -0.060974
  69 N :   -0.048644
  70 H :    0.026187
  71 H :    0.020278
  72 H :    0.024215
  73 H :    0.012013
  74 H :    0.041388
  75 H :    0.039113
  76 H :    0.043987
  77 H :    0.049241
  78 H :    0.053311
  79 H :    0.053779
  80 H :    0.054848
  81 H :    0.052130
  82 H :    0.034593
  83 H :    0.030975
  84 H :    0.031020
  85 H :    0.035868
  86 H :    0.033132
  87 H :    0.033558
  88 H :    0.034026
  89 H :    0.026790
  90 H :    0.036935
  91 H :    0.027914
  92 H :    0.028620
  93 H :    0.040990
  94 H :    0.032288
  95 H :    0.035708
  96 H :    0.036266
  97 H :    0.031088

  Mayer bond orders larger than 0.100000
B(  0-C ,  1-C ) :   1.2425 B(  0-C ,  5-C ) :   1.3230 B(  0-C , 13-O ) :   1.0716
B(  1-C ,  2-C ) :   1.2520 B(  1-C ,  4-C ) :   0.1306 B(  1-C , 15-C ) :   1.1132
B(  2-C ,  3-C ) :   1.3612 B(  2-C ,  8-O ) :   1.1887 B(  3-C ,  4-C ) :   1.2579
B(  3-C , 10-O ) :   1.0965 B(  4-C ,  5-C ) :   1.2879 B(  4-C , 12-C ) :   1.1127
B(  5-C ,  6-O ) :   1.2153 B(  6-O ,  7-C ) :   0.9060 B(  7-C , 58-C ) :   1.1072
B(  7-C , 70-H ) :   0.9593 B(  7-C , 71-H ) :   0.9530 B(  8-O ,  9-C ) :   0.9175
B(  9-C , 59-C ) :   1.1152 B(  9-C , 72-H ) :   0.9569 B(  9-C , 73-H ) :   0.9438
B( 10-O , 11-C ) :   1.0864 B( 11-C , 12-C ) :   1.3743 B( 11-C , 22-C ) :   1.3995
B( 12-C , 24-N ) :   1.1971 B( 13-O , 14-C ) :   1.0936 B( 14-C , 15-C ) :   1.3907
B( 14-C , 16-C ) :   1.3841 B( 15-C , 18-N ) :   1.1759 B( 16-C , 17-C ) :   1.3101
B( 16-C , 19-S ) :   1.0349 B( 17-C , 18-N ) :   1.1189 B( 17-C , 21-C ) :   1.2583
B( 18-N , 54-C ) :   0.9443 B( 19-S , 20-C ) :   1.0521 B( 20-C , 21-C ) :   1.3962
B( 20-C , 28-C ) :   1.2507 B( 21-C , 74-H ) :   0.9832 B( 22-C , 23-C ) :   1.3143
B( 22-C , 25-S ) :   1.0230 B( 23-C , 24-N ) :   1.1289 B( 23-C , 27-C ) :   1.3377
B( 24-N , 56-C ) :   0.9316 B( 25-S , 26-C ) :   1.0575 B( 26-C , 27-C ) :   1.3646
B( 26-C , 30-C ) :   1.2291 B( 27-C , 75-H ) :   0.9784 B( 28-C , 29-C ) :   1.5549
B( 28-C , 76-H ) :   0.9100 B( 29-C , 32-C ) :   0.9619 B( 29-C , 35-C ) :   1.0921
B( 30-C , 31-C ) :   1.5893 B( 30-C , 77-H ) :   0.9150 B( 31-C , 36-C ) :   0.9584
B( 31-C , 39-C ) :   1.0774 B( 32-C , 33-C ) :   0.9582 B( 32-C , 50-O ) :   2.1677
B( 33-C , 34-C ) :   1.3561 B( 33-C , 40-C ) :   1.3194 B( 34-C , 35-C ) :   1.0029
B( 34-C , 43-C ) :   1.3090 B( 35-C , 51-C ) :   1.6308 B( 36-C , 37-C ) :   0.9340
B( 36-C , 60-O ) :   2.2371 B( 37-C , 38-C ) :   1.3555 B( 37-C , 44-C ) :   1.3239
B( 38-C , 39-C ) :   1.0161 B( 38-C , 47-C ) :   1.3107 B( 39-C , 61-C ) :   1.6085
B( 40-C , 41-C ) :   1.3262 B( 40-C , 43-C ) :   0.1032 B( 40-C , 78-H ) :   1.0111
B( 41-C , 42-C ) :   1.2820 B( 41-C , 48-F ) :   1.1358 B( 42-C , 43-C ) :   1.3497
B( 42-C , 49-F ) :   1.1512 B( 43-C , 79-H ) :   0.9835 B( 44-C , 45-C ) :   1.3264
B( 44-C , 47-C ) :   0.1037 B( 44-C , 80-H ) :   1.0120 B( 45-C , 46-C ) :   1.2826
B( 45-C , 63-F ) :   1.1368 B( 46-C , 47-C ) :   1.3484 B( 46-C , 62-F ) :   1.1452
B( 47-C , 81-H ) :   0.9857 B( 51-C , 52-C ) :   1.1294 B( 51-C , 53-C ) :   1.1252
B( 52-C , 65-N ) :   2.9739 B( 53-C , 64-N ) :   2.9717 B( 54-C , 55-C ) :   1.1043
B( 54-C , 82-H ) :   0.9487 B( 54-C , 83-H ) :   0.9481 B( 55-C , 84-H ) :   0.9673
B( 55-C , 85-H ) :   0.9657 B( 55-C , 86-H ) :   0.9652 B( 56-C , 57-C ) :   1.1025
B( 56-C , 87-H ) :   0.9490 B( 56-C , 88-H ) :   0.9378 B( 57-C , 89-H ) :   0.9676
B( 57-C , 90-H ) :   0.9648 B( 57-C , 91-H ) :   0.9651 B( 58-C , 92-H ) :   0.9638
B( 58-C , 93-H ) :   0.9589 B( 58-C , 94-H ) :   0.9608 B( 59-C , 95-H ) :   0.9617
B( 59-C , 96-H ) :   0.9584 B( 59-C , 97-H ) :   0.9621 B( 61-C , 66-C ) :   1.1595
B( 61-C , 67-C ) :   1.1123 B( 66-C , 69-N ) :   2.9881 B( 67-C , 68-N ) :   2.9766

-----------------------------------------------------------------------------
         ABSORPTION SPECTRUM VIA TRANSITION ELECTRIC DIPOLE MOMENTS
-----------------------------------------------------------------------------
State   Energy  Wavelength   fosc         T2         TX        TY        TZ
        (cm-1)    (nm)                  (au**2)     (au)      (au)      (au)
-----------------------------------------------------------------------------
   0   16569.5    603.5   2.352554493  46.74179  -5.53143   3.83491  -1.19941
   1   19952.6    501.2   0.293437377   4.84163   1.37736  -0.71276   1.56092
   2   24182.0    413.5   0.068695895   0.93522   0.29657  -0.16901  -0.90482
   3   24582.5    406.8   0.408798139   5.47467   1.91227  -1.16985  -0.67033
   4   25179.5    397.1   0.158847607   2.07687   0.65873  -1.13093   0.60328
   5   25582.8    390.9   0.044787947   0.57635  -0.64687   0.11319  -0.38092
   6   26450.8    378.1   0.025075987   0.31210   0.38105  -0.18383  -0.36484
   7   28696.2    348.5   0.009133425   0.10478   0.28087  -0.16048   0.01179
   8   30134.2    331.8   0.144416619   1.57773   0.45606  -1.16519   0.10990
   9   30452.5    328.4   0.075471456   0.81590   0.09179   0.81853  -0.37078
  10   30826.6    324.4   0.135680729   1.44900   1.12831  -0.12168  -0.40139
  11   31376.8    318.7   0.017306397   0.18158  -0.32609  -0.25649   0.09724
  12   31825.2    314.2   0.030258683   0.31301   0.23155   0.12690  -0.49324
  13   32030.0    312.2   0.017726666   0.18220  -0.06943   0.41751   0.05536
  14   32542.3    307.3   0.134189485   1.35752   0.02185  -1.07760   0.44252
  15   32826.6    304.6   0.145560850   1.45980  -0.68053  -0.08793   0.99446
  16   33311.0    300.2   0.014004341   0.13840   0.11679  -0.11130  -0.33523
  17   33608.4    297.5   0.064481475   0.63163   0.21072   0.64829   0.40859
  18   34178.8    292.6   0.122178005   1.17683  -0.79162   0.67893  -0.29870
  19   34264.0    291.9   0.027857072   0.26765  -0.47014   0.07857   0.20113
  20   34957.3    286.1   0.025703519   0.24206   0.24648  -0.35502  -0.23509
  21   35544.4    281.3   0.215437265   1.99538  -0.87407   0.89900  -0.65052
  22   36174.9    276.4   0.237821856   2.16431   0.76304   0.91621  -0.86177
  23   36330.3    275.3   0.050015773   0.45323   0.09110   0.13215  -0.65381
  24   36596.7    273.2   0.163585371   1.47156  -0.05696  -0.89127   0.82094
  25   36939.6    270.7   0.332761001   2.96563   0.74036  -0.54012  -1.45800
  26   37647.2    265.6   0.397828051   3.47887  -0.17093  -1.33647   1.28977
  27   38223.2    261.6   0.028417900   0.24476  -0.34920   0.20413  -0.28486
  28   38727.6    258.2   0.006007682   0.05107  -0.05854   0.14988   0.15868
  29   39012.0    256.3   0.256297213   2.16282  -0.11805  -0.82046   1.21480
  30   39273.2    254.6   0.009127717   0.07651   0.24004  -0.02311   0.13551
  31   39761.5    251.5   0.001289968   0.01068  -0.01797  -0.01435   0.10076

FINAL SINGLE POINT ENERGY     -3969.758616927840

DIPOLE MOMENT
-------------
                                X             Y             Z
Electronic contribution:     -9.30354      -6.20862     -11.85941
Nuclear contribution   :      8.14077       5.17742      13.72406
                        -----------------------------------------
Total Dipole Moment    :     -1.16276      -1.03120       1.86465
                        -----------------------------------------
Magnitude (a.u.)       :      2.42741
Magnitude (Debye)      :      6.16998

Rotational constants in cm-1:     0.002906     0.000233     0.000226
Rotational constants in MHz :    87.122068     6.991327     6.780976

                             ****ORCA TERMINATED NORMALLY****
TOTAL RUN TIME: 0 days 0 hours 51 minutes 56 seconds 727 msec
