                         Program Version 4.2.0 -  RELEASE  -
|  1> # ORCA input file
|  2> # M8.out
|  3> ! CAM-B3LYP def2-SVP def2/J RIJCOSX Grid4 TightSCF
|  4> %maxcore 5000
|  5> %tddft
|  6>     Mode sTDDFT
|  7>     Ethresh 5.0
|  8>     maxcore 5000
|  9> end
| 10> * xyz 0 1
| 11>    C       -0.96256        -0.82411        -0.63995
| 12>    C       -1.49856        -0.52082         0.65156
| 13>    C       -0.89132        -0.98076         1.82833
| 14>    C        0.21936        -1.78989         1.64758
| 15>    C        0.73889        -2.11579         0.35821
| 16>    C        0.15197        -1.63106        -0.82400
| 17>    O        0.75581        -1.96084        -1.98907
| 18>    C        0.07223        -1.79535        -3.22560
| 19>    O       -1.37721        -0.65287         3.07009
| 20>    C       -0.79537         0.50827         3.66589
| 21>    O        0.94743        -2.34859         2.65433
| 22>    C        1.94852        -3.01978         2.04249
| 23>    C        1.87532        -2.91907         0.63940
| 24>    O       -1.67333        -0.20941        -1.64394
| 25>    C       -2.66138         0.46884        -1.02057
| 26>    C       -2.62507         0.30129         0.37600
| 27>    C       -3.71914         1.31631        -1.31463
| 28>    C       -4.31485         1.63066        -0.05712
| 29>    N       -3.63810         1.00352         0.96052
| 30>    S       -4.51963         2.10487        -2.61153
| 31>    C       -5.63768         2.87820        -1.46564
| 32>    C       -5.38709         2.50406        -0.15075
| 33>    C        3.07603        -3.76889         2.34767
| 34>    C        3.66310        -4.10323         1.09254
| 35>    N        2.92219        -3.57816         0.06572
| 36>    S        3.99401        -4.38275         3.66216
| 37>    C        5.19575        -5.02959         2.53932
| 38>    C        4.85193        -4.80794         1.21056
| 39>    C       -6.58270         3.74156        -2.03831
| 40>    C       -7.52409         4.57391        -1.48170
| 41>    C        6.29963        -5.71040         3.07715
| 42>    C        7.48655        -6.06636         2.49320
| 43>    C       -7.77540         4.86201        -0.05697
| 44>    C       -8.74584         5.97917        -0.04100
| 45>    C       -9.10624         6.31437        -1.35483
| 46>    C       -8.40189         5.41994        -2.27345
| 47>    C        8.28820        -7.14636         3.12020
| 48>    C        9.30621        -7.51260         2.10727
| 49>    C        9.19987        -6.64549         1.00644
| 50>    C        8.16301        -5.64955         1.29012
| 51>    C       -9.25636         6.64445         1.05608
| 52>    C      -10.14759         7.67861         0.82231
| 53>    C      -10.50791         8.02385        -0.48051
| 54>    C       -9.99856         7.35102        -1.58121
| 55>    C       10.23440        -8.53350         2.14612
| 56>    C       11.06385        -8.69153         1.04681
| 57>    C       10.95571        -7.84280        -0.05469
| 58>    C       10.03095        -6.80935        -0.08940
| 59>    F      -10.66543         8.35480         1.85523
| 60>    F      -11.36571         9.03114        -0.67802
| 61>    O       -7.31268         4.32984         0.93234
| 62>    C       -8.60155         5.38343        -3.62852
| 63>    C       -8.00908         4.48345        -4.54116
| 64>    C       -9.48101         6.24522        -4.31959
| 65>    C       -4.09829         0.92950         2.32719
| 66>    C       -5.37887         0.10517         2.43541
| 67>    C        3.19726        -3.75086        -1.33868
| 68>    C        2.57957        -5.04240        -1.86894
| 69>    C       -1.06686        -2.79229        -3.39422
| 70>    C        0.68469         0.37182         3.99136
| 71>    O        8.11818        -7.64443         4.20855
| 72>    C        8.06119        -4.43489         0.65890
| 73>    F       11.75880        -8.02801        -1.10859
| 74>    F       11.97554        -9.67140         1.03976
| 75>    N      -10.17143         6.91425        -4.94633
| 76>    N       -7.59967         3.79014        -5.36034
| 77>    C        7.25887        -3.37026         1.11383
| 78>    C        8.80353        -4.07383        -0.48335
| 79>    N        9.35220        -3.73679        -1.43367
| 80>    N        6.65104        -2.45515         1.44736
| 81>    H        0.84688        -1.97686        -3.97529
| 82>    H       -0.29277        -0.77105        -3.33231
| 83>    H       -1.37038         0.64407         4.58517
| 84>    H       -0.95665         1.37627         3.00968
| 85>    H       -5.96642         2.88162         0.67113
| 86>    H        5.42821        -5.18834         0.38678
| 87>    H       -6.52163         3.76539        -3.11997
| 88>    H        6.18102        -6.06829         4.09560
| 89>    H       -8.97262         6.37400         2.06060
| 90>    H      -10.30879         7.65944        -2.56571
| 91>    H       10.31641        -9.18863         2.99859
| 92>    H        9.98483        -6.18019        -0.96329
| 93>    H       -4.27526         1.94588         2.69157
| 94>    H       -3.31317         0.45937         2.91823
| 95>    H       -6.17732         0.55197         1.84857
| 96>    H       -5.69451         0.05770         3.47345
| 97>    H       -5.20570        -0.90740         2.07867
| 98>    H        4.28192        -3.76217        -1.47368
| 99>    H        2.77907        -2.89506        -1.86928
|100>    H        2.96970        -5.90425        -1.33217
|101>    H        2.80732        -5.15558        -2.92490
|102>    H        1.49991        -5.01542        -1.74476
|103>    H       -0.69831        -3.80887        -3.27699
|104>    H       -1.49635        -2.68479        -4.38567
|105>    H       -1.84633        -2.61482        -2.65782
|106>    H        0.86046        -0.53532         4.56283
|107>    H        0.99996         1.22971         4.57913
|108>    H        1.28289         0.33580         3.08383
|109> *
|110>
|111>                          ****END OF INPUT****

CARTESIAN COORDINATES (ANGSTROEM)
---------------------------------
  C     -0.962560   -0.824110   -0.639950
  C     -1.498560   -0.520820    0.651560
  C     -0.891320   -0.980760    1.828330
  C      0.219360   -1.789890    1.647580
  C      0.738890   -2.115790    0.358210
  C      0.151970   -1.631060   -0.824000
  O      0.755810   -1.960840   -1.989070
  C      0.072230   -1.795350   -3.225600
  O     -1.377210   -0.652870    3.070090
  C     -0.795370    0.508270    3.665890
  O      0.947430   -2.348590    2.654330
  C      1.948520   -3.019780    2.042490
  C      1.875320   -2.919070    0.639400
  O     -1.673330   -0.209410   -1.643940
  C     -2.661380    0.468840   -1.020570
  C     -2.625070    0.301290    0.376000
  C     -3.719140    1.316310   -1.314630
  C     -4.314850    1.630660   -0.057120
  N     -3.638100    1.003520    0.960520
  S     -4.519630    2.104870   -2.611530
  C     -5.637680    2.878200   -1.465640
  C     -5.387090    2.504060   -0.150750
  C      3.076030   -3.768890    2.347670
  C      3.663100   -4.103230    1.092540
  N      2.922190   -3.578160    0.065720
  S      3.994010   -4.382750    3.662160
  C      5.195750   -5.029590    2.539320
  C      4.851930   -4.807940    1.210560
  C     -6.582700    3.741560   -2.038310
  C     -7.524090    4.573910   -1.481700
  C      6.299630   -5.710400    3.077150
  C      7.486550   -6.066360    2.493200
  C     -7.775400    4.862010   -0.056970
  C     -8.745840    5.979170   -0.041000
  C     -9.106240    6.314370   -1.354830
  C     -8.401890    5.419940   -2.273450
  C      8.288200   -7.146360    3.120200
  C      9.306210   -7.512600    2.107270
  C      9.199870   -6.645490    1.006440
  C      8.163010   -5.649550    1.290120
  C     -9.256360    6.644450    1.056080
  C    -10.147590    7.678610    0.822310
  C    -10.507910    8.023850   -0.480510
  C     -9.998560    7.351020   -1.581210
  C     10.234400   -8.533500    2.146120
  C     11.063850   -8.691530    1.046810
  C     10.955710   -7.842800   -0.054690
  C     10.030950   -6.809350   -0.089400
  F    -10.665430    8.354800    1.855230
  F    -11.365710    9.031140   -0.678020
  O     -7.312680    4.329840    0.932340
  C     -8.601550    5.383430   -3.628520
  C     -8.009080    4.483450   -4.541160
  C     -9.481010    6.245220   -4.319590
  C     -4.098290    0.929500    2.327190
  C     -5.378870    0.105170    2.435410
  C      3.197260   -3.750860   -1.338680
  C      2.579570   -5.042400   -1.868940
  C     -1.066860   -2.792290   -3.394220
  C      0.684690    0.371820    3.991360
  O      8.118180   -7.644430    4.208550
  C      8.061190   -4.434890    0.658900
  F     11.758800   -8.028010   -1.108590
  F     11.975540   -9.671400    1.039760
  N    -10.171430    6.914250   -4.946330
  N     -7.599670    3.790140   -5.360340
  C      7.258870   -3.370260    1.113830
  C      8.803530   -4.073830   -0.483350
  N      9.352200   -3.736790   -1.433670
  N      6.651040   -2.455150    1.447360
  H      0.846880   -1.976860   -3.975290
  H     -0.292770   -0.771050   -3.332310
  H     -1.370380    0.644070    4.585170
  H     -0.956650    1.376270    3.009680
  H     -5.966420    2.881620    0.671130
  H      5.428210   -5.188340    0.386780
  H     -6.521630    3.765390   -3.119970
  H      6.181020   -6.068290    4.095600
  H     -8.972620    6.374000    2.060600
  H    -10.308790    7.659440   -2.565710
  H     10.316410   -9.188630    2.998590
  H      9.984830   -6.180190   -0.963290
  H     -4.275260    1.945880    2.691570
  H     -3.313170    0.459370    2.918230
  H     -6.177320    0.551970    1.848570
  H     -5.694510    0.057700    3.473450
  H     -5.205700   -0.907400    2.078670
  H      4.281920   -3.762170   -1.473680
  H      2.779070   -2.895060   -1.869280
  H      2.969700   -5.904250   -1.332170
  H      2.807320   -5.155580   -2.924900
  H      1.499910   -5.015420   -1.744760
  H     -0.698310   -3.808870   -3.276990
  H     -1.496350   -2.684790   -4.385670
  H     -1.846330   -2.614820   -2.657820
  H      0.860460   -0.535320    4.562830
  H      0.999960    1.229710    4.579130
  H      1.282890    0.335800    3.083830

 Total Charge           Charge          ....    0
 Multiplicity           Mult            ....    1
 Number of Electrons    NEL             ....  498
 Basis Dimension        Dim             .... 1128

ORBITAL ENERGIES
----------------

  NO   OCC          E(Eh)            E(eV)
   0   2.0000     -88.971318     -2421.0326
   1   2.0000     -88.969109     -2420.9725
   2   2.0000     -24.802280      -674.9043
   3   2.0000     -24.800834      -674.8650
   4   2.0000     -24.800529      -674.8567
   5   2.0000     -24.800379      -674.8526
   6   2.0000     -19.303633      -525.2785
   7   2.0000     -19.298904      -525.1499
   8   2.0000     -19.270369      -524.3734
   9   2.0000     -19.252664      -523.8916
  10   2.0000     -19.224808      -523.1336
  11   2.0000     -19.216401      -522.9049
  12   2.0000     -14.484567      -394.1451
  13   2.0000     -14.481290      -394.0559
  14   2.0000     -14.418298      -392.3418
  15   2.0000     -14.417842      -392.3294
  16   2.0000     -14.417094      -392.3091
  17   2.0000     -14.415181      -392.2570
  18   2.0000     -10.386844      -282.6404
  19   2.0000     -10.386213      -282.6232
  20   2.0000     -10.386145      -282.6214
  21   2.0000     -10.385530      -282.6046
  22   2.0000     -10.376089      -282.3477
  23   2.0000     -10.368228      -282.1338
  24   2.0000     -10.364590      -282.0348
  25   2.0000     -10.356250      -281.8079
  26   2.0000     -10.353185      -281.7245
  27   2.0000     -10.348966      -281.6097
  28   2.0000     -10.345762      -281.5225
  29   2.0000     -10.345283      -281.5095
  30   2.0000     -10.344792      -281.4961
  31   2.0000     -10.344114      -281.4777
  32   2.0000     -10.343885      -281.4714
  33   2.0000     -10.340328      -281.3746
  34   2.0000     -10.336624      -281.2739
  35   2.0000     -10.334644      -281.2200
  36   2.0000     -10.331746      -281.1411
  37   2.0000     -10.326913      -281.0096
  38   2.0000     -10.325708      -280.9768
  39   2.0000     -10.325325      -280.9664
  40   2.0000     -10.323865      -280.9267
  41   2.0000     -10.323751      -280.9235
  42   2.0000     -10.322204      -280.8815
  43   2.0000     -10.321994      -280.8757
  44   2.0000     -10.321155      -280.8529
  45   2.0000     -10.321067      -280.8505
  46   2.0000     -10.321026      -280.8494
  47   2.0000     -10.319977      -280.8208
  48   2.0000     -10.318587      -280.7830
  49   2.0000     -10.318342      -280.7764
  50   2.0000     -10.317605      -280.7563
  51   2.0000     -10.316829      -280.7352
  52   2.0000     -10.316526      -280.7269
  53   2.0000     -10.316428      -280.7243
  54   2.0000     -10.313392      -280.6417
  55   2.0000     -10.309658      -280.5401
  56   2.0000     -10.308774      -280.5160
  57   2.0000     -10.308659      -280.5129
  58   2.0000     -10.308554      -280.5100
  59   2.0000     -10.308451      -280.5072
  60   2.0000     -10.306983      -280.4673
  61   2.0000     -10.302557      -280.3468
  62   2.0000     -10.301942      -280.3301
  63   2.0000     -10.299846      -280.2730
  64   2.0000     -10.298987      -280.2497
  65   2.0000     -10.294886      -280.1381
  66   2.0000     -10.276349      -279.6337
  67   2.0000     -10.274590      -279.5858
  68   2.0000     -10.273737      -279.5626
  69   2.0000     -10.266452      -279.3644
  70   2.0000      -8.065766      -219.4806
  71   2.0000      -8.063722      -219.4250
  72   2.0000      -6.035441      -164.2327
  73   2.0000      -6.033421      -164.1777
  74   2.0000      -6.031384      -164.1223
  75   2.0000      -6.029358      -164.0672
  76   2.0000      -6.027116      -164.0062
  77   2.0000      -6.025017      -163.9491
  78   2.0000      -1.325015       -36.0555
  79   2.0000      -1.324393       -36.0386
  80   2.0000      -1.309785       -35.6411
  81   2.0000      -1.309192       -35.6249
  82   2.0000      -1.221455       -33.2375
  83   2.0000      -1.218643       -33.1610
  84   2.0000      -1.171752       -31.8850
  85   2.0000      -1.152979       -31.3742
  86   2.0000      -1.139463       -31.0064
  87   2.0000      -1.132304       -30.8116
  88   2.0000      -1.108912       -30.1750
  89   2.0000      -1.106008       -30.0960
  90   2.0000      -1.022738       -27.8301
  91   2.0000      -1.022677       -27.8285
  92   2.0000      -1.004351       -27.3298
  93   2.0000      -1.003441       -27.3050
  94   2.0000      -0.997406       -27.1408
  95   2.0000      -0.995489       -27.0886
  96   2.0000      -0.991928       -26.9917
  97   2.0000      -0.989408       -26.9232
  98   2.0000      -0.972220       -26.4554
  99   2.0000      -0.958176       -26.0733
 100   2.0000      -0.956989       -26.0410
 101   2.0000      -0.931579       -25.3496
 102   2.0000      -0.926885       -25.2218
 103   2.0000      -0.909946       -24.7609
 104   2.0000      -0.904853       -24.6223
 105   2.0000      -0.901345       -24.5269
 106   2.0000      -0.886774       -24.1304
 107   2.0000      -0.880854       -23.9693
 108   2.0000      -0.875483       -23.8231
 109   2.0000      -0.874876       -23.8066
 110   2.0000      -0.873062       -23.7572
 111   2.0000      -0.864696       -23.5296
 112   2.0000      -0.862226       -23.4624
 113   2.0000      -0.857503       -23.3338
 114   2.0000      -0.837862       -22.7994
 115   2.0000      -0.835475       -22.7344
 116   2.0000      -0.830889       -22.6096
 117   2.0000      -0.826613       -22.4933
 118   2.0000      -0.809900       -22.0385
 119   2.0000      -0.799406       -21.7529
 120   2.0000      -0.777572       -21.1588
 121   2.0000      -0.775193       -21.0941
 122   2.0000      -0.771458       -20.9924
 123   2.0000      -0.763929       -20.7876
 124   2.0000      -0.754794       -20.5390
 125   2.0000      -0.747394       -20.3376
 126   2.0000      -0.742495       -20.2043
 127   2.0000      -0.730274       -19.8718
 128   2.0000      -0.725021       -19.7288
 129   2.0000      -0.717558       -19.5257
 130   2.0000      -0.716370       -19.4934
 131   2.0000      -0.709706       -19.3121
 132   2.0000      -0.706138       -19.2150
 133   2.0000      -0.703153       -19.1338
 134   2.0000      -0.695018       -18.9124
 135   2.0000      -0.689377       -18.7589
 136   2.0000      -0.678655       -18.4671
 137   2.0000      -0.669147       -18.2084
 138   2.0000      -0.664561       -18.0836
 139   2.0000      -0.660714       -17.9789
 140   2.0000      -0.650267       -17.6947
 141   2.0000      -0.645746       -17.5716
 142   2.0000      -0.644403       -17.5351
 143   2.0000      -0.641491       -17.4559
 144   2.0000      -0.640642       -17.4328
 145   2.0000      -0.632057       -17.1991
 146   2.0000      -0.624556       -16.9950
 147   2.0000      -0.619774       -16.8649
 148   2.0000      -0.615791       -16.7565
 149   2.0000      -0.612248       -16.6601
 150   2.0000      -0.610624       -16.6159
 151   2.0000      -0.606134       -16.4938
 152   2.0000      -0.604524       -16.4499
 153   2.0000      -0.599337       -16.3088
 154   2.0000      -0.596083       -16.2202
 155   2.0000      -0.593313       -16.1449
 156   2.0000      -0.590068       -16.0566
 157   2.0000      -0.589882       -16.0515
 158   2.0000      -0.588968       -16.0266
 159   2.0000      -0.585649       -15.9363
 160   2.0000      -0.574397       -15.6301
 161   2.0000      -0.573968       -15.6185
 162   2.0000      -0.569559       -15.4985
 163   2.0000      -0.565714       -15.3939
 164   2.0000      -0.562329       -15.3018
 165   2.0000      -0.557766       -15.1776
 166   2.0000      -0.554389       -15.0857
 167   2.0000      -0.552923       -15.0458
 168   2.0000      -0.552390       -15.0313
 169   2.0000      -0.550345       -14.9757
 170   2.0000      -0.549954       -14.9650
 171   2.0000      -0.549446       -14.9512
 172   2.0000      -0.545290       -14.8381
 173   2.0000      -0.542228       -14.7548
 174   2.0000      -0.539764       -14.6877
 175   2.0000      -0.537009       -14.6128
 176   2.0000      -0.536408       -14.5964
 177   2.0000      -0.533060       -14.5053
 178   2.0000      -0.532324       -14.4853
 179   2.0000      -0.531793       -14.4708
 180   2.0000      -0.526614       -14.3299
 181   2.0000      -0.524771       -14.2798
 182   2.0000      -0.522728       -14.2241
 183   2.0000      -0.515386       -14.0244
 184   2.0000      -0.509896       -13.8750
 185   2.0000      -0.508508       -13.8372
 186   2.0000      -0.505837       -13.7645
 187   2.0000      -0.500977       -13.6323
 188   2.0000      -0.498432       -13.5630
 189   2.0000      -0.497928       -13.5493
 190   2.0000      -0.497268       -13.5314
 191   2.0000      -0.494489       -13.4557
 192   2.0000      -0.493358       -13.4249
 193   2.0000      -0.489679       -13.3248
 194   2.0000      -0.487861       -13.2754
 195   2.0000      -0.484983       -13.1970
 196   2.0000      -0.481725       -13.1084
 197   2.0000      -0.480794       -13.0831
 198   2.0000      -0.476631       -12.9698
 199   2.0000      -0.475381       -12.9358
 200   2.0000      -0.469050       -12.7635
 201   2.0000      -0.466832       -12.7031
 202   2.0000      -0.466649       -12.6982
 203   2.0000      -0.462836       -12.5944
 204   2.0000      -0.460204       -12.5228
 205   2.0000      -0.458832       -12.4855
 206   2.0000      -0.458642       -12.4803
 207   2.0000      -0.456789       -12.4299
 208   2.0000      -0.455812       -12.4033
 209   2.0000      -0.453407       -12.3378
 210   2.0000      -0.451831       -12.2949
 211   2.0000      -0.451503       -12.2860
 212   2.0000      -0.449980       -12.2446
 213   2.0000      -0.447392       -12.1742
 214   2.0000      -0.445591       -12.1251
 215   2.0000      -0.445053       -12.1105
 216   2.0000      -0.443528       -12.0690
 217   2.0000      -0.442330       -12.0364
 218   2.0000      -0.441081       -12.0024
 219   2.0000      -0.434578       -11.8255
 220   2.0000      -0.432901       -11.7798
 221   2.0000      -0.429987       -11.7005
 222   2.0000      -0.428544       -11.6613
 223   2.0000      -0.427066       -11.6211
 224   2.0000      -0.425356       -11.5745
 225   2.0000      -0.425136       -11.5685
 226   2.0000      -0.416953       -11.3459
 227   2.0000      -0.414075       -11.2676
 228   2.0000      -0.411384       -11.1943
 229   2.0000      -0.408797       -11.1239
 230   2.0000      -0.406464       -11.0604
 231   2.0000      -0.398495       -10.8436
 232   2.0000      -0.378486       -10.2991
 233   2.0000      -0.371957       -10.1215
 234   2.0000      -0.370543       -10.0830
 235   2.0000      -0.364446        -9.9171
 236   2.0000      -0.354673        -9.6511
 237   2.0000      -0.350563        -9.5393
 238   2.0000      -0.347476        -9.4553
 239   2.0000      -0.345216        -9.3938
 240   2.0000      -0.339653        -9.2424
 241   2.0000      -0.330009        -8.9800
 242   2.0000      -0.316596        -8.6150
 243   2.0000      -0.314174        -8.5491
 244   2.0000      -0.311072        -8.4647
 245   2.0000      -0.296929        -8.0799
 246   2.0000      -0.281953        -7.6723
 247   2.0000      -0.275014        -7.4835
 248   2.0000      -0.240351        -6.5403
 249   0.0000      -0.099831        -2.7165
 250   0.0000      -0.088119        -2.3978
 251   0.0000      -0.067009        -1.8234
 252   0.0000      -0.061257        -1.6669
 253   0.0000      -0.023159        -0.6302

MULLIKEN ATOMIC CHARGES
-----------------------
   0 C :    0.086064
   1 C :    0.069908
   2 C :   -0.051707
   3 C :    0.150767
   4 C :    0.013536
   5 C :    0.054064
   6 O :   -0.317402
   7 C :    0.168926
   8 O :   -0.341079
   9 C :    0.169393
  10 O :   -0.209822
  11 C :    0.072562
  12 C :    0.047243
  13 O :   -0.234517
  14 C :    0.069772
  15 C :    0.031788
  16 C :   -0.064364
  17 C :    0.121753
  18 N :   -0.150851
  19 S :    0.162724
  20 C :   -0.107313
  21 C :   -0.051818
  22 C :   -0.067693
  23 C :    0.123885
  24 N :   -0.151108
  25 S :    0.171530
  26 C :   -0.110566
  27 C :   -0.029526
  28 C :    0.041485
  29 C :   -0.091864
  30 C :    0.083140
  31 C :   -0.150181
  32 C :    0.149849
  33 C :   -0.002611
  34 C :    0.041877
  35 C :    0.300237
  36 C :    0.131476
  37 C :    0.015108
  38 C :    0.020977
  39 C :    0.269358
  40 C :   -0.104182
  41 C :    0.233053
  42 C :    0.235786
  43 C :   -0.085985
  44 C :   -0.102209
  45 C :    0.231549
  46 C :    0.234250
  47 C :   -0.090778
  48 F :   -0.169999
  49 F :   -0.165734
  50 O :   -0.163131
  51 C :   -0.356849
  52 C :   -0.190691
  53 C :   -0.192145
  54 C :    0.097447
  55 C :   -0.006377
  56 C :    0.105742
  57 C :   -0.001551
  58 C :   -0.022991
  59 C :   -0.001849
  60 O :   -0.142794
  61 C :   -0.350260
  62 F :   -0.166992
  63 F :   -0.170548
  64 N :    0.155351
  65 N :    0.155592
  66 C :   -0.209624
  67 C :   -0.183342
  68 N :    0.154161
  69 N :    0.176614
  70 H :    0.022865
  71 H :    0.036303
  72 H :    0.027359
  73 H :    0.006089
  74 H :    0.009568
  75 H :   -0.002081
  76 H :    0.006517
  77 H :    0.022048
  78 H :    0.007427
  79 H :    0.015447
  80 H :    0.011938
  81 H :    0.015639
  82 H :    0.030553
  83 H :    0.045656
  84 H :    0.030899
  85 H :    0.028193
  86 H :    0.026695
  87 H :    0.027772
  88 H :    0.044813
  89 H :    0.021334
  90 H :    0.025985
  91 H :    0.026071
  92 H :    0.023446
  93 H :    0.029708
  94 H :    0.031400
  95 H :    0.036761
  96 H :    0.022461
  97 H :    0.032618
Sum of atomic charges:   -0.0000000

LOEWDIN ATOMIC CHARGES
----------------------
   0 C :    0.021823
   1 C :   -0.059858
   2 C :    0.004695
   3 C :    0.046402
   4 C :   -0.071341
   5 C :    0.031044
   6 O :   -0.091573
   7 C :    0.081319
   8 O :   -0.127814
   9 C :    0.081716
  10 O :   -0.005572
  11 C :   -0.009904
  12 C :    0.001967
  13 O :   -0.022063
  14 C :   -0.013178
  15 C :   -0.000501
  16 C :   -0.200136
  17 C :   -0.018592
  18 N :    0.047194
  19 S :    0.430583
  20 C :   -0.174484
  21 C :   -0.018022
  22 C :   -0.198915
  23 C :   -0.010151
  24 N :    0.051859
  25 S :    0.436015
  26 C :   -0.180082
  27 C :   -0.021352
  28 C :    0.048664
  29 C :   -0.112593
  30 C :    0.052365
  31 C :   -0.113832
  32 C :    0.088278
  33 C :   -0.044318
  34 C :   -0.014912
  35 C :    0.076582
  36 C :    0.081653
  37 C :   -0.046050
  38 C :   -0.013232
  39 C :    0.065972
  40 C :   -0.007885
  41 C :    0.069559
  42 C :    0.072845
  43 C :   -0.018001
  44 C :   -0.005874
  45 C :    0.068506
  46 C :    0.072620
  47 C :   -0.022774
  48 F :   -0.046665
  49 F :   -0.044075
  50 O :   -0.150787
  51 C :   -0.142583
  52 C :   -0.025245
  53 C :   -0.019788
  54 C :    0.040597
  55 C :   -0.057790
  56 C :    0.042139
  57 C :   -0.060629
  58 C :   -0.069468
  59 C :   -0.070102
  60 O :   -0.143433
  61 C :   -0.150146
  62 F :   -0.044987
  63 F :   -0.046684
  64 N :   -0.051690
  65 N :   -0.049551
  66 C :   -0.020334
  67 C :   -0.024069
  68 N :   -0.055104
  69 N :   -0.043218
  70 H :    0.024762
  71 H :    0.018132
  72 H :    0.023253
  73 H :    0.009870
  74 H :    0.034782
  75 H :    0.035756
  76 H :    0.043329
  77 H :    0.046024
  78 H :    0.050133
  79 H :    0.051269
  80 H :    0.052070
  81 H :    0.050368
  82 H :    0.029115
  83 H :    0.033646
  84 H :    0.027841
  85 H :    0.033437
  86 H :    0.030479
  87 H :    0.029320
  88 H :    0.031577
  89 H :    0.025898
  90 H :    0.031207
  91 H :    0.026776
  92 H :    0.027383
  93 H :    0.037097
  94 H :    0.027714
  95 H :    0.031450
  96 H :    0.034047
  97 H :    0.028218

  Mayer bond orders larger than 0.100000
B(  0-C ,  1-C ) :   1.2463 B(  0-C ,  5-C ) :   1.3077 B(  0-C , 13-O ) :   1.0546
B(  1-C ,  2-C ) :   1.2645 B(  1-C ,  4-C ) :   0.1446 B(  1-C , 15-C ) :   1.1188
B(  2-C ,  3-C ) :   1.3487 B(  2-C ,  8-O ) :   1.1923 B(  3-C ,  4-C ) :   1.2744
B(  3-C , 10-O ) :   1.1052 B(  4-C ,  5-C ) :   1.2794 B(  4-C , 12-C ) :   1.1098
B(  5-C ,  6-O ) :   1.2264 B(  6-O ,  7-C ) :   0.9117 B(  7-C , 58-C ) :   1.1136
B(  7-C , 70-H ) :   0.9574 B(  7-C , 71-H ) :   0.9483 B(  8-O ,  9-C ) :   0.9058
B(  9-C , 59-C ) :   1.1279 B(  9-C , 72-H ) :   0.9577 B(  9-C , 73-H ) :   0.9451
B( 10-O , 11-C ) :   1.1009 B( 11-C , 12-C ) :   1.3665 B( 11-C , 22-C ) :   1.4069
B( 12-C , 24-N ) :   1.1991 B( 13-O , 14-C ) :   1.0953 B( 14-C , 15-C ) :   1.3695
B( 14-C , 16-C ) :   1.4013 B( 15-C , 18-N ) :   1.1985 B( 16-C , 17-C ) :   1.3080
B( 16-C , 19-S ) :   1.0252 B( 17-C , 18-N ) :   1.1334 B( 17-C , 21-C ) :   1.2652
B( 18-N , 54-C ) :   0.9403 B( 19-S , 20-C ) :   1.0458 B( 20-C , 21-C ) :   1.3830
B( 20-C , 28-C ) :   1.2749 B( 21-C , 74-H ) :   0.9820 B( 22-C , 23-C ) :   1.3178
B( 22-C , 25-S ) :   1.0202 B( 23-C , 24-N ) :   1.1373 B( 23-C , 27-C ) :   1.3232
B( 24-N , 56-C ) :   0.9469 B( 25-S , 26-C ) :   1.0555 B( 26-C , 27-C ) :   1.3736
B( 26-C , 30-C ) :   1.1990 B( 27-C , 75-H ) :   0.9939 B( 28-C , 29-C ) :   1.5383
B( 28-C , 76-H ) :   0.9091 B( 29-C , 32-C ) :   0.9585 B( 29-C , 35-C ) :   1.0989
B( 30-C , 31-C ) :   1.5913 B( 30-C , 77-H ) :   0.9274 B( 31-C , 36-C ) :   0.9606
B( 31-C , 39-C ) :   1.0719 B( 32-C , 33-C ) :   0.9669 B( 32-C , 50-O ) :   2.1481
B( 33-C , 34-C ) :   1.3456 B( 33-C , 40-C ) :   1.3179 B( 34-C , 35-C ) :   0.9961
B( 34-C , 43-C ) :   1.3157 B( 35-C , 51-C ) :   1.6214 B( 36-C , 37-C ) :   0.9267
B( 36-C , 60-O ) :   2.2647 B( 37-C , 38-C ) :   1.3459 B( 37-C , 44-C ) :   1.3251
B( 38-C , 39-C ) :   1.0119 B( 38-C , 47-C ) :   1.3226 B( 39-C , 61-C ) :   1.6223
B( 40-C , 41-C ) :   1.3156 B( 40-C , 43-C ) :   0.1046 B( 40-C , 78-H ) :   1.0210
B( 41-C , 42-C ) :   1.2909 B( 41-C , 48-F ) :   1.1308 B( 42-C , 43-C ) :   1.3340
B( 42-C , 49-F ) :   1.1451 B( 43-C , 79-H ) :   0.9926 B( 44-C , 45-C ) :   1.3173
B( 44-C , 47-C ) :   0.1046 B( 44-C , 80-H ) :   1.0199 B( 45-C , 46-C ) :   1.2953
B( 45-C , 63-F ) :   1.1293 B( 46-C , 47-C ) :   1.3331 B( 46-C , 62-F ) :   1.1408
B( 47-C , 81-H ) :   0.9933 B( 50-O , 74-H ) :   0.1046 B( 51-C , 52-C ) :   1.1390
B( 51-C , 53-C ) :   1.1445 B( 52-C , 65-N ) :   2.9737 B( 53-C , 64-N ) :   2.9777
B( 54-C , 55-C ) :   1.1130 B( 54-C , 82-H ) :   0.9461 B( 54-C , 83-H ) :   0.9355
B( 55-C , 84-H ) :   0.9687 B( 55-C , 85-H ) :   0.9659 B( 55-C , 86-H ) :   0.9666
B( 56-C , 57-C ) :   1.1065 B( 56-C , 87-H ) :   0.9472 B( 56-C , 88-H ) :   0.9370
B( 57-C , 89-H ) :   0.9677 B( 57-C , 90-H ) :   0.9685 B( 57-C , 91-H ) :   0.9669
B( 58-C , 92-H ) :   0.9653 B( 58-C , 93-H ) :   0.9613 B( 58-C , 94-H ) :   0.9658
B( 59-C , 95-H ) :   0.9596 B( 59-C , 96-H ) :   0.9569 B( 59-C , 97-H ) :   0.9634
B( 61-C , 66-C ) :   1.1736 B( 61-C , 67-C ) :   1.1268 B( 66-C , 69-N ) :   2.9991
B( 67-C , 68-N ) :   2.9919

-----------------------------------------------------------------------------
         ABSORPTION SPECTRUM VIA TRANSITION ELECTRIC DIPOLE MOMENTS
-----------------------------------------------------------------------------
State   Energy  Wavelength   fosc         T2         TX        TY        TZ
        (cm-1)    (nm)                  (au**2)     (au)      (au)      (au)
-----------------------------------------------------------------------------
   0   15944.4    627.2   2.069075179  42.72114   5.49716  -3.28904   1.29789
   1   19386.8    515.8   0.448778641   7.62083   1.34190  -2.00172   1.34658
   2   23929.3    417.9   0.042452485   0.58405  -0.11862   0.44793  -0.60773
   3   24384.4    410.1   0.420881594   5.68230  -1.95131   1.10604   0.80707
   4   24757.6    403.9   0.148653328   1.97671   1.03382  -0.70380   0.64233
   5   25385.6    393.9   0.104946076   1.36099  -0.53727   1.00485  -0.25020
   6   26216.1    381.4   0.028565926   0.35872  -0.42263   0.23822   0.35122
   7   28369.6    352.5   0.010581379   0.12279   0.32516   0.13058   0.00329
   8   30288.6    330.2   0.167120848   1.81646   0.70609  -1.14740  -0.03707
   9   30450.8    328.4   0.029537353   0.31934  -0.28722   0.25806  -0.41260
  10   30895.8    323.7   0.079973238   0.85216  -0.55287   0.65474   0.34324
  11   31268.6    319.8   0.024436334   0.25728   0.21702  -0.31781  -0.33042
  12   31536.9    317.1   0.027075057   0.28263  -0.21499   0.28081   0.39694
  13   32147.9    311.1   0.057317744   0.58696  -0.47695   0.59847   0.03637
  14   32666.7    306.1   0.130343732   1.31359  -0.44854   0.79937  -0.68804
  15   32798.3    304.9   0.204460192   2.05227  -0.37911   0.60857   1.24024
  16   33365.0    299.7   0.021462822   0.21177   0.09883  -0.21997  -0.39194
  17   33530.1    298.2   0.000454996   0.00447  -0.01842   0.04610  -0.04475
  18   33898.1    295.0   0.134142833   1.30277   0.87537  -0.69862   0.22009
  19   34042.0    293.8   0.003683498   0.03562   0.02844   0.04100  -0.18202
  20   34827.2    287.1   0.085380301   0.80708   0.66587  -0.58274  -0.15528
  21   35259.5    283.6   0.204592159   1.91024   0.70892  -0.95337   0.70623
  22   36246.8    275.9   0.016733577   0.15198  -0.25654   0.01685   0.29307
  23   36462.2    274.3   0.155985566   1.40837   0.11066  -0.04759   1.18062
  24   36954.3    270.6   0.235820834   2.10084  -0.33179   0.59745  -1.27820
  25   37353.1    267.7   0.548263732   4.83213  -0.67867   1.43160   1.52383
  26   37716.1    265.1   0.091933573   0.80246   0.45825  -0.58164   0.50414
  27   38472.0    259.9   0.207112951   1.77230   0.48033  -0.49204   1.13995
  28   38599.2    259.1   0.141566500   1.20742   0.10948  -0.81608   0.72763
  29   38882.0    257.2   0.061919117   0.52427   0.23340   0.28204  -0.62469
  30   39560.3    252.8   0.013900405   0.11568  -0.12309   0.24522  -0.20097
  31   39777.7    251.4   0.000816379   0.00676   0.06532  -0.04367   0.02414

FINAL SINGLE POINT ENERGY     -3969.753717247055

DIPOLE MOMENT
-------------
                                X             Y             Z
Electronic contribution:      9.73314      15.21971      -2.50591
Nuclear contribution   :     -9.96716     -16.67571       4.05533
                        -----------------------------------------
Total Dipole Moment    :     -0.23402      -1.45599       1.54942
                        -----------------------------------------
Magnitude (a.u.)       :      2.13901
Magnitude (Debye)      :      5.43693

Rotational constants in cm-1:     0.003323     0.000238     0.000228
Rotational constants in MHz :    99.635507     7.128280     6.828486

                             ****ORCA TERMINATED NORMALLY****
TOTAL RUN TIME: 0 days 0 hours 55 minutes 13 seconds 464 msec
