                         Program Version 4.2.0 -  RELEASE  -
|  1> # ORCA input file
|  2> # N3.out
|  3> ! CAM-B3LYP def2-SVP def2/J RIJCOSX Grid4 TightSCF
|  4> %maxcore 5000
|  5> %tddft
|  6>     Mode sTDDFT
|  7>     Ethresh 5.0
|  8>     maxcore 5000
|  9> end
| 10> * xyz 0 1
| 11>    C        2.95748         4.00128         0.96639
| 12>    O        4.06750         4.15209         0.48542
| 13>    C        2.06117         5.08219         1.42870
| 14>    C        2.28155         6.44451         1.41448
| 15>    C        1.27828         7.26203         1.90967
| 16>    F        1.44860         8.59038         1.91565
| 17>    C        0.09409         6.71418         2.40147
| 18>    F       -0.85793         7.52682         2.87420
| 19>    C       -0.12592         5.34423         2.41525
| 20>    C        0.87249         4.51965         1.92211
| 21>    C        0.95522         3.06243         1.79646
| 22>    C       -0.03554         2.18678         2.16267
| 23>    C        0.01316         0.78315         2.03519
| 24>    N       -0.02849        -0.36296         1.96157
| 25>    C       -1.26909         2.57915         2.72406
| 26>    N       -2.29039         2.82897         3.18447
| 27>    C        2.24394         2.75134         1.21625
| 28>    C        2.71721         1.48033         0.96970
| 29>    C        3.91558         1.04110         0.41020
| 30>    S        5.20648         2.09491        -0.17723
| 31>    C        6.13378         0.72072        -0.64594
| 32>    C        5.47387        -0.48631        -0.34605
| 33>    C        4.23024        -0.32253         0.24292
| 34>    C        3.33909        -1.47092         0.58428
| 35>    C        2.33746        -1.73333        -0.54414
| 36>    S        6.39707        -1.91583        -0.77279
| 37>    C        7.65994        -0.88595        -1.34775
| 38>    C        7.38014         0.48098        -1.22798
| 39>    N        8.43136         1.21925        -1.70907
| 40>    C        8.54106         2.60585        -1.31689
| 41>    C        9.43307         2.80610        -0.08498
| 42>    C        9.40281         0.33671        -2.14549
| 43>    C        8.94589        -0.99199        -1.89299
| 44>    C        9.76935        -2.11944        -2.09683
| 45>    N        9.49234        -3.39351        -1.86716
| 46>    S       10.81182        -4.27081        -2.19673
| 47>    N       11.78360        -3.06023        -2.64748
| 48>    C       11.11217        -1.92198        -2.55839
| 49>    C       11.52081        -0.62053        -2.92293
| 50>    C       10.65953         0.50116        -2.79217
| 51>    N       11.27120         1.59131        -3.40665
| 52>    C       10.70754         2.84043        -3.86873
| 53>    C       11.09761         4.05565        -3.01516
| 54>    C       12.47223         1.15776        -3.87540
| 55>    C       12.68829        -0.18490        -3.59254
| 56>    S       13.70711         1.85235        -4.85096
| 57>    C       14.59157         0.33467        -4.81096
| 58>    C       13.91610        -0.65312        -4.12993
| 59>    S       14.51494        -2.28238        -3.91107
| 60>    C       16.67105        -0.76141        -5.22645
| 61>    C       15.84985         0.21711        -5.51448
| 62>    C       16.17834         1.26861        -6.54624
| 63>    C       17.47991         0.98755        -7.28238
| 64>    C       17.41396        -1.82579        -5.08918
| 65>    C       17.02006        -3.04276        -5.78173
| 66>    C       17.87847        -4.01474        -6.41760
| 67>    C       19.23441        -3.91901        -6.57160
| 68>    C       20.01903        -4.87920        -7.24411
| 69>    N       20.69907        -5.63493        -7.77566
| 70>    C       19.99612        -2.82899        -6.09765
| 71>    N       20.65501        -1.95789        -5.74617
| 72>    C       17.00715        -5.06594        -6.95186
| 73>    C       17.27796        -6.24898        -7.60719
| 74>    C       16.19983        -7.04370        -7.98663
| 75>    F       16.44014        -8.19756        -8.62497
| 76>    C       14.88942        -6.66823        -7.71397
| 77>    F       13.87665        -7.45919        -8.09436
| 78>    C       14.60740        -5.48080        -7.04874
| 79>    C       15.67420        -4.69132        -6.67661
| 80>    C       15.70771        -3.42474        -5.95221
| 81>    O       14.58377        -2.84835        -5.52228
| 82>    C       12.50534         4.61803        -3.25965
| 83>    C       12.62293         5.24286        -4.64633
| 84>    C        8.84351         2.22613         1.21462
| 85>    C        9.42640         0.84470         1.50893
| 86>    C        9.09118         3.19023         2.38243
| 87>    C        8.37608         2.77921         3.66384
| 88>    C       12.81751         5.64556        -2.16271
| 89>    C       14.26275         6.12918        -2.17490
| 90>    H        3.19916         6.86327         1.03341
| 91>    H       -1.05858         4.97345         2.80700
| 92>    H        2.05748         0.67237         1.25437
| 93>    H        2.79752        -1.28741         1.51322
| 94>    H        3.96218        -2.35709         0.72015
| 95>    H        1.69690        -0.86871        -0.70049
| 96>    H        1.71041        -2.58214        -0.28792
| 97>    H        2.86142        -1.95155        -1.47175
| 98>    H        7.52880         2.94637        -1.08498
| 99>    H        8.90899         3.20978        -2.14151
|100>    H        9.57087         3.88290         0.03136
|101>    H       10.41290         2.35856        -0.26781
|102>    H        9.62257         2.72646        -3.91300
|103>    H       11.05874         2.99023        -4.89455
|104>    H       11.02756         3.78055        -1.96314
|105>    H       10.37431         4.85198        -3.20626
|106>    H       16.23740         2.23753        -6.04013
|107>    H       15.35022         1.32253        -7.25913
|108>    H       18.31304         0.93993        -6.58515
|109>    H       17.67707         1.77323        -8.00730
|110>    H       17.42266         0.03722        -7.80885
|111>    H       18.27671        -1.84689        -4.43937
|112>    H       18.27774        -6.58441        -7.83031
|113>    H       13.58776        -5.20190        -6.83886
|114>    H       13.23220         3.80535        -3.17265
|115>    H       11.92016         6.06675        -4.75063
|116>    H       12.42200         4.51526        -5.42824
|117>    H       13.62684         5.62178        -4.80870
|118>    H        7.75981         2.13293         1.09450
|119>    H       10.47936         0.92793         1.77260
|120>    H        9.34397         0.18779         0.64728
|121>    H        8.90206         0.37276         2.33489
|122>    H        8.73368         4.18171         2.09420
|123>    H       10.16503         3.26338         2.57017
|124>    H        7.31146         2.65263         3.47836
|125>    H        8.50138         3.54717         4.42351
|126>    H        8.77293         1.84805         4.05841
|127>    H       12.61564         5.18988        -1.18987
|128>    H       12.14684         6.50085        -2.27082
|129>    H       14.94761         5.28465        -2.14222
|130>    H       14.45204         6.75640        -1.30705
|131>    H       14.47783         6.71471        -3.06413
|132> *
|133>
|134>                          ****END OF INPUT****

CARTESIAN COORDINATES (ANGSTROEM)
---------------------------------
  C      2.957480    4.001280    0.966390
  O      4.067500    4.152090    0.485420
  C      2.061170    5.082190    1.428700
  C      2.281550    6.444510    1.414480
  C      1.278280    7.262030    1.909670
  F      1.448600    8.590380    1.915650
  C      0.094090    6.714180    2.401470
  F     -0.857930    7.526820    2.874200
  C     -0.125920    5.344230    2.415250
  C      0.872490    4.519650    1.922110
  C      0.955220    3.062430    1.796460
  C     -0.035540    2.186780    2.162670
  C      0.013160    0.783150    2.035190
  N     -0.028490   -0.362960    1.961570
  C     -1.269090    2.579150    2.724060
  N     -2.290390    2.828970    3.184470
  C      2.243940    2.751340    1.216250
  C      2.717210    1.480330    0.969700
  C      3.915580    1.041100    0.410200
  S      5.206480    2.094910   -0.177230
  C      6.133780    0.720720   -0.645940
  C      5.473870   -0.486310   -0.346050
  C      4.230240   -0.322530    0.242920
  C      3.339090   -1.470920    0.584280
  C      2.337460   -1.733330   -0.544140
  S      6.397070   -1.915830   -0.772790
  C      7.659940   -0.885950   -1.347750
  C      7.380140    0.480980   -1.227980
  N      8.431360    1.219250   -1.709070
  C      8.541060    2.605850   -1.316890
  C      9.433070    2.806100   -0.084980
  C      9.402810    0.336710   -2.145490
  C      8.945890   -0.991990   -1.892990
  C      9.769350   -2.119440   -2.096830
  N      9.492340   -3.393510   -1.867160
  S     10.811820   -4.270810   -2.196730
  N     11.783600   -3.060230   -2.647480
  C     11.112170   -1.921980   -2.558390
  C     11.520810   -0.620530   -2.922930
  C     10.659530    0.501160   -2.792170
  N     11.271200    1.591310   -3.406650
  C     10.707540    2.840430   -3.868730
  C     11.097610    4.055650   -3.015160
  C     12.472230    1.157760   -3.875400
  C     12.688290   -0.184900   -3.592540
  S     13.707110    1.852350   -4.850960
  C     14.591570    0.334670   -4.810960
  C     13.916100   -0.653120   -4.129930
  S     14.514940   -2.282380   -3.911070
  C     16.671050   -0.761410   -5.226450
  C     15.849850    0.217110   -5.514480
  C     16.178340    1.268610   -6.546240
  C     17.479910    0.987550   -7.282380
  C     17.413960   -1.825790   -5.089180
  C     17.020060   -3.042760   -5.781730
  C     17.878470   -4.014740   -6.417600
  C     19.234410   -3.919010   -6.571600
  C     20.019030   -4.879200   -7.244110
  N     20.699070   -5.634930   -7.775660
  C     19.996120   -2.828990   -6.097650
  N     20.655010   -1.957890   -5.746170
  C     17.007150   -5.065940   -6.951860
  C     17.277960   -6.248980   -7.607190
  C     16.199830   -7.043700   -7.986630
  F     16.440140   -8.197560   -8.624970
  C     14.889420   -6.668230   -7.713970
  F     13.876650   -7.459190   -8.094360
  C     14.607400   -5.480800   -7.048740
  C     15.674200   -4.691320   -6.676610
  C     15.707710   -3.424740   -5.952210
  O     14.583770   -2.848350   -5.522280
  C     12.505340    4.618030   -3.259650
  C     12.622930    5.242860   -4.646330
  C      8.843510    2.226130    1.214620
  C      9.426400    0.844700    1.508930
  C      9.091180    3.190230    2.382430
  C      8.376080    2.779210    3.663840
  C     12.817510    5.645560   -2.162710
  C     14.262750    6.129180   -2.174900
  H      3.199160    6.863270    1.033410
  H     -1.058580    4.973450    2.807000
  H      2.057480    0.672370    1.254370
  H      2.797520   -1.287410    1.513220
  H      3.962180   -2.357090    0.720150
  H      1.696900   -0.868710   -0.700490
  H      1.710410   -2.582140   -0.287920
  H      2.861420   -1.951550   -1.471750
  H      7.528800    2.946370   -1.084980
  H      8.908990    3.209780   -2.141510
  H      9.570870    3.882900    0.031360
  H     10.412900    2.358560   -0.267810
  H      9.622570    2.726460   -3.913000
  H     11.058740    2.990230   -4.894550
  H     11.027560    3.780550   -1.963140
  H     10.374310    4.851980   -3.206260
  H     16.237400    2.237530   -6.040130
  H     15.350220    1.322530   -7.259130
  H     18.313040    0.939930   -6.585150
  H     17.677070    1.773230   -8.007300
  H     17.422660    0.037220   -7.808850
  H     18.276710   -1.846890   -4.439370
  H     18.277740   -6.584410   -7.830310
  H     13.587760   -5.201900   -6.838860
  H     13.232200    3.805350   -3.172650
  H     11.920160    6.066750   -4.750630
  H     12.422000    4.515260   -5.428240
  H     13.626840    5.621780   -4.808700
  H      7.759810    2.132930    1.094500
  H     10.479360    0.927930    1.772600
  H      9.343970    0.187790    0.647280
  H      8.902060    0.372760    2.334890
  H      8.733680    4.181710    2.094200
  H     10.165030    3.263380    2.570170
  H      7.311460    2.652630    3.478360
  H      8.501380    3.547170    4.423510
  H      8.772930    1.848050    4.058410
  H     12.615640    5.189880   -1.189870
  H     12.146840    6.500850   -2.270820
  H     14.947610    5.284650   -2.142220
  H     14.452040    6.756400   -1.307050
  H     14.477830    6.714710   -3.064130

 Total Charge           Charge          ....    0
 Multiplicity           Mult            ....    1
 Number of Electrons    NEL             ....  590
 Basis Dimension        Dim             .... 1336

ORBITAL ENERGIES
----------------

  NO   OCC          E(Eh)            E(eV)
   0   2.0000     -89.009246     -2422.0647
   1   2.0000     -88.984889     -2421.4019
   2   2.0000     -88.980207     -2421.2745
   3   2.0000     -88.970245     -2421.0034
   4   2.0000     -88.967259     -2420.9222
   5   2.0000     -24.803195      -674.9293
   6   2.0000     -24.801146      -674.8735
   7   2.0000     -24.796392      -674.7441
   8   2.0000     -24.792938      -674.6501
   9   2.0000     -19.286383      -524.8092
  10   2.0000     -19.225505      -523.1526
  11   2.0000     -14.494263      -394.4089
  12   2.0000     -14.487846      -394.2343
  13   2.0000     -14.432055      -392.7162
  14   2.0000     -14.430006      -392.6604
  15   2.0000     -14.422262      -392.4497
  16   2.0000     -14.422203      -392.4481
  17   2.0000     -14.419945      -392.3866
  18   2.0000     -14.415514      -392.2661
  19   2.0000     -10.387645      -282.6622
  20   2.0000     -10.386903      -282.6420
  21   2.0000     -10.379922      -282.4520
  22   2.0000     -10.376561      -282.3606
  23   2.0000     -10.374637      -282.3082
  24   2.0000     -10.369664      -282.1729
  25   2.0000     -10.353681      -281.7380
  26   2.0000     -10.345646      -281.5193
  27   2.0000     -10.345310      -281.5102
  28   2.0000     -10.343914      -281.4722
  29   2.0000     -10.343698      -281.4663
  30   2.0000     -10.341118      -281.3961
  31   2.0000     -10.340178      -281.3706
  32   2.0000     -10.339290      -281.3464
  33   2.0000     -10.331528      -281.1352
  34   2.0000     -10.326645      -281.0023
  35   2.0000     -10.325538      -280.9722
  36   2.0000     -10.324487      -280.9436
  37   2.0000     -10.324244      -280.9369
  38   2.0000     -10.323687      -280.9218
  39   2.0000     -10.321786      -280.8701
  40   2.0000     -10.320963      -280.8477
  41   2.0000     -10.320580      -280.8372
  42   2.0000     -10.320476      -280.8344
  43   2.0000     -10.318929      -280.7923
  44   2.0000     -10.317342      -280.7491
  45   2.0000     -10.317111      -280.7429
  46   2.0000     -10.314612      -280.6749
  47   2.0000     -10.312996      -280.6309
  48   2.0000     -10.310952      -280.5753
  49   2.0000     -10.310702      -280.5685
  50   2.0000     -10.309533      -280.5367
  51   2.0000     -10.309378      -280.5325
  52   2.0000     -10.309006      -280.5223
  53   2.0000     -10.306693      -280.4594
  54   2.0000     -10.306642      -280.4580
  55   2.0000     -10.304857      -280.4094
  56   2.0000     -10.303510      -280.3728
  57   2.0000     -10.303228      -280.3651
  58   2.0000     -10.298885      -280.2469
  59   2.0000     -10.296094      -280.1710
  60   2.0000     -10.294662      -280.1320
  61   2.0000     -10.294318      -280.1226
  62   2.0000     -10.293628      -280.1039
  63   2.0000     -10.293276      -280.0943
  64   2.0000     -10.289478      -279.9909
  65   2.0000     -10.287818      -279.9458
  66   2.0000     -10.285571      -279.8846
  67   2.0000     -10.285552      -279.8841
  68   2.0000     -10.282565      -279.8028
  69   2.0000     -10.280061      -279.7347
  70   2.0000     -10.271561      -279.5034
  71   2.0000     -10.271492      -279.5015
  72   2.0000     -10.269517      -279.4478
  73   2.0000     -10.264640      -279.3150
  74   2.0000     -10.262667      -279.2614
  75   2.0000     -10.262388      -279.2538
  76   2.0000     -10.260426      -279.2004
  77   2.0000     -10.255240      -279.0593
  78   2.0000     -10.254175      -279.0303
  79   2.0000      -8.101552      -220.4544
  80   2.0000      -8.079205      -219.8464
  81   2.0000      -8.070981      -219.6225
  82   2.0000      -8.062527      -219.3925
  83   2.0000      -8.061456      -219.3634
  84   2.0000      -6.073049      -165.2561
  85   2.0000      -6.065325      -165.0459
  86   2.0000      -6.063226      -164.9888
  87   2.0000      -6.048760      -164.5951
  88   2.0000      -6.045319      -164.5015
  89   2.0000      -6.044684      -164.4842
  90   2.0000      -6.040864      -164.3803
  91   2.0000      -6.036999      -164.2751
  92   2.0000      -6.032431      -164.1508
  93   2.0000      -6.031309      -164.1202
  94   2.0000      -6.027794      -164.0246
  95   2.0000      -6.027362      -164.0129
  96   2.0000      -6.027234      -164.0094
  97   2.0000      -6.024028      -163.9221
  98   2.0000      -6.022362      -163.8768
  99   2.0000      -1.325703       -36.0742
 100   2.0000      -1.317761       -35.8581
 101   2.0000      -1.310456       -35.6593
 102   2.0000      -1.302407       -35.4403
 103   2.0000      -1.178109       -32.0580
 104   2.0000      -1.140973       -31.0475
 105   2.0000      -1.121725       -30.5237
 106   2.0000      -1.113190       -30.2914
 107   2.0000      -1.107816       -30.1452
 108   2.0000      -1.025962       -27.9178
 109   2.0000      -1.024043       -27.8656
 110   2.0000      -1.015136       -27.6233
 111   2.0000      -1.007484       -27.4150
 112   2.0000      -1.006328       -27.3836
 113   2.0000      -1.000526       -27.2257
 114   2.0000      -0.998965       -27.1832
 115   2.0000      -0.996907       -27.1272
 116   2.0000      -0.974054       -26.5053
 117   2.0000      -0.967531       -26.3278
 118   2.0000      -0.961225       -26.1563
 119   2.0000      -0.957736       -26.0613
 120   2.0000      -0.951480       -25.8911
 121   2.0000      -0.934902       -25.4400
 122   2.0000      -0.926350       -25.2073
 123   2.0000      -0.918935       -25.0055
 124   2.0000      -0.917548       -24.9677
 125   2.0000      -0.907158       -24.6850
 126   2.0000      -0.902972       -24.5711
 127   2.0000      -0.899035       -24.4640
 128   2.0000      -0.890847       -24.2412
 129   2.0000      -0.886113       -24.1124
 130   2.0000      -0.877866       -23.8880
 131   2.0000      -0.876640       -23.8546
 132   2.0000      -0.875639       -23.8273
 133   2.0000      -0.871582       -23.7170
 134   2.0000      -0.859690       -23.3934
 135   2.0000      -0.844362       -22.9763
 136   2.0000      -0.837956       -22.8019
 137   2.0000      -0.831364       -22.6226
 138   2.0000      -0.826428       -22.4882
 139   2.0000      -0.817930       -22.2570
 140   2.0000      -0.813745       -22.1431
 141   2.0000      -0.809884       -22.0381
 142   2.0000      -0.806798       -21.9541
 143   2.0000      -0.796557       -21.6754
 144   2.0000      -0.790422       -21.5085
 145   2.0000      -0.776698       -21.1350
 146   2.0000      -0.770794       -20.9744
 147   2.0000      -0.768795       -20.9200
 148   2.0000      -0.764980       -20.8162
 149   2.0000      -0.757607       -20.6155
 150   2.0000      -0.745034       -20.2734
 151   2.0000      -0.735638       -20.0177
 152   2.0000      -0.731466       -19.9042
 153   2.0000      -0.721672       -19.6377
 154   2.0000      -0.717547       -19.5254
 155   2.0000      -0.713839       -19.4245
 156   2.0000      -0.711650       -19.3650
 157   2.0000      -0.710517       -19.3341
 158   2.0000      -0.707210       -19.2442
 159   2.0000      -0.702872       -19.1261
 160   2.0000      -0.693696       -18.8764
 161   2.0000      -0.691067       -18.8049
 162   2.0000      -0.681953       -18.5569
 163   2.0000      -0.674414       -18.3517
 164   2.0000      -0.668846       -18.2002
 165   2.0000      -0.665010       -18.0958
 166   2.0000      -0.660386       -17.9700
 167   2.0000      -0.658465       -17.9177
 168   2.0000      -0.656562       -17.8660
 169   2.0000      -0.649045       -17.6614
 170   2.0000      -0.645838       -17.5741
 171   2.0000      -0.642015       -17.4701
 172   2.0000      -0.636924       -17.3316
 173   2.0000      -0.629258       -17.1230
 174   2.0000      -0.625952       -17.0330
 175   2.0000      -0.620227       -16.8772
 176   2.0000      -0.617226       -16.7956
 177   2.0000      -0.615424       -16.7465
 178   2.0000      -0.607697       -16.5363
 179   2.0000      -0.605404       -16.4739
 180   2.0000      -0.597292       -16.2532
 181   2.0000      -0.596788       -16.2394
 182   2.0000      -0.593492       -16.1497
 183   2.0000      -0.590939       -16.0803
 184   2.0000      -0.589845       -16.0505
 185   2.0000      -0.589287       -16.0353
 186   2.0000      -0.584206       -15.8971
 187   2.0000      -0.582870       -15.8607
 188   2.0000      -0.577394       -15.7117
 189   2.0000      -0.568421       -15.4675
 190   2.0000      -0.565851       -15.3976
 191   2.0000      -0.560169       -15.2430
 192   2.0000      -0.558160       -15.1883
 193   2.0000      -0.556270       -15.1369
 194   2.0000      -0.554075       -15.0771
 195   2.0000      -0.551874       -15.0173
 196   2.0000      -0.551547       -15.0084
 197   2.0000      -0.550856       -14.9895
 198   2.0000      -0.548460       -14.9243
 199   2.0000      -0.547148       -14.8887
 200   2.0000      -0.543552       -14.7908
 201   2.0000      -0.543361       -14.7856
 202   2.0000      -0.542350       -14.7581
 203   2.0000      -0.540849       -14.7172
 204   2.0000      -0.540031       -14.6950
 205   2.0000      -0.535897       -14.5825
 206   2.0000      -0.535210       -14.5638
 207   2.0000      -0.533807       -14.5256
 208   2.0000      -0.530001       -14.4221
 209   2.0000      -0.526964       -14.3394
 210   2.0000      -0.520284       -14.1577
 211   2.0000      -0.518984       -14.1223
 212   2.0000      -0.517779       -14.0895
 213   2.0000      -0.517023       -14.0689
 214   2.0000      -0.515234       -14.0202
 215   2.0000      -0.510800       -13.8996
 216   2.0000      -0.509299       -13.8587
 217   2.0000      -0.508511       -13.8373
 218   2.0000      -0.503962       -13.7135
 219   2.0000      -0.500604       -13.6221
 220   2.0000      -0.498897       -13.5757
 221   2.0000      -0.498730       -13.5711
 222   2.0000      -0.497818       -13.5463
 223   2.0000      -0.496657       -13.5147
 224   2.0000      -0.493899       -13.4397
 225   2.0000      -0.492233       -13.3944
 226   2.0000      -0.489813       -13.3285
 227   2.0000      -0.487496       -13.2654
 228   2.0000      -0.484654       -13.1881
 229   2.0000      -0.480062       -13.0631
 230   2.0000      -0.478681       -13.0256
 231   2.0000      -0.475543       -12.9402
 232   2.0000      -0.469198       -12.7675
 233   2.0000      -0.468587       -12.7509
 234   2.0000      -0.464786       -12.6475
 235   2.0000      -0.460651       -12.5350
 236   2.0000      -0.460441       -12.5292
 237   2.0000      -0.459057       -12.4916
 238   2.0000      -0.458959       -12.4889
 239   2.0000      -0.457729       -12.4554
 240   2.0000      -0.455325       -12.3900
 241   2.0000      -0.454065       -12.3557
 242   2.0000      -0.453327       -12.3357
 243   2.0000      -0.452664       -12.3176
 244   2.0000      -0.449547       -12.2328
 245   2.0000      -0.448498       -12.2042
 246   2.0000      -0.446502       -12.1499
 247   2.0000      -0.445454       -12.1214
 248   2.0000      -0.444632       -12.0990
 249   2.0000      -0.442924       -12.0526
 250   2.0000      -0.438804       -11.9405
 251   2.0000      -0.438333       -11.9277
 252   2.0000      -0.435023       -11.8376
 253   2.0000      -0.433722       -11.8022
 254   2.0000      -0.433629       -11.7996
 255   2.0000      -0.432886       -11.7794
 256   2.0000      -0.432166       -11.7598
 257   2.0000      -0.431168       -11.7327
 258   2.0000      -0.429316       -11.6823
 259   2.0000      -0.428288       -11.6543
 260   2.0000      -0.425970       -11.5912
 261   2.0000      -0.424460       -11.5501
 262   2.0000      -0.423640       -11.5278
 263   2.0000      -0.417909       -11.3719
 264   2.0000      -0.414369       -11.2756
 265   2.0000      -0.413304       -11.2466
 266   2.0000      -0.412047       -11.2124
 267   2.0000      -0.410226       -11.1628
 268   2.0000      -0.408759       -11.1229
 269   2.0000      -0.406490       -11.0612
 270   2.0000      -0.404744       -11.0136
 271   2.0000      -0.403095       -10.9688
 272   2.0000      -0.399078       -10.8595
 273   2.0000      -0.398075       -10.8322
 274   2.0000      -0.394345       -10.7307
 275   2.0000      -0.393284       -10.7018
 276   2.0000      -0.387404       -10.5418
 277   2.0000      -0.378323       -10.2947
 278   2.0000      -0.369110       -10.0440
 279   2.0000      -0.366390        -9.9700
 280   2.0000      -0.363203        -9.8833
 281   2.0000      -0.355510        -9.6739
 282   2.0000      -0.352006        -9.5786
 283   2.0000      -0.349044        -9.4980
 284   2.0000      -0.340546        -9.2667
 285   2.0000      -0.339811        -9.2467
 286   2.0000      -0.323366        -8.7992
 287   2.0000      -0.319685        -8.6991
 288   2.0000      -0.317528        -8.6404
 289   2.0000      -0.303099        -8.2477
 290   2.0000      -0.292616        -7.9625
 291   2.0000      -0.283809        -7.7228
 292   2.0000      -0.282552        -7.6886
 293   2.0000      -0.269241        -7.3264
 294   2.0000      -0.247878        -6.7451
 295   0.0000      -0.094975        -2.5844
 296   0.0000      -0.093240        -2.5372
 297   0.0000      -0.068050        -1.8517
 298   0.0000      -0.049190        -1.3385
 299   0.0000      -0.029605        -0.8056

MULLIKEN ATOMIC CHARGES
-----------------------
   0 C :    0.154826
   1 O :   -0.182443
   2 C :   -0.000535
   3 C :   -0.107782
   4 C :    0.233051
   5 F :   -0.170954
   6 C :    0.235266
   7 F :   -0.165471
   8 C :   -0.089126
   9 C :    0.038255
  10 C :    0.320142
  11 C :   -0.360272
  12 C :   -0.182934
  13 N :    0.140277
  14 C :   -0.192856
  15 N :    0.157283
  16 C :   -0.108729
  17 C :   -0.028181
  18 C :   -0.086199
  19 S :    0.169606
  20 C :   -0.028697
  21 C :   -0.083967
  22 C :   -0.065430
  23 C :    0.054864
  24 C :    0.033991
  25 S :    0.191558
  26 C :   -0.086559
  27 C :    0.022677
  28 N :   -0.160777
  29 C :    0.140946
  30 C :    0.026687
  31 C :    0.044741
  32 C :   -0.055183
  33 C :   -0.022901
  34 N :   -0.265868
  35 S :    0.469126
  36 N :   -0.254403
  37 C :    0.005850
  38 C :    0.004938
  39 C :    0.035165
  40 N :   -0.172786
  41 C :    0.158032
  42 C :    0.020909
  43 C :   -0.062414
  44 C :    0.028800
  45 S :    0.112246
  46 C :   -0.057249
  47 C :   -0.107218
  48 S :    0.321641
  49 C :    0.112332
  50 C :   -0.139336
  51 C :    0.021740
  52 C :    0.041246
  53 C :   -0.113344
  54 C :   -0.102490
  55 C :    0.267042
  56 C :   -0.324250
  57 C :   -0.187658
  58 N :    0.166446
  59 C :   -0.200726
  60 N :    0.170211
  61 C :    0.028249
  62 C :   -0.093559
  63 C :    0.227025
  64 F :   -0.172235
  65 C :    0.234625
  66 F :   -0.173614
  67 C :   -0.125488
  68 C :    0.059635
  69 C :    0.184518
  70 O :   -0.364446
  71 C :   -0.137862
  72 C :    0.050454
  73 C :   -0.121647
  74 C :    0.051085
  75 C :    0.004412
  76 C :    0.018042
  77 C :   -0.001818
  78 C :    0.029796
  79 H :    0.005584
  80 H :    0.014630
  81 H :   -0.017482
  82 H :    0.034802
  83 H :    0.013191
  84 H :    0.015764
  85 H :    0.034157
  86 H :    0.014663
  87 H :    0.031106
  88 H :   -0.001612
  89 H :    0.010637
  90 H :    0.020183
  91 H :    0.031487
  92 H :    0.017075
  93 H :    0.006816
  94 H :    0.009459
  95 H :    0.026752
  96 H :    0.022805
  97 H :    0.031766
  98 H :    0.015517
  99 H :    0.019295
 100 H :    0.050065
 101 H :    0.011792
 102 H :    0.004474
 103 H :    0.005966
 104 H :    0.007715
 105 H :    0.004020
 106 H :    0.015804
 107 H :    0.001696
 108 H :    0.006055
 109 H :    0.021861
 110 H :    0.014513
 111 H :   -0.002030
 112 H :   -0.002959
 113 H :    0.012553
 114 H :    0.012669
 115 H :    0.012990
 116 H :   -0.001189
 117 H :   -0.003121
 118 H :    0.011453
 119 H :    0.014640
 120 H :    0.014110
Sum of atomic charges:    0.0000000

LOEWDIN ATOMIC CHARGES
----------------------
   0 C :    0.082738
   1 O :   -0.172403
   2 C :   -0.043809
   3 C :   -0.008444
   4 C :    0.069179
   5 F :   -0.047528
   6 C :    0.072176
   7 F :   -0.044554
   8 C :   -0.017599
   9 C :   -0.014233
  10 C :    0.078589
  11 C :   -0.148527
  12 C :   -0.018015
  13 N :   -0.058234
  14 C :   -0.021021
  15 N :   -0.053349
  16 C :   -0.127981
  17 C :    0.056393
  18 C :   -0.190870
  19 S :    0.477457
  20 C :   -0.189860
  21 C :   -0.197327
  22 C :   -0.006082
  23 C :   -0.030123
  24 C :   -0.040925
  25 S :    0.423402
  26 C :   -0.165884
  27 C :   -0.049078
  28 N :    0.043442
  29 C :    0.044702
  30 C :   -0.033580
  31 C :    0.013766
  32 C :   -0.081210
  33 C :   -0.055917
  34 N :   -0.289645
  35 S :    0.601375
  36 N :   -0.285483
  37 C :   -0.054641
  38 C :   -0.059148
  39 C :    0.000101
  40 N :    0.036206
  41 C :    0.042685
  42 C :   -0.040241
  43 C :   -0.148740
  44 C :   -0.082076
  45 S :    0.445399
  46 C :   -0.145460
  47 C :   -0.222638
  48 S :    0.488076
  49 C :    0.033008
  50 C :   -0.083379
  51 C :   -0.030565
  52 C :   -0.049086
  53 C :   -0.058169
  54 C :   -0.087667
  55 C :    0.080306
  56 C :   -0.118157
  57 C :   -0.019208
  58 N :   -0.039817
  59 C :   -0.020081
  60 N :   -0.040387
  61 C :   -0.024900
  62 C :   -0.011987
  63 C :    0.059091
  64 F :   -0.050995
  65 C :    0.068030
  66 F :   -0.050123
  67 C :   -0.022882
  68 C :   -0.024601
  69 C :    0.065533
  70 O :   -0.216934
  71 C :   -0.043229
  72 C :   -0.052325
  73 C :   -0.039431
  74 C :   -0.050681
  75 C :   -0.031547
  76 C :   -0.056842
  77 C :   -0.030454
  78 C :   -0.055558
  79 H :    0.049823
  80 H :    0.051421
  81 H :    0.047504
  82 H :    0.037145
  83 H :    0.031515
  84 H :    0.024501
  85 H :    0.033433
  86 H :    0.025108
  87 H :    0.027570
  88 H :    0.022568
  89 H :    0.026796
  90 H :    0.022368
  91 H :    0.030934
  92 H :    0.026513
  93 H :    0.026024
  94 H :    0.026114
  95 H :    0.028454
  96 H :    0.029850
  97 H :    0.031734
  98 H :    0.027231
  99 H :    0.028238
 100 H :    0.048206
 101 H :    0.050416
 102 H :    0.048860
 103 H :    0.007785
 104 H :    0.023807
 105 H :    0.012468
 106 H :    0.026882
 107 H :    0.011787
 108 H :    0.021445
 109 H :    0.024856
 110 H :    0.024993
 111 H :    0.017648
 112 H :    0.017452
 113 H :    0.023840
 114 H :    0.025457
 115 H :    0.021217
 116 H :    0.019442
 117 H :    0.018588
 118 H :    0.023763
 119 H :    0.027023
 120 H :    0.021196

  Mayer bond orders larger than 0.100000
B(  0-C ,  1-O ) :   2.1340 B(  0-C ,  2-C ) :   0.9661 B(  0-C , 16-C ) :   0.9880
B(  2-C ,  3-C ) :   1.3209 B(  2-C ,  9-C ) :   1.3429 B(  3-C ,  4-C ) :   1.3111
B(  3-C ,  8-C ) :   0.1052 B(  3-C , 79-H ) :   1.0208 B(  4-C ,  5-F ) :   1.1290
B(  4-C ,  6-C ) :   1.2975 B(  6-C ,  7-F ) :   1.1454 B(  6-C ,  8-C ) :   1.3296
B(  8-C ,  9-C ) :   1.3201 B(  8-C , 80-H ) :   0.9912 B(  9-C , 10-C ) :   0.9946
B( 10-C , 11-C ) :   1.6104 B( 10-C , 16-C ) :   1.1047 B( 11-C , 12-C ) :   1.1522
B( 11-C , 14-C ) :   1.1451 B( 12-C , 13-N ) :   2.9579 B( 14-C , 15-N ) :   2.9760
B( 16-C , 17-C ) :   1.4525 B( 17-C , 18-C ) :   1.3306 B( 17-C , 81-H ) :   0.9280
B( 18-C , 19-S ) :   1.0288 B( 18-C , 22-C ) :   1.3500 B( 19-S , 20-C ) :   1.0383
B( 20-C , 21-C ) :   1.3880 B( 20-C , 27-C ) :   1.2869 B( 21-C , 22-C ) :   1.4318
B( 21-C , 25-S ) :   1.0159 B( 22-C , 23-C ) :   1.0776 B( 23-C , 24-C ) :   1.1029
B( 23-C , 82-H ) :   0.9045 B( 23-C , 83-H ) :   0.9217 B( 24-C , 84-H ) :   0.9692
B( 24-C , 85-H ) :   0.9669 B( 24-C , 86-H ) :   0.9661 B( 25-S , 26-C ) :   1.0228
B( 26-C , 27-C ) :   1.4109 B( 26-C , 32-C ) :   1.3520 B( 27-C , 28-N ) :   1.1455
B( 27-C , 31-C ) :   0.1046 B( 28-N , 29-C ) :   0.9534 B( 28-N , 31-C ) :   1.1736
B( 29-C , 30-C ) :   1.0983 B( 29-C , 87-H ) :   0.9337 B( 29-C , 88-H ) :   0.9353
B( 30-C , 73-C ) :   1.0162 B( 30-C , 89-H ) :   0.9332 B( 30-C , 90-H ) :   0.9237
B( 31-C , 32-C ) :   1.3874 B( 31-C , 39-C ) :   1.1230 B( 32-C , 33-C ) :   1.1080
B( 32-C , 38-C ) :   0.1052 B( 33-C , 34-N ) :   1.6316 B( 33-C , 37-C ) :   1.1498
B( 34-N , 35-S ) :   1.2202 B( 34-N , 36-N ) :   0.1325 B( 35-S , 36-N ) :   1.2280
B( 36-N , 37-C ) :   1.6169 B( 37-C , 38-C ) :   1.1191 B( 38-C , 39-C ) :   1.4051
B( 38-C , 44-C ) :   1.2100 B( 39-C , 40-N ) :   1.1643 B( 40-N , 41-C ) :   0.9468
B( 40-N , 43-C ) :   1.1537 B( 41-C , 42-C ) :   1.0636 B( 41-C , 91-H ) :   0.9439
B( 41-C , 92-H ) :   0.9334 B( 42-C , 71-C ) :   1.0494 B( 42-C , 93-H ) :   0.9318
B( 42-C , 94-H ) :   0.9322 B( 43-C , 44-C ) :   1.3783 B( 43-C , 45-S ) :   1.0650
B( 44-C , 47-C ) :   1.2046 B( 45-S , 46-C ) :   1.0967 B( 46-C , 47-C ) :   1.5472
B( 46-C , 50-C ) :   1.0972 B( 47-C , 48-S ) :   1.0847 B( 48-S , 70-O ) :   0.8087
B( 49-C , 50-C ) :   1.6974 B( 49-C , 53-C ) :   1.7874 B( 50-C , 51-C ) :   1.0162
B( 51-C , 52-C ) :   1.1424 B( 51-C , 95-H ) :   0.9219 B( 51-C , 96-H ) :   0.9296
B( 52-C , 97-H ) :   0.9582 B( 52-C , 98-H ) :   0.9609 B( 52-C , 99-H ) :   0.9644
B( 53-C , 54-C ) :   1.0632 B( 53-C ,100-H ) :   0.9135 B( 54-C , 55-C ) :   1.0854
B( 54-C , 69-C ) :   1.5267 B( 55-C , 56-C ) :   1.6626 B( 55-C , 61-C ) :   0.9860
B( 56-C , 57-C ) :   1.1332 B( 56-C , 59-C ) :   1.1420 B( 57-C , 58-N ) :   2.9905
B( 59-C , 60-N ) :   2.9940 B( 61-C , 62-C ) :   1.3609 B( 61-C , 68-C ) :   1.3247
B( 62-C , 63-C ) :   1.2875 B( 62-C ,101-H ) :   0.9989 B( 63-C , 64-F ) :   1.1362
B( 63-C , 65-C ) :   1.3348 B( 65-C , 66-F ) :   1.1245 B( 65-C , 67-C ) :   1.2797
B( 67-C , 68-C ) :   1.3292 B( 67-C ,102-H ) :   1.0229 B( 68-C , 69-C ) :   1.0354
B( 69-C , 70-O ) :   1.2279 B( 71-C , 72-C ) :   1.0582 B( 71-C , 77-C ) :   1.0609
B( 71-C ,103-H ) :   0.9166 B( 72-C ,104-H ) :   0.9637 B( 72-C ,105-H ) :   0.9592
B( 72-C ,106-H ) :   0.9633 B( 73-C , 74-C ) :   1.0677 B( 73-C , 75-C ) :   1.0588
B( 73-C ,107-H ) :   0.9287 B( 74-C ,108-H ) :   0.9588 B( 74-C ,109-H ) :   0.9642
B( 74-C ,110-H ) :   0.9616 B( 75-C , 76-C ) :   1.1069 B( 75-C ,111-H ) :   0.9435
B( 75-C ,112-H ) :   0.9432 B( 76-C ,113-H ) :   0.9687 B( 76-C ,114-H ) :   0.9653
B( 76-C ,115-H ) :   0.9683 B( 77-C , 78-C ) :   1.1035 B( 77-C ,116-H ) :   0.9445
B( 77-C ,117-H ) :   0.9443 B( 78-C ,118-H ) :   0.9688 B( 78-C ,119-H ) :   0.9642
B( 78-C ,120-H ) :   0.9673

-----------------------------------------------------------------------------
         ABSORPTION SPECTRUM VIA TRANSITION ELECTRIC DIPOLE MOMENTS
-----------------------------------------------------------------------------
State   Energy  Wavelength   fosc         T2         TX        TY        TZ
        (cm-1)    (nm)                  (au**2)     (au)      (au)      (au)
-----------------------------------------------------------------------------
   0   18399.7    543.5   1.890829383  33.83119   4.95986  -1.99604  -2.29060
   1   19827.2    504.4   0.011996207   0.19919   0.29422   0.25833   0.21420
   2   20187.5    495.4   0.017885192   0.29167  -0.52140  -0.13468   0.04091
   3   22855.7    437.5   0.012437215   0.17914   0.37454  -0.11916  -0.15704
   4   23737.7    421.3   0.115101156   1.59631  -0.89073   0.76497   0.46662
   5   24640.5    405.8   0.081262912   1.08572  -0.49127  -0.87739   0.27307
   6   26408.5    378.7   0.051300261   0.63952   0.11042   0.75503  -0.23928
   7   26848.8    372.5   0.146582992   1.79735   1.21916   0.26238  -0.49210
   8   27880.4    358.7   0.035994545   0.42502  -0.51505   0.34687   0.19856
   9   28384.5    352.3   0.013523975   0.15686   0.32524  -0.15594  -0.16357
  10   29244.4    341.9   0.008281984   0.09323   0.04818  -0.29937   0.03592
  11   30303.0    330.0   0.000846874   0.00920  -0.01862  -0.06510  -0.06794
  12   30474.4    328.1   0.057364302   0.61970  -0.57140   0.36827   0.39696
  13   31250.0    320.0   0.032997190   0.34762  -0.23840  -0.48057   0.24462
  14   31610.8    316.3   0.026252245   0.27341  -0.51730  -0.06797   0.03443
  15   31719.0    315.3   0.087828382   0.91157   0.20778  -0.92769  -0.08826
  16   31861.4    313.9   0.028568846   0.29519  -0.31424  -0.43792   0.06835
  17   32114.3    311.4   0.005285840   0.05419  -0.07664   0.20857   0.06938
  18   32141.0    311.1   0.388030770   3.97450   1.98997   0.05475   0.10739
  19   32280.0    309.8   0.068875018   0.70243   0.72868   0.40964  -0.06043
  20   32572.4    307.0   0.268329125   2.71203   0.04278  -1.63960  -0.14797
  21   34017.6    294.0   0.014689276   0.14216   0.22381   0.30332   0.00820
  22   34110.8    293.2   0.033637331   0.32464   0.24240   0.39556  -0.33078
  23   34423.7    290.5   0.072789909   0.69613  -0.12972  -0.82357   0.03217
  24   34562.2    289.3   0.102464888   0.97600   0.48910   0.85243  -0.10073
  25   34759.8    287.7   0.109409984   1.03623   0.64904  -0.67234  -0.40364
  26   35575.1    281.1   0.025969503   0.24032  -0.16609  -0.46094   0.01638
  27   35919.5    278.4   0.238648280   2.18728  -0.91588   1.04774   0.50069
  28   36068.0    277.3   0.036123003   0.32971   0.49969   0.18641  -0.21278
  29   36253.0    275.8   0.203636682   1.84922  -1.23928  -0.14358   0.54111
  30   36602.8    273.2   0.106344440   0.95648  -0.83348   0.38254   0.33977
  31   36883.4    271.1   0.364698975   3.25521   1.20627   1.26331  -0.45184
  32   37805.8    264.5   0.119143843   1.03750  -0.17299  -1.00080  -0.07733
  33   38258.9    261.4   0.050935489   0.43829   0.60225   0.07495  -0.26451
  34   38336.3    260.8   0.147310897   1.26503  -0.88875  -0.54197   0.42593
  35   38886.8    257.2   0.093016061   0.78746   0.70796  -0.49877  -0.19361
  36   39061.9    256.0   0.207093198   1.74537   0.00062  -1.28867  -0.29103
  37   39105.1    255.7   0.016473564   0.13869   0.31419   0.11642  -0.16252
  38   39434.0    253.6   0.001724598   0.01440   0.01644   0.11885  -0.00162
  39   39924.0    250.5   0.280526794   2.31321   1.22699   0.84344   0.31035
  40   40272.8    248.3   0.010241285   0.08372  -0.01611  -0.28753   0.02805

FINAL SINGLE POINT ENERGY     -5285.598335281170

DIPOLE MOMENT
-------------
                                X             Y             Z
Electronic contribution:    -28.21881     -76.55908     -24.73924
Nuclear contribution   :     28.56829      79.34874      24.39601
                        -----------------------------------------
Total Dipole Moment    :      0.34948       2.78966      -0.34323
                        -----------------------------------------
Magnitude (a.u.)       :      2.83234
Magnitude (Debye)      :      7.19923

Rotational constants in cm-1:     0.001587     0.000264     0.000236
Rotational constants in MHz :    47.588505     7.915173     7.071037

                             ****ORCA TERMINATED NORMALLY****
TOTAL RUN TIME: 0 days 1 hours 22 minutes 49 seconds 356 msec
