                         Program Version 4.2.0 -  RELEASE  -
|  1> # ORCA input file
|  2> # N3.out
|  3> ! CAM-B3LYP def2-SVP def2/J RIJCOSX Grid4 TightSCF
|  4> %maxcore 5000
|  5> %tddft
|  6>     Mode sTDDFT
|  7>     Ethresh 5.0
|  8>     maxcore 5000
|  9> end
| 10> * xyz 0 1
| 11>   C      4.160641    0.579977    0.196465
| 12>   O      3.951691    1.476365    0.992982
| 13>   C      5.004191    0.684651   -1.027395
| 14>   C      5.635911    1.816413   -1.533106
| 15>   C      6.398263    1.669020   -2.688524
| 16>   F      7.021272    2.709132   -3.238022
| 17>   C      6.524015    0.409908   -3.303857
| 18>   F      7.269703    0.313009   -4.401200
| 19>   C      5.891796   -0.720872   -2.795672
| 20>   C      5.112256   -0.578689   -1.640170
| 21>   C      4.308052   -1.553416   -0.865751
| 22>   C      4.088668   -2.870048   -1.234503
| 23>   C      3.246422   -3.770319   -0.507433
| 24>   N      2.574397   -4.526370    0.066060
| 25>   C      4.666035   -3.453337   -2.405331
| 26>   N      5.123066   -3.947450   -3.352720
| 27>   C      3.744198   -0.844795    0.285864
| 28>   C      3.118301   -1.456744    1.355014
| 29>   C      2.362735   -0.999056    2.468059
| 30>   S      2.326728   -2.203257    3.788228
| 31>   C      1.259080   -1.226433    4.717754
| 32>   C      0.920246   -0.044520    4.021145
| 33>   C      1.518239    0.103683    2.749837
| 34>   C      1.133403    1.217668    1.816270
| 35>   C      0.538088    0.736531    0.486067
| 36>   S     -0.235659    0.959900    4.911045
| 37>   C     -0.254519   -0.221085    6.198663
| 38>   C      0.597602   -1.310561    5.960400
| 39>   N      0.463337   -2.242547    6.974353
| 40>   C      0.911742   -3.618266    6.769831
| 41>   C      2.418796   -3.792799    6.905622
| 42>   C     -0.473629   -1.752089    7.884076
| 43>   C     -0.947692   -0.488949    7.401717
| 44>   C     -2.017179    0.196873    8.064191
| 45>   N     -2.578878    1.342863    7.703755
| 46>   S     -3.809654    1.632879    8.772436
| 47>   N     -3.648549    0.285444    9.721243
| 48>   C     -2.636833   -0.414490    9.227589
| 49>   C     -2.114801   -1.648414    9.733300
| 50>   C     -1.014624   -2.299765    9.098926
| 51>   N     -0.692413   -3.447457    9.835662
| 52>   C      0.631590   -4.063740    9.970141
| 53>   C      0.644803   -5.562675    9.702666
| 54>   C     -1.596459   -3.535950   10.888009
| 55>   C     -2.471142   -2.439573   10.850681
| 56>   S     -3.608065   -2.414372   12.170722
| 57>   C     -2.897940   -3.907477   12.796093
| 58>   C     -1.851096   -4.396094   11.984478
| 59>   S     -1.291454   -5.927081   12.564890
| 60>   C     -2.427118   -5.875840   13.932833
| 61>   C     -3.232139   -4.723568   13.905863
| 62>   C     -4.407546   -4.437450   14.798719
| 63>   C     -4.318452   -3.088826   15.527272
| 64>   C     -2.455094   -7.064038   14.728933
| 65>   C     -2.647922   -7.228001   16.081634
| 66>   C     -2.733273   -8.504896   16.797534
| 67>   C     -3.029750   -9.743836   16.261269
| 68>   C     -3.112693  -10.931255   17.055111
| 69>   N     -3.183397  -11.902671   17.689216
| 70>   C     -3.305505   -9.953302   14.872805
| 71>   N     -3.528668  -10.162751   13.751752
| 72>   C     -2.490924   -8.227391   18.232245
| 73>   C     -2.396387   -9.075144   19.344613
| 74>   C     -2.131289   -8.500358   20.584235
| 75>   F     -2.021845   -9.268862   21.663296
| 76>   C     -1.968058   -7.111231   20.740162
| 77>   F     -1.718851   -6.633599   21.955800
| 78>   C     -2.064250   -6.262735   19.643511
| 79>   C     -2.324763   -6.839647   18.404468
| 80>   C     -2.456079   -6.147269   17.095299
| 81>   O     -2.338745   -4.953778   16.906436
| 82>   H      5.538754    2.787505   -1.044843
| 83>   H      6.032470   -1.663747   -3.319612
| 84>   H      3.246675   -2.541102    1.381529
| 85>   H      2.024238    1.831291    1.618198
| 86>   H      0.401635    1.856877    2.335290
| 87>   H      1.269982    0.166276   -0.104050
| 88>   H      0.216285    1.597440   -0.119225
| 89>   H     -0.336171    0.088043    0.650176
| 90>   H      0.589367   -3.924852    5.760813
| 91>   H      0.361801   -4.257269    7.464690
| 92>   H      2.776082   -3.504781    7.905611
| 93>   H      2.961462   -3.174527    6.177543
| 94>   H      2.696564   -4.841824    6.720976
| 95>   H      0.986983   -3.862532   10.995171
| 96>   H      1.318868   -3.530872    9.306486
| 97>   H     -0.037880   -6.101023   10.372427
| 98>   H      1.655189   -5.965478    9.872050
| 99>   H      0.338134   -5.803065    8.674085
|100>   H     -4.532665   -5.249529   15.525685
|101>   H     -5.307587   -4.450370   14.156141
|102>   H     -5.209208   -2.934786   16.155778
|103>   H     -4.261153   -2.246933   14.819852
|104>   H     -3.431123   -3.061467   16.171270
|105>   H     -2.217424   -7.969476   14.162903
|106>   H     -2.515029  -10.155789   19.292777
|107>   H     -1.931487   -5.184970   19.753602
|108> *
|109>
|110>                          ****END OF INPUT****

CARTESIAN COORDINATES (ANGSTROEM)
---------------------------------
  C      4.160641    0.579977    0.196465
  O      3.951691    1.476365    0.992982
  C      5.004191    0.684651   -1.027395
  C      5.635911    1.816413   -1.533106
  C      6.398263    1.669020   -2.688524
  F      7.021272    2.709132   -3.238022
  C      6.524015    0.409908   -3.303857
  F      7.269703    0.313009   -4.401200
  C      5.891796   -0.720872   -2.795672
  C      5.112256   -0.578689   -1.640170
  C      4.308052   -1.553416   -0.865751
  C      4.088668   -2.870048   -1.234503
  C      3.246422   -3.770319   -0.507433
  N      2.574397   -4.526370    0.066060
  C      4.666035   -3.453337   -2.405331
  N      5.123066   -3.947450   -3.352720
  C      3.744198   -0.844795    0.285864
  C      3.118301   -1.456744    1.355014
  C      2.362735   -0.999056    2.468059
  S      2.326728   -2.203257    3.788228
  C      1.259080   -1.226433    4.717754
  C      0.920246   -0.044520    4.021145
  C      1.518239    0.103683    2.749837
  C      1.133403    1.217668    1.816270
  C      0.538088    0.736531    0.486067
  S     -0.235659    0.959900    4.911045
  C     -0.254519   -0.221085    6.198663
  C      0.597602   -1.310561    5.960400
  N      0.463337   -2.242547    6.974353
  C      0.911742   -3.618266    6.769831
  C      2.418796   -3.792799    6.905622
  C     -0.473629   -1.752089    7.884076
  C     -0.947692   -0.488949    7.401717
  C     -2.017179    0.196873    8.064191
  N     -2.578878    1.342863    7.703755
  S     -3.809654    1.632879    8.772436
  N     -3.648549    0.285444    9.721243
  C     -2.636833   -0.414490    9.227589
  C     -2.114801   -1.648414    9.733300
  C     -1.014624   -2.299765    9.098926
  N     -0.692413   -3.447457    9.835662
  C      0.631590   -4.063740    9.970141
  C      0.644803   -5.562675    9.702666
  C     -1.596459   -3.535950   10.888009
  C     -2.471142   -2.439573   10.850681
  S     -3.608065   -2.414372   12.170722
  C     -2.897940   -3.907477   12.796093
  C     -1.851096   -4.396094   11.984478
  S     -1.291454   -5.927081   12.564890
  C     -2.427118   -5.875840   13.932833
  C     -3.232139   -4.723568   13.905863
  C     -4.407546   -4.437450   14.798719
  C     -4.318452   -3.088826   15.527272
  C     -2.455094   -7.064038   14.728933
  C     -2.647922   -7.228001   16.081634
  C     -2.733273   -8.504896   16.797534
  C     -3.029750   -9.743836   16.261269
  C     -3.112693  -10.931255   17.055111
  N     -3.183397  -11.902671   17.689216
  C     -3.305505   -9.953302   14.872805
  N     -3.528668  -10.162751   13.751752
  C     -2.490924   -8.227391   18.232245
  C     -2.396387   -9.075144   19.344613
  C     -2.131289   -8.500358   20.584235
  F     -2.021845   -9.268862   21.663296
  C     -1.968058   -7.111231   20.740162
  F     -1.718851   -6.633599   21.955800
  C     -2.064250   -6.262735   19.643511
  C     -2.324763   -6.839647   18.404468
  C     -2.456079   -6.147269   17.095299
  O     -2.338745   -4.953778   16.906436
  H      5.538754    2.787505   -1.044843
  H      6.032470   -1.663747   -3.319612
  H      3.246675   -2.541102    1.381529
  H      2.024238    1.831291    1.618198
  H      0.401635    1.856877    2.335290
  H      1.269982    0.166276   -0.104050
  H      0.216285    1.597440   -0.119225
  H     -0.336171    0.088043    0.650176
  H      0.589367   -3.924852    5.760813
  H      0.361801   -4.257269    7.464690
  H      2.776082   -3.504781    7.905611
  H      2.961462   -3.174527    6.177543
  H      2.696564   -4.841824    6.720976
  H      0.986983   -3.862532   10.995171
  H      1.318868   -3.530872    9.306486
  H     -0.037880   -6.101023   10.372427
  H      1.655189   -5.965478    9.872050
  H      0.338134   -5.803065    8.674085
  H     -4.532665   -5.249529   15.525685
  H     -5.307587   -4.450370   14.156141
  H     -5.209208   -2.934786   16.155778
  H     -4.261153   -2.246933   14.819852
  H     -3.431123   -3.061467   16.171270
  H     -2.217424   -7.969476   14.162903
  H     -2.515029  -10.155789   19.292777
  H     -1.931487   -5.184970   19.753602

 Total Charge           Charge          ....    0
 Multiplicity           Mult            ....    1
 Number of Electrons    NEL             ....  526
 Basis Dimension        Dim             .... 1144

ORBITAL ENERGIES
----------------

  NO   OCC          E(Eh)            E(eV)
   0   2.0000     -89.009313     -2422.0666
   1   2.0000     -88.979667     -2421.2598
   2   2.0000     -88.978815     -2421.2366
   3   2.0000     -88.972358     -2421.0609
   4   2.0000     -88.972258     -2421.0582
   5   2.0000     -24.808968      -675.0863
   6   2.0000     -24.806973      -675.0320
   7   2.0000     -24.805443      -674.9904
   8   2.0000     -24.803394      -674.9347
   9   2.0000     -19.228035      -523.2214
  10   2.0000     -19.224614      -523.1283
  11   2.0000     -14.493246      -394.3813
  12   2.0000     -14.490456      -394.3053
  13   2.0000     -14.442359      -392.9966
  14   2.0000     -14.442032      -392.9877
  15   2.0000     -14.427685      -392.5973
  16   2.0000     -14.427407      -392.5897
  17   2.0000     -14.425478      -392.5372
  18   2.0000     -14.423496      -392.4833
  19   2.0000     -10.393215      -282.8137
  20   2.0000     -10.392456      -282.7931
  21   2.0000     -10.389814      -282.7212
  22   2.0000     -10.388442      -282.6839
  23   2.0000     -10.381053      -282.4828
  24   2.0000     -10.377390      -282.3831
  25   2.0000     -10.358487      -281.8688
  26   2.0000     -10.356359      -281.8109
  27   2.0000     -10.353779      -281.7406
  28   2.0000     -10.352775      -281.7133
  29   2.0000     -10.351320      -281.6737
  30   2.0000     -10.349206      -281.6162
  31   2.0000     -10.343373      -281.4575
  32   2.0000     -10.343170      -281.4520
  33   2.0000     -10.335735      -281.2497
  34   2.0000     -10.335006      -281.2298
  35   2.0000     -10.333241      -281.1818
  36   2.0000     -10.332916      -281.1729
  37   2.0000     -10.332884      -281.1721
  38   2.0000     -10.332877      -281.1719
  39   2.0000     -10.331123      -281.1242
  40   2.0000     -10.331078      -281.1229
  41   2.0000     -10.330726      -281.1133
  42   2.0000     -10.330668      -281.1118
  43   2.0000     -10.329370      -281.0765
  44   2.0000     -10.328219      -281.0451
  45   2.0000     -10.327345      -281.0214
  46   2.0000     -10.326663      -281.0028
  47   2.0000     -10.325873      -280.9813
  48   2.0000     -10.322282      -280.8836
  49   2.0000     -10.322060      -280.8775
  50   2.0000     -10.319930      -280.8196
  51   2.0000     -10.318463      -280.7797
  52   2.0000     -10.318436      -280.7789
  53   2.0000     -10.317914      -280.7647
  54   2.0000     -10.316855      -280.7359
  55   2.0000     -10.316259      -280.7197
  56   2.0000     -10.316232      -280.7189
  57   2.0000     -10.313423      -280.6425
  58   2.0000     -10.312186      -280.6089
  59   2.0000     -10.311789      -280.5981
  60   2.0000     -10.310945      -280.5751
  61   2.0000     -10.307147      -280.4717
  62   2.0000     -10.306548      -280.4554
  63   2.0000     -10.303710      -280.3782
  64   2.0000     -10.303580      -280.3747
  65   2.0000     -10.294878      -280.1379
  66   2.0000     -10.294750      -280.1344
  67   2.0000     -10.284808      -279.8638
  68   2.0000     -10.279853      -279.7290
  69   2.0000     -10.268958      -279.4325
  70   2.0000     -10.260862      -279.2123
  71   2.0000      -8.101073      -220.4414
  72   2.0000      -8.073894      -219.7018
  73   2.0000      -8.072867      -219.6739
  74   2.0000      -8.065724      -219.4795
  75   2.0000      -8.065542      -219.4745
  76   2.0000      -6.072717      -165.2470
  77   2.0000      -6.065226      -165.0432
  78   2.0000      -6.062279      -164.9630
  79   2.0000      -6.043505      -164.4521
  80   2.0000      -6.042616      -164.4279
  81   2.0000      -6.039395      -164.3403
  82   2.0000      -6.038455      -164.3147
  83   2.0000      -6.035728      -164.2405
  84   2.0000      -6.035504      -164.2344
  85   2.0000      -6.035501      -164.2343
  86   2.0000      -6.034310      -164.2019
  87   2.0000      -6.031693      -164.1307
  88   2.0000      -6.031425      -164.1234
  89   2.0000      -6.026591      -163.9919
  90   2.0000      -6.026535      -163.9903
  91   2.0000      -1.335166       -36.3317
  92   2.0000      -1.331075       -36.2204
  93   2.0000      -1.318863       -35.8881
  94   2.0000      -1.314974       -35.7823
  95   2.0000      -1.140844       -31.0439
  96   2.0000      -1.136092       -30.9146
  97   2.0000      -1.114286       -30.3213
  98   2.0000      -1.104751       -30.0618
  99   2.0000      -1.099387       -29.9159
 100   2.0000      -1.021986       -27.8096
 101   2.0000      -1.018966       -27.7275
 102   2.0000      -1.014580       -27.6081
 103   2.0000      -1.012432       -27.5497
 104   2.0000      -1.003343       -27.3024
 105   2.0000      -1.000169       -27.2160
 106   2.0000      -0.997299       -27.1379
 107   2.0000      -0.994432       -27.0599
 108   2.0000      -0.977441       -26.5975
 109   2.0000      -0.967070       -26.3153
 110   2.0000      -0.961536       -26.1647
 111   2.0000      -0.957310       -26.0497
 112   2.0000      -0.951718       -25.8976
 113   2.0000      -0.944199       -25.6930
 114   2.0000      -0.912798       -24.8385
 115   2.0000      -0.905018       -24.6268
 116   2.0000      -0.900791       -24.5118
 117   2.0000      -0.898410       -24.4470
 118   2.0000      -0.896308       -24.3898
 119   2.0000      -0.891860       -24.2687
 120   2.0000      -0.883835       -24.0504
 121   2.0000      -0.880273       -23.9535
 122   2.0000      -0.876508       -23.8510
 123   2.0000      -0.872540       -23.7430
 124   2.0000      -0.856593       -23.3091
 125   2.0000      -0.850205       -23.1353
 126   2.0000      -0.834031       -22.6951
 127   2.0000      -0.832580       -22.6557
 128   2.0000      -0.825846       -22.4724
 129   2.0000      -0.815556       -22.1924
 130   2.0000      -0.805079       -21.9073
 131   2.0000      -0.800175       -21.7739
 132   2.0000      -0.791118       -21.5274
 133   2.0000      -0.774971       -21.0880
 134   2.0000      -0.771606       -20.9965
 135   2.0000      -0.768131       -20.9019
 136   2.0000      -0.754713       -20.5368
 137   2.0000      -0.749228       -20.3875
 138   2.0000      -0.745988       -20.2994
 139   2.0000      -0.732677       -19.9372
 140   2.0000      -0.727487       -19.7959
 141   2.0000      -0.717503       -19.5243
 142   2.0000      -0.713716       -19.4212
 143   2.0000      -0.710944       -19.3458
 144   2.0000      -0.707556       -19.2536
 145   2.0000      -0.705155       -19.1882
 146   2.0000      -0.702106       -19.1053
 147   2.0000      -0.691486       -18.8163
 148   2.0000      -0.681690       -18.5497
 149   2.0000      -0.671316       -18.2674
 150   2.0000      -0.666827       -18.1453
 151   2.0000      -0.664767       -18.0892
 152   2.0000      -0.659265       -17.9395
 153   2.0000      -0.652506       -17.7556
 154   2.0000      -0.647652       -17.6235
 155   2.0000      -0.644753       -17.5446
 156   2.0000      -0.643536       -17.5115
 157   2.0000      -0.639081       -17.3903
 158   2.0000      -0.633487       -17.2380
 159   2.0000      -0.620629       -16.8882
 160   2.0000      -0.618706       -16.8358
 161   2.0000      -0.613838       -16.7034
 162   2.0000      -0.608124       -16.5479
 163   2.0000      -0.597707       -16.2644
 164   2.0000      -0.596872       -16.2417
 165   2.0000      -0.596099       -16.2207
 166   2.0000      -0.593169       -16.1410
 167   2.0000      -0.592996       -16.1363
 168   2.0000      -0.591197       -16.0873
 169   2.0000      -0.587238       -15.9796
 170   2.0000      -0.582774       -15.8581
 171   2.0000      -0.575339       -15.6558
 172   2.0000      -0.573879       -15.6160
 173   2.0000      -0.570224       -15.5166
 174   2.0000      -0.562246       -15.2995
 175   2.0000      -0.557364       -15.1667
 176   2.0000      -0.555148       -15.1063
 177   2.0000      -0.553727       -15.0677
 178   2.0000      -0.551188       -14.9986
 179   2.0000      -0.550071       -14.9682
 180   2.0000      -0.547239       -14.8911
 181   2.0000      -0.546780       -14.8786
 182   2.0000      -0.542638       -14.7659
 183   2.0000      -0.540723       -14.7138
 184   2.0000      -0.538484       -14.6529
 185   2.0000      -0.536591       -14.6014
 186   2.0000      -0.535555       -14.5732
 187   2.0000      -0.534888       -14.5550
 188   2.0000      -0.532563       -14.4918
 189   2.0000      -0.529945       -14.4205
 190   2.0000      -0.529214       -14.4006
 191   2.0000      -0.526414       -14.3244
 192   2.0000      -0.523842       -14.2545
 193   2.0000      -0.518073       -14.0975
 194   2.0000      -0.516516       -14.0551
 195   2.0000      -0.510049       -13.8791
 196   2.0000      -0.506922       -13.7940
 197   2.0000      -0.503319       -13.6960
 198   2.0000      -0.501229       -13.6391
 199   2.0000      -0.498564       -13.5666
 200   2.0000      -0.497555       -13.5392
 201   2.0000      -0.496362       -13.5067
 202   2.0000      -0.496041       -13.4980
 203   2.0000      -0.493460       -13.4277
 204   2.0000      -0.492210       -13.3937
 205   2.0000      -0.487895       -13.2763
 206   2.0000      -0.484484       -13.1835
 207   2.0000      -0.483194       -13.1484
 208   2.0000      -0.480137       -13.0652
 209   2.0000      -0.475972       -12.9519
 210   2.0000      -0.473766       -12.8918
 211   2.0000      -0.469830       -12.7847
 212   2.0000      -0.466985       -12.7073
 213   2.0000      -0.465410       -12.6644
 214   2.0000      -0.461989       -12.5713
 215   2.0000      -0.459752       -12.5105
 216   2.0000      -0.458383       -12.4732
 217   2.0000      -0.457477       -12.4486
 218   2.0000      -0.457230       -12.4418
 219   2.0000      -0.455059       -12.3828
 220   2.0000      -0.454805       -12.3759
 221   2.0000      -0.454600       -12.3703
 222   2.0000      -0.452058       -12.3011
 223   2.0000      -0.451466       -12.2850
 224   2.0000      -0.449431       -12.2296
 225   2.0000      -0.449154       -12.2221
 226   2.0000      -0.444944       -12.1075
 227   2.0000      -0.436554       -11.8792
 228   2.0000      -0.433033       -11.7834
 229   2.0000      -0.430661       -11.7189
 230   2.0000      -0.429964       -11.6999
 231   2.0000      -0.429275       -11.6812
 232   2.0000      -0.426833       -11.6147
 233   2.0000      -0.425381       -11.5752
 234   2.0000      -0.424789       -11.5591
 235   2.0000      -0.422062       -11.4849
 236   2.0000      -0.418560       -11.3896
 237   2.0000      -0.417183       -11.3521
 238   2.0000      -0.414742       -11.2857
 239   2.0000      -0.413480       -11.2514
 240   2.0000      -0.411598       -11.2001
 241   2.0000      -0.408042       -11.1034
 242   2.0000      -0.406796       -11.0695
 243   2.0000      -0.401021       -10.9123
 244   2.0000      -0.399136       -10.8610
 245   2.0000      -0.395490       -10.7618
 246   2.0000      -0.373822       -10.1722
 247   2.0000      -0.369632       -10.0582
 248   2.0000      -0.366063        -9.9611
 249   2.0000      -0.356078        -9.6894
 250   2.0000      -0.352408        -9.5895
 251   2.0000      -0.350907        -9.5487
 252   2.0000      -0.346434        -9.4269
 253   2.0000      -0.344811        -9.3828
 254   2.0000      -0.340991        -9.2788
 255   2.0000      -0.324496        -8.8300
 256   2.0000      -0.320686        -8.7263
 257   2.0000      -0.318178        -8.6581
 258   2.0000      -0.311529        -8.4771
 259   2.0000      -0.295279        -8.0350
 260   2.0000      -0.285229        -7.7615
 261   2.0000      -0.282350        -7.6831
 262   2.0000      -0.248325        -6.7573
 263   0.0000      -0.102429        -2.7872
 264   0.0000      -0.093853        -2.5539
 265   0.0000      -0.072270        -1.9666
 266   0.0000      -0.067765        -1.8440
 267   0.0000      -0.049467        -1.3461

MULLIKEN ATOMIC CHARGES
-----------------------
   0 C :    0.151503
   1 O :   -0.157840
   2 C :   -0.025568
   3 C :   -0.102227
   4 C :    0.230212
   5 F :   -0.161666
   6 C :    0.225484
   7 F :   -0.158407
   8 C :   -0.089216
   9 C :    0.047677
  10 C :    0.258620
  11 C :   -0.318706
  12 C :   -0.182705
  13 N :    0.131989
  14 C :   -0.166650
  15 N :    0.132198
  16 C :   -0.095720
  17 C :    0.002015
  18 C :   -0.138650
  19 S :    0.140078
  20 C :   -0.041807
  21 C :   -0.140632
  22 C :    0.003965
  23 C :    0.056591
  24 C :   -0.017661
  25 S :    0.197486
  26 C :   -0.099948
  27 C :    0.058620
  28 N :   -0.191242
  29 C :    0.084692
  30 C :   -0.007724
  31 C :    0.053379
  32 C :   -0.036784
  33 C :   -0.011261
  34 N :   -0.262738
  35 S :    0.448635
  36 N :   -0.262327
  37 C :   -0.007512
  38 C :   -0.032801
  39 C :    0.064386
  40 N :   -0.199488
  41 C :    0.088529
  42 C :   -0.002575
  43 C :    0.053409
  44 C :   -0.108030
  45 S :    0.198070
  46 C :   -0.128161
  47 C :   -0.043887
  48 S :    0.130597
  49 C :   -0.140815
  50 C :    0.019772
  51 C :    0.067489
  52 C :   -0.026304
  53 C :   -0.009246
  54 C :   -0.080293
  55 C :    0.242958
  56 C :   -0.305548
  57 C :   -0.167199
  58 N :    0.133814
  59 C :   -0.185781
  60 N :    0.142546
  61 C :    0.050549
  62 C :   -0.092875
  63 C :    0.228447
  64 F :   -0.156760
  65 C :    0.230043
  66 F :   -0.159407
  67 C :   -0.099722
  68 C :   -0.026803
  69 C :    0.141199
  70 O :   -0.146158
  71 H :    0.019324
  72 H :    0.023478
  73 H :    0.035715
  74 H :    0.062897
  75 H :    0.002354
  76 H :    0.026355
  77 H :    0.026664
  78 H :    0.026826
  79 H :    0.043844
  80 H :    0.019926
  81 H :    0.031001
  82 H :    0.034769
  83 H :    0.040722
  84 H :    0.041341
  85 H :    0.019811
  86 H :    0.032676
  87 H :    0.037854
  88 H :    0.032220
  89 H :    0.005034
  90 H :    0.030504
  91 H :    0.020230
  92 H :    0.019394
  93 H :    0.048746
  94 H :    0.044399
  95 H :    0.025846
  96 H :    0.021963
Sum of atomic charges:   -0.0000000

LOEWDIN ATOMIC CHARGES
----------------------
   0 C :    0.086754
   1 O :   -0.143816
   2 C :   -0.045428
   3 C :   -0.013188
   4 C :    0.067748
   5 F :   -0.038901
   6 C :    0.068782
   7 F :   -0.037356
   8 C :   -0.023218
   9 C :   -0.016246
  10 C :    0.078663
  11 C :   -0.141627
  12 C :   -0.019624
  13 N :   -0.056828
  14 C :   -0.014791
  15 N :   -0.055117
  16 C :   -0.115277
  17 C :    0.043829
  18 C :   -0.175309
  19 S :    0.435381
  20 C :   -0.191754
  21 C :   -0.189563
  22 C :    0.002169
  23 C :   -0.037680
  24 C :   -0.052890
  25 S :    0.421493
  26 C :   -0.163099
  27 C :   -0.040236
  28 N :    0.029960
  29 C :    0.037775
  30 C :   -0.066884
  31 C :    0.017993
  32 C :   -0.077942
  33 C :   -0.051935
  34 N :   -0.276450
  35 S :    0.578907
  36 N :   -0.275349
  37 C :   -0.053173
  38 C :   -0.073363
  39 C :    0.013350
  40 N :    0.017650
  41 C :    0.040110
  42 C :   -0.066556
  43 C :   -0.036469
  44 C :   -0.169362
  45 S :    0.431262
  46 C :   -0.187155
  47 C :   -0.193327
  48 S :    0.424822
  49 C :   -0.180013
  50 C :   -0.003624
  51 C :   -0.031196
  52 C :   -0.058439
  53 C :    0.048443
  54 C :   -0.104615
  55 C :    0.076274
  56 C :   -0.135323
  57 C :   -0.014052
  58 N :   -0.051474
  59 C :   -0.021447
  60 N :   -0.050058
  61 C :   -0.015457
  62 C :   -0.023266
  63 C :    0.070050
  64 F :   -0.035556
  65 C :    0.067801
  66 F :   -0.036698
  67 C :   -0.011958
  68 C :   -0.046056
  69 C :    0.085462
  70 O :   -0.135499
  71 H :    0.054224
  72 H :    0.053314
  73 H :    0.043584
  74 H :    0.044561
  75 H :    0.025382
  76 H :    0.024726
  77 H :    0.031809
  78 H :    0.028811
  79 H :    0.034812
  80 H :    0.028608
  81 H :    0.027543
  82 H :    0.021855
  83 H :    0.040099
  84 H :    0.034988
  85 H :    0.027968
  86 H :    0.018423
  87 H :    0.039728
  88 H :    0.028528
  89 H :    0.030988
  90 H :    0.038928
  91 H :    0.029272
  92 H :    0.014454
  93 H :    0.031577
  94 H :    0.046692
  95 H :    0.053936
  96 H :    0.055160

  Mayer bond orders larger than 0.100000
B(  0-C ,  1-O ) :   2.1724 B(  0-C ,  2-C ) :   0.9428 B(  0-C , 16-C ) :   0.9734
B(  2-C ,  3-C ) :   1.3199 B(  2-C ,  9-C ) :   1.3548 B(  3-C ,  4-C ) :   1.3250
B(  3-C ,  8-C ) :   0.1034 B(  3-C , 71-H ) :   1.0115 B(  4-C ,  5-F ) :   1.1369
B(  4-C ,  6-C ) :   1.2807 B(  6-C ,  7-F ) :   1.1494 B(  6-C ,  8-C ) :   1.3507
B(  8-C ,  9-C ) :   1.3036 B(  8-C , 72-H ) :   0.9853 B(  9-C , 10-C ) :   1.0065
B( 10-C , 11-C ) :   1.6362 B( 10-C , 16-C ) :   1.0891 B( 11-C , 12-C ) :   1.1285
B( 11-C , 14-C ) :   1.1250 B( 12-C , 13-N ) :   2.9784 B( 14-C , 15-N ) :   2.9728
B( 16-C , 17-C ) :   1.5521 B( 17-C , 18-C ) :   1.2331 B( 17-C , 73-H ) :   0.9115
B( 18-C , 19-S ) :   1.0494 B( 18-C , 22-C ) :   1.4092 B( 19-S , 20-C ) :   1.0843
B( 20-C , 21-C ) :   1.4147 B( 20-C , 27-C ) :   1.2681 B( 21-C , 22-C ) :   1.3663
B( 21-C , 25-S ) :   1.0345 B( 22-C , 23-C ) :   1.0841 B( 23-C , 24-C ) :   1.0983
B( 23-C , 74-H ) :   0.8858 B( 23-C , 75-H ) :   0.9202 B( 24-C , 76-H ) :   0.9706
B( 24-C , 77-H ) :   0.9664 B( 24-C , 78-H ) :   0.9694 B( 25-S , 26-C ) :   1.0291
B( 26-C , 27-C ) :   1.4212 B( 26-C , 32-C ) :   1.3382 B( 27-C , 28-N ) :   1.1378
B( 28-N , 29-C ) :   0.9308 B( 28-N , 31-C ) :   1.1745 B( 29-C , 30-C ) :   1.0997
B( 29-C , 79-H ) :   0.9441 B( 29-C , 80-H ) :   0.9464 B( 30-C , 81-H ) :   0.9601
B( 30-C , 82-H ) :   0.9536 B( 30-C , 83-H ) :   0.9626 B( 31-C , 32-C ) :   1.3870
B( 31-C , 39-C ) :   1.1230 B( 32-C , 33-C ) :   1.1052 B( 33-C , 34-N ) :   1.6497
B( 33-C , 37-C ) :   1.1093 B( 34-N , 35-S ) :   1.1973 B( 34-N , 36-N ) :   0.1333
B( 35-S , 36-N ) :   1.1981 B( 36-N , 37-C ) :   1.6499 B( 37-C , 38-C ) :   1.0974
B( 38-C , 39-C ) :   1.4156 B( 38-C , 44-C ) :   1.3268 B( 39-C , 40-N ) :   1.1534
B( 40-N , 41-C ) :   0.9236 B( 40-N , 43-C ) :   1.1354 B( 41-C , 42-C ) :   1.1004
B( 41-C , 84-H ) :   0.9455 B( 41-C , 85-H ) :   0.9485 B( 42-C , 86-H ) :   0.9537
B( 42-C , 87-H ) :   0.9605 B( 42-C , 88-H ) :   0.9596 B( 43-C , 44-C ) :   1.4363
B( 43-C , 47-C ) :   1.2714 B( 44-C , 45-S ) :   1.0316 B( 45-S , 46-C ) :   1.0421
B( 46-C , 47-C ) :   1.4363 B( 46-C , 50-C ) :   1.3235 B( 47-C , 48-S ) :   1.0743
B( 48-S , 49-C ) :   1.0444 B( 49-C , 50-C ) :   1.4827 B( 49-C , 53-C ) :   1.1597
B( 50-C , 51-C ) :   1.0757 B( 51-C , 52-C ) :   1.0872 B( 51-C , 89-H ) :   0.9173
B( 51-C , 90-H ) :   0.9262 B( 52-C , 91-H ) :   0.9647 B( 52-C , 92-H ) :   0.9667
B( 52-C , 93-H ) :   0.9649 B( 53-C , 54-C ) :   1.6141 B( 53-C , 94-H ) :   0.9286
B( 54-C , 55-C ) :   1.0649 B( 54-C , 69-C ) :   0.9563 B( 55-C , 56-C ) :   1.6583
B( 55-C , 61-C ) :   1.0149 B( 56-C , 57-C ) :   1.1200 B( 56-C , 59-C ) :   1.1251
B( 57-C , 58-N ) :   2.9747 B( 59-C , 60-N ) :   2.9923 B( 61-C , 62-C ) :   1.3016
B( 61-C , 68-C ) :   1.3507 B( 62-C , 63-C ) :   1.3543 B( 62-C , 67-C ) :   0.1030
B( 62-C , 95-H ) :   0.9854 B( 63-C , 64-F ) :   1.1507 B( 63-C , 65-C ) :   1.2754
B( 65-C , 66-F ) :   1.1399 B( 65-C , 67-C ) :   1.3277 B( 67-C , 68-C ) :   1.3198
B( 67-C , 96-H ) :   1.0116 B( 68-C , 69-C ) :   0.9531 B( 69-C , 70-O ) :   2.1859

-----------------------------------------------------------------------------
         ABSORPTION SPECTRUM VIA TRANSITION ELECTRIC DIPOLE MOMENTS
-----------------------------------------------------------------------------
State   Energy  Wavelength   fosc         T2         TX        TY        TZ
        (cm-1)    (nm)                  (au**2)     (au)      (au)      (au)
-----------------------------------------------------------------------------
   0   17287.8    578.4   2.320075662  44.18123  -2.37263  -2.12565   5.83382
   1   20335.1    491.8   0.462507864   7.48769  -1.31402   2.35563   0.46050
   2   24441.8    409.1   0.120477288   1.62273   0.24344   0.60147  -1.09622
   3   24906.0    401.5   0.106482319   1.40750  -0.84609   0.81537  -0.16375
   4   25236.1    396.3   0.039983021   0.52159  -0.62333  -0.31969   0.17561
   5   25753.4    388.3   0.103014494   1.31686  -0.56457  -0.20799   0.97717
   6   26783.6    373.4   0.023263525   0.28594  -0.27325   0.41822   0.19073
   7   26871.0    372.1   0.106101882   1.29991   0.34102  -1.08145  -0.11866
   8   28576.6    349.9   0.021312829   0.24553   0.19856  -0.06208  -0.44972
   9   30004.2    333.3   0.049553975   0.54372  -0.06732   0.69945  -0.22351
  10   30520.4    327.6   0.093830890   1.01212   0.64568   0.01099  -0.77143
  11   30808.1    324.6   0.099521234   1.06347   0.85210   0.35391  -0.46059
  12   31094.3    321.6   0.096352534   1.02013  -0.16987  -0.88515   0.45583
  13   31153.0    321.0   0.161489817   1.70656   0.43308   0.42273   1.15771
  14   32078.8    311.7   0.088757734   0.91089  -0.20321  -0.88875  -0.28235
  15   32448.0    308.2   0.014420735   0.14631  -0.28412  -0.03083  -0.25424
  16   32746.0    305.4   0.025271158   0.25406   0.19251  -0.39002   0.25473
  17   33013.9    302.9   0.032987726   0.32895  -0.00099   0.37941   0.43011
  18   33420.7    299.2   0.093018353   0.91628  -0.62682   0.69543   0.19940
  19   33798.0    295.9   0.068355276   0.66582   0.75055  -0.29378   0.12725
  20   34148.6    292.8   0.090797042   0.87533   0.05633  -0.92166  -0.15067
  21   34385.8    290.8   0.031343560   0.30009   0.11892   0.22656  -0.48437
  22   34507.6    289.8   0.035542102   0.33908  -0.36730  -0.31898   0.32004
  23   34830.7    287.1   0.028954730   0.27367  -0.18442   0.48887  -0.02580
  24   35016.5    285.6   0.012068441   0.11346   0.22587  -0.00871  -0.24974
  25   35728.6    279.9   0.522325390   4.81283   0.52868   0.92270  -1.91884
  26   35929.8    278.3   0.183450115   1.68089   0.62575   1.12796   0.13049
  27   36486.0    274.1   0.065465262   0.59069   0.14545   0.33026  -0.67858
  28   36711.1    272.4   0.007950482   0.07130   0.13670   0.13219   0.18745
  29   37081.4    269.7   0.630985483   5.60195   0.66899   1.91699   1.21638
  30   37217.3    268.7   0.007332999   0.06487  -0.07465   0.12936  -0.20630
  31   37676.9    265.4   0.018613132   0.16264   0.32845   0.17504   0.15529
  32   37990.1    263.2   0.030486766   0.26419   0.38792   0.08833  -0.32544
  33   38180.7    261.9   0.415942348   3.58645  -0.21019   1.81444   0.50009
  34   38504.3    259.7   0.239564204   2.04828   0.16304  -1.41630  -0.12566
  35   39134.9    255.5   0.085469261   0.71899  -0.26071   0.76553   0.25491
  36   39243.5    254.8   0.000660721   0.00554   0.05174   0.05293  -0.00802
  37   39550.9    252.8   0.056144166   0.46733   0.25548  -0.63250   0.04474

FINAL SINGLE POINT ENERGY     -4971.628305539454

DIPOLE MOMENT
-------------
                                X             Y             Z
Electronic contribution:      8.72365       2.92834       5.71010
Nuclear contribution   :     -8.09526      -1.04482      -4.40904
                        -----------------------------------------
Total Dipole Moment    :      0.62839       1.88352       1.30106
                        -----------------------------------------
Magnitude (a.u.)       :      2.37387
Magnitude (Debye)      :      6.03390

Rotational constants in cm-1:     0.002092     0.000227     0.000213
Rotational constants in MHz :    62.703793     6.816365     6.397505

                             ****ORCA TERMINATED NORMALLY****
TOTAL RUN TIME: 0 days 1 hours 2 minutes 49 seconds 328 msec
