                         Program Version 4.2.0 -  RELEASE  -
|  1> # ORCA input file
|  2> # NITV.out
|  3> ! CAM-B3LYP def2-SVP def2/J RIJCOSX Grid4 TightSCF
|  4> %maxcore 5000
|  5> %tddft
|  6>     Mode sTDDFT
|  7>     Ethresh 5.0
|  8>     maxcore 5000
|  9> end
| 10> * xyz 0 1
| 11>    C       -0.50410        -1.84186        -0.17293
| 12>    C        5.04718         4.45477        -0.71344
| 13>    C       -0.99553        -3.16148        -0.08256
| 14>    C       -0.43812        -4.40205        -0.08943
| 15>    C        5.44481         5.80537        -0.69346
| 16>    C        4.70135         6.94346        -0.56808
| 17>    C        0.90449        -4.95147        -0.17206
| 18>    C        0.75897        -6.36301        -0.15348
| 19>    C       -0.57413        -6.79013        -0.05776
| 20>    C       -1.39751        -5.55716        -0.00240
| 21>    C        5.24756         8.29224        -0.56635
| 22>    C        4.15161         9.17183        -0.42400
| 23>    C        2.92162         8.50453        -0.33234
| 24>    C        3.22949         7.05060        -0.41812
| 25>    C        2.19461        -4.46212        -0.24959
| 26>    C        3.27915        -5.34945        -0.31559
| 27>    C        3.12326        -6.72538        -0.30685
| 28>    C        1.82317        -7.25486        -0.22117
| 29>    C        1.53054        -8.63013        -0.20228
| 30>    C        0.21339        -9.04968        -0.11023
| 31>    C       -0.85192        -8.13870        -0.03434
| 32>    C        4.25181        -7.66151        -0.37708
| 33>    N        3.92531        -9.01540        -0.34798
| 34>    C        2.65582        -9.57947        -0.28596
| 35>    C        5.05418        -9.93801        -0.39987
| 36>    C        5.76826       -10.06883         0.95164
| 37>    C        4.80401       -10.53322         2.03973
| 38>    C        6.92591       -11.05194         0.80399
| 39>    C        1.76996         9.24736        -0.19614
| 40>    C        1.87012        10.64843        -0.15459
| 41>    C        3.08779        11.30344        -0.24531
| 42>    C        4.26909        10.55419        -0.38363
| 43>    C        5.55883        11.10547        -0.49094
| 44>    C        6.64152        10.25053        -0.62963
| 45>    C        6.50456         8.85372        -0.66881
| 46>    C        5.69055        12.56789        -0.45419
| 47>    N        4.50048        13.28068        -0.29665
| 48>    C        3.21116        12.77229        -0.20466
| 49>    C        4.60844        14.73459        -0.23429
| 50>    C        4.46268        15.27508         1.19406
| 51>    C        5.51058        14.66514         2.12097
| 52>    C        4.59295        16.79501         1.16089
| 53>    O        5.40991        -7.30636        -0.46128
| 54>    O        2.49865       -10.78251        -0.30804
| 55>    O       -2.60167        -5.47115         0.09099
| 56>    O        2.42284         6.14102        -0.37100
| 57>    O        6.75481        13.14117        -0.55988
| 58>    O        2.25563        13.51344        -0.10212
| 59>    C       -1.32419        -0.72314        -0.13029
| 60>    C       -0.66483         0.49859        -0.24919
| 61>    C        0.71190         0.33921        -0.38788
| 62>    S        1.15164        -1.34533        -0.37096
| 63>    C        5.93427         3.39092        -0.85341
| 64>    C        5.34404         2.13304        -0.84890
| 65>    C        3.95825         2.21723        -0.70048
| 66>    S        3.41800         3.86476        -0.57411
| 67>    C        1.68800         1.35522        -0.51030
| 68>    C        3.02256         1.15402        -0.63295
| 69>    C        6.13406         0.86864        -0.95934
| 70>    C        6.77280         0.46942         0.38439
| 71>    C        5.70802         0.09615         1.41115
| 72>    C        7.73843        -0.69353         0.17392
| 73>    C       -1.37883         1.81020        -0.19772
| 74>    C       -1.67054         2.25568         1.24798
| 75>    C       -0.38194         2.55335         2.00849
| 76>    C       -2.56964         3.48865         1.23166
| 77>    H       -2.08038        -3.19348         0.00755
| 78>    H        6.51660         5.94493        -0.79625
| 79>    H        2.39867        -3.40550        -0.25901
| 80>    H        4.28289        -4.95472        -0.37686
| 81>    H        0.01722       -10.11175        -0.09686
| 82>    H       -1.86775        -8.49543         0.03992
| 83>    H        5.75663        -9.56173        -1.14733
| 84>    H        4.66382       -10.90834        -0.71096
| 85>    H        6.16980        -9.08708         1.22276
| 86>    H        4.32901       -11.46822         1.75108
| 87>    H        4.02397        -9.79418         2.21449
| 88>    H        5.33788       -10.68772         2.97461
| 89>    H        6.55275       -12.03762         0.53412
| 90>    H        7.47189       -11.13558         1.74038
| 91>    H        7.61643       -10.71935         0.03266
| 92>    H        0.80393         8.77145        -0.12371
| 93>    H        0.97744        11.24758        -0.04967
| 94>    H        7.62491        10.69031        -0.71074
| 95>    H        7.38903         8.24444        -0.77968
| 96>    H        3.82013        15.15423        -0.86391
| 97>    H        5.58711        15.00203        -0.63596
| 98>    H        3.46446        15.01366         1.55940
| 99>    H        6.51054        14.84446         1.73220
|100>    H        5.37006        13.58997         2.21830
|101>    H        5.43801        15.10603         3.11253
|102>    H        5.57820        17.08255         0.80021
|103>    H        4.45781        17.20723         2.15766
|104>    H        3.84283        17.23042         0.50519
|105>    H       -2.39123        -0.80717        -0.01721
|106>    H        6.99473         3.54461        -0.96116
|107>    H        1.32328         2.37254        -0.48623
|108>    H        3.40555         0.14318        -0.66784
|109>    H        6.93175         1.02078        -1.69018
|110>    H        5.50505         0.05183        -1.31425
|111>    H        7.33541         1.33024         0.76311
|112>    H        5.14641        -0.77448         1.07852
|113>    H        5.01274         0.91759         1.56792
|114>    H        6.17269        -0.14459         2.36445
|115>    H        7.21104        -1.55931        -0.22081
|116>    H        8.20177        -0.97653         1.11600
|117>    H        8.52566        -0.42272        -0.52614
|118>    H       -2.32959         1.70475        -0.72528
|119>    H       -0.79954         2.58553        -0.69948
|120>    H       -2.19745         1.44047         1.75701
|121>    H        0.15827         3.37309         1.53945
|122>    H        0.26705         1.68103         2.03605
|123>    H       -0.60976         2.83918         3.03280
|124>    H       -2.07366         4.31027         0.71939
|125>    H       -2.79619         3.80552         2.24690
|126>    H       -3.50739         3.27981         0.72160
|127> *
|128>
|129>                          ****END OF INPUT****

CARTESIAN COORDINATES (ANGSTROEM)
---------------------------------
  C     -0.504100   -1.841860   -0.172930
  C      5.047180    4.454770   -0.713440
  C     -0.995530   -3.161480   -0.082560
  C     -0.438120   -4.402050   -0.089430
  C      5.444810    5.805370   -0.693460
  C      4.701350    6.943460   -0.568080
  C      0.904490   -4.951470   -0.172060
  C      0.758970   -6.363010   -0.153480
  C     -0.574130   -6.790130   -0.057760
  C     -1.397510   -5.557160   -0.002400
  C      5.247560    8.292240   -0.566350
  C      4.151610    9.171830   -0.424000
  C      2.921620    8.504530   -0.332340
  C      3.229490    7.050600   -0.418120
  C      2.194610   -4.462120   -0.249590
  C      3.279150   -5.349450   -0.315590
  C      3.123260   -6.725380   -0.306850
  C      1.823170   -7.254860   -0.221170
  C      1.530540   -8.630130   -0.202280
  C      0.213390   -9.049680   -0.110230
  C     -0.851920   -8.138700   -0.034340
  C      4.251810   -7.661510   -0.377080
  N      3.925310   -9.015400   -0.347980
  C      2.655820   -9.579470   -0.285960
  C      5.054180   -9.938010   -0.399870
  C      5.768260  -10.068830    0.951640
  C      4.804010  -10.533220    2.039730
  C      6.925910  -11.051940    0.803990
  C      1.769960    9.247360   -0.196140
  C      1.870120   10.648430   -0.154590
  C      3.087790   11.303440   -0.245310
  C      4.269090   10.554190   -0.383630
  C      5.558830   11.105470   -0.490940
  C      6.641520   10.250530   -0.629630
  C      6.504560    8.853720   -0.668810
  C      5.690550   12.567890   -0.454190
  N      4.500480   13.280680   -0.296650
  C      3.211160   12.772290   -0.204660
  C      4.608440   14.734590   -0.234290
  C      4.462680   15.275080    1.194060
  C      5.510580   14.665140    2.120970
  C      4.592950   16.795010    1.160890
  O      5.409910   -7.306360   -0.461280
  O      2.498650  -10.782510   -0.308040
  O     -2.601670   -5.471150    0.090990
  O      2.422840    6.141020   -0.371000
  O      6.754810   13.141170   -0.559880
  O      2.255630   13.513440   -0.102120
  C     -1.324190   -0.723140   -0.130290
  C     -0.664830    0.498590   -0.249190
  C      0.711900    0.339210   -0.387880
  S      1.151640   -1.345330   -0.370960
  C      5.934270    3.390920   -0.853410
  C      5.344040    2.133040   -0.848900
  C      3.958250    2.217230   -0.700480
  S      3.418000    3.864760   -0.574110
  C      1.688000    1.355220   -0.510300
  C      3.022560    1.154020   -0.632950
  C      6.134060    0.868640   -0.959340
  C      6.772800    0.469420    0.384390
  C      5.708020    0.096150    1.411150
  C      7.738430   -0.693530    0.173920
  C     -1.378830    1.810200   -0.197720
  C     -1.670540    2.255680    1.247980
  C     -0.381940    2.553350    2.008490
  C     -2.569640    3.488650    1.231660
  H     -2.080380   -3.193480    0.007550
  H      6.516600    5.944930   -0.796250
  H      2.398670   -3.405500   -0.259010
  H      4.282890   -4.954720   -0.376860
  H      0.017220  -10.111750   -0.096860
  H     -1.867750   -8.495430    0.039920
  H      5.756630   -9.561730   -1.147330
  H      4.663820  -10.908340   -0.710960
  H      6.169800   -9.087080    1.222760
  H      4.329010  -11.468220    1.751080
  H      4.023970   -9.794180    2.214490
  H      5.337880  -10.687720    2.974610
  H      6.552750  -12.037620    0.534120
  H      7.471890  -11.135580    1.740380
  H      7.616430  -10.719350    0.032660
  H      0.803930    8.771450   -0.123710
  H      0.977440   11.247580   -0.049670
  H      7.624910   10.690310   -0.710740
  H      7.389030    8.244440   -0.779680
  H      3.820130   15.154230   -0.863910
  H      5.587110   15.002030   -0.635960
  H      3.464460   15.013660    1.559400
  H      6.510540   14.844460    1.732200
  H      5.370060   13.589970    2.218300
  H      5.438010   15.106030    3.112530
  H      5.578200   17.082550    0.800210
  H      4.457810   17.207230    2.157660
  H      3.842830   17.230420    0.505190
  H     -2.391230   -0.807170   -0.017210
  H      6.994730    3.544610   -0.961160
  H      1.323280    2.372540   -0.486230
  H      3.405550    0.143180   -0.667840
  H      6.931750    1.020780   -1.690180
  H      5.505050    0.051830   -1.314250
  H      7.335410    1.330240    0.763110
  H      5.146410   -0.774480    1.078520
  H      5.012740    0.917590    1.567920
  H      6.172690   -0.144590    2.364450
  H      7.211040   -1.559310   -0.220810
  H      8.201770   -0.976530    1.116000
  H      8.525660   -0.422720   -0.526140
  H     -2.329590    1.704750   -0.725280
  H     -0.799540    2.585530   -0.699480
  H     -2.197450    1.440470    1.757010
  H      0.158270    3.373090    1.539450
  H      0.267050    1.681030    2.036050
  H     -0.609760    2.839180    3.032800
  H     -2.073660    4.310270    0.719390
  H     -2.796190    3.805520    2.246900
  H     -3.507390    3.279810    0.721600

 Total Charge           Charge          ....    0
 Multiplicity           Mult            ....    1
 Number of Electrons    NEL             ....  480
 Basis Dimension        Dim             .... 1182

ORBITAL ENERGIES
----------------

  NO   OCC          E(Eh)            E(eV)
   0   2.0000     -88.966159     -2420.8923
   1   2.0000     -88.955871     -2420.6123
   2   2.0000     -19.220591      -523.0189
   3   2.0000     -19.209776      -522.7246
   4   2.0000     -19.198923      -522.4293
   5   2.0000     -19.196919      -522.3747
   6   2.0000     -19.196777      -522.3709
   7   2.0000     -19.195328      -522.3314
   8   2.0000     -14.454205      -393.3189
   9   2.0000     -14.452887      -393.2831
  10   2.0000     -10.387131      -282.6482
  11   2.0000     -10.386094      -282.6200
  12   2.0000     -10.385969      -282.6166
  13   2.0000     -10.383814      -282.5579
  14   2.0000     -10.370807      -282.2040
  15   2.0000     -10.359960      -281.9088
  16   2.0000     -10.316115      -280.7158
  17   2.0000     -10.314170      -280.6628
  18   2.0000     -10.313365      -280.6409
  19   2.0000     -10.310280      -280.5570
  20   2.0000     -10.303785      -280.3802
  21   2.0000     -10.302973      -280.3582
  22   2.0000     -10.302880      -280.3556
  23   2.0000     -10.302721      -280.3513
  24   2.0000     -10.299774      -280.2711
  25   2.0000     -10.299454      -280.2624
  26   2.0000     -10.298802      -280.2447
  27   2.0000     -10.298351      -280.2324
  28   2.0000     -10.297322      -280.2044
  29   2.0000     -10.296214      -280.1742
  30   2.0000     -10.295271      -280.1486
  31   2.0000     -10.295101      -280.1439
  32   2.0000     -10.295006      -280.1414
  33   2.0000     -10.294923      -280.1391
  34   2.0000     -10.294000      -280.1140
  35   2.0000     -10.293348      -280.0962
  36   2.0000     -10.293037      -280.0878
  37   2.0000     -10.292563      -280.0749
  38   2.0000     -10.292346      -280.0690
  39   2.0000     -10.291246      -280.0390
  40   2.0000     -10.289664      -279.9960
  41   2.0000     -10.289149      -279.9820
  42   2.0000     -10.289092      -279.9804
  43   2.0000     -10.288323      -279.9595
  44   2.0000     -10.288001      -279.9507
  45   2.0000     -10.287206      -279.9291
  46   2.0000     -10.286219      -279.9022
  47   2.0000     -10.285990      -279.8960
  48   2.0000     -10.285794      -279.8907
  49   2.0000     -10.284673      -279.8602
  50   2.0000     -10.283913      -279.8395
  51   2.0000     -10.283719      -279.8342
  52   2.0000     -10.273985      -279.5693
  53   2.0000     -10.273887      -279.5667
  54   2.0000     -10.273225      -279.5487
  55   2.0000     -10.272070      -279.5172
  56   2.0000     -10.255577      -279.0684
  57   2.0000     -10.255381      -279.0631
  58   2.0000     -10.254899      -279.0500
  59   2.0000     -10.254590      -279.0416
  60   2.0000     -10.253967      -279.0246
  61   2.0000     -10.251555      -278.9590
  62   2.0000     -10.243796      -278.7479
  63   2.0000     -10.243244      -278.7328
  64   2.0000     -10.240454      -278.6569
  65   2.0000     -10.239523      -278.6316
  66   2.0000      -8.061146      -219.3549
  67   2.0000      -8.049756      -219.0450
  68   2.0000      -6.030297      -164.0927
  69   2.0000      -6.026450      -163.9881
  70   2.0000      -6.023323      -163.9030
  71   2.0000      -6.019078      -163.7874
  72   2.0000      -6.014720      -163.6688
  73   2.0000      -6.011948      -163.5934
  74   2.0000      -1.147592       -31.2276
  75   2.0000      -1.146010       -31.1845
  76   2.0000      -1.134726       -30.8775
  77   2.0000      -1.125063       -30.6145
  78   2.0000      -1.123769       -30.5793
  79   2.0000      -1.123312       -30.5669
  80   2.0000      -1.025912       -27.9165
  81   2.0000      -1.024366       -27.8744
  82   2.0000      -1.007970       -27.4283
  83   2.0000      -1.004299       -27.3284
  84   2.0000      -0.998076       -27.1590
  85   2.0000      -0.991447       -26.9787
  86   2.0000      -0.947162       -25.7736
  87   2.0000      -0.941770       -25.6269
  88   2.0000      -0.935147       -25.4466
  89   2.0000      -0.932228       -25.3672
  90   2.0000      -0.917855       -24.9761
  91   2.0000      -0.911770       -24.8105
  92   2.0000      -0.908255       -24.7149
  93   2.0000      -0.891226       -24.2515
  94   2.0000      -0.884877       -24.0787
  95   2.0000      -0.878931       -23.9169
  96   2.0000      -0.871454       -23.7135
  97   2.0000      -0.855732       -23.2856
  98   2.0000      -0.853527       -23.2256
  99   2.0000      -0.847930       -23.0734
 100   2.0000      -0.845156       -22.9979
 101   2.0000      -0.843396       -22.9500
 102   2.0000      -0.836777       -22.7699
 103   2.0000      -0.828964       -22.5573
 104   2.0000      -0.811168       -22.0730
 105   2.0000      -0.796401       -21.6712
 106   2.0000      -0.786852       -21.4113
 107   2.0000      -0.771102       -20.9828
 108   2.0000      -0.768678       -20.9168
 109   2.0000      -0.767782       -20.8924
 110   2.0000      -0.765672       -20.8350
 111   2.0000      -0.765416       -20.8280
 112   2.0000      -0.763848       -20.7854
 113   2.0000      -0.763135       -20.7660
 114   2.0000      -0.755477       -20.5576
 115   2.0000      -0.754782       -20.5387
 116   2.0000      -0.742696       -20.2098
 117   2.0000      -0.727208       -19.7883
 118   2.0000      -0.721502       -19.6331
 119   2.0000      -0.717593       -19.5267
 120   2.0000      -0.710610       -19.3367
 121   2.0000      -0.706571       -19.2268
 122   2.0000      -0.692169       -18.8349
 123   2.0000      -0.676373       -18.4050
 124   2.0000      -0.667337       -18.1592
 125   2.0000      -0.660042       -17.9607
 126   2.0000      -0.656346       -17.8601
 127   2.0000      -0.651289       -17.7225
 128   2.0000      -0.647329       -17.6147
 129   2.0000      -0.642267       -17.4770
 130   2.0000      -0.641057       -17.4440
 131   2.0000      -0.636423       -17.3180
 132   2.0000      -0.631643       -17.1879
 133   2.0000      -0.630220       -17.1492
 134   2.0000      -0.618244       -16.8233
 135   2.0000      -0.614707       -16.7270
 136   2.0000      -0.609959       -16.5978
 137   2.0000      -0.604909       -16.4604
 138   2.0000      -0.601781       -16.3753
 139   2.0000      -0.593830       -16.1589
 140   2.0000      -0.589066       -16.0293
 141   2.0000      -0.576409       -15.6849
 142   2.0000      -0.574103       -15.6221
 143   2.0000      -0.565004       -15.3745
 144   2.0000      -0.563793       -15.3416
 145   2.0000      -0.562121       -15.2961
 146   2.0000      -0.559914       -15.2360
 147   2.0000      -0.555930       -15.1276
 148   2.0000      -0.554763       -15.0959
 149   2.0000      -0.547323       -14.8934
 150   2.0000      -0.545685       -14.8488
 151   2.0000      -0.541694       -14.7403
 152   2.0000      -0.539221       -14.6730
 153   2.0000      -0.533686       -14.5223
 154   2.0000      -0.533300       -14.5118
 155   2.0000      -0.530410       -14.4332
 156   2.0000      -0.528269       -14.3749
 157   2.0000      -0.527126       -14.3438
 158   2.0000      -0.526789       -14.3347
 159   2.0000      -0.525988       -14.3129
 160   2.0000      -0.525903       -14.3106
 161   2.0000      -0.524272       -14.2662
 162   2.0000      -0.522389       -14.2149
 163   2.0000      -0.521811       -14.1992
 164   2.0000      -0.519479       -14.1357
 165   2.0000      -0.513379       -13.9698
 166   2.0000      -0.510888       -13.9020
 167   2.0000      -0.508131       -13.8270
 168   2.0000      -0.507233       -13.8025
 169   2.0000      -0.503961       -13.7135
 170   2.0000      -0.502563       -13.6754
 171   2.0000      -0.498388       -13.5618
 172   2.0000      -0.495831       -13.4922
 173   2.0000      -0.494891       -13.4667
 174   2.0000      -0.488237       -13.2856
 175   2.0000      -0.485662       -13.2155
 176   2.0000      -0.484147       -13.1743
 177   2.0000      -0.483598       -13.1594
 178   2.0000      -0.481562       -13.1040
 179   2.0000      -0.479745       -13.0545
 180   2.0000      -0.479349       -13.0438
 181   2.0000      -0.476199       -12.9580
 182   2.0000      -0.475160       -12.9298
 183   2.0000      -0.470134       -12.7930
 184   2.0000      -0.467458       -12.7202
 185   2.0000      -0.466009       -12.6808
 186   2.0000      -0.464901       -12.6506
 187   2.0000      -0.462776       -12.5928
 188   2.0000      -0.462414       -12.5829
 189   2.0000      -0.460677       -12.5357
 190   2.0000      -0.459590       -12.5061
 191   2.0000      -0.458163       -12.4672
 192   2.0000      -0.453955       -12.3527
 193   2.0000      -0.450547       -12.2600
 194   2.0000      -0.449478       -12.2309
 195   2.0000      -0.448508       -12.2045
 196   2.0000      -0.444222       -12.0879
 197   2.0000      -0.442892       -12.0517
 198   2.0000      -0.440656       -11.9909
 199   2.0000      -0.440064       -11.9748
 200   2.0000      -0.437321       -11.9001
 201   2.0000      -0.435035       -11.8379
 202   2.0000      -0.429333       -11.6828
 203   2.0000      -0.426220       -11.5980
 204   2.0000      -0.426018       -11.5925
 205   2.0000      -0.418715       -11.3938
 206   2.0000      -0.417142       -11.3510
 207   2.0000      -0.413353       -11.2479
 208   2.0000      -0.410845       -11.1797
 209   2.0000      -0.408566       -11.1176
 210   2.0000      -0.408011       -11.1025
 211   2.0000      -0.407644       -11.0926
 212   2.0000      -0.403529       -10.9806
 213   2.0000      -0.400735       -10.9046
 214   2.0000      -0.399431       -10.8691
 215   2.0000      -0.398458       -10.8426
 216   2.0000      -0.397258       -10.8099
 217   2.0000      -0.395368       -10.7585
 218   2.0000      -0.394450       -10.7335
 219   2.0000      -0.390026       -10.6131
 220   2.0000      -0.389030       -10.5860
 221   2.0000      -0.383004       -10.4221
 222   2.0000      -0.369640       -10.0584
 223   2.0000      -0.353476        -9.6186
 224   2.0000      -0.352000        -9.5784
 225   2.0000      -0.346579        -9.4309
 226   2.0000      -0.338805        -9.2194
 227   2.0000      -0.337671        -9.1885
 228   2.0000      -0.336409        -9.1542
 229   2.0000      -0.333746        -9.0817
 230   2.0000      -0.331797        -9.0286
 231   2.0000      -0.330621        -8.9967
 232   2.0000      -0.329806        -8.9745
 233   2.0000      -0.328871        -8.9490
 234   2.0000      -0.326146        -8.8749
 235   2.0000      -0.320592        -8.7237
 236   2.0000      -0.313995        -8.5442
 237   2.0000      -0.298981        -8.1357
 238   2.0000      -0.279992        -7.6190
 239   2.0000      -0.243052        -6.6138
 240   0.0000      -0.088938        -2.4201
 241   0.0000      -0.075401        -2.0518
 242   0.0000      -0.071391        -1.9427
 243   0.0000      -0.056465        -1.5365
 244   0.0000      -0.012684        -0.3452

MULLIKEN ATOMIC CHARGES
-----------------------
   0 C :   -0.009191
   1 C :   -0.030648
   2 C :   -0.039673
   3 C :   -0.049857
   4 C :   -0.033705
   5 C :   -0.036397
   6 C :    0.194143
   7 C :   -0.060071
   8 C :    0.047626
   9 C :    0.120326
  10 C :    0.162806
  11 C :   -0.045144
  12 C :    0.040472
  13 C :    0.157133
  14 C :   -0.087204
  15 C :   -0.005880
  16 C :   -0.041867
  17 C :    0.171130
  18 C :   -0.038937
  19 C :   -0.015463
  20 C :   -0.042884
  21 C :    0.150234
  22 N :   -0.277199
  23 C :    0.149336
  24 C :    0.195982
  25 C :   -0.145313
  26 C :    0.051121
  27 C :    0.047618
  28 C :   -0.048674
  29 C :   -0.014329
  30 C :   -0.031996
  31 C :    0.175380
  32 C :   -0.046804
  33 C :   -0.000290
  34 C :   -0.078317
  35 C :    0.145560
  36 N :   -0.280412
  37 C :    0.152214
  38 C :    0.196857
  39 C :   -0.147680
  40 C :    0.052935
  41 C :    0.047295
  42 O :   -0.196065
  43 O :   -0.192422
  44 O :   -0.145333
  45 O :   -0.165473
  46 O :   -0.192022
  47 O :   -0.191913
  48 C :   -0.025970
  49 C :   -0.007523
  50 C :   -0.055053
  51 S :    0.076414
  52 C :   -0.029531
  53 C :   -0.006621
  54 C :   -0.071753
  55 S :    0.141449
  56 C :   -0.008603
  57 C :   -0.008905
  58 C :    0.145382
  59 C :   -0.139097
  60 C :    0.034713
  61 C :    0.073223
  62 C :    0.139572
  63 C :   -0.139094
  64 C :    0.027849
  65 C :    0.072373
  66 H :    0.012234
  67 H :   -0.010884
  68 H :   -0.026663
  69 H :   -0.001771
  70 H :    0.007440
  71 H :   -0.004157
  72 H :    0.016377
  73 H :    0.025949
  74 H :    0.013243
  75 H :    0.013653
  76 H :    0.002007
  77 H :    0.004531
  78 H :    0.002525
  79 H :    0.008741
  80 H :    0.008746
  81 H :   -0.006394
  82 H :    0.006812
  83 H :    0.002588
  84 H :   -0.023748
  85 H :    0.016385
  86 H :    0.026186
  87 H :    0.014513
  88 H :    0.013664
  89 H :    0.001019
  90 H :    0.004641
  91 H :    0.002012
  92 H :    0.008418
  93 H :    0.009415
  94 H :   -0.011789
  95 H :   -0.023119
  96 H :    0.010214
  97 H :   -0.010977
  98 H :   -0.002851
  99 H :   -0.007809
 100 H :   -0.003968
 101 H :   -0.000596
 102 H :    0.025473
 103 H :    0.011214
 104 H :    0.002429
 105 H :    0.011114
 106 H :    0.004015
 107 H :   -0.002749
 108 H :    0.001886
 109 H :   -0.002290
 110 H :    0.013804
 111 H :    0.023231
 112 H :    0.010359
 113 H :    0.005049
 114 H :    0.010722
 115 H :    0.003328
Sum of atomic charges:   -0.0000000

LOEWDIN ATOMIC CHARGES
----------------------
   0 C :   -0.177580
   1 C :   -0.182216
   2 C :    0.024145
   3 C :   -0.088693
   4 C :    0.032659
   5 C :   -0.094966
   6 C :    0.010229
   7 C :   -0.001672
   8 C :   -0.035484
   9 C :    0.086168
  10 C :    0.016658
  11 C :   -0.008321
  12 C :   -0.033593
  13 C :    0.085503
  14 C :   -0.032300
  15 C :    0.036040
  16 C :   -0.069427
  17 C :   -0.004974
  18 C :   -0.050750
  19 C :    0.030577
  20 C :    0.011828
  21 C :    0.091421
  22 N :   -0.025609
  23 C :    0.090765
  24 C :    0.048893
  25 C :   -0.041727
  26 C :   -0.053687
  27 C :   -0.047001
  28 C :    0.012085
  29 C :    0.029734
  30 C :   -0.047803
  31 C :   -0.003598
  32 C :   -0.072606
  33 C :    0.040166
  34 C :   -0.028229
  35 C :    0.091359
  36 N :   -0.026794
  37 C :    0.090695
  38 C :    0.049045
  39 C :   -0.042128
  40 C :   -0.053540
  41 C :   -0.046771
  42 O :   -0.181097
  43 O :   -0.176780
  44 O :   -0.141372
  45 O :   -0.157323
  46 O :   -0.179063
  47 O :   -0.175852
  48 C :   -0.025932
  49 C :   -0.047078
  50 C :   -0.159213
  51 S :    0.451872
  52 C :   -0.031961
  53 C :   -0.053252
  54 C :   -0.167424
  55 S :    0.494239
  56 C :   -0.037552
  57 C :   -0.039181
  58 C :   -0.020560
  59 C :   -0.030850
  60 C :   -0.051574
  61 C :   -0.048633
  62 C :   -0.019603
  63 C :   -0.030092
  64 C :   -0.052729
  65 C :   -0.048775
  66 H :    0.047865
  67 H :    0.042473
  68 H :    0.008069
  69 H :    0.039447
  70 H :    0.041684
  71 H :    0.039756
  72 H :    0.026082
  73 H :    0.026893
  74 H :    0.022241
  75 H :    0.024810
  76 H :    0.016724
  77 H :    0.021739
  78 H :    0.021106
  79 H :    0.023551
  80 H :    0.022899
  81 H :    0.038628
  82 H :    0.041621
  83 H :    0.041064
  84 H :    0.029097
  85 H :    0.026021
  86 H :    0.027017
  87 H :    0.022312
  88 H :    0.024752
  89 H :    0.016492
  90 H :    0.021875
  91 H :    0.020960
  92 H :    0.023538
  93 H :    0.023094
  94 H :    0.033177
  95 H :    0.027775
  96 H :    0.027024
  97 H :    0.022755
  98 H :    0.030532
  99 H :    0.024489
 100 H :    0.019300
 101 H :    0.017678
 102 H :    0.025300
 103 H :    0.025333
 104 H :    0.021873
 105 H :    0.024301
 106 H :    0.021188
 107 H :    0.031470
 108 H :    0.027835
 109 H :    0.019736
 110 H :    0.022470
 111 H :    0.024120
 112 H :    0.025221
 113 H :    0.023037
 114 H :    0.024066
 115 H :    0.020795

  Mayer bond orders larger than 0.100000
B(  0-C ,  2-C ) :   1.1544 B(  0-C , 48-C ) :   1.4222 B(  0-C , 51-S ) :   1.0837
B(  1-C ,  4-C ) :   1.2114 B(  1-C , 52-C ) :   1.3775 B(  1-C , 55-S ) :   1.1093
B(  2-C ,  3-C ) :   1.6443 B(  2-C , 66-H ) :   0.9363 B(  3-C ,  6-C ) :   0.9758
B(  3-C ,  9-C ) :   0.9605 B(  4-C ,  5-C ) :   1.5660 B(  4-C , 67-H ) :   0.9662
B(  5-C , 10-C ) :   1.0010 B(  5-C , 13-C ) :   0.9677 B(  6-C ,  7-C ) :   1.2215
B(  6-C , 14-C ) :   1.4043 B(  7-C ,  8-C ) :   1.2505 B(  7-C , 17-C ) :   1.2948
B(  8-C ,  9-C ) :   0.8964 B(  8-C , 20-C ) :   1.4360 B(  9-C , 44-O ) :   2.2360
B( 10-C , 11-C ) :   1.2129 B( 10-C , 34-C ) :   1.4159 B( 11-C , 12-C ) :   1.2593
B( 11-C , 31-C ) :   1.2989 B( 12-C , 13-C ) :   0.9248 B( 12-C , 28-C ) :   1.4272
B( 13-C , 45-O ) :   2.1591 B( 14-C , 15-C ) :   1.2525 B( 14-C , 68-H ) :   0.9936
B( 15-C , 16-C ) :   1.4815 B( 15-C , 69-H ) :   0.9860 B( 16-C , 17-C ) :   1.2000
B( 16-C , 21-C ) :   0.9265 B( 17-C , 18-C ) :   1.2268 B( 18-C , 19-C ) :   1.4758
B( 18-C , 23-C ) :   0.9167 B( 19-C , 20-C ) :   1.2374 B( 19-C , 70-H ) :   0.9912
B( 20-C , 71-H ) :   1.0096 B( 21-C , 22-N ) :   1.0650 B( 21-C , 42-O ) :   2.1523
B( 22-N , 23-C ) :   1.0760 B( 22-N , 24-C ) :   0.9203 B( 23-C , 43-O ) :   2.1458
B( 24-C , 25-C ) :   1.0743 B( 24-C , 72-H ) :   0.9313 B( 24-C , 73-H ) :   0.9217
B( 25-C , 26-C ) :   1.0694 B( 25-C , 27-C ) :   1.0872 B( 25-C , 74-H ) :   0.9262
B( 26-C , 75-H ) :   0.9645 B( 26-C , 76-H ) :   0.9583 B( 26-C , 77-H ) :   0.9665
B( 27-C , 78-H ) :   0.9658 B( 27-C , 79-H ) :   0.9674 B( 27-C , 80-H ) :   0.9664
B( 28-C , 29-C ) :   1.2415 B( 28-C , 81-H ) :   1.0094 B( 29-C , 30-C ) :   1.4752
B( 29-C , 82-H ) :   0.9906 B( 30-C , 31-C ) :   1.2170 B( 30-C , 37-C ) :   0.9165
B( 31-C , 32-C ) :   1.2022 B( 32-C , 33-C ) :   1.4738 B( 32-C , 35-C ) :   0.9300
B( 33-C , 34-C ) :   1.2535 B( 33-C , 83-H ) :   0.9874 B( 34-C , 84-H ) :   0.9989
B( 35-C , 36-N ) :   1.0595 B( 35-C , 46-O ) :   2.1512 B( 36-N , 37-C ) :   1.0776
B( 36-N , 38-C ) :   0.9204 B( 37-C , 47-O ) :   2.1520 B( 38-C , 39-C ) :   1.0724
B( 38-C , 85-H ) :   0.9321 B( 38-C , 86-H ) :   0.9214 B( 39-C , 40-C ) :   1.0698
B( 39-C , 41-C ) :   1.0864 B( 39-C , 87-H ) :   0.9267 B( 40-C , 88-H ) :   0.9645
B( 40-C , 89-H ) :   0.9585 B( 40-C , 90-H ) :   0.9662 B( 41-C , 91-H ) :   0.9662
B( 41-C , 92-H ) :   0.9676 B( 41-C , 93-H ) :   0.9666 B( 48-C , 49-C ) :   1.2850
B( 48-C , 94-H ) :   1.0057 B( 49-C , 50-C ) :   1.4491 B( 49-C , 62-C ) :   1.0645
B( 50-C , 51-S ) :   1.1069 B( 50-C , 56-C ) :   1.1684 B( 52-C , 53-C ) :   1.3158
B( 52-C , 95-H ) :   1.0046 B( 53-C , 54-C ) :   1.4186 B( 53-C , 58-C ) :   1.0634
B( 54-C , 55-S ) :   1.0967 B( 54-C , 57-C ) :   1.1748 B( 56-C , 57-C ) :   1.6342
B( 56-C , 96-H ) :   0.9645 B( 57-C , 97-H ) :   0.9720 B( 58-C , 59-C ) :   1.0561
B( 58-C , 98-H ) :   0.9137 B( 58-C , 99-H ) :   0.9107 B( 59-C , 60-C ) :   1.0636
B( 59-C , 61-C ) :   1.0760 B( 59-C ,100-H ) :   0.9305 B( 60-C ,101-H ) :   0.9654
B( 60-C ,102-H ) :   0.9665 B( 60-C ,103-H ) :   0.9633 B( 61-C ,104-H ) :   0.9639
B( 61-C ,105-H ) :   0.9676 B( 61-C ,106-H ) :   0.9636 B( 62-C , 63-C ) :   1.0550
B( 62-C ,107-H ) :   0.9113 B( 62-C ,108-H ) :   0.9120 B( 63-C , 64-C ) :   1.0651
B( 63-C , 65-C ) :   1.0762 B( 63-C ,109-H ) :   0.9307 B( 64-C ,110-H ) :   0.9654
B( 64-C ,111-H ) :   0.9659 B( 64-C ,112-H ) :   0.9624 B( 65-C ,113-H ) :   0.9641
B( 65-C ,114-H ) :   0.9673 B( 65-C ,115-H ) :   0.9635

-----------------------------------------------------------------------------
         ABSORPTION SPECTRUM VIA TRANSITION ELECTRIC DIPOLE MOMENTS
-----------------------------------------------------------------------------
State   Energy  Wavelength   fosc         T2         TX        TY        TZ
        (cm-1)    (nm)                  (au**2)     (au)      (au)      (au)
-----------------------------------------------------------------------------
   0   18380.1    544.1   1.887486629  33.80734   1.64236   5.57593  -0.13800
   1   21641.1    462.1   0.027460735   0.41774   0.17290   0.62276   0.00452
   2   22923.5    436.2   0.072893447   1.04685  -1.01688  -0.10571   0.04023
   3   25792.4    387.7   0.006223178   0.07943   0.22030  -0.08632  -0.15312
   4   27313.4    366.1   0.010966677   0.13218   0.34847   0.05728   0.08645
   5   28397.6    352.1   0.000352026   0.00408  -0.00424  -0.00932  -0.06306
   6   29857.5    334.9   0.000796577   0.00878  -0.04161  -0.08098   0.02222
   7   30136.7    331.8   0.051672631   0.56447   0.55589   0.50417  -0.03565
   8   30893.4    323.7   0.097067856   1.03439   0.35893  -0.94782  -0.08486
   9   31334.8    319.1   0.161931906   1.70130   0.84128  -0.99532  -0.05376
  10   32343.8    309.2   0.000191937   0.00195   0.00582   0.03583  -0.02522
  11   32559.8    307.1   0.053191748   0.53782   0.25024  -0.68594  -0.06846
  12   32754.0    305.3   0.001382429   0.01389   0.02139  -0.09465   0.06692
  13   32909.3    303.9   0.002229207   0.02230   0.03782  -0.01126  -0.14402
  14   33269.3    300.6   0.022755234   0.22517  -0.47293   0.02970  -0.02512
  15   33510.8    298.4   0.022351453   0.21958   0.33733   0.32494  -0.01428
  16   33925.9    294.8   0.023550117   0.22853   0.27646   0.38921  -0.02479
  17   34085.4    293.4   0.001111628   0.01074  -0.03882   0.05647   0.07772
  18   34499.3    289.9   0.206918655   1.97454   1.38964  -0.14812  -0.14666
  19   34954.8    286.1   0.171535603   1.61556  -0.13869   1.26244   0.05057
  20   35623.9    280.7   0.026515021   0.24503  -0.28150  -0.40631   0.02658
  21   35834.0    279.1   0.134112792   1.23211   0.78477  -0.77694  -0.11227
  22   35900.5    278.5   0.193550241   1.77488  -1.06564   0.79508   0.08449
  23   36402.6    274.7   0.098813045   0.89363  -0.90778   0.25584   0.06416
  24   36967.4    270.5   0.132187028   1.17719   0.33832  -1.03073  -0.01776
  25   37059.9    269.8   0.018390613   0.16337  -0.37448   0.14370   0.04983
  26   37176.3    269.0   0.004133261   0.03660  -0.18771   0.03439   0.01355
  27   37352.7    267.7   0.009510854   0.08382  -0.12775  -0.25796   0.03103
  28   37677.5    265.4   0.037588605   0.32843  -0.49087  -0.29375   0.03459
  29   38050.1    262.8   0.051321818   0.44404   0.20231   0.63480  -0.01201
  30   39954.2    250.3   0.210371530   1.73341  -0.27114   1.28789   0.03516
  31   40245.3    248.5   0.008332762   0.06816  -0.14174   0.21894   0.01163

FINAL SINGLE POINT ENERGY     -3517.779872813097

DIPOLE MOMENT
-------------
                                X             Y             Z
Electronic contribution:    -26.81978      -8.87269     -28.64491
Nuclear contribution   :     27.28845       9.46158      28.81036
                        -----------------------------------------
Total Dipole Moment    :      0.46867       0.58889       0.16545
                        -----------------------------------------
Magnitude (a.u.)       :      0.77060
Magnitude (Debye)      :      1.95870

Rotational constants in cm-1:     0.002597     0.000284     0.000260
Rotational constants in MHz :    77.857798     8.528710     7.801993

                             ****ORCA TERMINATED NORMALLY****
TOTAL RUN TIME: 0 days 0 hours 57 minutes 41 seconds 145 msec
