                         Program Version 4.2.0 -  RELEASE  -
|  1> # ORCA input file
|  2> # NITV.out: Geometry 179
|  3> ! CAM-B3LYP def2-SVP def2/J RIJCOSX Grid4 TightSCF
|  4> %maxcore 5000
|  5> %tddft
|  6>     Mode sTDDFT
|  7>     Ethresh 5.0
|  8>     maxcore 5000
|  9> end
| 10> * xyz 0 1
| 11>    C       -0.46756        -1.96794        -0.02366
| 12>    C        5.00748         4.57405        -0.02868
| 13>    C       -0.96698        -3.30325        -0.03489
| 14>    C       -0.41830        -4.54903        -0.11183
| 15>    C        5.40157         5.94811        -0.03005
| 16>    C        4.69935         7.12218        -0.05316
| 17>    C        0.93275        -5.12255        -0.17111
| 18>    C        0.76407        -6.53176        -0.33938
| 19>    C       -0.57862        -6.94534        -0.37557
| 20>    C       -1.40415        -5.70826        -0.21113
| 21>    C        5.28670         8.46885        -0.13839
| 22>    C        4.20422         9.38911        -0.18122
| 23>    C        2.94614         8.76990        -0.11676
| 24>    C        3.20000         7.29479        -0.03683
| 25>    C        2.24484        -4.65875        -0.09499
| 26>    C        3.32927        -5.56996        -0.19530
| 27>    C        3.14368        -6.93520        -0.38752
| 28>    C        1.82313        -7.43506        -0.46463
| 29>    C        1.50929        -8.79765        -0.66661
| 30>    C        0.17649        -9.20919        -0.70126
| 31>    C       -0.88630        -8.28481        -0.54955
| 32>    C        4.27117        -7.88494        -0.51191
| 33>    N        3.92748        -9.23011        -0.76631
| 34>    C        2.62421        -9.75689        -0.86942
| 35>    C        5.04886       -10.16368        -0.94028
| 36>    C        5.66587       -10.66430         0.37637
| 37>    C        4.63102       -11.33385         1.28394
| 38>    C        6.82550       -11.60682         0.04348
| 39>    C        1.79774         9.54379        -0.16090
| 40>    C        1.93539        10.95005        -0.28233
| 41>    C        3.18872        11.55817        -0.36375
| 42>    C        4.35961        10.77000        -0.31062
| 43>    C        5.67168        11.28760        -0.40498
| 44>    C        6.74683        10.40100        -0.34836
| 45>    C        6.57178         8.99709        -0.21420
| 46>    C        5.84529        12.74442        -0.60116
| 47>    N        4.65480        13.51320        -0.63395
| 48>    C        3.33881        13.02419        -0.53778
| 49>    C        4.77844        14.96203        -0.85352
| 50>    C        4.51787        15.81376         0.39835
| 51>    C        5.54505        15.54732         1.49881
| 52>    C        4.48921        17.29102        -0.00383
| 53>    O        5.43836        -7.55047        -0.41772
| 54>    O        2.43276       -10.93218        -1.11774
| 55>    O       -2.61365        -5.62325        -0.17906
| 56>    O        2.35422         6.42204         0.02067
| 57>    O        6.93536        13.26573        -0.74084
| 58>    O        2.38419        13.77674        -0.60833
| 59>    C       -1.29649        -0.84957         0.04957
| 60>    C       -0.63136         0.39201        -0.00127
| 61>    C        0.75714         0.23270        -0.11496
| 62>    S        1.20124        -1.45728        -0.16661
| 63>    C        5.94009         3.53147        -0.04105
| 64>    C        5.38960         2.23673        -0.10282
| 65>    C        3.98729         2.28392        -0.13403
| 66>    S        3.38179         3.92117        -0.08359
| 67>    C        1.72505         1.28553        -0.15325
| 68>    C        3.08127         1.17037        -0.17392
| 69>    C        6.22647         0.98669        -0.10841
| 70>    C        6.63266         0.47012         1.29179
| 71>    C        5.42435        -0.00217         2.10386
| 72>    C        7.68387        -0.63364         1.15103
| 73>    C       -1.35320         1.70796         0.08752
| 74>    C       -1.63910         2.19473         1.52734
| 75>    C       -0.35525         2.52036         2.29328
| 76>    C       -2.58148         3.39968         1.48397
| 77>    H       -2.06414        -3.34288         0.00101
| 78>    H        6.49287         6.05712        -0.03480
| 79>    H        2.47184        -3.60531         0.05447
| 80>    H        4.35440        -5.20008        -0.12444
| 81>    H       -0.02645       -10.26993        -0.86039
| 82>    H       -1.92506        -8.62015        -0.57748
| 83>    H        5.81754        -9.64186        -1.52450
| 84>    H        4.66240       -11.01212        -1.51797
| 85>    H        6.07972        -9.78564         0.90006
| 86>    H        4.14024       -12.17843         0.77473
| 87>    H        3.84252       -10.62741         1.58630
| 88>    H        5.10440       -11.71295         2.20346
| 89>    H        6.46863       -12.48607        -0.51928
| 90>    H        7.31613       -11.97241         0.95915
| 91>    H        7.58964       -11.10216        -0.57013
| 92>    H        0.80950         9.08217        -0.11128
| 93>    H        1.05377        11.59202        -0.32825
| 94>    H        7.75333        10.81758        -0.42403
| 95>    H        7.45544         8.35563        -0.18531
| 96>    H        4.05366        15.23408        -1.63187
| 97>    H        5.79364        15.13895        -1.22925
| 98>    H        3.51699        15.54520         0.77370
| 99>    H        6.56555        15.78325         1.15404
|100>    H        5.53714        14.49298         1.81671
|101>    H        5.33214        16.16079         2.38855
|102>    H        5.46535        17.61236        -0.40677
|103>    H        4.25532        17.93155         0.86049
|104>    H        3.72880        17.48297        -0.77738
|105>    H       -2.38068        -0.94744         0.13187
|106>    H        7.01523         3.72388        -0.02044
|107>    H        1.29739         2.28981        -0.12843
|108>    H        3.53699         0.17776        -0.19277
|109>    H        7.14320         1.19209        -0.68450
|110>    H        5.70626         0.17638        -0.64587
|111>    H        7.09476         1.31595         1.83343
|112>    H        4.90905        -0.83576         1.59641
|113>    H        4.69071         0.80431         2.25566
|114>    H        5.73548        -0.36593         3.09556
|115>    H        7.28307        -1.48886         0.58107
|116>    H        8.00898        -1.01093         2.13329
|117>    H        8.57567        -0.26708         0.61727
|118>    H       -2.31307         1.60529        -0.44305
|119>    H       -0.79429         2.49273        -0.44743
|120>    H       -2.15394         1.37187         2.05695
|121>    H        0.20138         3.33666         1.80212
|122>    H        0.31334         1.64850         2.36323
|123>    H       -0.58498         2.85150         3.31847
|124>    H       -2.11770         4.23876         0.93828
|125>    H       -2.82728         3.75581         2.49650
|126>    H       -3.52591         3.14844         0.97481
|127> *
|128>
|129>                          ****END OF INPUT****

CARTESIAN COORDINATES (ANGSTROEM)
---------------------------------
  C     -0.467560   -1.967940   -0.023660
  C      5.007480    4.574050   -0.028680
  C     -0.966980   -3.303250   -0.034890
  C     -0.418300   -4.549030   -0.111830
  C      5.401570    5.948110   -0.030050
  C      4.699350    7.122180   -0.053160
  C      0.932750   -5.122550   -0.171110
  C      0.764070   -6.531760   -0.339380
  C     -0.578620   -6.945340   -0.375570
  C     -1.404150   -5.708260   -0.211130
  C      5.286700    8.468850   -0.138390
  C      4.204220    9.389110   -0.181220
  C      2.946140    8.769900   -0.116760
  C      3.200000    7.294790   -0.036830
  C      2.244840   -4.658750   -0.094990
  C      3.329270   -5.569960   -0.195300
  C      3.143680   -6.935200   -0.387520
  C      1.823130   -7.435060   -0.464630
  C      1.509290   -8.797650   -0.666610
  C      0.176490   -9.209190   -0.701260
  C     -0.886300   -8.284810   -0.549550
  C      4.271170   -7.884940   -0.511910
  N      3.927480   -9.230110   -0.766310
  C      2.624210   -9.756890   -0.869420
  C      5.048860  -10.163680   -0.940280
  C      5.665870  -10.664300    0.376370
  C      4.631020  -11.333850    1.283940
  C      6.825500  -11.606820    0.043480
  C      1.797740    9.543790   -0.160900
  C      1.935390   10.950050   -0.282330
  C      3.188720   11.558170   -0.363750
  C      4.359610   10.770000   -0.310620
  C      5.671680   11.287600   -0.404980
  C      6.746830   10.401000   -0.348360
  C      6.571780    8.997090   -0.214200
  C      5.845290   12.744420   -0.601160
  N      4.654800   13.513200   -0.633950
  C      3.338810   13.024190   -0.537780
  C      4.778440   14.962030   -0.853520
  C      4.517870   15.813760    0.398350
  C      5.545050   15.547320    1.498810
  C      4.489210   17.291020   -0.003830
  O      5.438360   -7.550470   -0.417720
  O      2.432760  -10.932180   -1.117740
  O     -2.613650   -5.623250   -0.179060
  O      2.354220    6.422040    0.020670
  O      6.935360   13.265730   -0.740840
  O      2.384190   13.776740   -0.608330
  C     -1.296490   -0.849570    0.049570
  C     -0.631360    0.392010   -0.001270
  C      0.757140    0.232700   -0.114960
  S      1.201240   -1.457280   -0.166610
  C      5.940090    3.531470   -0.041050
  C      5.389600    2.236730   -0.102820
  C      3.987290    2.283920   -0.134030
  S      3.381790    3.921170   -0.083590
  C      1.725050    1.285530   -0.153250
  C      3.081270    1.170370   -0.173920
  C      6.226470    0.986690   -0.108410
  C      6.632660    0.470120    1.291790
  C      5.424350   -0.002170    2.103860
  C      7.683870   -0.633640    1.151030
  C     -1.353200    1.707960    0.087520
  C     -1.639100    2.194730    1.527340
  C     -0.355250    2.520360    2.293280
  C     -2.581480    3.399680    1.483970
  H     -2.064140   -3.342880    0.001010
  H      6.492870    6.057120   -0.034800
  H      2.471840   -3.605310    0.054470
  H      4.354400   -5.200080   -0.124440
  H     -0.026450  -10.269930   -0.860390
  H     -1.925060   -8.620150   -0.577480
  H      5.817540   -9.641860   -1.524500
  H      4.662400  -11.012120   -1.517970
  H      6.079720   -9.785640    0.900060
  H      4.140240  -12.178430    0.774730
  H      3.842520  -10.627410    1.586300
  H      5.104400  -11.712950    2.203460
  H      6.468630  -12.486070   -0.519280
  H      7.316130  -11.972410    0.959150
  H      7.589640  -11.102160   -0.570130
  H      0.809500    9.082170   -0.111280
  H      1.053770   11.592020   -0.328250
  H      7.753330   10.817580   -0.424030
  H      7.455440    8.355630   -0.185310
  H      4.053660   15.234080   -1.631870
  H      5.793640   15.138950   -1.229250
  H      3.516990   15.545200    0.773700
  H      6.565550   15.783250    1.154040
  H      5.537140   14.492980    1.816710
  H      5.332140   16.160790    2.388550
  H      5.465350   17.612360   -0.406770
  H      4.255320   17.931550    0.860490
  H      3.728800   17.482970   -0.777380
  H     -2.380680   -0.947440    0.131870
  H      7.015230    3.723880   -0.020440
  H      1.297390    2.289810   -0.128430
  H      3.536990    0.177760   -0.192770
  H      7.143200    1.192090   -0.684500
  H      5.706260    0.176380   -0.645870
  H      7.094760    1.315950    1.833430
  H      4.909050   -0.835760    1.596410
  H      4.690710    0.804310    2.255660
  H      5.735480   -0.365930    3.095560
  H      7.283070   -1.488860    0.581070
  H      8.008980   -1.010930    2.133290
  H      8.575670   -0.267080    0.617270
  H     -2.313070    1.605290   -0.443050
  H     -0.794290    2.492730   -0.447430
  H     -2.153940    1.371870    2.056950
  H      0.201380    3.336660    1.802120
  H      0.313340    1.648500    2.363230
  H     -0.584980    2.851500    3.318470
  H     -2.117700    4.238760    0.938280
  H     -2.827280    3.755810    2.496500
  H     -3.525910    3.148440    0.974810

 Total Charge           Charge          ....    0
 Multiplicity           Mult            ....    1
 Number of Electrons    NEL             ....  480
 Basis Dimension        Dim             .... 1182

ORBITAL ENERGIES
----------------

  NO   OCC          E(Eh)            E(eV)
   0   2.0000     -88.968173     -2420.9471
   1   2.0000     -88.959792     -2420.7190
   2   2.0000     -19.220695      -523.0217
   3   2.0000     -19.212986      -522.8119
   4   2.0000     -19.200573      -522.4742
   5   2.0000     -19.199652      -522.4491
   6   2.0000     -19.199504      -522.4451
   7   2.0000     -19.198233      -522.4105
   8   2.0000     -14.455665      -393.3586
   9   2.0000     -14.454704      -393.3325
  10   2.0000     -10.389813      -282.7212
  11   2.0000     -10.389509      -282.7129
  12   2.0000     -10.389310      -282.7075
  13   2.0000     -10.387695      -282.6635
  14   2.0000     -10.372333      -282.2455
  15   2.0000     -10.364515      -282.0328
  16   2.0000     -10.319048      -280.7956
  17   2.0000     -10.317907      -280.7645
  18   2.0000     -10.317644      -280.7574
  19   2.0000     -10.315487      -280.6987
  20   2.0000     -10.310457      -280.5618
  21   2.0000     -10.307818      -280.4900
  22   2.0000     -10.307733      -280.4877
  23   2.0000     -10.307401      -280.4787
  24   2.0000     -10.302490      -280.3450
  25   2.0000     -10.302469      -280.3444
  26   2.0000     -10.302130      -280.3352
  27   2.0000     -10.301641      -280.3219
  28   2.0000     -10.300337      -280.2864
  29   2.0000     -10.299887      -280.2742
  30   2.0000     -10.299699      -280.2691
  31   2.0000     -10.299454      -280.2624
  32   2.0000     -10.299192      -280.2553
  33   2.0000     -10.298852      -280.2460
  34   2.0000     -10.298537      -280.2374
  35   2.0000     -10.297566      -280.2110
  36   2.0000     -10.297477      -280.2086
  37   2.0000     -10.296786      -280.1898
  38   2.0000     -10.295137      -280.1449
  39   2.0000     -10.295070      -280.1431
  40   2.0000     -10.295022      -280.1418
  41   2.0000     -10.294033      -280.1149
  42   2.0000     -10.293429      -280.0984
  43   2.0000     -10.292881      -280.0835
  44   2.0000     -10.292422      -280.0710
  45   2.0000     -10.291668      -280.0505
  46   2.0000     -10.291116      -280.0355
  47   2.0000     -10.289882      -280.0019
  48   2.0000     -10.289601      -279.9943
  49   2.0000     -10.289451      -279.9902
  50   2.0000     -10.288380      -279.9610
  51   2.0000     -10.288011      -279.9510
  52   2.0000     -10.278843      -279.7015
  53   2.0000     -10.277844      -279.6743
  54   2.0000     -10.277743      -279.6716
  55   2.0000     -10.275577      -279.6127
  56   2.0000     -10.261558      -279.2312
  57   2.0000     -10.260572      -279.2044
  58   2.0000     -10.259225      -279.1677
  59   2.0000     -10.258906      -279.1590
  60   2.0000     -10.258472      -279.1472
  61   2.0000     -10.256514      -279.0939
  62   2.0000     -10.248920      -278.8873
  63   2.0000     -10.248711      -278.8816
  64   2.0000     -10.245477      -278.7936
  65   2.0000     -10.244248      -278.7601
  66   2.0000      -8.062773      -219.3992
  67   2.0000      -8.053542      -219.1480
  68   2.0000      -6.032000      -164.1391
  69   2.0000      -6.028117      -164.0334
  70   2.0000      -6.024926      -163.9466
  71   2.0000      -6.022884      -163.8910
  72   2.0000      -6.018645      -163.7757
  73   2.0000      -6.015721      -163.6961
  74   2.0000      -1.142616       -31.0922
  75   2.0000      -1.141915       -31.0731
  76   2.0000      -1.130944       -30.7745
  77   2.0000      -1.124213       -30.5914
  78   2.0000      -1.123296       -30.5664
  79   2.0000      -1.122256       -30.5381
  80   2.0000      -1.019388       -27.7389
  81   2.0000      -1.018731       -27.7211
  82   2.0000      -1.002332       -27.2748
  83   2.0000      -0.999590       -27.2002
  84   2.0000      -0.992844       -27.0167
  85   2.0000      -0.986638       -26.8478
  86   2.0000      -0.941312       -25.6144
  87   2.0000      -0.937255       -25.5040
  88   2.0000      -0.930131       -25.3101
  89   2.0000      -0.928327       -25.2610
  90   2.0000      -0.913016       -24.8444
  91   2.0000      -0.907383       -24.6911
  92   2.0000      -0.903141       -24.5757
  93   2.0000      -0.887531       -24.1510
  94   2.0000      -0.881227       -23.9794
  95   2.0000      -0.875553       -23.8250
  96   2.0000      -0.868298       -23.6276
  97   2.0000      -0.851386       -23.1674
  98   2.0000      -0.849987       -23.1293
  99   2.0000      -0.844833       -22.9891
 100   2.0000      -0.842630       -22.9291
 101   2.0000      -0.841193       -22.8900
 102   2.0000      -0.834700       -22.7133
 103   2.0000      -0.826605       -22.4931
 104   2.0000      -0.808763       -22.0076
 105   2.0000      -0.792474       -21.5643
 106   2.0000      -0.784049       -21.3351
 107   2.0000      -0.769409       -20.9367
 108   2.0000      -0.766256       -20.8509
 109   2.0000      -0.763619       -20.7791
 110   2.0000      -0.762319       -20.7437
 111   2.0000      -0.761419       -20.7193
 112   2.0000      -0.760184       -20.6857
 113   2.0000      -0.759394       -20.6642
 114   2.0000      -0.752285       -20.4707
 115   2.0000      -0.752219       -20.4689
 116   2.0000      -0.740499       -20.1500
 117   2.0000      -0.722576       -19.6623
 118   2.0000      -0.715608       -19.4727
 119   2.0000      -0.713572       -19.4173
 120   2.0000      -0.708964       -19.2919
 121   2.0000      -0.704797       -19.1785
 122   2.0000      -0.689264       -18.7558
 123   2.0000      -0.672678       -18.3045
 124   2.0000      -0.663757       -18.0617
 125   2.0000      -0.656936       -17.8761
 126   2.0000      -0.652428       -17.7535
 127   2.0000      -0.649070       -17.6621
 128   2.0000      -0.645388       -17.5619
 129   2.0000      -0.640782       -17.4366
 130   2.0000      -0.637868       -17.3573
 131   2.0000      -0.633175       -17.2296
 132   2.0000      -0.629930       -17.1413
 133   2.0000      -0.628301       -17.0969
 134   2.0000      -0.615907       -16.7597
 135   2.0000      -0.611704       -16.6453
 136   2.0000      -0.606317       -16.4987
 137   2.0000      -0.602043       -16.3824
 138   2.0000      -0.597934       -16.2706
 139   2.0000      -0.590343       -16.0641
 140   2.0000      -0.587281       -15.9807
 141   2.0000      -0.574801       -15.6411
 142   2.0000      -0.571368       -15.5477
 143   2.0000      -0.561371       -15.2757
 144   2.0000      -0.559402       -15.2221
 145   2.0000      -0.558877       -15.2078
 146   2.0000      -0.556931       -15.1549
 147   2.0000      -0.553180       -15.0528
 148   2.0000      -0.551845       -15.0165
 149   2.0000      -0.544515       -14.8170
 150   2.0000      -0.542944       -14.7743
 151   2.0000      -0.539687       -14.6856
 152   2.0000      -0.535719       -14.5777
 153   2.0000      -0.531603       -14.4657
 154   2.0000      -0.529443       -14.4069
 155   2.0000      -0.527237       -14.3468
 156   2.0000      -0.525934       -14.3114
 157   2.0000      -0.524806       -14.2807
 158   2.0000      -0.524432       -14.2705
 159   2.0000      -0.523833       -14.2542
 160   2.0000      -0.522676       -14.2227
 161   2.0000      -0.521119       -14.1804
 162   2.0000      -0.520161       -14.1543
 163   2.0000      -0.519522       -14.1369
 164   2.0000      -0.517535       -14.0828
 165   2.0000      -0.512598       -13.9485
 166   2.0000      -0.508998       -13.8505
 167   2.0000      -0.506367       -13.7789
 168   2.0000      -0.504486       -13.7277
 169   2.0000      -0.502514       -13.6741
 170   2.0000      -0.501487       -13.6462
 171   2.0000      -0.495570       -13.4851
 172   2.0000      -0.494424       -13.4540
 173   2.0000      -0.492827       -13.4105
 174   2.0000      -0.486562       -13.2400
 175   2.0000      -0.483320       -13.1518
 176   2.0000      -0.483108       -13.1460
 177   2.0000      -0.481860       -13.1121
 178   2.0000      -0.480377       -13.0717
 179   2.0000      -0.477678       -12.9983
 180   2.0000      -0.477295       -12.9879
 181   2.0000      -0.475213       -12.9312
 182   2.0000      -0.474443       -12.9102
 183   2.0000      -0.469895       -12.7865
 184   2.0000      -0.466647       -12.6981
 185   2.0000      -0.464548       -12.6410
 186   2.0000      -0.462951       -12.5975
 187   2.0000      -0.461659       -12.5624
 188   2.0000      -0.460786       -12.5386
 189   2.0000      -0.458658       -12.4807
 190   2.0000      -0.457638       -12.4530
 191   2.0000      -0.456224       -12.4145
 192   2.0000      -0.451891       -12.2966
 193   2.0000      -0.449173       -12.2226
 194   2.0000      -0.446405       -12.1473
 195   2.0000      -0.445582       -12.1249
 196   2.0000      -0.443004       -12.0547
 197   2.0000      -0.440088       -11.9754
 198   2.0000      -0.438518       -11.9327
 199   2.0000      -0.436402       -11.8751
 200   2.0000      -0.436021       -11.8647
 201   2.0000      -0.432098       -11.7580
 202   2.0000      -0.427408       -11.6304
 203   2.0000      -0.425601       -11.5812
 204   2.0000      -0.424889       -11.5618
 205   2.0000      -0.418968       -11.4007
 206   2.0000      -0.417959       -11.3732
 207   2.0000      -0.412935       -11.2365
 208   2.0000      -0.411467       -11.1966
 209   2.0000      -0.409125       -11.1328
 210   2.0000      -0.408366       -11.1122
 211   2.0000      -0.407866       -11.0986
 212   2.0000      -0.401832       -10.9344
 213   2.0000      -0.400109       -10.8875
 214   2.0000      -0.398811       -10.8522
 215   2.0000      -0.398217       -10.8360
 216   2.0000      -0.398141       -10.8340
 217   2.0000      -0.395369       -10.7585
 218   2.0000      -0.392822       -10.6892
 219   2.0000      -0.388321       -10.5668
 220   2.0000      -0.387542       -10.5455
 221   2.0000      -0.382693       -10.4136
 222   2.0000      -0.368868       -10.0374
 223   2.0000      -0.354027        -9.6336
 224   2.0000      -0.353895        -9.6300
 225   2.0000      -0.346206        -9.4207
 226   2.0000      -0.339878        -9.2486
 227   2.0000      -0.339038        -9.2257
 228   2.0000      -0.335306        -9.1241
 229   2.0000      -0.333719        -9.0810
 230   2.0000      -0.333325        -9.0702
 231   2.0000      -0.332746        -9.0545
 232   2.0000      -0.329175        -8.9573
 233   2.0000      -0.328241        -8.9319
 234   2.0000      -0.325961        -8.8699
 235   2.0000      -0.321211        -8.7406
 236   2.0000      -0.314337        -8.5536
 237   2.0000      -0.298642        -8.1265
 238   2.0000      -0.280604        -7.6356
 239   2.0000      -0.245789        -6.6882
 240   0.0000      -0.088278        -2.4022
 241   0.0000      -0.074555        -2.0288
 242   0.0000      -0.071900        -1.9565
 243   0.0000      -0.057162        -1.5555
 244   0.0000      -0.014812        -0.4031

MULLIKEN ATOMIC CHARGES
-----------------------
   0 C :   -0.028610
   1 C :   -0.045434
   2 C :   -0.034981
   3 C :   -0.060316
   4 C :   -0.040568
   5 C :   -0.037205
   6 C :    0.187684
   7 C :   -0.059210
   8 C :    0.037540
   9 C :    0.124767
  10 C :    0.160738
  11 C :   -0.040763
  12 C :    0.020110
  13 C :    0.149855
  14 C :   -0.089929
  15 C :   -0.011487
  16 C :   -0.046093
  17 C :    0.167499
  18 C :   -0.047943
  19 C :   -0.016415
  20 C :   -0.041578
  21 C :    0.167892
  22 N :   -0.302807
  23 C :    0.164290
  24 C :    0.187622
  25 C :   -0.129848
  26 C :    0.035010
  27 C :    0.022217
  28 C :   -0.043524
  29 C :   -0.015762
  30 C :   -0.043828
  31 C :    0.172231
  32 C :   -0.056042
  33 C :   -0.005661
  34 C :   -0.082142
  35 C :    0.170143
  36 N :   -0.307740
  37 C :    0.168431
  38 C :    0.188835
  39 C :   -0.125079
  40 C :    0.033653
  41 C :    0.018255
  42 O :   -0.198173
  43 O :   -0.193512
  44 O :   -0.147446
  45 O :   -0.155160
  46 O :   -0.194093
  47 O :   -0.196613
  48 C :   -0.026055
  49 C :   -0.002677
  50 C :   -0.070654
  51 S :    0.095909
  52 C :   -0.031152
  53 C :    0.000141
  54 C :   -0.097665
  55 S :    0.156225
  56 C :   -0.008293
  57 C :   -0.000612
  58 C :    0.112791
  59 C :   -0.118335
  60 C :    0.015800
  61 C :    0.045551
  62 C :    0.108477
  63 C :   -0.117381
  64 C :    0.008663
  65 C :    0.044856
  66 H :    0.020178
  67 H :   -0.003105
  68 H :   -0.015911
  69 H :    0.009096
  70 H :    0.016793
  71 H :    0.006106
  72 H :    0.020115
  73 H :    0.026422
  74 H :    0.014471
  75 H :    0.019057
  76 H :    0.006820
  77 H :    0.009381
  78 H :    0.008583
  79 H :    0.013274
  80 H :    0.014257
  81 H :    0.004115
  82 H :    0.016995
  83 H :    0.012841
  84 H :   -0.012767
  85 H :    0.016974
  86 H :    0.027914
  87 H :    0.017267
  88 H :    0.014180
  89 H :    0.007806
  90 H :    0.009993
  91 H :    0.007171
  92 H :    0.013620
  93 H :    0.016567
  94 H :   -0.000134
  95 H :   -0.010909
  96 H :    0.011473
  97 H :   -0.007216
  98 H :   -0.001348
  99 H :    0.001845
 100 H :   -0.000947
 101 H :    0.003764
 102 H :    0.031823
 103 H :    0.016366
 104 H :    0.007344
 105 H :    0.017528
 106 H :    0.009936
 107 H :    0.000404
 108 H :    0.009214
 109 H :   -0.000189
 110 H :    0.018100
 111 H :    0.028208
 112 H :    0.015306
 113 H :    0.011292
 114 H :    0.016455
 115 H :    0.009074
Sum of atomic charges:   -0.0000000

LOEWDIN ATOMIC CHARGES
----------------------
   0 C :   -0.177305
   1 C :   -0.181318
   2 C :    0.020961
   3 C :   -0.087881
   4 C :    0.027644
   5 C :   -0.091500
   6 C :    0.009597
   7 C :   -0.002804
   8 C :   -0.038261
   9 C :    0.092146
  10 C :    0.016001
  11 C :   -0.008739
  12 C :   -0.036867
  13 C :    0.089089
  14 C :   -0.031961
  15 C :    0.033676
  16 C :   -0.069846
  17 C :   -0.004922
  18 C :   -0.051862
  19 C :    0.028459
  20 C :    0.009581
  21 C :    0.099895
  22 N :   -0.041248
  23 C :    0.098430
  24 C :    0.049435
  25 C :   -0.044011
  26 C :   -0.058216
  27 C :   -0.052668
  28 C :    0.009445
  29 C :    0.028286
  30 C :   -0.050100
  31 C :   -0.003530
  32 C :   -0.073275
  33 C :    0.037467
  34 C :   -0.029919
  35 C :    0.100049
  36 N :   -0.043402
  37 C :    0.098875
  38 C :    0.050299
  39 C :   -0.045341
  40 C :   -0.056633
  41 C :   -0.052463
  42 O :   -0.182614
  43 O :   -0.177092
  44 O :   -0.141470
  45 O :   -0.151856
  46 O :   -0.179447
  47 O :   -0.178422
  48 C :   -0.028431
  49 C :   -0.046780
  50 C :   -0.159952
  51 S :    0.440819
  52 C :   -0.033411
  53 C :   -0.054723
  54 C :   -0.163234
  55 S :    0.475024
  56 C :   -0.039036
  57 C :   -0.040492
  58 C :   -0.024821
  59 C :   -0.033438
  60 C :   -0.057204
  61 C :   -0.054221
  62 C :   -0.024350
  63 C :   -0.032602
  64 C :   -0.058526
  65 C :   -0.054141
  66 H :    0.050127
  67 H :    0.044716
  68 H :    0.014028
  69 H :    0.042710
  70 H :    0.044494
  71 H :    0.042950
  72 H :    0.027824
  73 H :    0.027731
  74 H :    0.024831
  75 H :    0.026694
  76 H :    0.019317
  77 H :    0.023510
  78 H :    0.022943
  79 H :    0.025303
  80 H :    0.025131
  81 H :    0.041902
  82 H :    0.044439
  83 H :    0.043918
  84 H :    0.031827
  85 H :    0.026691
  86 H :    0.028304
  87 H :    0.024711
  88 H :    0.025471
  89 H :    0.020094
  90 H :    0.023648
  91 H :    0.022134
  92 H :    0.025630
  93 H :    0.025639
  94 H :    0.036906
  95 H :    0.031365
  96 H :    0.029692
  97 H :    0.026789
  98 H :    0.031671
  99 H :    0.027162
 100 H :    0.021784
 101 H :    0.018548
 102 H :    0.027928
 103 H :    0.027401
 104 H :    0.023498
 105 H :    0.026376
 106 H :    0.023634
 107 H :    0.032859
 108 H :    0.029773
 109 H :    0.021645
 110 H :    0.023643
 111 H :    0.026239
 112 H :    0.027241
 113 H :    0.025142
 114 H :    0.026082
 115 H :    0.023063

  Mayer bond orders larger than 0.100000
B(  0-C ,  2-C ) :   1.1475 B(  0-C , 48-C ) :   1.4349 B(  0-C , 51-S ) :   1.0878
B(  1-C ,  4-C ) :   1.1950 B(  1-C , 52-C ) :   1.4011 B(  1-C , 55-S ) :   1.1091
B(  2-C ,  3-C ) :   1.6710 B(  2-C , 66-H ) :   0.9297 B(  3-C ,  6-C ) :   0.9726
B(  3-C ,  9-C ) :   0.9542 B(  4-C ,  5-C ) :   1.6084 B(  4-C , 67-H ) :   0.9565
B(  5-C , 10-C ) :   1.0008 B(  5-C , 13-C ) :   0.9478 B(  6-C ,  7-C ) :   1.2162
B(  6-C , 14-C ) :   1.4178 B(  7-C ,  8-C ) :   1.2531 B(  7-C , 17-C ) :   1.2936
B(  8-C ,  9-C ) :   0.8964 B(  8-C , 20-C ) :   1.4416 B(  9-C , 44-O ) :   2.2286
B( 10-C , 11-C ) :   1.2112 B( 10-C , 34-C ) :   1.4252 B( 11-C , 12-C ) :   1.2611
B( 11-C , 31-C ) :   1.2936 B( 12-C , 13-C ) :   0.9175 B( 12-C , 28-C ) :   1.4362
B( 13-C , 45-O ) :   2.2041 B( 14-C , 15-C ) :   1.2474 B( 14-C , 68-H ) :   0.9894
B( 15-C , 16-C ) :   1.4895 B( 15-C , 69-H ) :   0.9809 B( 16-C , 17-C ) :   1.1965
B( 16-C , 21-C ) :   0.9295 B( 17-C , 18-C ) :   1.2258 B( 18-C , 19-C ) :   1.4802
B( 18-C , 23-C ) :   0.9227 B( 19-C , 20-C ) :   1.2372 B( 19-C , 70-H ) :   0.9850
B( 20-C , 71-H ) :   1.0027 B( 21-C , 22-N ) :   1.0526 B( 21-C , 42-O ) :   2.1468
B( 22-N , 23-C ) :   1.0628 B( 22-N , 24-C ) :   0.9164 B( 23-C , 43-O ) :   2.1394
B( 24-C , 25-C ) :   1.0702 B( 24-C , 72-H ) :   0.9332 B( 24-C , 73-H ) :   0.9252
B( 25-C , 26-C ) :   1.0740 B( 25-C , 27-C ) :   1.0821 B( 25-C , 74-H ) :   0.9254
B( 26-C , 75-H ) :   0.9648 B( 26-C , 76-H ) :   0.9591 B( 26-C , 77-H ) :   0.9667
B( 27-C , 78-H ) :   0.9671 B( 27-C , 79-H ) :   0.9679 B( 27-C , 80-H ) :   0.9677
B( 28-C , 29-C ) :   1.2395 B( 28-C , 81-H ) :   1.0026 B( 29-C , 30-C ) :   1.4803
B( 29-C , 82-H ) :   0.9847 B( 30-C , 31-C ) :   1.2197 B( 30-C , 37-C ) :   0.9221
B( 31-C , 32-C ) :   1.2011 B( 32-C , 33-C ) :   1.4818 B( 32-C , 35-C ) :   0.9329
B( 33-C , 34-C ) :   1.2516 B( 33-C , 83-H ) :   0.9820 B( 34-C , 84-H ) :   0.9934
B( 35-C , 36-N ) :   1.0449 B( 35-C , 46-O ) :   2.1503 B( 36-N , 37-C ) :   1.0681
B( 36-N , 38-C ) :   0.9149 B( 37-C , 47-O ) :   2.1387 B( 38-C , 39-C ) :   1.0684
B( 38-C , 85-H ) :   0.9356 B( 38-C , 86-H ) :   0.9251 B( 39-C , 40-C ) :   1.0643
B( 39-C , 41-C ) :   1.0801 B( 39-C , 87-H ) :   0.9267 B( 40-C , 88-H ) :   0.9671
B( 40-C , 89-H ) :   0.9632 B( 40-C , 90-H ) :   0.9676 B( 41-C , 91-H ) :   0.9678
B( 41-C , 92-H ) :   0.9680 B( 41-C , 93-H ) :   0.9675 B( 48-C , 49-C ) :   1.2806
B( 48-C , 94-H ) :   0.9991 B( 49-C , 50-C ) :   1.4558 B( 49-C , 62-C ) :   1.0591
B( 50-C , 51-S ) :   1.1078 B( 50-C , 56-C ) :   1.1655 B( 52-C , 53-C ) :   1.3010
B( 52-C , 95-H ) :   0.9976 B( 53-C , 54-C ) :   1.4354 B( 53-C , 58-C ) :   1.0598
B( 54-C , 55-S ) :   1.1031 B( 54-C , 57-C ) :   1.1654 B( 56-C , 57-C ) :   1.6564
B( 56-C , 96-H ) :   0.9558 B( 57-C , 97-H ) :   0.9652 B( 58-C , 59-C ) :   1.0531
B( 58-C , 98-H ) :   0.9174 B( 58-C , 99-H ) :   0.9135 B( 59-C , 60-C ) :   1.0675
B( 59-C , 61-C ) :   1.0727 B( 59-C ,100-H ) :   0.9286 B( 60-C ,101-H ) :   0.9641
B( 60-C ,102-H ) :   0.9660 B( 60-C ,103-H ) :   0.9635 B( 61-C ,104-H ) :   0.9656
B( 61-C ,105-H ) :   0.9682 B( 61-C ,106-H ) :   0.9654 B( 62-C , 63-C ) :   1.0522
B( 62-C ,107-H ) :   0.9158 B( 62-C ,108-H ) :   0.9136 B( 63-C , 64-C ) :   1.0675
B( 63-C , 65-C ) :   1.0735 B( 63-C ,109-H ) :   0.9292 B( 64-C ,110-H ) :   0.9642
B( 64-C ,111-H ) :   0.9656 B( 64-C ,112-H ) :   0.9632 B( 65-C ,113-H ) :   0.9658
B( 65-C ,114-H ) :   0.9680 B( 65-C ,115-H ) :   0.9651

-----------------------------------------------------------------------------
         ABSORPTION SPECTRUM VIA TRANSITION ELECTRIC DIPOLE MOMENTS
-----------------------------------------------------------------------------
State   Energy  Wavelength   fosc         T2         TX        TY        TZ
        (cm-1)    (nm)                  (au**2)     (au)      (au)      (au)
-----------------------------------------------------------------------------
   0   19100.5    523.5   1.949367222  33.59888  -1.60637  -5.56936  -0.02489
   1   22609.6    442.3   0.024739370   0.36022   0.16511   0.57089  -0.08397
   2   23421.5    427.0   0.080003995   1.12454  -1.04228  -0.16522   0.10439
   3   26280.4    380.5   0.004325283   0.05418  -0.17579   0.13695  -0.06727
   4   27627.3    362.0   0.012000216   0.14300  -0.35965  -0.06460   0.09733
   5   29355.0    340.7   0.000786828   0.00882   0.06298   0.06206   0.03172
   6   30135.8    331.8   0.005267079   0.05754  -0.16754  -0.17148   0.00803
   7   30371.3    329.3   0.046849486   0.50783  -0.67095  -0.23615   0.04341
   8   31238.1    320.1   0.135932145   1.43256   0.23655  -1.16568   0.13338
   9   31535.7    317.1   0.168515492   1.75919  -0.83697   1.02177   0.12105
  10   32812.2    304.8   0.005110442   0.05127   0.04656  -0.21951  -0.03034
  11   32887.0    304.1   0.027558820   0.27587  -0.09736   0.51613  -0.00051
  12   32907.4    303.9   0.003375859   0.03377   0.14143  -0.09740  -0.06544
  13   33186.0    301.3   0.024637517   0.24441   0.49224  -0.04288  -0.01650
  14   33327.8    300.1   0.037666034   0.37207  -0.57655  -0.19733  -0.02683
  15   33630.6    297.3   0.001732100   0.01696   0.03372  -0.04417  -0.11776
  16   33879.8    295.2   0.011661156   0.11331   0.07270   0.32829  -0.01580
  17   34362.0    291.0   0.002553019   0.02446   0.12011   0.05530   0.08352
  18   34753.7    287.7   0.192655174   1.82497   1.27656  -0.44160   0.01907
  19   35569.9    281.1   0.101845663   0.94262  -0.21181  -0.93795   0.13419
  20   35750.8    279.7   0.059010831   0.54340  -0.38130  -0.63049  -0.02236
  21   36111.7    276.9   0.361439175   3.29506   1.43829  -1.10546  -0.06596
  22   36536.6    273.7   0.085078021   0.76659  -0.70817   0.51085   0.06423
  23   36829.6    271.5   0.007074973   0.06324  -0.23310  -0.05958   0.07320
  24   37002.7    270.3   0.065192028   0.58001  -0.26574   0.71292  -0.03385
  25   37309.9    268.0   0.026083286   0.23015   0.17994   0.44313   0.03760
  26   37599.1    266.0   0.099054840   0.86731   0.41713   0.83119   0.04930
  27   37896.9    263.9   0.019628303   0.17051  -0.24367   0.32851   0.05672
  28   38101.9    262.5   0.005503206   0.04755   0.00675   0.21633   0.02656
  29   39265.6    254.7   0.001764070   0.01479  -0.03021  -0.10077  -0.06102
  30   39990.5    250.1   0.137491848   1.13187  -0.28786   1.02364  -0.03402
  31   40164.2    249.0   0.009147759   0.07498  -0.25506   0.07136   0.06953

FINAL SINGLE POINT ENERGY     -3517.793123699414

DIPOLE MOMENT
-------------
                                X             Y             Z
Electronic contribution:    -25.13311      -8.54021     -25.75714
Nuclear contribution   :     25.59472       8.98178      26.28551
                        -----------------------------------------
Total Dipole Moment    :      0.46161       0.44157       0.52837
                        -----------------------------------------
Magnitude (a.u.)       :      0.82900
Magnitude (Debye)      :      2.10715

Rotational constants in cm-1:     0.002627     0.000269     0.000247
Rotational constants in MHz :    78.769009     8.062842     7.415491

                             ****ORCA TERMINATED NORMALLY****
TOTAL RUN TIME: 0 days 0 hours 55 minutes 24 seconds 791 msec
