                         Program Version 4.2.0 -  RELEASE  -
|  1> # ORCA input file
|  2> # O-IDTBR.out: Geometry 41
|  3> ! CAM-B3LYP def2-SVP def2/J RIJCOSX Grid4 TightSCF
|  4> %maxcore 5000
|  5> %tddft
|  6>     Mode sTDDFT
|  7>     Ethresh 5.0
|  8>     maxcore 5000
|  9> end
| 10> * xyz 0 1
| 11>    S        0.64327        -1.96333        -1.07928
| 12>    C        2.03444        -1.09341        -1.75345
| 13>    S        3.32589        -1.87560        -2.40179
| 14>    N        1.85514         0.26525        -1.65399
| 15>    C        2.82060         1.24596        -2.15400
| 16>    C        3.73869         1.76928        -1.05598
| 17>    C        0.69912         0.70123        -1.00068
| 18>    O        0.43306         1.87295        -0.82837
| 19>    C       -0.12027        -0.46491        -0.55577
| 20>    C       -1.22823        -0.18959         0.18297
| 21>    C       -2.27557        -0.97467         0.77871
| 22>    C       -2.48848        -2.38748         0.61052
| 23>    N       -1.71922        -3.20992        -0.09827
| 24>    S       -2.37200        -4.71228        -0.00675
| 25>    N       -3.66858        -4.36584         0.93670
| 26>    C       -3.63581        -3.06161         1.21586
| 27>    C       -4.59961        -2.32484         2.00560
| 28>    C       -4.31991        -0.96713         2.16698
| 29>    C       -3.21739        -0.32425         1.57665
| 30>    C       -5.79245        -2.92808         2.55621
| 31>    C       -6.22337        -4.25574         2.51379
| 32>    C       -7.48299        -4.43160         3.12108
| 33>    C       -8.01534        -3.25400         3.62782
| 34>    S       -6.98446        -1.90028         3.37527
| 35>    C       -9.32919        -3.47042         4.18720
| 36>    C       -9.61501        -4.85755         4.02941
| 37>    C       -8.43016        -5.59322         3.38441
| 38>    C       -8.84776        -6.31758         2.08316
| 39>    C       -9.45385        -5.40349         1.02150
| 40>    C       -7.72801        -6.56795         4.37420
| 41>    C       -8.55926        -7.72766         4.91851
| 42>    C      -10.86122        -5.35129         4.39047
| 43>    C      -11.80410        -4.45110         4.91580
| 44>    C      -11.51540        -3.06543         5.08070
| 45>    C      -10.26395        -2.57409         4.73259
| 46>    C      -12.72091        -2.31875         5.67558
| 47>    C      -12.35712        -1.65399         7.02536
| 48>    C      -11.83021        -2.62149         8.08182
| 49>    C      -13.33802        -1.28745         4.68746
| 50>    C      -12.45253        -0.13088         4.22747
| 51>    C      -13.71094        -3.46535         5.83933
| 52>    C      -13.15587        -4.65493         5.38219
| 53>    S      -14.23691        -5.98848         5.47771
| 54>    C      -15.50184        -4.93909         6.13801
| 55>    C      -15.04018        -3.62221         6.26710
| 56>    C      -16.82333        -5.43723         6.45029
| 57>    C      -17.17324        -6.82740         6.30178
| 58>    N      -16.34838        -7.78923         5.89119
| 59>    S      -17.19331        -9.19376         5.88405
| 60>    N      -18.64177        -8.62143         6.40314
| 61>    C      -18.51190        -7.30935         6.59881
| 62>    C      -19.55361        -6.41194         7.05026
| 63>    C      -19.16495        -5.07618         7.18755
| 64>    C      -17.86050        -4.61737         6.90210
| 65>    C      -20.85152        -6.99786         7.28958
| 66>    C      -22.06814        -6.52094         7.69218
| 67>    S      -23.44971        -7.62875         7.84074
| 68>    C      -24.56043        -6.33621         8.28546
| 69>    S      -26.16365        -6.57692         8.56273
| 70>    N      -23.87851        -5.14279         8.34660
| 71>    C      -24.53189        -3.88824         8.72746
| 72>    C      -24.68081        -3.75341        10.23708
| 73>    C      -22.50804        -5.15055         8.03445
| 74>    O      -21.84179        -4.13088         8.04974
| 75>    H        2.23613         2.06629        -2.59360
| 76>    H        3.39386         0.74155        -2.94225
| 77>    H        3.15916         2.28653        -0.27690
| 78>    H        4.45854         2.48475        -1.48383
| 79>    H        4.30500         0.94502        -0.59658
| 80>    H       -1.33394         0.88812         0.35476
| 81>    H       -4.99746        -0.35601         2.76722
| 82>    H       -3.09461         0.74788         1.74781
| 83>    H       -5.62595        -5.03016         2.03699
| 84>    H       -9.56745        -7.11104         2.34082
| 85>    H       -7.95917        -6.83246         1.67705
| 86>    H      -10.31273        -4.84357         1.42353
| 87>    H       -9.80925        -5.98669         0.15813
| 88>    H       -8.72185        -4.66808         0.65589
| 89>    H       -7.34551        -5.97055         5.21785
| 90>    H       -6.83842        -6.96349         3.85419
| 91>    H       -9.37737        -7.37360         5.56211
| 92>    H       -7.92508        -8.38987         5.52941
| 93>    H       -8.99798        -8.34546         4.11962
| 94>    H      -11.12179        -6.40243         4.25485
| 95>    H      -10.00356        -1.52276         4.86474
| 96>    H      -13.25271        -1.13079         7.40455
| 97>    H      -11.60519        -0.87093         6.83619
| 98>    H      -12.59226        -3.36282         8.36425
| 99>    H      -11.52676        -2.08065         8.99156
|100>    H      -10.95234        -3.17432         7.71201
|101>    H      -14.24123        -0.88258         5.17659
|102>    H      -13.69522        -1.84096         3.80378
|103>    H      -12.02708         0.43791         5.06858
|104>    H      -13.04465         0.57593         3.62453
|105>    H      -11.62202        -0.47882         3.59720
|106>    H      -15.66299        -2.81824         6.65855
|107>    H      -19.90881        -4.35779         7.52768
|108>    H      -17.66857        -3.55261         7.04172
|109>    H      -20.84077        -8.07377         7.08319
|110>    H      -25.51378        -3.87274         8.23495
|111>    H      -23.90549        -3.08632         8.31660
|112>    H      -25.31014        -4.56037        10.63768
|113>    H      -25.16105        -2.79317        10.48130
|114>    H      -23.69902        -3.78513        10.73269
|115> *
|116>
|117>                          ****END OF INPUT****

CARTESIAN COORDINATES (ANGSTROEM)
---------------------------------
  S      0.643270   -1.963330   -1.079280
  C      2.034440   -1.093410   -1.753450
  S      3.325890   -1.875600   -2.401790
  N      1.855140    0.265250   -1.653990
  C      2.820600    1.245960   -2.154000
  C      3.738690    1.769280   -1.055980
  C      0.699120    0.701230   -1.000680
  O      0.433060    1.872950   -0.828370
  C     -0.120270   -0.464910   -0.555770
  C     -1.228230   -0.189590    0.182970
  C     -2.275570   -0.974670    0.778710
  C     -2.488480   -2.387480    0.610520
  N     -1.719220   -3.209920   -0.098270
  S     -2.372000   -4.712280   -0.006750
  N     -3.668580   -4.365840    0.936700
  C     -3.635810   -3.061610    1.215860
  C     -4.599610   -2.324840    2.005600
  C     -4.319910   -0.967130    2.166980
  C     -3.217390   -0.324250    1.576650
  C     -5.792450   -2.928080    2.556210
  C     -6.223370   -4.255740    2.513790
  C     -7.482990   -4.431600    3.121080
  C     -8.015340   -3.254000    3.627820
  S     -6.984460   -1.900280    3.375270
  C     -9.329190   -3.470420    4.187200
  C     -9.615010   -4.857550    4.029410
  C     -8.430160   -5.593220    3.384410
  C     -8.847760   -6.317580    2.083160
  C     -9.453850   -5.403490    1.021500
  C     -7.728010   -6.567950    4.374200
  C     -8.559260   -7.727660    4.918510
  C    -10.861220   -5.351290    4.390470
  C    -11.804100   -4.451100    4.915800
  C    -11.515400   -3.065430    5.080700
  C    -10.263950   -2.574090    4.732590
  C    -12.720910   -2.318750    5.675580
  C    -12.357120   -1.653990    7.025360
  C    -11.830210   -2.621490    8.081820
  C    -13.338020   -1.287450    4.687460
  C    -12.452530   -0.130880    4.227470
  C    -13.710940   -3.465350    5.839330
  C    -13.155870   -4.654930    5.382190
  S    -14.236910   -5.988480    5.477710
  C    -15.501840   -4.939090    6.138010
  C    -15.040180   -3.622210    6.267100
  C    -16.823330   -5.437230    6.450290
  C    -17.173240   -6.827400    6.301780
  N    -16.348380   -7.789230    5.891190
  S    -17.193310   -9.193760    5.884050
  N    -18.641770   -8.621430    6.403140
  C    -18.511900   -7.309350    6.598810
  C    -19.553610   -6.411940    7.050260
  C    -19.164950   -5.076180    7.187550
  C    -17.860500   -4.617370    6.902100
  C    -20.851520   -6.997860    7.289580
  C    -22.068140   -6.520940    7.692180
  S    -23.449710   -7.628750    7.840740
  C    -24.560430   -6.336210    8.285460
  S    -26.163650   -6.576920    8.562730
  N    -23.878510   -5.142790    8.346600
  C    -24.531890   -3.888240    8.727460
  C    -24.680810   -3.753410   10.237080
  C    -22.508040   -5.150550    8.034450
  O    -21.841790   -4.130880    8.049740
  H      2.236130    2.066290   -2.593600
  H      3.393860    0.741550   -2.942250
  H      3.159160    2.286530   -0.276900
  H      4.458540    2.484750   -1.483830
  H      4.305000    0.945020   -0.596580
  H     -1.333940    0.888120    0.354760
  H     -4.997460   -0.356010    2.767220
  H     -3.094610    0.747880    1.747810
  H     -5.625950   -5.030160    2.036990
  H     -9.567450   -7.111040    2.340820
  H     -7.959170   -6.832460    1.677050
  H    -10.312730   -4.843570    1.423530
  H     -9.809250   -5.986690    0.158130
  H     -8.721850   -4.668080    0.655890
  H     -7.345510   -5.970550    5.217850
  H     -6.838420   -6.963490    3.854190
  H     -9.377370   -7.373600    5.562110
  H     -7.925080   -8.389870    5.529410
  H     -8.997980   -8.345460    4.119620
  H    -11.121790   -6.402430    4.254850
  H    -10.003560   -1.522760    4.864740
  H    -13.252710   -1.130790    7.404550
  H    -11.605190   -0.870930    6.836190
  H    -12.592260   -3.362820    8.364250
  H    -11.526760   -2.080650    8.991560
  H    -10.952340   -3.174320    7.712010
  H    -14.241230   -0.882580    5.176590
  H    -13.695220   -1.840960    3.803780
  H    -12.027080    0.437910    5.068580
  H    -13.044650    0.575930    3.624530
  H    -11.622020   -0.478820    3.597200
  H    -15.662990   -2.818240    6.658550
  H    -19.908810   -4.357790    7.527680
  H    -17.668570   -3.552610    7.041720
  H    -20.840770   -8.073770    7.083190
  H    -25.513780   -3.872740    8.234950
  H    -23.905490   -3.086320    8.316600
  H    -25.310140   -4.560370   10.637680
  H    -25.161050   -2.793170   10.481300
  H    -23.699020   -3.785130   10.732690

 Total Charge           Charge          ....    0
 Multiplicity           Mult            ....    1
 Number of Electrons    NEL             ....  514
 Basis Dimension        Dim             .... 1128

ORBITAL ENERGIES
----------------

  NO   OCC          E(Eh)            E(eV)
   0   2.0000     -89.026802     -2422.5424
   1   2.0000     -89.024163     -2422.4706
   2   2.0000     -88.961648     -2420.7695
   3   2.0000     -88.959167     -2420.7020
   4   2.0000     -88.957937     -2420.6685
   5   2.0000     -88.953571     -2420.5497
   6   2.0000     -88.884702     -2418.6757
   7   2.0000     -88.879698     -2418.5395
   8   2.0000     -19.216464      -522.9066
   9   2.0000     -19.205593      -522.6108
  10   2.0000     -14.475010      -393.8850
  11   2.0000     -14.468317      -393.7029
  12   2.0000     -14.452547      -393.2738
  13   2.0000     -14.451606      -393.2482
  14   2.0000     -14.449820      -393.1996
  15   2.0000     -14.447099      -393.1255
  16   2.0000     -10.403265      -283.0872
  17   2.0000     -10.390967      -282.7526
  18   2.0000     -10.382504      -282.5223
  19   2.0000     -10.373898      -282.2881
  20   2.0000     -10.337843      -281.3070
  21   2.0000     -10.336890      -281.2811
  22   2.0000     -10.332365      -281.1579
  23   2.0000     -10.332106      -281.1509
  24   2.0000     -10.321972      -280.8751
  25   2.0000     -10.316815      -280.7348
  26   2.0000     -10.314693      -280.6771
  27   2.0000     -10.314256      -280.6652
  28   2.0000     -10.311520      -280.5907
  29   2.0000     -10.311376      -280.5868
  30   2.0000     -10.310969      -280.5757
  31   2.0000     -10.307134      -280.4714
  32   2.0000     -10.304492      -280.3995
  33   2.0000     -10.303378      -280.3692
  34   2.0000     -10.301424      -280.3160
  35   2.0000     -10.301182      -280.3094
  36   2.0000     -10.300672      -280.2955
  37   2.0000     -10.299795      -280.2717
  38   2.0000     -10.295187      -280.1463
  39   2.0000     -10.294289      -280.1219
  40   2.0000     -10.293257      -280.0938
  41   2.0000     -10.291973      -280.0588
  42   2.0000     -10.291150      -280.0364
  43   2.0000     -10.290119      -280.0084
  44   2.0000     -10.288938      -279.9762
  45   2.0000     -10.287933      -279.9489
  46   2.0000     -10.286503      -279.9100
  47   2.0000     -10.282315      -279.7960
  48   2.0000     -10.282047      -279.7887
  49   2.0000     -10.281793      -279.7818
  50   2.0000     -10.281587      -279.7762
  51   2.0000     -10.280962      -279.7592
  52   2.0000     -10.274296      -279.5778
  53   2.0000     -10.273756      -279.5631
  54   2.0000     -10.272698      -279.5343
  55   2.0000     -10.271462      -279.5007
  56   2.0000     -10.271208      -279.4938
  57   2.0000     -10.270066      -279.4627
  58   2.0000     -10.261889      -279.2402
  59   2.0000     -10.261138      -279.2198
  60   2.0000     -10.260190      -279.1940
  61   2.0000     -10.258336      -279.1435
  62   2.0000     -10.255138      -279.0565
  63   2.0000     -10.254204      -279.0311
  64   2.0000      -8.118202      -220.9075
  65   2.0000      -8.115459      -220.8329
  66   2.0000      -8.056187      -219.2200
  67   2.0000      -8.054457      -219.1729
  68   2.0000      -8.052611      -219.1227
  69   2.0000      -8.048411      -219.0084
  70   2.0000      -7.981235      -217.1804
  71   2.0000      -7.976408      -217.0491
  72   2.0000      -6.089608      -165.7067
  73   2.0000      -6.086850      -165.6316
  74   2.0000      -6.082016      -165.5001
  75   2.0000      -6.080030      -165.4460
  76   2.0000      -6.079342      -165.4273
  77   2.0000      -6.077299      -165.3717
  78   2.0000      -6.025544      -163.9634
  79   2.0000      -6.024295      -163.9294
  80   2.0000      -6.022059      -163.8686
  81   2.0000      -6.021557      -163.8549
  82   2.0000      -6.020374      -163.8227
  83   2.0000      -6.018457      -163.7706
  84   2.0000      -6.018244      -163.7647
  85   2.0000      -6.017761      -163.7516
  86   2.0000      -6.014824      -163.6717
  87   2.0000      -6.014799      -163.6710
  88   2.0000      -6.014202      -163.6547
  89   2.0000      -6.008802      -163.5078
  90   2.0000      -5.951256      -161.9419
  91   2.0000      -5.947547      -161.8410
  92   2.0000      -5.946356      -161.8086
  93   2.0000      -5.942784      -161.7114
  94   2.0000      -5.941400      -161.6737
  95   2.0000      -5.936549      -161.5417
  96   2.0000      -1.151272       -31.3277
  97   2.0000      -1.142735       -31.0954
  98   2.0000      -1.119787       -30.4710
  99   2.0000      -1.117608       -30.4117
 100   2.0000      -1.070416       -29.1275
 101   2.0000      -1.063707       -28.9449
 102   2.0000      -1.002265       -27.2730
 103   2.0000      -0.995248       -27.0821
 104   2.0000      -0.986464       -26.8431
 105   2.0000      -0.983780       -26.7700
 106   2.0000      -0.968545       -26.3554
 107   2.0000      -0.962925       -26.2025
 108   2.0000      -0.947716       -25.7887
 109   2.0000      -0.938286       -25.5321
 110   2.0000      -0.932100       -25.3637
 111   2.0000      -0.927154       -25.2291
 112   2.0000      -0.900829       -24.5128
 113   2.0000      -0.890785       -24.2395
 114   2.0000      -0.888740       -24.1838
 115   2.0000      -0.875842       -23.8329
 116   2.0000      -0.865158       -23.5421
 117   2.0000      -0.860699       -23.4208
 118   2.0000      -0.858084       -23.3497
 119   2.0000      -0.855454       -23.2781
 120   2.0000      -0.844109       -22.9694
 121   2.0000      -0.838311       -22.8116
 122   2.0000      -0.836453       -22.7611
 123   2.0000      -0.835414       -22.7328
 124   2.0000      -0.832507       -22.6537
 125   2.0000      -0.830065       -22.5872
 126   2.0000      -0.825604       -22.4658
 127   2.0000      -0.823585       -22.4109
 128   2.0000      -0.809098       -22.0167
 129   2.0000      -0.798924       -21.7398
 130   2.0000      -0.769951       -20.9514
 131   2.0000      -0.765731       -20.8366
 132   2.0000      -0.754673       -20.5357
 133   2.0000      -0.753028       -20.4909
 134   2.0000      -0.742742       -20.2110
 135   2.0000      -0.736143       -20.0315
 136   2.0000      -0.733073       -19.9479
 137   2.0000      -0.723194       -19.6791
 138   2.0000      -0.717603       -19.5270
 139   2.0000      -0.711418       -19.3587
 140   2.0000      -0.708317       -19.2743
 141   2.0000      -0.707099       -19.2411
 142   2.0000      -0.699516       -19.0348
 143   2.0000      -0.696813       -18.9612
 144   2.0000      -0.692503       -18.8440
 145   2.0000      -0.691073       -18.8051
 146   2.0000      -0.683530       -18.5998
 147   2.0000      -0.666791       -18.1443
 148   2.0000      -0.656343       -17.8600
 149   2.0000      -0.652750       -17.7622
 150   2.0000      -0.640683       -17.4339
 151   2.0000      -0.633637       -17.2421
 152   2.0000      -0.628911       -17.1135
 153   2.0000      -0.621274       -16.9057
 154   2.0000      -0.617784       -16.8108
 155   2.0000      -0.608216       -16.5504
 156   2.0000      -0.602534       -16.3958
 157   2.0000      -0.596546       -16.2328
 158   2.0000      -0.590032       -16.0556
 159   2.0000      -0.587452       -15.9854
 160   2.0000      -0.582673       -15.8553
 161   2.0000      -0.576714       -15.6932
 162   2.0000      -0.570329       -15.5194
 163   2.0000      -0.569750       -15.5037
 164   2.0000      -0.564634       -15.3645
 165   2.0000      -0.558987       -15.2108
 166   2.0000      -0.554105       -15.0780
 167   2.0000      -0.552514       -15.0347
 168   2.0000      -0.549268       -14.9463
 169   2.0000      -0.548664       -14.9299
 170   2.0000      -0.546357       -14.8671
 171   2.0000      -0.543827       -14.7983
 172   2.0000      -0.542076       -14.7506
 173   2.0000      -0.538155       -14.6439
 174   2.0000      -0.536975       -14.6118
 175   2.0000      -0.531590       -14.4653
 176   2.0000      -0.529763       -14.4156
 177   2.0000      -0.525875       -14.3098
 178   2.0000      -0.523965       -14.2578
 179   2.0000      -0.521053       -14.1786
 180   2.0000      -0.520221       -14.1559
 181   2.0000      -0.515742       -14.0341
 182   2.0000      -0.510903       -13.9024
 183   2.0000      -0.508274       -13.8308
 184   2.0000      -0.503230       -13.6936
 185   2.0000      -0.500202       -13.6112
 186   2.0000      -0.496482       -13.5100
 187   2.0000      -0.492228       -13.3942
 188   2.0000      -0.490795       -13.3552
 189   2.0000      -0.484626       -13.1874
 190   2.0000      -0.480439       -13.0734
 191   2.0000      -0.479403       -13.0452
 192   2.0000      -0.476925       -12.9778
 193   2.0000      -0.474792       -12.9197
 194   2.0000      -0.472157       -12.8480
 195   2.0000      -0.470624       -12.8063
 196   2.0000      -0.469079       -12.7643
 197   2.0000      -0.468179       -12.7398
 198   2.0000      -0.466057       -12.6821
 199   2.0000      -0.462452       -12.5839
 200   2.0000      -0.461911       -12.5692
 201   2.0000      -0.457754       -12.4561
 202   2.0000      -0.456437       -12.4203
 203   2.0000      -0.455343       -12.3905
 204   2.0000      -0.454605       -12.3704
 205   2.0000      -0.451582       -12.2882
 206   2.0000      -0.450577       -12.2608
 207   2.0000      -0.448633       -12.2079
 208   2.0000      -0.448267       -12.1980
 209   2.0000      -0.446519       -12.1504
 210   2.0000      -0.443635       -12.0719
 211   2.0000      -0.442879       -12.0514
 212   2.0000      -0.441679       -12.0187
 213   2.0000      -0.437305       -11.8997
 214   2.0000      -0.435575       -11.8526
 215   2.0000      -0.435168       -11.8415
 216   2.0000      -0.434917       -11.8347
 217   2.0000      -0.432235       -11.7617
 218   2.0000      -0.429940       -11.6993
 219   2.0000      -0.427942       -11.6449
 220   2.0000      -0.426633       -11.6093
 221   2.0000      -0.423654       -11.5282
 222   2.0000      -0.419707       -11.4208
 223   2.0000      -0.417655       -11.3650
 224   2.0000      -0.416647       -11.3375
 225   2.0000      -0.414814       -11.2877
 226   2.0000      -0.413002       -11.2384
 227   2.0000      -0.402168       -10.9436
 228   2.0000      -0.401524       -10.9260
 229   2.0000      -0.400003       -10.8846
 230   2.0000      -0.397380       -10.8133
 231   2.0000      -0.396179       -10.7806
 232   2.0000      -0.391973       -10.6661
 233   2.0000      -0.391081       -10.6419
 234   2.0000      -0.386609       -10.5202
 235   2.0000      -0.386515       -10.5176
 236   2.0000      -0.381321       -10.3763
 237   2.0000      -0.374523       -10.1913
 238   2.0000      -0.370377       -10.0785
 239   2.0000      -0.368842       -10.0367
 240   2.0000      -0.355526        -9.6744
 241   2.0000      -0.352690        -9.5972
 242   2.0000      -0.347351        -9.4519
 243   2.0000      -0.339751        -9.2451
 244   2.0000      -0.335099        -9.1185
 245   2.0000      -0.334022        -9.0892
 246   2.0000      -0.323188        -8.7944
 247   2.0000      -0.322582        -8.7779
 248   2.0000      -0.316880        -8.6227
 249   2.0000      -0.314212        -8.5501
 250   2.0000      -0.311867        -8.4863
 251   2.0000      -0.296030        -8.0554
 252   2.0000      -0.287284        -7.8174
 253   2.0000      -0.281665        -7.6645
 254   2.0000      -0.278416        -7.5761
 255   2.0000      -0.256689        -6.9849
 256   2.0000      -0.233036        -6.3412
 257   0.0000      -0.092106        -2.5063
 258   0.0000      -0.083638        -2.2759
 259   0.0000      -0.039730        -1.0811
 260   0.0000      -0.033123        -0.9013
 261   0.0000      -0.027763        -0.7555

MULLIKEN ATOMIC CHARGES
-----------------------
   0 S :    0.173686
   1 C :   -0.004455
   2 S :   -0.173411
   3 N :   -0.228254
   4 C :    0.125573
   5 C :   -0.023316
   6 C :    0.217902
   7 O :   -0.197898
   8 C :   -0.145024
   9 C :   -0.066554
  10 C :    0.106642
  11 C :    0.037370
  12 N :   -0.292901
  13 S :    0.501917
  14 N :   -0.282124
  15 C :   -0.000144
  16 C :    0.167193
  17 C :   -0.080498
  18 C :   -0.033557
  19 C :   -0.136659
  20 C :   -0.036791
  21 C :    0.026527
  22 C :   -0.053431
  23 S :    0.106939
  24 C :    0.070237
  25 C :   -0.002582
  26 C :   -0.109465
  27 C :    0.037813
  28 C :    0.012029
  29 C :    0.064863
  30 C :    0.010483
  31 C :   -0.108893
  32 C :    0.066712
  33 C :   -0.001886
  34 C :   -0.110832
  35 C :   -0.108610
  36 C :    0.043950
  37 C :    0.009097
  38 C :    0.061091
  39 C :    0.010009
  40 C :    0.038305
  41 C :   -0.062956
  42 S :    0.175820
  43 C :   -0.125479
  44 C :   -0.050604
  45 C :    0.182197
  46 C :   -0.028956
  47 N :   -0.299432
  48 S :    0.491759
  49 N :   -0.281956
  50 C :    0.022619
  51 C :    0.035771
  52 C :   -0.020526
  53 C :   -0.072778
  54 C :    0.042444
  55 C :   -0.198650
  56 S :    0.142580
  57 C :   -0.001525
  58 S :   -0.164712
  59 N :   -0.244793
  60 C :    0.121162
  61 C :   -0.013356
  62 C :    0.267248
  63 O :   -0.201680
  64 H :    0.035076
  65 H :    0.035400
  66 H :    0.036118
  67 H :    0.027112
  68 H :    0.029702
  69 H :    0.024702
  70 H :    0.005579
  71 H :    0.002362
  72 H :    0.002588
  73 H :    0.010687
  74 H :    0.004205
  75 H :    0.023974
  76 H :    0.014457
  77 H :    0.024761
  78 H :    0.009058
  79 H :    0.004585
  80 H :    0.024442
  81 H :    0.019573
  82 H :    0.009397
  83 H :   -0.028977
  84 H :   -0.031519
  85 H :    0.000625
  86 H :    0.010216
  87 H :    0.025296
  88 H :    0.014334
  89 H :    0.025213
  90 H :    0.000661
  91 H :    0.011134
  92 H :    0.008795
  93 H :    0.019288
  94 H :    0.024912
  95 H :   -0.014061
  96 H :    0.016652
  97 H :   -0.012646
  98 H :    0.019800
  99 H :    0.035419
 100 H :    0.040255
 101 H :    0.034762
 102 H :    0.026594
 103 H :    0.024221
Sum of atomic charges:   -0.0000000

LOEWDIN ATOMIC CHARGES
----------------------
   0 S :    0.402024
   1 C :   -0.242972
   2 S :   -0.048764
   3 N :   -0.030964
   4 C :    0.042915
   5 C :   -0.064011
   6 C :    0.078867
   7 O :   -0.180388
   8 C :   -0.210563
   9 C :    0.000981
  10 C :   -0.050225
  11 C :   -0.035805
  12 N :   -0.280391
  13 S :    0.621900
  14 N :   -0.270570
  15 C :   -0.038478
  16 C :   -0.022610
  17 C :   -0.036903
  18 C :    0.007480
  19 C :   -0.163012
  20 C :   -0.035943
  21 C :   -0.042233
  22 C :   -0.169770
  23 S :    0.420315
  24 C :   -0.029921
  25 C :    0.007989
  26 C :   -0.028390
  27 C :   -0.019799
  28 C :   -0.061727
  29 C :   -0.014033
  30 C :   -0.065119
  31 C :   -0.029776
  32 C :   -0.028724
  33 C :    0.007241
  34 C :   -0.031118
  35 C :   -0.028223
  36 C :   -0.019369
  37 C :   -0.061826
  38 C :   -0.015125
  39 C :   -0.065047
  40 C :   -0.043116
  41 C :   -0.177697
  42 S :    0.461887
  43 C :   -0.167938
  44 C :   -0.042941
  45 C :   -0.018313
  46 C :   -0.051913
  47 N :   -0.284558
  48 S :    0.617066
  49 N :   -0.281704
  50 C :   -0.034590
  51 C :   -0.059954
  52 C :    0.020011
  53 C :   -0.025724
  54 C :    0.017480
  55 C :   -0.209952
  56 S :    0.379617
  57 C :   -0.241371
  58 S :   -0.045104
  59 N :   -0.031064
  60 C :    0.041650
  61 C :   -0.064256
  62 C :    0.084955
  63 O :   -0.174273
  64 H :    0.032883
  65 H :    0.024099
  66 H :    0.030409
  67 H :    0.033908
  68 H :    0.029379
  69 H :    0.048950
  70 H :    0.028257
  71 H :    0.039738
  72 H :    0.034183
  73 H :    0.021192
  74 H :    0.023691
  75 H :    0.027424
  76 H :    0.026815
  77 H :    0.027005
  78 H :    0.028449
  79 H :    0.023413
  80 H :    0.025931
  81 H :    0.030807
  82 H :    0.021977
  83 H :    0.028916
  84 H :    0.027873
  85 H :    0.022050
  86 H :    0.021070
  87 H :    0.027051
  88 H :    0.026678
  89 H :    0.027799
  90 H :    0.021784
  91 H :    0.028924
  92 H :    0.021750
  93 H :    0.030928
  94 H :    0.025695
  95 H :    0.030314
  96 H :    0.037075
  97 H :    0.033861
  98 H :    0.044680
  99 H :    0.027332
 100 H :    0.032387
 101 H :    0.026965
 102 H :    0.033922
 103 H :    0.028318

  Mayer bond orders larger than 0.100000
B(  0-S ,  1-C ) :   1.0305 B(  0-S ,  8-C ) :   1.0127 B(  1-C ,  2-S ) :   1.6699
B(  1-C ,  3-N ) :   1.1344 B(  3-N ,  4-C ) :   0.9111 B(  3-N ,  6-C ) :   1.0618
B(  4-C ,  5-C ) :   1.1138 B(  4-C , 64-H ) :   0.9428 B(  4-C , 65-H ) :   0.9356
B(  5-C , 66-H ) :   0.9693 B(  5-C , 67-H ) :   0.9695 B(  5-C , 68-H ) :   0.9685
B(  6-C ,  7-O ) :   2.1047 B(  6-C ,  8-C ) :   0.9464 B(  8-C ,  9-C ) :   1.7622
B(  9-C , 10-C ) :   1.0961 B(  9-C , 69-H ) :   0.9341 B( 10-C , 11-C ) :   1.1415
B( 10-C , 16-C ) :   0.1026 B( 10-C , 18-C ) :   1.4395 B( 11-C , 12-N ) :   1.5573
B( 11-C , 15-C ) :   1.1394 B( 12-N , 13-S ) :   1.2272 B( 12-N , 14-N ) :   0.1453
B( 13-S , 14-N ) :   1.2357 B( 14-N , 15-C ) :   1.5612 B( 15-C , 16-C ) :   1.1619
B( 16-C , 17-C ) :   1.4460 B( 16-C , 19-C ) :   1.1239 B( 17-C , 18-C ) :   1.2419
B( 17-C , 70-H ) :   0.9789 B( 18-C , 71-H ) :   0.9887 B( 19-C , 20-C ) :   1.4836
B( 19-C , 23-S ) :   1.0944 B( 20-C , 21-C ) :   1.2491 B( 20-C , 72-H ) :   0.9912
B( 21-C , 22-C ) :   1.5387 B( 21-C , 26-C ) :   0.9397 B( 22-C , 23-S ) :   1.0964
B( 22-C , 24-C ) :   1.0484 B( 24-C , 25-C ) :   1.3776 B( 24-C , 34-C ) :   1.2911
B( 25-C , 26-C ) :   0.9074 B( 25-C , 31-C ) :   1.4115 B( 26-C , 27-C ) :   1.0256
B( 26-C , 29-C ) :   1.0144 B( 27-C , 28-C ) :   1.1013 B( 27-C , 73-H ) :   0.9405
B( 27-C , 74-H ) :   0.9421 B( 28-C , 75-H ) :   0.9656 B( 28-C , 76-H ) :   0.9659
B( 28-C , 77-H ) :   0.9648 B( 29-C , 30-C ) :   1.1099 B( 29-C , 78-H ) :   0.9408
B( 29-C , 79-H ) :   0.9407 B( 30-C , 80-H ) :   0.9623 B( 30-C , 81-H ) :   0.9615
B( 30-C , 82-H ) :   0.9643 B( 31-C , 32-C ) :   1.2918 B( 31-C , 83-H ) :   0.9943
B( 32-C , 33-C ) :   1.3802 B( 32-C , 41-C ) :   1.0511 B( 33-C , 34-C ) :   1.4117
B( 33-C , 35-C ) :   0.9068 B( 34-C , 84-H ) :   0.9927 B( 35-C , 36-C ) :   1.0218
B( 35-C , 38-C ) :   1.0180 B( 35-C , 40-C ) :   0.9403 B( 36-C , 37-C ) :   1.0995
B( 36-C , 85-H ) :   0.9427 B( 36-C , 86-H ) :   0.9411 B( 37-C , 87-H ) :   0.9655
B( 37-C , 88-H ) :   0.9659 B( 37-C , 89-H ) :   0.9659 B( 38-C , 39-C ) :   1.1110
B( 38-C , 90-H ) :   0.9397 B( 38-C , 91-H ) :   0.9421 B( 39-C , 92-H ) :   0.9642
B( 39-C , 93-H ) :   0.9608 B( 39-C , 94-H ) :   0.9619 B( 40-C , 41-C ) :   1.5174
B( 40-C , 44-C ) :   1.3046 B( 41-C , 42-S ) :   1.0839 B( 42-S , 43-C ) :   1.1158
B( 43-C , 44-C ) :   1.4507 B( 43-C , 45-C ) :   1.1087 B( 44-C , 95-H ) :   0.9907
B( 45-C , 46-C ) :   1.1473 B( 45-C , 53-C ) :   1.4433 B( 46-C , 47-N ) :   1.5448
B( 46-C , 50-C ) :   1.1387 B( 47-N , 48-S ) :   1.2329 B( 47-N , 49-N ) :   0.1481
B( 48-S , 49-N ) :   1.2286 B( 49-N , 50-C ) :   1.5757 B( 50-C , 51-C ) :   1.1419
B( 51-C , 52-C ) :   1.4423 B( 51-C , 54-C ) :   1.1844 B( 52-C , 53-C ) :   1.2300
B( 52-C , 96-H ) :   0.9615 B( 53-C , 97-H ) :   0.9895 B( 54-C , 55-C ) :   1.6826
B( 54-C , 98-H ) :   0.9333 B( 55-C , 56-S ) :   1.0388 B( 55-C , 62-C ) :   0.9454
B( 56-S , 57-C ) :   1.0611 B( 57-C , 58-S ) :   1.6643 B( 57-C , 59-N ) :   1.1344
B( 59-N , 60-C ) :   0.9122 B( 59-N , 62-C ) :   1.0654 B( 60-C , 61-C ) :   1.1177
B( 60-C , 99-H ) :   0.9387 B( 60-C ,100-H ) :   0.9361 B( 61-C ,101-H ) :   0.9655
B( 61-C ,102-H ) :   0.9699 B( 61-C ,103-H ) :   0.9676 B( 62-C , 63-O ) :   2.0371

-----------------------------------------------------------------------------
         ABSORPTION SPECTRUM VIA TRANSITION ELECTRIC DIPOLE MOMENTS
-----------------------------------------------------------------------------
State   Energy  Wavelength   fosc         T2         TX        TY        TZ
        (cm-1)    (nm)                  (au**2)     (au)      (au)      (au)
-----------------------------------------------------------------------------
   0   16419.1    609.0   2.441165507  48.94680   6.39053   1.56383  -2.37958
   1   18781.5    532.4   0.024709307   0.43312   0.40252  -0.14292   0.50067
   2   24071.5    415.4   0.005060989   0.06922   0.20203  -0.06778   0.15430
   3   25105.9    398.3   0.009294677   0.12188   0.33693  -0.09139  -0.00300
   4   25273.9    395.7   0.017173198   0.22369  -0.42688   0.18881   0.07630
   5   25863.0    386.7   0.000140515   0.00179  -0.03812  -0.01748  -0.00549
   6   27468.8    364.0   0.573345407   6.87151  -2.49365   0.12012   0.79924
   7   28224.1    354.3   0.524623118   6.11932   2.13636   0.56277  -1.11291
   8   29019.1    344.6   0.030083845   0.34129  -0.45807  -0.23251   0.27822
   9   29395.1    340.2   0.017864297   0.20007  -0.23485  -0.30832   0.22328
  10   31153.0    321.0   0.096256451   1.01720  -0.92277  -0.31934   0.25244
  11   32207.7    310.5   0.013539060   0.13839   0.16357   0.33380   0.01471
  12   33090.9    302.2   0.017859148   0.17768  -0.12582  -0.40163   0.02315
  13   33242.8    300.8   0.003279567   0.03248   0.08101  -0.16098   0.00096
  14   33503.0    298.5   0.037476452   0.36826   0.15928  -0.57643  -0.10301
  15   33825.5    295.6   0.020040990   0.19505  -0.10647   0.39753   0.16027
  16   34397.3    290.7   0.034655838   0.33169   0.50634   0.25519  -0.10092
  17   34905.1    286.5   0.000278349   0.00263  -0.00939  -0.04044  -0.03002
  18   35026.1    285.5   0.022611144   0.21252   0.29268  -0.31727  -0.16187
  19   35543.7    281.3   0.107977174   1.00010   0.22419   0.96335   0.14763
  20   35758.8    279.7   0.049860063   0.45903   0.58938  -0.27161  -0.19465
  21   35935.0    278.3   0.044441655   0.40714  -0.18091   0.55146   0.26516
  22   36455.4    274.3   0.030957764   0.27957  -0.02262   0.52803   0.01559
  23   36778.0    271.9   0.032137880   0.28768   0.49186  -0.18331  -0.11022
  24   37329.8    267.9   0.000850056   0.00750  -0.01477   0.07885   0.03258
  25   37536.3    266.4   0.097799572   0.85775   0.39627  -0.74314  -0.38532
  26   37675.9    265.4   0.069196445   0.60464  -0.36180   0.60940   0.31994
  27   38376.8    260.6   0.008228619   0.07059  -0.13899   0.22073   0.05048
  28   38632.0    258.9   0.014506085   0.12362   0.06150  -0.32659  -0.11477
  29   38692.0    258.5   0.021657918   0.18428   0.21049  -0.33768  -0.16107
  30   39048.9    256.1   0.000182434   0.00154  -0.00252   0.03863  -0.00629
  31   39408.8    253.8   0.001734004   0.01449  -0.09456  -0.00408   0.07434

FINAL SINGLE POINT ENERGY     -5513.841507235471

DIPOLE MOMENT
-------------
                                X             Y             Z
Electronic contribution:     -1.08938     -35.63505     -17.60102
Nuclear contribution   :      0.94943      36.10451      18.30522
                        -----------------------------------------
Total Dipole Moment    :     -0.13995       0.46946       0.70420
                        -----------------------------------------
Magnitude (a.u.)       :      0.85783
Magnitude (Debye)      :      2.18043

Rotational constants in cm-1:     0.003809     0.000189     0.000183
Rotational constants in MHz :   114.199738     5.670333     5.488924

                             ****ORCA TERMINATED NORMALLY****
TOTAL RUN TIME: 0 days 0 hours 50 minutes 20 seconds 181 msec
