                         Program Version 4.2.0 -  RELEASE  -
|  1> # ORCA input file
|  2> # O-IDTBR.out
|  3> ! CAM-B3LYP def2-SVP def2/J RIJCOSX Grid4 TightSCF
|  4> %maxcore 5000
|  5> %tddft
|  6>     Mode sTDDFT
|  7>     Ethresh 5.0
|  8>     maxcore 5000
|  9> end
| 10> * xyz 0 1
| 11>    S        0.59402        -2.16021        -0.28280
| 12>    C        2.17822        -1.54834        -0.75208
| 13>    S        3.39585        -2.50266        -1.27372
| 14>    N        2.23583        -0.19839        -0.63438
| 15>    C        3.43254         0.56200        -0.93727
| 16>    C        4.39340         0.57033         0.24490
| 17>    C        1.09751         0.43038        -0.17297
| 18>    O        1.00766         1.62922        -0.01988
| 19>    C        0.03402        -0.55273         0.09014
| 20>    C       -1.15571        -0.11252         0.56801
| 21>    C       -2.35308        -0.79387         0.92646
| 22>    C       -2.57173        -2.19059         0.79800
| 23>    N       -1.72259        -3.09068         0.31674
| 24>    S       -2.40126        -4.54740         0.35639
| 25>    N       -3.81336        -4.11133         0.98754
| 26>    C       -3.81752        -2.79611         1.19689
| 27>    C       -4.87205        -2.00954         1.73835
| 28>    C       -4.61831        -0.64390         1.83988
| 29>    C       -3.42103        -0.06505         1.45138
| 30>    C       -6.11004        -2.58343         2.15512
| 31>    C       -6.50295        -3.91057         2.10750
| 32>    C       -7.78716        -4.09968         2.60509
| 33>    C       -8.37889        -2.92579         3.04397
| 34>    S       -7.36518        -1.56068         2.83978
| 35>    C       -9.69751        -3.17111         3.53076
| 36>    C       -9.93515        -4.56071         3.39735
| 37>    C       -8.71039        -5.26732         2.84269
| 38>    C       -9.02161        -6.03257         1.54801
| 39>    C       -9.54266        -5.12017         0.44344
| 40>    C       -8.03087        -6.17483         3.89496
| 41>    C       -8.85873        -7.34997         4.39717
| 42>    C      -11.15900        -5.08382         3.74552
| 43>    C      -12.11689        -4.20598         4.24966
| 44>    C      -11.87885        -2.81565         4.37574
| 45>    C      -10.65631        -2.29134         4.02731
| 46>    C      -13.09881        -2.10500         4.93195
| 47>    C      -12.77738        -1.30202         6.20037
| 48>    C      -12.22087        -2.17748         7.31733
| 49>    C      -13.79607        -1.23192         3.86163
| 50>    C      -12.97331        -0.07774         3.30549
| 51>    C      -14.00680        -3.27553         5.20769
| 52>    C      -13.42625        -4.45576         4.76333
| 53>    S      -14.42828        -5.82392         5.01817
| 54>    C      -15.65290        -4.80006         5.73668
| 55>    C      -15.26771        -3.46555         5.75273
| 56>    C      -16.86417        -5.36660         6.23073
| 57>    C      -17.10809        -6.76315         6.13588
| 58>    N      -16.30148        -7.67341         5.59789
| 59>    S      -16.99315        -9.12092         5.71797
| 60>    N      -18.34620        -8.66306         6.45786
| 61>    C      -18.31688        -7.34570         6.64463
| 62>    C      -19.32020        -6.54484         7.26487
| 63>    C      -19.04478        -5.17994         7.32973
| 64>    C      -17.87380        -4.62052         6.83648
| 65>    C      -20.47501        -7.22313         7.75055
| 66>    C      -21.60748        -6.80824         8.38171
| 67>    S      -22.79645        -8.03431         8.82476
| 68>    C      -23.87240        -6.84435         9.52745
| 69>    S      -25.31467        -7.18965        10.21023
| 70>    N      -23.33170        -5.60660         9.40698
| 71>    C      -23.99906        -4.42693         9.92386
| 72>    C      -23.71704        -4.23976        11.40906
| 73>    C      -22.09147        -5.49331         8.79780
| 74>    O      -21.55192        -4.41419         8.65787
| 75>    H        3.10435         1.57747        -1.17027
| 76>    H        3.90754         0.10953        -1.81081
| 77>    H        3.91605         1.01418         1.11513
| 78>    H        5.27465         1.15233        -0.00668
| 79>    H        4.70201        -0.44379         0.48620
| 80>    H       -1.18542         0.96474         0.70635
| 81>    H       -5.39367        -0.00819         2.24218
| 82>    H       -3.30420         1.00269         1.56425
| 83>    H       -5.85903        -4.67579         1.71605
| 84>    H       -9.76979        -6.79743         1.75855
| 85>    H       -8.11061        -6.53029         1.20939
| 86>    H      -10.44462        -4.60428         0.76631
| 87>    H       -9.77850        -5.70372        -0.44331
| 88>    H       -8.79787        -4.37449         0.17446
| 89>    H       -7.75577        -5.55014         4.74897
| 90>    H       -7.10657        -6.55142         3.45074
| 91>    H       -9.73687        -7.00599         4.93626
| 92>    H       -8.25637        -7.94491         5.08040
| 93>    H       -9.17302        -7.99334         3.57987
| 94>    H      -11.39522        -6.13071         3.63758
| 95>    H      -10.42127        -1.24391         4.13486
| 96>    H      -13.68969        -0.80937         6.54331
| 97>    H      -12.04688        -0.52974         5.95746
| 98>    H      -12.94371        -2.93497         7.61159
| 99>    H      -11.98703        -1.56954         8.18814
|100>    H      -11.31182        -2.67927         6.99281
|101>    H      -14.71194        -0.83678         4.30724
|102>    H      -14.08652        -1.88511         3.03460
|103>    H      -12.64987         0.59654         4.09385
|104>    H      -13.58193         0.49093         2.60569
|105>    H      -12.10100        -0.44414         2.77166
|106>    H      -15.88294        -2.68120         6.15387
|107>    H      -19.77133        -4.52808         7.78524
|108>    H      -17.74585        -3.55424         6.93463
|109>    H      -20.42247        -8.29312         7.57616
|110>    H      -25.07125        -4.54364         9.75074
|111>    H      -23.61566        -3.57806         9.35284
|112>    H      -24.08527        -5.09311        11.97352
|113>    H      -24.21924        -3.34456        11.76357
|114>    H      -22.64818        -4.13344        11.57968
|115> *
|116>
|117>                          ****END OF INPUT****

CARTESIAN COORDINATES (ANGSTROEM)
---------------------------------
  S      0.594020   -2.160210   -0.282800
  C      2.178220   -1.548340   -0.752080
  S      3.395850   -2.502660   -1.273720
  N      2.235830   -0.198390   -0.634380
  C      3.432540    0.562000   -0.937270
  C      4.393400    0.570330    0.244900
  C      1.097510    0.430380   -0.172970
  O      1.007660    1.629220   -0.019880
  C      0.034020   -0.552730    0.090140
  C     -1.155710   -0.112520    0.568010
  C     -2.353080   -0.793870    0.926460
  C     -2.571730   -2.190590    0.798000
  N     -1.722590   -3.090680    0.316740
  S     -2.401260   -4.547400    0.356390
  N     -3.813360   -4.111330    0.987540
  C     -3.817520   -2.796110    1.196890
  C     -4.872050   -2.009540    1.738350
  C     -4.618310   -0.643900    1.839880
  C     -3.421030   -0.065050    1.451380
  C     -6.110040   -2.583430    2.155120
  C     -6.502950   -3.910570    2.107500
  C     -7.787160   -4.099680    2.605090
  C     -8.378890   -2.925790    3.043970
  S     -7.365180   -1.560680    2.839780
  C     -9.697510   -3.171110    3.530760
  C     -9.935150   -4.560710    3.397350
  C     -8.710390   -5.267320    2.842690
  C     -9.021610   -6.032570    1.548010
  C     -9.542660   -5.120170    0.443440
  C     -8.030870   -6.174830    3.894960
  C     -8.858730   -7.349970    4.397170
  C    -11.159000   -5.083820    3.745520
  C    -12.116890   -4.205980    4.249660
  C    -11.878850   -2.815650    4.375740
  C    -10.656310   -2.291340    4.027310
  C    -13.098810   -2.105000    4.931950
  C    -12.777380   -1.302020    6.200370
  C    -12.220870   -2.177480    7.317330
  C    -13.796070   -1.231920    3.861630
  C    -12.973310   -0.077740    3.305490
  C    -14.006800   -3.275530    5.207690
  C    -13.426250   -4.455760    4.763330
  S    -14.428280   -5.823920    5.018170
  C    -15.652900   -4.800060    5.736680
  C    -15.267710   -3.465550    5.752730
  C    -16.864170   -5.366600    6.230730
  C    -17.108090   -6.763150    6.135880
  N    -16.301480   -7.673410    5.597890
  S    -16.993150   -9.120920    5.717970
  N    -18.346200   -8.663060    6.457860
  C    -18.316880   -7.345700    6.644630
  C    -19.320200   -6.544840    7.264870
  C    -19.044780   -5.179940    7.329730
  C    -17.873800   -4.620520    6.836480
  C    -20.475010   -7.223130    7.750550
  C    -21.607480   -6.808240    8.381710
  S    -22.796450   -8.034310    8.824760
  C    -23.872400   -6.844350    9.527450
  S    -25.314670   -7.189650   10.210230
  N    -23.331700   -5.606600    9.406980
  C    -23.999060   -4.426930    9.923860
  C    -23.717040   -4.239760   11.409060
  C    -22.091470   -5.493310    8.797800
  O    -21.551920   -4.414190    8.657870
  H      3.104350    1.577470   -1.170270
  H      3.907540    0.109530   -1.810810
  H      3.916050    1.014180    1.115130
  H      5.274650    1.152330   -0.006680
  H      4.702010   -0.443790    0.486200
  H     -1.185420    0.964740    0.706350
  H     -5.393670   -0.008190    2.242180
  H     -3.304200    1.002690    1.564250
  H     -5.859030   -4.675790    1.716050
  H     -9.769790   -6.797430    1.758550
  H     -8.110610   -6.530290    1.209390
  H    -10.444620   -4.604280    0.766310
  H     -9.778500   -5.703720   -0.443310
  H     -8.797870   -4.374490    0.174460
  H     -7.755770   -5.550140    4.748970
  H     -7.106570   -6.551420    3.450740
  H     -9.736870   -7.005990    4.936260
  H     -8.256370   -7.944910    5.080400
  H     -9.173020   -7.993340    3.579870
  H    -11.395220   -6.130710    3.637580
  H    -10.421270   -1.243910    4.134860
  H    -13.689690   -0.809370    6.543310
  H    -12.046880   -0.529740    5.957460
  H    -12.943710   -2.934970    7.611590
  H    -11.987030   -1.569540    8.188140
  H    -11.311820   -2.679270    6.992810
  H    -14.711940   -0.836780    4.307240
  H    -14.086520   -1.885110    3.034600
  H    -12.649870    0.596540    4.093850
  H    -13.581930    0.490930    2.605690
  H    -12.101000   -0.444140    2.771660
  H    -15.882940   -2.681200    6.153870
  H    -19.771330   -4.528080    7.785240
  H    -17.745850   -3.554240    6.934630
  H    -20.422470   -8.293120    7.576160
  H    -25.071250   -4.543640    9.750740
  H    -23.615660   -3.578060    9.352840
  H    -24.085270   -5.093110   11.973520
  H    -24.219240   -3.344560   11.763570
  H    -22.648180   -4.133440   11.579680

 Total Charge           Charge          ....    0
 Multiplicity           Mult            ....    1
 Number of Electrons    NEL             ....  514
 Basis Dimension        Dim             .... 1128

ORBITAL ENERGIES
----------------

  NO   OCC          E(Eh)            E(eV)
   0   2.0000     -89.032715     -2422.7034
   1   2.0000     -89.028325     -2422.5839
   2   2.0000     -88.961345     -2420.7613
   3   2.0000     -88.957049     -2420.6444
   4   2.0000     -88.955344     -2420.5980
   5   2.0000     -88.948943     -2420.4238
   6   2.0000     -88.880337     -2418.5569
   7   2.0000     -88.874028     -2418.3853
   8   2.0000     -19.212297      -522.7932
   9   2.0000     -19.200188      -522.4637
  10   2.0000     -14.472571      -393.8187
  11   2.0000     -14.464012      -393.5858
  12   2.0000     -14.447595      -393.1390
  13   2.0000     -14.446985      -393.1225
  14   2.0000     -14.444499      -393.0548
  15   2.0000     -14.441727      -392.9794
  16   2.0000     -10.398747      -282.9643
  17   2.0000     -10.385622      -282.6071
  18   2.0000     -10.377120      -282.3758
  19   2.0000     -10.363055      -281.9931
  20   2.0000     -10.333473      -281.1881
  21   2.0000     -10.332541      -281.1627
  22   2.0000     -10.327004      -281.0121
  23   2.0000     -10.326659      -281.0027
  24   2.0000     -10.316809      -280.7346
  25   2.0000     -10.310605      -280.5658
  26   2.0000     -10.309310      -280.5306
  27   2.0000     -10.309061      -280.5238
  28   2.0000     -10.307407      -280.4788
  29   2.0000     -10.305860      -280.4367
  30   2.0000     -10.305116      -280.4165
  31   2.0000     -10.302916      -280.3566
  32   2.0000     -10.300223      -280.2833
  33   2.0000     -10.297623      -280.2126
  34   2.0000     -10.297078      -280.1977
  35   2.0000     -10.296368      -280.1784
  36   2.0000     -10.295803      -280.1631
  37   2.0000     -10.294723      -280.1337
  38   2.0000     -10.290931      -280.0305
  39   2.0000     -10.289326      -279.9868
  40   2.0000     -10.286293      -279.9042
  41   2.0000     -10.286256      -279.9033
  42   2.0000     -10.285946      -279.8948
  43   2.0000     -10.284084      -279.8442
  44   2.0000     -10.283940      -279.8402
  45   2.0000     -10.283165      -279.8191
  46   2.0000     -10.280824      -279.7554
  47   2.0000     -10.277713      -279.6708
  48   2.0000     -10.277486      -279.6646
  49   2.0000     -10.276964      -279.6504
  50   2.0000     -10.276541      -279.6389
  51   2.0000     -10.275188      -279.6021
  52   2.0000     -10.269442      -279.4457
  53   2.0000     -10.268742      -279.4267
  54   2.0000     -10.268516      -279.4205
  55   2.0000     -10.267836      -279.4020
  56   2.0000     -10.267526      -279.3936
  57   2.0000     -10.266728      -279.3719
  58   2.0000     -10.256018      -279.0804
  59   2.0000     -10.255873      -279.0765
  60   2.0000     -10.254973      -279.0520
  61   2.0000     -10.250996      -278.9438
  62   2.0000     -10.250746      -278.9370
  63   2.0000     -10.249879      -278.9134
  64   2.0000      -8.124353      -221.0749
  65   2.0000      -8.120026      -220.9571
  66   2.0000      -8.056297      -219.2230
  67   2.0000      -8.052451      -219.1183
  68   2.0000      -8.050909      -219.0764
  69   2.0000      -8.043888      -218.8853
  70   2.0000      -7.977490      -217.0785
  71   2.0000      -7.971278      -216.9095
  72   2.0000      -6.095653      -165.8711
  73   2.0000      -6.091301      -165.7527
  74   2.0000      -6.087870      -165.6594
  75   2.0000      -6.086598      -165.6247
  76   2.0000      -6.083607      -165.5434
  77   2.0000      -6.082234      -165.5060
  78   2.0000      -6.025581      -163.9644
  79   2.0000      -6.022250      -163.8738
  80   2.0000      -6.021610      -163.8563
  81   2.0000      -6.020296      -163.8206
  82   2.0000      -6.018408      -163.7692
  83   2.0000      -6.018295      -163.7661
  84   2.0000      -6.015947      -163.7022
  85   2.0000      -6.013933      -163.6474
  86   2.0000      -6.013148      -163.6261
  87   2.0000      -6.012797      -163.6165
  88   2.0000      -6.009477      -163.5262
  89   2.0000      -6.004347      -163.3866
  90   2.0000      -5.947392      -161.8368
  91   2.0000      -5.943808      -161.7392
  92   2.0000      -5.941121      -161.6661
  93   2.0000      -5.937688      -161.5727
  94   2.0000      -5.937643      -161.5715
  95   2.0000      -5.931364      -161.4006
  96   2.0000      -1.154981       -31.4286
  97   2.0000      -1.143719       -31.1222
  98   2.0000      -1.133679       -30.8490
  99   2.0000      -1.129142       -30.7255
 100   2.0000      -1.077591       -29.3227
 101   2.0000      -1.068544       -29.0766
 102   2.0000      -1.008993       -27.4561
 103   2.0000      -1.001518       -27.2527
 104   2.0000      -0.990150       -26.9433
 105   2.0000      -0.985930       -26.8285
 106   2.0000      -0.976088       -26.5607
 107   2.0000      -0.970548       -26.4100
 108   2.0000      -0.953318       -25.9411
 109   2.0000      -0.943480       -25.6734
 110   2.0000      -0.936800       -25.4916
 111   2.0000      -0.932637       -25.3783
 112   2.0000      -0.906308       -24.6619
 113   2.0000      -0.894515       -24.3410
 114   2.0000      -0.891814       -24.2675
 115   2.0000      -0.879503       -23.9325
 116   2.0000      -0.869106       -23.6496
 117   2.0000      -0.868042       -23.6206
 118   2.0000      -0.862671       -23.4745
 119   2.0000      -0.861075       -23.4311
 120   2.0000      -0.847946       -23.0738
 121   2.0000      -0.841375       -22.8950
 122   2.0000      -0.840422       -22.8690
 123   2.0000      -0.839512       -22.8443
 124   2.0000      -0.836905       -22.7733
 125   2.0000      -0.833196       -22.6724
 126   2.0000      -0.829628       -22.5753
 127   2.0000      -0.826463       -22.4892
 128   2.0000      -0.811047       -22.0697
 129   2.0000      -0.800899       -21.7936
 130   2.0000      -0.771227       -20.9862
 131   2.0000      -0.768625       -20.9153
 132   2.0000      -0.757373       -20.6092
 133   2.0000      -0.756321       -20.5805
 134   2.0000      -0.746270       -20.3070
 135   2.0000      -0.740680       -20.1549
 136   2.0000      -0.736371       -20.0377
 137   2.0000      -0.726156       -19.7597
 138   2.0000      -0.719780       -19.5862
 139   2.0000      -0.716861       -19.5068
 140   2.0000      -0.712751       -19.3949
 141   2.0000      -0.711036       -19.3483
 142   2.0000      -0.702044       -19.1036
 143   2.0000      -0.700211       -19.0537
 144   2.0000      -0.694808       -18.9067
 145   2.0000      -0.693249       -18.8643
 146   2.0000      -0.686019       -18.6675
 147   2.0000      -0.670077       -18.2337
 148   2.0000      -0.658836       -17.9278
 149   2.0000      -0.655685       -17.8421
 150   2.0000      -0.644547       -17.5390
 151   2.0000      -0.638613       -17.3775
 152   2.0000      -0.631216       -17.1763
 153   2.0000      -0.624668       -16.9981
 154   2.0000      -0.619939       -16.8694
 155   2.0000      -0.611193       -16.6314
 156   2.0000      -0.605591       -16.4790
 157   2.0000      -0.601985       -16.3808
 158   2.0000      -0.594020       -16.1641
 159   2.0000      -0.591210       -16.0877
 160   2.0000      -0.585862       -15.9421
 161   2.0000      -0.579481       -15.7685
 162   2.0000      -0.574307       -15.6277
 163   2.0000      -0.572258       -15.5719
 164   2.0000      -0.565724       -15.3941
 165   2.0000      -0.561430       -15.2773
 166   2.0000      -0.557765       -15.1775
 167   2.0000      -0.557061       -15.1584
 168   2.0000      -0.554156       -15.0794
 169   2.0000      -0.553200       -15.0533
 170   2.0000      -0.551763       -15.0142
 171   2.0000      -0.547773       -14.9057
 172   2.0000      -0.546300       -14.8656
 173   2.0000      -0.541598       -14.7376
 174   2.0000      -0.539417       -14.6783
 175   2.0000      -0.534487       -14.5441
 176   2.0000      -0.532537       -14.4911
 177   2.0000      -0.530578       -14.4378
 178   2.0000      -0.525443       -14.2980
 179   2.0000      -0.524504       -14.2725
 180   2.0000      -0.522351       -14.2139
 181   2.0000      -0.519545       -14.1375
 182   2.0000      -0.513909       -13.9842
 183   2.0000      -0.511743       -13.9252
 184   2.0000      -0.505408       -13.7528
 185   2.0000      -0.503578       -13.7031
 186   2.0000      -0.498592       -13.5674
 187   2.0000      -0.495214       -13.4754
 188   2.0000      -0.492747       -13.4083
 189   2.0000      -0.485713       -13.2169
 190   2.0000      -0.483664       -13.1612
 191   2.0000      -0.480145       -13.0654
 192   2.0000      -0.478967       -13.0334
 193   2.0000      -0.477494       -12.9933
 194   2.0000      -0.476077       -12.9547
 195   2.0000      -0.473654       -12.8888
 196   2.0000      -0.472529       -12.8582
 197   2.0000      -0.470170       -12.7940
 198   2.0000      -0.468542       -12.7497
 199   2.0000      -0.466305       -12.6888
 200   2.0000      -0.462533       -12.5862
 201   2.0000      -0.461197       -12.5498
 202   2.0000      -0.457925       -12.4608
 203   2.0000      -0.456617       -12.4252
 204   2.0000      -0.455756       -12.4017
 205   2.0000      -0.453418       -12.3381
 206   2.0000      -0.451275       -12.2798
 207   2.0000      -0.449832       -12.2406
 208   2.0000      -0.448854       -12.2139
 209   2.0000      -0.447926       -12.1887
 210   2.0000      -0.444497       -12.0954
 211   2.0000      -0.442330       -12.0364
 212   2.0000      -0.441754       -12.0207
 213   2.0000      -0.439076       -11.9479
 214   2.0000      -0.437877       -11.9152
 215   2.0000      -0.436272       -11.8716
 216   2.0000      -0.435974       -11.8634
 217   2.0000      -0.434446       -11.8219
 218   2.0000      -0.432436       -11.7672
 219   2.0000      -0.430003       -11.7010
 220   2.0000      -0.428403       -11.6574
 221   2.0000      -0.425232       -11.5712
 222   2.0000      -0.420630       -11.4459
 223   2.0000      -0.419324       -11.4104
 224   2.0000      -0.417057       -11.3487
 225   2.0000      -0.416594       -11.3361
 226   2.0000      -0.414987       -11.2924
 227   2.0000      -0.403568       -10.9816
 228   2.0000      -0.401220       -10.9177
 229   2.0000      -0.399226       -10.8635
 230   2.0000      -0.395453       -10.7608
 231   2.0000      -0.394780       -10.7425
 232   2.0000      -0.392727       -10.6866
 233   2.0000      -0.391764       -10.6604
 234   2.0000      -0.388135       -10.5617
 235   2.0000      -0.386115       -10.5067
 236   2.0000      -0.383351       -10.4315
 237   2.0000      -0.372445       -10.1347
 238   2.0000      -0.362011        -9.8508
 239   2.0000      -0.361223        -9.8294
 240   2.0000      -0.353378        -9.6159
 241   2.0000      -0.350046        -9.5252
 242   2.0000      -0.348681        -9.4881
 243   2.0000      -0.343695        -9.3524
 244   2.0000      -0.337987        -9.1971
 245   2.0000      -0.334605        -9.1051
 246   2.0000      -0.324032        -8.8174
 247   2.0000      -0.322697        -8.7810
 248   2.0000      -0.316986        -8.6256
 249   2.0000      -0.314685        -8.5630
 250   2.0000      -0.310114        -8.4386
 251   2.0000      -0.295214        -8.0332
 252   2.0000      -0.284761        -7.7487
 253   2.0000      -0.277243        -7.5442
 254   2.0000      -0.276589        -7.5264
 255   2.0000      -0.253598        -6.9007
 256   2.0000      -0.229502        -6.2451
 257   0.0000      -0.092608        -2.5200
 258   0.0000      -0.083100        -2.2613
 259   0.0000      -0.037116        -1.0100
 260   0.0000      -0.030526        -0.8307
 261   0.0000      -0.025113        -0.6834

MULLIKEN ATOMIC CHARGES
-----------------------
   0 S :    0.163949
   1 C :    0.000272
   2 S :   -0.187322
   3 N :   -0.200927
   4 C :    0.120062
   5 C :    0.000808
   6 C :    0.203838
   7 O :   -0.195816
   8 C :   -0.137992
   9 C :   -0.062714
  10 C :    0.091169
  11 C :    0.076887
  12 N :   -0.319960
  13 S :    0.531089
  14 N :   -0.285146
  15 C :   -0.002978
  16 C :    0.155121
  17 C :   -0.067732
  18 C :   -0.025472
  19 C :   -0.122682
  20 C :   -0.056326
  21 C :    0.037105
  22 C :   -0.047579
  23 S :    0.108489
  24 C :    0.071276
  25 C :    0.009222
  26 C :   -0.107820
  27 C :    0.051840
  28 C :    0.024618
  29 C :    0.071750
  30 C :    0.033628
  31 C :   -0.125070
  32 C :    0.067268
  33 C :    0.005064
  34 C :   -0.123198
  35 C :   -0.106010
  36 C :    0.050646
  37 C :    0.026161
  38 C :    0.075228
  39 C :    0.033417
  40 C :    0.031908
  41 C :   -0.044977
  42 S :    0.170288
  43 C :   -0.113146
  44 C :   -0.058625
  45 C :    0.174080
  46 C :   -0.021101
  47 N :   -0.309484
  48 S :    0.516469
  49 N :   -0.281310
  50 C :    0.030704
  51 C :    0.025567
  52 C :   -0.008120
  53 C :   -0.064578
  54 C :    0.042185
  55 C :   -0.196231
  56 S :    0.137679
  57 C :   -0.008162
  58 S :   -0.174901
  59 N :   -0.214993
  60 C :    0.117148
  61 C :    0.002488
  62 C :    0.259227
  63 O :   -0.203952
  64 H :    0.035682
  65 H :    0.032230
  66 H :    0.021046
  67 H :    0.020750
  68 H :    0.026947
  69 H :    0.013418
  70 H :   -0.005269
  71 H :   -0.008027
  72 H :   -0.009718
  73 H :    0.009229
  74 H :    0.000323
  75 H :    0.019138
  76 H :    0.009236
  77 H :    0.022225
  78 H :    0.004713
  79 H :    0.000328
  80 H :    0.018667
  81 H :    0.014142
  82 H :    0.003594
  83 H :   -0.037071
  84 H :   -0.039671
  85 H :   -0.002940
  86 H :    0.008439
  87 H :    0.021585
  88 H :    0.009360
  89 H :    0.019569
  90 H :   -0.003516
  91 H :    0.005466
  92 H :    0.003180
  93 H :    0.014292
  94 H :    0.018525
  95 H :   -0.025259
  96 H :    0.004200
  97 H :   -0.022652
  98 H :    0.011360
  99 H :    0.036180
 100 H :    0.036799
 101 H :    0.028274
 102 H :    0.022522
 103 H :    0.020377
Sum of atomic charges:   -0.0000000

LOEWDIN ATOMIC CHARGES
----------------------
   0 S :    0.418190
   1 C :   -0.256835
   2 S :   -0.049573
   3 N :   -0.016505
   4 C :    0.040338
   5 C :   -0.058923
   6 C :    0.067422
   7 O :   -0.181504
   8 C :   -0.209484
   9 C :    0.002227
  10 C :   -0.051598
  11 C :   -0.032155
  12 N :   -0.291324
  13 S :    0.649823
  14 N :   -0.276896
  15 C :   -0.038783
  16 C :   -0.025022
  17 C :   -0.033529
  18 C :    0.007950
  19 C :   -0.165982
  20 C :   -0.035030
  21 C :   -0.040384
  22 C :   -0.170680
  23 S :    0.428733
  24 C :   -0.030512
  25 C :    0.008259
  26 C :   -0.032324
  27 C :   -0.014479
  28 C :   -0.055827
  29 C :   -0.009005
  30 C :   -0.059415
  31 C :   -0.027497
  32 C :   -0.028847
  33 C :    0.007691
  34 C :   -0.029179
  35 C :   -0.033292
  36 C :   -0.015438
  37 C :   -0.055812
  38 C :   -0.008904
  39 C :   -0.059507
  40 C :   -0.040503
  41 C :   -0.179366
  42 S :    0.475155
  43 C :   -0.170165
  44 C :   -0.041647
  45 C :   -0.019544
  46 C :   -0.054642
  47 N :   -0.296058
  48 S :    0.642840
  49 N :   -0.289804
  50 C :   -0.035340
  51 C :   -0.062673
  52 C :    0.023008
  53 C :   -0.023598
  54 C :    0.020104
  55 C :   -0.210428
  56 S :    0.386083
  57 C :   -0.251134
  58 S :   -0.043471
  59 N :   -0.015249
  60 C :    0.039283
  61 C :   -0.058611
  62 C :    0.073890
  63 O :   -0.174560
  64 H :    0.031279
  65 H :    0.023988
  66 H :    0.026338
  67 H :    0.030403
  68 H :    0.023824
  69 H :    0.046312
  70 H :    0.025475
  71 H :    0.037023
  72 H :    0.029096
  73 H :    0.020072
  74 H :    0.021930
  75 H :    0.025275
  76 H :    0.024150
  77 H :    0.025418
  78 H :    0.026718
  79 H :    0.021611
  80 H :    0.023830
  81 H :    0.028384
  82 H :    0.020321
  83 H :    0.026346
  84 H :    0.025333
  85 H :    0.020512
  86 H :    0.019890
  87 H :    0.025294
  88 H :    0.024058
  89 H :    0.025563
  90 H :    0.020020
  91 H :    0.027101
  92 H :    0.020019
  93 H :    0.028377
  94 H :    0.023860
  95 H :    0.027533
  96 H :    0.033541
  97 H :    0.031764
  98 H :    0.041464
  99 H :    0.024758
 100 H :    0.031254
 101 H :    0.024433
 102 H :    0.031285
 103 H :    0.026186

  Mayer bond orders larger than 0.100000
B(  0-S ,  1-C ) :   1.0202 B(  0-S ,  8-C ) :   1.0236 B(  1-C ,  2-S ) :   1.6589
B(  1-C ,  3-N ) :   1.1439 B(  3-N ,  4-C ) :   0.9189 B(  3-N ,  6-C ) :   1.0780
B(  4-C ,  5-C ) :   1.1199 B(  4-C , 64-H ) :   0.9366 B(  4-C , 65-H ) :   0.9359
B(  5-C , 66-H ) :   0.9682 B(  5-C , 67-H ) :   0.9696 B(  5-C , 68-H ) :   0.9653
B(  6-C ,  7-O ) :   2.1229 B(  6-C ,  8-C ) :   0.9525 B(  8-C ,  9-C ) :   1.7281
B(  9-C , 10-C ) :   1.1028 B(  9-C , 69-H ) :   0.9473 B( 10-C , 11-C ) :   1.1528
B( 10-C , 16-C ) :   0.1109 B( 10-C , 18-C ) :   1.4081 B( 11-C , 12-N ) :   1.4969
B( 11-C , 15-C ) :   1.1674 B( 12-N , 13-S ) :   1.2488 B( 12-N , 14-N ) :   0.1432
B( 13-S , 14-N ) :   1.2634 B( 14-N , 15-C ) :   1.5360 B( 15-C , 16-C ) :   1.1836
B( 16-C , 17-C ) :   1.4196 B( 16-C , 19-C ) :   1.1382 B( 17-C , 18-C ) :   1.2599
B( 17-C , 70-H ) :   0.9847 B( 18-C , 71-H ) :   0.9966 B( 19-C , 20-C ) :   1.4731
B( 19-C , 23-S ) :   1.0902 B( 20-C , 21-C ) :   1.2497 B( 20-C , 72-H ) :   0.9957
B( 21-C , 22-C ) :   1.5284 B( 21-C , 26-C ) :   0.9385 B( 22-C , 23-S ) :   1.0943
B( 22-C , 24-C ) :   1.0499 B( 24-C , 25-C ) :   1.3776 B( 24-C , 34-C ) :   1.2859
B( 25-C , 26-C ) :   0.9025 B( 25-C , 31-C ) :   1.4044 B( 26-C , 27-C ) :   1.0284
B( 26-C , 29-C ) :   1.0140 B( 27-C , 28-C ) :   1.1028 B( 27-C , 73-H ) :   0.9399
B( 27-C , 74-H ) :   0.9413 B( 28-C , 75-H ) :   0.9659 B( 28-C , 76-H ) :   0.9647
B( 28-C , 77-H ) :   0.9635 B( 29-C , 30-C ) :   1.1156 B( 29-C , 78-H ) :   0.9396
B( 29-C , 79-H ) :   0.9389 B( 30-C , 80-H ) :   0.9606 B( 30-C , 81-H ) :   0.9596
B( 30-C , 82-H ) :   0.9625 B( 31-C , 32-C ) :   1.2878 B( 31-C , 83-H ) :   1.0013
B( 32-C , 33-C ) :   1.3788 B( 32-C , 41-C ) :   1.0522 B( 33-C , 34-C ) :   1.4059
B( 33-C , 35-C ) :   0.9011 B( 34-C , 84-H ) :   1.0003 B( 35-C , 36-C ) :   1.0310
B( 35-C , 38-C ) :   1.0128 B( 35-C , 40-C ) :   0.9378 B( 36-C , 37-C ) :   1.1035
B( 36-C , 85-H ) :   0.9408 B( 36-C , 86-H ) :   0.9391 B( 37-C , 87-H ) :   0.9636
B( 37-C , 88-H ) :   0.9647 B( 37-C , 89-H ) :   0.9654 B( 38-C , 39-C ) :   1.1157
B( 38-C , 90-H ) :   0.9385 B( 38-C , 91-H ) :   0.9393 B( 39-C , 92-H ) :   0.9624
B( 39-C , 93-H ) :   0.9595 B( 39-C , 94-H ) :   0.9606 B( 40-C , 41-C ) :   1.5063
B( 40-C , 44-C ) :   1.3150 B( 41-C , 42-S ) :   1.0755 B( 42-S , 43-C ) :   1.1202
B( 43-C , 44-C ) :   1.4279 B( 43-C , 45-C ) :   1.1223 B( 44-C , 95-H ) :   0.9995
B( 45-C , 46-C ) :   1.1598 B( 45-C , 51-C ) :   0.1016 B( 45-C , 53-C ) :   1.4107
B( 46-C , 47-N ) :   1.5109 B( 46-C , 50-C ) :   1.1616 B( 47-N , 48-S ) :   1.2567
B( 47-N , 49-N ) :   0.1470 B( 48-S , 49-N ) :   1.2567 B( 49-N , 50-C ) :   1.5561
B( 50-C , 51-C ) :   1.1567 B( 51-C , 52-C ) :   1.4062 B( 51-C , 54-C ) :   1.2041
B( 52-C , 53-C ) :   1.2536 B( 52-C , 96-H ) :   0.9681 B( 53-C , 97-H ) :   0.9983
B( 54-C , 55-C ) :   1.6572 B( 54-C , 98-H ) :   0.9385 B( 55-C , 56-S ) :   1.0411
B( 55-C , 62-C ) :   0.9514 B( 56-S , 57-C ) :   1.0626 B( 57-C , 58-S ) :   1.6572
B( 57-C , 59-N ) :   1.1457 B( 59-N , 60-C ) :   0.9187 B( 59-N , 62-C ) :   1.0817
B( 60-C , 61-C ) :   1.1217 B( 60-C , 99-H ) :   0.9352 B( 60-C ,100-H ) :   0.9337
B( 61-C ,101-H ) :   0.9652 B( 61-C ,102-H ) :   0.9698 B( 61-C ,103-H ) :   0.9669
B( 62-C , 63-O ) :   2.0298 B( 63-O , 96-H ) :   0.1042

-----------------------------------------------------------------------------
         ABSORPTION SPECTRUM VIA TRANSITION ELECTRIC DIPOLE MOMENTS
-----------------------------------------------------------------------------
State   Energy  Wavelength   fosc         T2         TX        TY        TZ
        (cm-1)    (nm)                  (au**2)     (au)      (au)      (au)
-----------------------------------------------------------------------------
   0   15672.9    638.0   2.518248269  52.89636  -6.59507  -1.70057   2.55138
   1   18246.7    548.0   0.008519992   0.15372   0.17167   0.20186  -0.28897
   2   23371.1    427.9   0.002900551   0.04086   0.11687   0.08620  -0.14060
   3   24028.1    416.2   0.000183908   0.00252  -0.03266   0.02192   0.03118
   4   24746.5    404.1   0.018883843   0.25122  -0.37597   0.15311   0.29397
   5   25554.1    391.3   0.000214764   0.00277   0.04791   0.01691   0.01361
   6   27332.0    365.9   0.724741373   8.72944  -2.69368  -0.02004   1.21373
   7   27701.4    361.0   0.320481693   3.80871  -1.83280  -0.35755   0.56720
   8   28624.4    349.4   0.031397548   0.36111  -0.52766  -0.22045   0.18463
   9   29056.3    344.2   0.004730028   0.05359  -0.15467  -0.16116  -0.06080
  10   30963.2    323.0   0.103291321   1.09823  -0.89929  -0.43936   0.31059
  11   32052.8    312.0   0.012486597   0.12825   0.13630   0.33114  -0.00393
  12   32747.5    305.4   0.014682923   0.14761  -0.12217   0.36353   0.02306
  13   32896.8    304.0   0.037878023   0.37906  -0.11410   0.58784   0.14311
  14   33192.0    301.3   0.007698149   0.07635   0.08262   0.26275   0.02216
  15   33666.0    297.0   0.003059835   0.02992   0.05652   0.16329  -0.00792
  16   34201.3    292.4   0.027933708   0.26888   0.45633   0.19111  -0.15531
  17   34774.0    287.6   0.002553631   0.02418  -0.10735   0.02132   0.11044
  18   34902.3    286.5   0.002587812   0.02441   0.12563  -0.05267  -0.07650
  19   35411.5    282.4   0.085269450   0.79273   0.19611   0.86801   0.02872
  20   35701.9    280.1   0.045795465   0.42229   0.26666  -0.56013  -0.19348
  21   35794.9    279.4   0.027555062   0.25343   0.41780  -0.12946  -0.24923
  22   36001.6    277.8   0.000461822   0.00422  -0.04321  -0.02908  -0.03886
  23   36353.5    275.1   0.018205900   0.16487  -0.03718  -0.39523  -0.08532
  24   36439.7    274.4   0.000735122   0.00664   0.03802   0.04701   0.05464
  25   37041.2    270.0   0.075847165   0.67411   0.50123  -0.58012  -0.29383
  26   37751.2    264.9   0.000616669   0.00538   0.02412   0.06796  -0.01332
  27   37924.7    263.7   0.170019448   1.47588  -0.46145   1.06374   0.36251
  28   38102.3    262.5   0.013021904   0.11251   0.18179  -0.26808  -0.08717
  29   38158.6    262.1   0.005885691   0.05078  -0.07248   0.19312   0.09072
  30   38410.4    260.3   0.002689584   0.02305   0.12855  -0.02032  -0.07819
  31   38533.9    259.5   0.000018354   0.00016   0.00970   0.00754  -0.00245
  32   38664.4    258.6   0.003679285   0.03133  -0.09172   0.13596   0.06656
  33   39605.4    252.5   0.001599456   0.01330  -0.08266   0.07002   0.03949

FINAL SINGLE POINT ENERGY     -5513.825327792990

DIPOLE MOMENT
-------------
                                X             Y             Z
Electronic contribution:      0.34564     -35.63288     -10.65915
Nuclear contribution   :     -0.73347      36.06713      10.78484
                        -----------------------------------------
Total Dipole Moment    :     -0.38783       0.43425       0.12569
                        -----------------------------------------
Magnitude (a.u.)       :      0.59564
Magnitude (Debye)      :      1.51400

Rotational constants in cm-1:     0.004213     0.000194     0.000188
Rotational constants in MHz :   126.288321     5.811883     5.622025

                             ****ORCA TERMINATED NORMALLY****
TOTAL RUN TIME: 0 days 0 hours 56 minutes 54 seconds 487 msec
