                         Program Version 4.2.0 -  RELEASE  -
|  1> # ORCA input file
|  2> # PC70BM.out: Geometry 69
|  3> ! CAM-B3LYP def2-SVP def2/J RIJCOSX Grid4 TightSCF
|  4> %maxcore 5000
|  5> %tddft
|  6>     Mode sTDDFT
|  7>     Ethresh 5.0
|  8>     maxcore 5000
|  9> end
| 10> * xyz 0 1
| 11>    C       -0.00609         0.05574        -0.02337
| 12>    C        1.34055        -0.29587         0.12915
| 13>    C        2.36969         0.72461         0.00334
| 14>    C        3.40104         0.44512         0.99146
| 15>    C       -0.37360         1.43249        -0.29626
| 16>    C        2.00937         2.04837        -0.27246
| 17>    C       -1.00687        -0.47936         0.88027
| 18>    C        1.73260        -1.20512         1.19320
| 19>    C        3.00434        -0.74569         1.72888
| 20>    C        0.76049        -1.72305         2.05923
| 21>    C        4.02784         1.50115         1.65983
| 22>    C        0.61055         2.40767        -0.41891
| 23>    C        2.65614         3.14166         0.43164
| 24>    C        3.25039        -0.82629         3.10370
| 25>    C        3.64446         2.87349         1.37549
| 26>    C        4.27296         1.41491         3.08874
| 27>    C       -1.60137         1.73258         0.41931
| 28>    C       -0.63240        -1.34943         1.89891
| 29>    C       -1.99463         0.55442         1.14187
| 30>    C        0.40585         3.71886         0.17242
| 31>    C        1.66573         4.17210         0.69382
| 32>    C        3.67308         3.62506         2.61592
| 33>    C        4.05753         2.72546         3.67057
| 34>    C        3.89000         0.27812         3.79476
| 35>    C       -1.86397         3.03482         0.92909
| 36>    C       -0.81870         4.06318         0.80899
| 37>    C        1.72995         4.98269         1.86265
| 38>    C        2.76614         4.69352         2.85574
| 39>    C        3.54609         2.87497         4.98778
| 40>    C        3.28593         0.41193         5.10794
| 41>    C       -2.76817         3.11000         2.02288
| 42>    C       -2.66121         0.64753         2.39390
| 43>    C       -0.75292         5.08636         1.79780
| 44>    C        0.50417         5.54588         2.31860
| 45>    C        2.49148         4.99698         4.21964
| 46>    C        2.87659         4.09893         5.27221
| 47>    C        3.15014         1.68172         5.73495
| 48>    C       -2.73807         4.22226         2.95822
| 49>    C       -3.16436         1.93213         2.74510
| 50>    C       -1.74038         5.18959         2.85340
| 51>    C        0.30721         5.94566         3.70202
| 52>    C        1.30121         5.69928         4.63216
| 53>    C        1.93266         4.22808         6.35317
| 54>    C        2.11374         1.80899         6.70122
| 55>    C        1.01783        -1.79333         3.48594
| 56>    C        2.23428        -1.35386         3.99739
| 57>    C       -1.23191        -1.21571         3.21695
| 58>    C        2.26525        -0.59090         5.23314
| 59>    C       -2.26449        -0.27194         3.47247
| 60>    C       -3.12460         3.73666         4.25824
| 61>    C       -3.37536         2.31200         4.12946
| 62>    C       -1.10713         5.73443         4.04022
| 63>    C        1.02327         5.36543         6.05355
| 64>    C        1.53404         3.09667         7.04061
| 65>    C        1.09381         0.80524         6.82381
| 66>    C       -0.21361        -1.48681         4.19459
| 67>    C        1.08460        -0.34852         5.98842
| 68>    C       -2.40279         0.16166         4.82191
| 69>    C       -2.48371         4.23909         5.40027
| 70>    C       -3.00193         1.44272         5.14895
| 71>    C       -1.48763         5.28088         5.29858
| 72>    C       -0.53158         5.13243         6.43482
| 73>    C        0.12325         2.87940         7.38645
| 74>    C       -0.13277         1.46003         7.23352
| 75>    C       -0.20185        -0.81996         5.45237
| 76>    C       -1.38265        -0.10688         5.79829
| 77>    C       -2.09342         3.33243         6.46158
| 78>    C       -2.36093         1.95967         6.34484
| 79>    C       -0.85137         3.80118         7.02621
| 80>    C       -1.35329         1.00584         6.73500
| 81>    C        0.29591         6.21776         7.06738
| 82>    C        0.70247         6.03753         8.50569
| 83>    C       -0.24185         5.73799         9.49435
| 84>    C        0.14433         5.64136        10.83430
| 85>    C        1.47941         5.83681        11.19585
| 86>    C        2.42860         6.13092        10.21299
| 87>    C        2.04022         6.23178         8.87632
| 88>    C       -0.04268         7.66368         6.69622
| 89>    C       -1.44160         8.06315         7.16601
| 90>    C       -1.84097         9.47671         6.75617
| 91>    C       -3.31499         9.74764         6.97801
| 92>    O       -4.12468         8.94289         7.37116
| 93>    O       -3.62873        11.01630         6.65612
| 94>    C       -5.00367        11.37773         6.78413
| 95>    H       -1.28326         5.57112         9.21179
| 96>    H       -0.60103         5.40574        11.59695
| 97>    H        1.78432         5.75436        12.24193
| 98>    H        3.47438         6.28316        10.49028
| 99>    H        2.78212         6.45721         8.10685
|100>    H        0.03625         7.80149         5.60745
|101>    H        0.72148         8.31598         7.14853
|102>    H       -2.17821         7.36089         6.74870
|103>    H       -1.51861         7.96128         8.26025
|104>    H       -1.26270        10.24603         7.29373
|105>    H       -1.63485         9.65564         5.68588
|106>    H       -5.32382        11.33362         7.83623
|107>    H       -5.08895        12.40282         6.40322
|108>    H       -5.64272        10.69967         6.20026
|109> *
|110>
|111>                          ****END OF INPUT****

CARTESIAN COORDINATES (ANGSTROEM)
---------------------------------
  C     -0.006090    0.055740   -0.023370
  C      1.340550   -0.295870    0.129150
  C      2.369690    0.724610    0.003340
  C      3.401040    0.445120    0.991460
  C     -0.373600    1.432490   -0.296260
  C      2.009370    2.048370   -0.272460
  C     -1.006870   -0.479360    0.880270
  C      1.732600   -1.205120    1.193200
  C      3.004340   -0.745690    1.728880
  C      0.760490   -1.723050    2.059230
  C      4.027840    1.501150    1.659830
  C      0.610550    2.407670   -0.418910
  C      2.656140    3.141660    0.431640
  C      3.250390   -0.826290    3.103700
  C      3.644460    2.873490    1.375490
  C      4.272960    1.414910    3.088740
  C     -1.601370    1.732580    0.419310
  C     -0.632400   -1.349430    1.898910
  C     -1.994630    0.554420    1.141870
  C      0.405850    3.718860    0.172420
  C      1.665730    4.172100    0.693820
  C      3.673080    3.625060    2.615920
  C      4.057530    2.725460    3.670570
  C      3.890000    0.278120    3.794760
  C     -1.863970    3.034820    0.929090
  C     -0.818700    4.063180    0.808990
  C      1.729950    4.982690    1.862650
  C      2.766140    4.693520    2.855740
  C      3.546090    2.874970    4.987780
  C      3.285930    0.411930    5.107940
  C     -2.768170    3.110000    2.022880
  C     -2.661210    0.647530    2.393900
  C     -0.752920    5.086360    1.797800
  C      0.504170    5.545880    2.318600
  C      2.491480    4.996980    4.219640
  C      2.876590    4.098930    5.272210
  C      3.150140    1.681720    5.734950
  C     -2.738070    4.222260    2.958220
  C     -3.164360    1.932130    2.745100
  C     -1.740380    5.189590    2.853400
  C      0.307210    5.945660    3.702020
  C      1.301210    5.699280    4.632160
  C      1.932660    4.228080    6.353170
  C      2.113740    1.808990    6.701220
  C      1.017830   -1.793330    3.485940
  C      2.234280   -1.353860    3.997390
  C     -1.231910   -1.215710    3.216950
  C      2.265250   -0.590900    5.233140
  C     -2.264490   -0.271940    3.472470
  C     -3.124600    3.736660    4.258240
  C     -3.375360    2.312000    4.129460
  C     -1.107130    5.734430    4.040220
  C      1.023270    5.365430    6.053550
  C      1.534040    3.096670    7.040610
  C      1.093810    0.805240    6.823810
  C     -0.213610   -1.486810    4.194590
  C      1.084600   -0.348520    5.988420
  C     -2.402790    0.161660    4.821910
  C     -2.483710    4.239090    5.400270
  C     -3.001930    1.442720    5.148950
  C     -1.487630    5.280880    5.298580
  C     -0.531580    5.132430    6.434820
  C      0.123250    2.879400    7.386450
  C     -0.132770    1.460030    7.233520
  C     -0.201850   -0.819960    5.452370
  C     -1.382650   -0.106880    5.798290
  C     -2.093420    3.332430    6.461580
  C     -2.360930    1.959670    6.344840
  C     -0.851370    3.801180    7.026210
  C     -1.353290    1.005840    6.735000
  C      0.295910    6.217760    7.067380
  C      0.702470    6.037530    8.505690
  C     -0.241850    5.737990    9.494350
  C      0.144330    5.641360   10.834300
  C      1.479410    5.836810   11.195850
  C      2.428600    6.130920   10.212990
  C      2.040220    6.231780    8.876320
  C     -0.042680    7.663680    6.696220
  C     -1.441600    8.063150    7.166010
  C     -1.840970    9.476710    6.756170
  C     -3.314990    9.747640    6.978010
  O     -4.124680    8.942890    7.371160
  O     -3.628730   11.016300    6.656120
  C     -5.003670   11.377730    6.784130
  H     -1.283260    5.571120    9.211790
  H     -0.601030    5.405740   11.596950
  H      1.784320    5.754360   12.241930
  H      3.474380    6.283160   10.490280
  H      2.782120    6.457210    8.106850
  H      0.036250    7.801490    5.607450
  H      0.721480    8.315980    7.148530
  H     -2.178210    7.360890    6.748700
  H     -1.518610    7.961280    8.260250
  H     -1.262700   10.246030    7.293730
  H     -1.634850    9.655640    5.685880
  H     -5.323820   11.333620    7.836230
  H     -5.088950   12.402820    6.403220
  H     -5.642720   10.699670    6.200260

 Total Charge           Charge          ....    0
 Multiplicity           Mult            ....    1
 Number of Electrons    NEL             ....  522
 Basis Dimension        Dim             .... 1246

ORBITAL ENERGIES
----------------

  NO   OCC          E(Eh)            E(eV)
   0   2.0000     -19.253864      -523.9243
   1   2.0000     -19.199666      -522.4495
   2   2.0000     -10.392870      -282.8044
   3   2.0000     -10.322567      -280.8913
   4   2.0000     -10.321373      -280.8588
   5   2.0000     -10.321076      -280.8507
   6   2.0000     -10.317221      -280.7459
   7   2.0000     -10.311585      -280.5925
   8   2.0000     -10.311329      -280.5855
   9   2.0000     -10.311236      -280.5830
  10   2.0000     -10.311156      -280.5808
  11   2.0000     -10.310799      -280.5711
  12   2.0000     -10.310755      -280.5699
  13   2.0000     -10.310045      -280.5506
  14   2.0000     -10.309971      -280.5486
  15   2.0000     -10.309957      -280.5482
  16   2.0000     -10.309677      -280.5406
  17   2.0000     -10.309672      -280.5404
  18   2.0000     -10.309542      -280.5369
  19   2.0000     -10.308977      -280.5215
  20   2.0000     -10.308036      -280.4959
  21   2.0000     -10.307909      -280.4925
  22   2.0000     -10.307811      -280.4898
  23   2.0000     -10.307684      -280.4863
  24   2.0000     -10.307101      -280.4705
  25   2.0000     -10.306660      -280.4585
  26   2.0000     -10.306446      -280.4527
  27   2.0000     -10.306257      -280.4475
  28   2.0000     -10.305562      -280.4286
  29   2.0000     -10.305064      -280.4151
  30   2.0000     -10.304535      -280.4006
  31   2.0000     -10.304378      -280.3964
  32   2.0000     -10.304160      -280.3905
  33   2.0000     -10.303890      -280.3831
  34   2.0000     -10.303561      -280.3741
  35   2.0000     -10.303418      -280.3703
  36   2.0000     -10.303020      -280.3594
  37   2.0000     -10.303008      -280.3591
  38   2.0000     -10.302907      -280.3563
  39   2.0000     -10.302740      -280.3518
  40   2.0000     -10.302645      -280.3492
  41   2.0000     -10.302522      -280.3459
  42   2.0000     -10.302400      -280.3425
  43   2.0000     -10.302299      -280.3398
  44   2.0000     -10.302264      -280.3389
  45   2.0000     -10.302173      -280.3364
  46   2.0000     -10.301832      -280.3271
  47   2.0000     -10.301800      -280.3262
  48   2.0000     -10.301778      -280.3256
  49   2.0000     -10.301740      -280.3246
  50   2.0000     -10.301630      -280.3216
  51   2.0000     -10.301614      -280.3212
  52   2.0000     -10.301548      -280.3194
  53   2.0000     -10.301439      -280.3164
  54   2.0000     -10.301340      -280.3137
  55   2.0000     -10.301179      -280.3093
  56   2.0000     -10.301118      -280.3077
  57   2.0000     -10.301104      -280.3073
  58   2.0000     -10.300933      -280.3026
  59   2.0000     -10.300880      -280.3012
  60   2.0000     -10.300673      -280.2956
  61   2.0000     -10.300437      -280.2891
  62   2.0000     -10.300344      -280.2866
  63   2.0000     -10.300242      -280.2838
  64   2.0000     -10.300236      -280.2837
  65   2.0000     -10.300028      -280.2780
  66   2.0000     -10.299923      -280.2752
  67   2.0000     -10.299778      -280.2712
  68   2.0000     -10.299712      -280.2694
  69   2.0000     -10.298582      -280.2387
  70   2.0000     -10.298452      -280.2351
  71   2.0000     -10.296930      -280.1937
  72   2.0000     -10.296631      -280.1856
  73   2.0000     -10.295348      -280.1507
  74   2.0000     -10.295093      -280.1437
  75   2.0000     -10.285361      -279.8789
  76   2.0000     -10.280149      -279.7371
  77   2.0000     -10.279810      -279.7279
  78   2.0000     -10.276280      -279.6318
  79   2.0000     -10.275868      -279.6206
  80   2.0000     -10.275369      -279.6070
  81   2.0000     -10.274936      -279.5952
  82   2.0000     -10.274475      -279.5827
  83   2.0000     -10.267882      -279.4033
  84   2.0000      -1.181700       -32.1557
  85   2.0000      -1.089077       -29.6353
  86   2.0000      -1.050674       -28.5903
  87   2.0000      -1.040078       -28.3020
  88   2.0000      -1.029669       -28.0187
  89   2.0000      -1.028080       -27.9755
  90   2.0000      -1.011632       -27.5279
  91   2.0000      -1.003590       -27.3091
  92   2.0000      -1.001771       -27.2596
  93   2.0000      -0.993015       -27.0213
  94   2.0000      -0.991778       -26.9877
  95   2.0000      -0.976256       -26.5653
  96   2.0000      -0.965716       -26.2785
  97   2.0000      -0.959355       -26.1054
  98   2.0000      -0.956370       -26.0241
  99   2.0000      -0.943069       -25.6622
 100   2.0000      -0.941395       -25.6167
 101   2.0000      -0.934276       -25.4229
 102   2.0000      -0.932788       -25.3825
 103   2.0000      -0.919148       -25.0113
 104   2.0000      -0.910059       -24.7640
 105   2.0000      -0.890202       -24.2236
 106   2.0000      -0.886257       -24.1163
 107   2.0000      -0.885925       -24.1072
 108   2.0000      -0.885530       -24.0965
 109   2.0000      -0.883869       -24.0513
 110   2.0000      -0.883297       -24.0357
 111   2.0000      -0.866918       -23.5900
 112   2.0000      -0.866003       -23.5651
 113   2.0000      -0.860739       -23.4219
 114   2.0000      -0.834536       -22.7089
 115   2.0000      -0.831896       -22.6370
 116   2.0000      -0.830104       -22.5883
 117   2.0000      -0.826957       -22.5027
 118   2.0000      -0.824111       -22.4252
 119   2.0000      -0.820205       -22.3189
 120   2.0000      -0.818591       -22.2750
 121   2.0000      -0.815608       -22.1938
 122   2.0000      -0.808637       -22.0041
 123   2.0000      -0.808234       -21.9932
 124   2.0000      -0.807044       -21.9608
 125   2.0000      -0.802367       -21.8335
 126   2.0000      -0.784978       -21.3603
 127   2.0000      -0.768555       -20.9134
 128   2.0000      -0.759998       -20.6806
 129   2.0000      -0.748968       -20.3805
 130   2.0000      -0.746648       -20.3173
 131   2.0000      -0.740061       -20.1381
 132   2.0000      -0.738779       -20.1032
 133   2.0000      -0.733603       -19.9623
 134   2.0000      -0.732000       -19.9187
 135   2.0000      -0.724954       -19.7270
 136   2.0000      -0.714060       -19.4306
 137   2.0000      -0.708076       -19.2677
 138   2.0000      -0.704622       -19.1737
 139   2.0000      -0.701697       -19.0941
 140   2.0000      -0.695518       -18.9260
 141   2.0000      -0.689088       -18.7510
 142   2.0000      -0.687199       -18.6996
 143   2.0000      -0.682216       -18.5640
 144   2.0000      -0.674862       -18.3639
 145   2.0000      -0.657735       -17.8979
 146   2.0000      -0.657217       -17.8838
 147   2.0000      -0.649115       -17.6633
 148   2.0000      -0.646843       -17.6015
 149   2.0000      -0.643898       -17.5214
 150   2.0000      -0.638645       -17.3784
 151   2.0000      -0.634371       -17.2621
 152   2.0000      -0.633286       -17.2326
 153   2.0000      -0.631648       -17.1880
 154   2.0000      -0.629435       -17.1278
 155   2.0000      -0.612019       -16.6539
 156   2.0000      -0.607132       -16.5209
 157   2.0000      -0.602300       -16.3894
 158   2.0000      -0.598684       -16.2910
 159   2.0000      -0.597799       -16.2669
 160   2.0000      -0.597250       -16.2520
 161   2.0000      -0.588102       -16.0031
 162   2.0000      -0.581852       -15.8330
 163   2.0000      -0.576842       -15.6967
 164   2.0000      -0.574834       -15.6420
 165   2.0000      -0.569128       -15.4868
 166   2.0000      -0.561708       -15.2848
 167   2.0000      -0.561482       -15.2787
 168   2.0000      -0.558985       -15.2107
 169   2.0000      -0.555237       -15.1088
 170   2.0000      -0.555139       -15.1061
 171   2.0000      -0.553407       -15.0590
 172   2.0000      -0.550738       -14.9863
 173   2.0000      -0.548262       -14.9190
 174   2.0000      -0.545666       -14.8483
 175   2.0000      -0.544938       -14.8285
 176   2.0000      -0.543367       -14.7858
 177   2.0000      -0.539436       -14.6788
 178   2.0000      -0.536676       -14.6037
 179   2.0000      -0.536355       -14.5950
 180   2.0000      -0.534341       -14.5402
 181   2.0000      -0.531295       -14.4573
 182   2.0000      -0.530737       -14.4421
 183   2.0000      -0.527814       -14.3626
 184   2.0000      -0.522520       -14.2185
 185   2.0000      -0.520311       -14.1584
 186   2.0000      -0.518551       -14.1105
 187   2.0000      -0.509737       -13.8706
 188   2.0000      -0.507251       -13.8030
 189   2.0000      -0.506247       -13.7757
 190   2.0000      -0.503675       -13.7057
 191   2.0000      -0.501060       -13.6345
 192   2.0000      -0.500250       -13.6125
 193   2.0000      -0.500013       -13.6061
 194   2.0000      -0.498486       -13.5645
 195   2.0000      -0.497716       -13.5435
 196   2.0000      -0.496393       -13.5075
 197   2.0000      -0.493495       -13.4287
 198   2.0000      -0.492246       -13.3947
 199   2.0000      -0.491700       -13.3798
 200   2.0000      -0.491402       -13.3717
 201   2.0000      -0.486431       -13.2365
 202   2.0000      -0.485706       -13.2167
 203   2.0000      -0.484060       -13.1720
 204   2.0000      -0.481038       -13.0897
 205   2.0000      -0.479013       -13.0346
 206   2.0000      -0.476919       -12.9776
 207   2.0000      -0.468867       -12.7585
 208   2.0000      -0.466032       -12.6814
 209   2.0000      -0.465562       -12.6686
 210   2.0000      -0.462813       -12.5938
 211   2.0000      -0.461750       -12.5649
 212   2.0000      -0.457707       -12.4549
 213   2.0000      -0.451912       -12.2972
 214   2.0000      -0.449732       -12.2378
 215   2.0000      -0.444367       -12.0919
 216   2.0000      -0.439709       -11.9651
 217   2.0000      -0.439483       -11.9589
 218   2.0000      -0.437415       -11.9027
 219   2.0000      -0.435755       -11.8575
 220   2.0000      -0.432488       -11.7686
 221   2.0000      -0.429745       -11.6940
 222   2.0000      -0.427086       -11.6216
 223   2.0000      -0.426441       -11.6041
 224   2.0000      -0.421730       -11.4759
 225   2.0000      -0.419588       -11.4176
 226   2.0000      -0.418622       -11.3913
 227   2.0000      -0.417451       -11.3594
 228   2.0000      -0.416454       -11.3323
 229   2.0000      -0.416362       -11.3298
 230   2.0000      -0.415592       -11.3088
 231   2.0000      -0.414271       -11.2729
 232   2.0000      -0.414115       -11.2686
 233   2.0000      -0.413079       -11.2404
 234   2.0000      -0.408208       -11.1079
 235   2.0000      -0.405772       -11.0416
 236   2.0000      -0.399573       -10.8729
 237   2.0000      -0.398023       -10.8307
 238   2.0000      -0.372544       -10.1374
 239   2.0000      -0.370092       -10.0707
 240   2.0000      -0.366756        -9.9799
 241   2.0000      -0.364617        -9.9217
 242   2.0000      -0.360099        -9.7988
 243   2.0000      -0.355336        -9.6692
 244   2.0000      -0.352114        -9.5815
 245   2.0000      -0.348305        -9.4779
 246   2.0000      -0.347250        -9.4492
 247   2.0000      -0.332480        -9.0472
 248   2.0000      -0.332391        -9.0448
 249   2.0000      -0.321727        -8.7546
 250   2.0000      -0.318433        -8.6650
 251   2.0000      -0.306373        -8.3368
 252   2.0000      -0.298043        -8.1102
 253   2.0000      -0.288083        -7.8391
 254   2.0000      -0.287497        -7.8232
 255   2.0000      -0.286739        -7.8026
 256   2.0000      -0.284083        -7.7303
 257   2.0000      -0.275947        -7.5089
 258   2.0000      -0.263547        -7.1715
 259   2.0000      -0.263108        -7.1595
 260   2.0000      -0.253106        -6.8874
 261   0.0000      -0.093663        -2.5487
 262   0.0000      -0.091615        -2.4930
 263   0.0000      -0.086969        -2.3665
 264   0.0000      -0.068675        -1.8687
 265   0.0000      -0.051796        -1.4094

MULLIKEN ATOMIC CHARGES
-----------------------
   0 C :    0.014948
   1 C :   -0.003608
   2 C :   -0.005885
   3 C :    0.003450
   4 C :   -0.002491
   5 C :    0.015014
   6 C :   -0.004657
   7 C :    0.003461
   8 C :   -0.000148
   9 C :    0.012908
  10 C :    0.010333
  11 C :   -0.002473
  12 C :   -0.002762
  13 C :    0.009880
  14 C :   -0.008998
  15 C :    0.000284
  16 C :   -0.049860
  17 C :   -0.008052
  18 C :   -0.040443
  19 C :   -0.045903
  20 C :   -0.040193
  21 C :   -0.037124
  22 C :   -0.042991
  23 C :   -0.004005
  24 C :    0.081076
  25 C :    0.071617
  26 C :    0.065961
  27 C :    0.060413
  28 C :    0.066013
  29 C :   -0.040567
  30 C :   -0.051268
  31 C :    0.071954
  32 C :   -0.044390
  33 C :   -0.037676
  34 C :   -0.037130
  35 C :   -0.039195
  36 C :    0.067101
  37 C :   -0.015361
  38 C :   -0.036867
  39 C :    0.002552
  40 C :   -0.012246
  41 C :    0.052386
  42 C :    0.049777
  43 C :   -0.035524
  44 C :    0.000666
  45 C :   -0.007235
  46 C :   -0.040377
  47 C :   -0.044292
  48 C :    0.071435
  49 C :    0.005194
  50 C :   -0.002537
  51 C :    0.000977
  52 C :   -0.148492
  53 C :    0.007385
  54 C :   -0.045691
  55 C :   -0.047713
  56 C :    0.074630
  57 C :   -0.035168
  58 C :    0.016780
  59 C :   -0.014704
  60 C :    0.045912
  61 C :   -0.160440
  62 C :    0.022466
  63 C :    0.006084
  64 C :    0.078059
  65 C :   -0.050493
  66 C :    0.010469
  67 C :    0.008968
  68 C :    0.036319
  69 C :   -0.016813
  70 C :   -0.020012
  71 C :   -0.003424
  72 C :    0.011116
  73 C :    0.009447
  74 C :    0.020513
  75 C :    0.011764
  76 C :    0.009486
  77 C :    0.203945
  78 C :   -0.046363
  79 C :    0.036612
  80 C :    0.145842
  81 O :   -0.224813
  82 O :   -0.307524
  83 C :    0.174156
  84 H :   -0.000239
  85 H :   -0.004382
  86 H :   -0.003736
  87 H :   -0.006201
  88 H :   -0.011557
  89 H :   -0.001337
  90 H :    0.001086
  91 H :    0.029127
  92 H :    0.019632
  93 H :    0.035650
  94 H :    0.034199
  95 H :    0.034306
  96 H :    0.035636
  97 H :    0.036371
Sum of atomic charges:    0.0000000

LOEWDIN ATOMIC CHARGES
----------------------
   0 C :   -0.008380
   1 C :    0.003688
   2 C :    0.006891
   3 C :    0.005565
   4 C :    0.000954
   5 C :   -0.008378
   6 C :    0.000779
   7 C :    0.003610
   8 C :    0.007312
   9 C :   -0.007907
  10 C :   -0.006793
  11 C :    0.000155
  12 C :    0.001718
  13 C :   -0.008477
  14 C :   -0.001134
  15 C :   -0.001598
  16 C :   -0.001746
  17 C :    0.000843
  18 C :   -0.005356
  19 C :   -0.005223
  20 C :   -0.001716
  21 C :   -0.001363
  22 C :   -0.000037
  23 C :    0.002404
  24 C :   -0.000474
  25 C :    0.000585
  26 C :   -0.002016
  27 C :   -0.004178
  28 C :   -0.004350
  29 C :   -0.001810
  30 C :   -0.000061
  31 C :    0.001915
  32 C :   -0.001069
  33 C :   -0.003412
  34 C :    0.000791
  35 C :    0.000875
  36 C :   -0.002141
  37 C :   -0.007193
  38 C :   -0.006748
  39 C :   -0.001260
  40 C :   -0.017440
  41 C :    0.011120
  42 C :    0.013481
  43 C :   -0.002037
  44 C :    0.000803
  45 C :    0.000511
  46 C :   -0.005592
  47 C :   -0.005177
  48 C :    0.002096
  49 C :   -0.015600
  50 C :    0.002853
  51 C :   -0.021314
  52 C :    0.000415
  53 C :   -0.005775
  54 C :    0.000026
  55 C :   -0.001561
  56 C :    0.000580
  57 C :   -0.007362
  58 C :    0.006451
  59 C :    0.003520
  60 C :    0.015729
  61 C :    0.002971
  62 C :   -0.010864
  63 C :   -0.000441
  64 C :   -0.000148
  65 C :    0.000419
  66 C :    0.004657
  67 C :   -0.016895
  68 C :    0.017452
  69 C :   -0.007530
  70 C :   -0.003434
  71 C :   -0.019564
  72 C :   -0.018823
  73 C :   -0.022831
  74 C :   -0.023768
  75 C :   -0.023659
  76 C :   -0.018775
  77 C :   -0.010047
  78 C :   -0.031919
  79 C :   -0.059195
  80 C :    0.092673
  81 O :   -0.179802
  82 O :   -0.106151
  83 C :    0.078552
  84 H :    0.032019
  85 H :    0.032396
  86 H :    0.031201
  87 H :    0.031432
  88 H :    0.029842
  89 H :    0.026546
  90 H :    0.031520
  91 H :    0.029330
  92 H :    0.029779
  93 H :    0.043192
  94 H :    0.044671
  95 H :    0.023652
  96 H :    0.026616
  97 H :    0.023930

  Mayer bond orders larger than 0.100000
B(  0-C ,  1-C ) :   1.4530 B(  0-C ,  4-C ) :   1.1922 B(  0-C ,  6-C ) :   1.1973
B(  1-C ,  2-C ) :   1.1911 B(  1-C ,  7-C ) :   1.1975 B(  2-C ,  3-C ) :   1.1879
B(  2-C ,  5-C ) :   1.4608 B(  3-C ,  8-C ) :   1.1871 B(  3-C , 10-C ) :   1.4655
B(  4-C , 11-C ) :   1.4628 B(  4-C , 16-C ) :   1.1650 B(  5-C , 11-C ) :   1.1909
B(  5-C , 12-C ) :   1.1909 B(  6-C , 17-C ) :   1.4634 B(  6-C , 18-C ) :   1.1609
B(  7-C ,  8-C ) :   1.1911 B(  7-C ,  9-C ) :   1.4525 B(  8-C , 13-C ) :   1.4607
B(  9-C , 17-C ) :   1.1951 B(  9-C , 44-C ) :   1.1953 B( 10-C , 14-C ) :   1.1918
B( 10-C , 15-C ) :   1.1902 B( 11-C , 19-C ) :   1.1682 B( 12-C , 14-C ) :   1.4604
B( 12-C , 20-C ) :   1.1727 B( 13-C , 23-C ) :   1.1917 B( 13-C , 45-C ) :   1.1916
B( 14-C , 21-C ) :   1.1715 B( 15-C , 22-C ) :   1.1719 B( 15-C , 23-C ) :   1.4597
B( 16-C , 18-C ) :   1.3028 B( 16-C , 24-C ) :   1.3161 B( 17-C , 46-C ) :   1.1627
B( 18-C , 31-C ) :   1.3218 B( 19-C , 20-C ) :   1.2977 B( 19-C , 25-C ) :   1.3197
B( 20-C , 26-C ) :   1.3127 B( 21-C , 22-C ) :   1.2939 B( 21-C , 27-C ) :   1.3147
B( 22-C , 28-C ) :   1.3135 B( 23-C , 29-C ) :   1.1705 B( 24-C , 25-C ) :   1.1854
B( 24-C , 30-C ) :   1.3174 B( 25-C , 32-C ) :   1.3131 B( 26-C , 27-C ) :   1.2055
B( 26-C , 33-C ) :   1.3095 B( 27-C , 34-C ) :   1.2834 B( 28-C , 35-C ) :   1.2822
B( 28-C , 36-C ) :   1.2067 B( 29-C , 36-C ) :   1.3126 B( 29-C , 47-C ) :   1.2992
B( 30-C , 37-C ) :   1.1657 B( 30-C , 38-C ) :   1.3032 B( 31-C , 38-C ) :   1.3108
B( 31-C , 48-C ) :   1.1874 B( 32-C , 33-C ) :   1.2969 B( 32-C , 39-C ) :   1.1690
B( 33-C , 40-C ) :   1.1844 B( 34-C , 35-C ) :   1.2967 B( 34-C , 41-C ) :   1.2045
B( 35-C , 42-C ) :   1.1964 B( 36-C , 43-C ) :   1.3081 B( 37-C , 39-C ) :   1.4409
B( 37-C , 49-C ) :   1.2286 B( 38-C , 50-C ) :   1.1680 B( 39-C , 51-C ) :   1.2165
B( 40-C , 41-C ) :   1.5199 B( 40-C , 51-C ) :   1.1173 B( 41-C , 52-C ) :   1.0502
B( 42-C , 52-C ) :   1.0631 B( 42-C , 53-C ) :   1.5271 B( 43-C , 53-C ) :   1.1804
B( 43-C , 54-C ) :   1.2953 B( 44-C , 45-C ) :   1.4608 B( 44-C , 55-C ) :   1.1646
B( 45-C , 47-C ) :   1.1665 B( 46-C , 48-C ) :   1.3218 B( 46-C , 55-C ) :   1.3011
B( 47-C , 56-C ) :   1.3202 B( 48-C , 57-C ) :   1.3117 B( 49-C , 50-C ) :   1.1926
B( 49-C , 58-C ) :   1.4089 B( 50-C , 59-C ) :   1.4633 B( 51-C , 60-C ) :   1.5100
B( 52-C , 61-C ) :   0.7552 B( 52-C , 70-C ) :   0.8392 B( 53-C , 62-C ) :   1.1261
B( 54-C , 56-C ) :   1.3135 B( 54-C , 63-C ) :   1.1675 B( 55-C , 64-C ) :   1.3167
B( 56-C , 64-C ) :   1.1845 B( 57-C , 59-C ) :   1.1683 B( 57-C , 65-C ) :   1.3033
B( 58-C , 60-C ) :   1.2322 B( 58-C , 66-C ) :   1.1991 B( 59-C , 67-C ) :   1.1926
B( 60-C , 61-C ) :   1.0552 B( 61-C , 68-C ) :   1.0595 B( 61-C , 70-C ) :   0.8448
B( 62-C , 63-C ) :   1.2160 B( 62-C , 68-C ) :   1.5093 B( 63-C , 69-C ) :   1.4347
B( 64-C , 65-C ) :   1.3177 B( 65-C , 69-C ) :   1.1672 B( 66-C , 67-C ) :   1.4049
B( 66-C , 68-C ) :   1.2319 B( 67-C , 69-C ) :   1.2306 B( 70-C , 71-C ) :   0.9952
B( 70-C , 77-C ) :   1.0842 B( 71-C , 72-C ) :   1.4128 B( 71-C , 76-C ) :   1.3963
B( 72-C , 73-C ) :   1.3772 B( 72-C , 84-H ) :   0.9779 B( 73-C , 74-C ) :   1.3952
B( 73-C , 85-H ) :   0.9846 B( 74-C , 75-C ) :   1.3869 B( 74-C , 86-H ) :   0.9885
B( 75-C , 76-C ) :   1.3871 B( 75-C , 87-H ) :   0.9848 B( 76-C , 88-H ) :   0.9838
B( 77-C , 78-C ) :   1.0880 B( 77-C , 89-H ) :   0.8985 B( 77-C , 90-H ) :   0.9048
B( 78-C , 79-C ) :   1.0711 B( 78-C , 91-H ) :   0.9372 B( 78-C , 92-H ) :   0.9338
B( 79-C , 80-C ) :   0.9759 B( 79-C , 93-H ) :   0.9234 B( 79-C , 94-H ) :   0.9235
B( 80-C , 81-O ) :   2.0823 B( 80-C , 82-O ) :   1.1957 B( 82-O , 83-C ) :   0.9240
B( 83-C , 95-H ) :   0.9779 B( 83-C , 96-H ) :   0.9816 B( 83-C , 97-H ) :   0.9752

-----------------------------------------------------------------------------
         ABSORPTION SPECTRUM VIA TRANSITION ELECTRIC DIPOLE MOMENTS
-----------------------------------------------------------------------------
State   Energy  Wavelength   fosc         T2         TX        TY        TZ
        (cm-1)    (nm)                  (au**2)     (au)      (au)      (au)
-----------------------------------------------------------------------------
   0   16584.5    603.0   0.009635634   0.19127  -0.10961   0.28633  -0.31189
   1   17084.2    585.3   0.030294044   0.58376  -0.19122   0.49431  -0.55032
   2   17911.0    558.3   0.010619711   0.19519   0.37916   0.21283   0.07832
   3   18726.5    534.0   0.009312398   0.16371   0.36553   0.17287   0.01466
   4   19030.9    525.5   0.000923287   0.01597  -0.02028   0.08647  -0.08991
   5   19904.7    502.4   0.075669828   1.25154  -0.97257  -0.15995  -0.52920
   6   19994.2    500.1   0.121609764   2.00235  -0.05689  -1.09017   0.90035
   7   20150.6    496.3   0.003349880   0.05473   0.07254  -0.12188   0.18604
   8   20192.5    495.2   0.007703754   0.12560  -0.06312  -0.29049   0.19295
   9   20405.8    490.1   0.087260869   1.40780  -1.03709  -0.51263  -0.26353
  10   21088.7    474.2   0.005730149   0.08945  -0.25394  -0.13926  -0.07465
  11   22148.3    451.5   0.000598015   0.00889  -0.03471   0.06814  -0.05515
  12   22635.3    441.8   0.000604396   0.00879  -0.07577   0.01805  -0.05218
  13   22854.6    437.5   0.005350614   0.07707  -0.00709   0.26835  -0.07078
  14   22865.5    437.3   0.016002413   0.23040  -0.17651   0.21013  -0.39381
  15   22974.3    435.3   0.004945160   0.07086  -0.16331   0.02639   0.20856
  16   23093.3    433.0   0.002299850   0.03279   0.13929  -0.09141   0.07091
  17   23125.0    432.4   0.008738901   0.12441   0.02295  -0.23188  -0.26479
  18   23464.3    426.2   0.000616041   0.00864   0.01083   0.09012   0.02012
  19   23861.3    419.1   0.008429841   0.11631   0.06393  -0.17667   0.28462
  20   24246.6    412.4   0.003243716   0.04404   0.12729  -0.12027  -0.11565
  21   24375.2    410.3   0.114138101   1.54155   0.68834  -0.66994  -0.78671
  22   24541.1    407.5   0.073791620   0.98989   0.94175   0.03213  -0.31934
  23   24894.0    401.7   0.023315896   0.30834   0.47792   0.23208  -0.16147
  24   25063.4    399.0   0.107746049   1.41526   0.44478  -0.64697   0.89379
  25   25522.1    391.8   0.118548185   1.52917   0.75902   0.91613   0.33730
  26   25717.2    388.8   0.014919520   0.19099  -0.09585   0.31080  -0.29190
  27   26037.5    384.1   0.019506790   0.24664   0.23003  -0.39031   0.20342
  28   26179.2    382.0   0.002077797   0.02613  -0.02392   0.09546  -0.12824
  29   26424.0    378.4   0.019729884   0.24581  -0.10423   0.27235   0.40097
  30   26673.1    374.9   0.122444845   1.51127  -0.19656   0.79067   0.92059
  31   27008.7    370.3   0.002907325   0.03544  -0.03911   0.04597  -0.17831
  32   27348.8    365.6   0.042011136   0.50571  -0.18090   0.54456  -0.42004
  33   27679.4    361.3   0.010996596   0.13079  -0.22375  -0.25087  -0.13340
  34   27963.5    357.6   0.011210443   0.13198  -0.09340   0.17613  -0.30370
  35   28730.8    348.1   0.068859476   0.78903  -0.50200  -0.63083  -0.37292
  36   28906.5    345.9   0.086516609   0.98533  -0.73482   0.22563   0.62806
  37   29136.5    343.2   0.001427212   0.01613  -0.02379   0.05268  -0.11307
  38   29208.4    342.4   0.032902062   0.37084  -0.23755   0.50366  -0.24647
  39   29338.9    340.8   0.021012763   0.23578  -0.33132  -0.19020  -0.29972
  40   29599.9    337.8   0.018028272   0.20051   0.13737  -0.17366   0.38921
  41   29823.8    335.3   0.004544057   0.05016   0.04480  -0.18764  -0.11377
  42   30112.8    332.1   0.006180582   0.06757  -0.03330   0.13903  -0.21710
  43   30154.8    331.6   0.028010225   0.30580   0.29192  -0.35613  -0.30619
  44   31456.2    317.9   0.034328284   0.35927  -0.31743   0.21195   0.46215
  45   31488.9    317.6   0.023006743   0.24053  -0.13345   0.26788  -0.38854
  46   31625.3    316.2   0.358079411   3.72752   0.78677  -1.22559  -1.26745
  47   32093.1    311.6   0.019079213   0.19572   0.04984  -0.03469   0.43821
  48   32319.2    309.4   0.012847849   0.13087  -0.21027  -0.01806   0.29382
  49   32528.2    307.4   0.005250908   0.05314  -0.14020   0.16983  -0.06816
  50   32689.1    305.9   0.036342612   0.36601  -0.39644  -0.02943   0.45605
  51   33277.5    300.5   0.000702489   0.00695  -0.05123  -0.05360   0.03811
  52   33328.9    300.0   0.040426678   0.39932   0.49901  -0.32366   0.21343
  53   33394.0    299.5   0.004090649   0.04033  -0.18015   0.00463   0.08861
  54   33624.3    297.4   0.024838977   0.24320  -0.10989  -0.08094   0.47389
  55   33697.3    296.8   0.047751450   0.46652   0.58881  -0.16226  -0.30576
  56   33949.3    294.6   0.048863786   0.47384  -0.10550   0.49002  -0.47179
  57   34068.2    293.5   0.008989781   0.08687   0.07305  -0.18169   0.22028
  58   34291.5    291.6   0.025679668   0.24654  -0.06166   0.48353   0.09454
  59   34342.1    291.2   0.042394335   0.40640   0.41779  -0.13353  -0.46263
  60   34391.2    290.8   0.011045458   0.10573  -0.26760  -0.13804  -0.12276
  61   34611.0    288.9   0.049929013   0.47491  -0.25009  -0.49850  -0.40481
  62   34817.9    287.2   0.097940468   0.92605  -0.55836  -0.63970  -0.45284
  63   35075.0    285.1   0.001013631   0.00951   0.00632   0.00394   0.09725
  64   35195.4    284.1   0.008397610   0.07855  -0.05857   0.20158  -0.18570
  65   35235.9    283.8   0.019523641   0.18241   0.23048   0.22886   0.27734
  66   35400.7    282.5   0.018584059   0.17282   0.04653  -0.40911   0.05733
  67   35724.8    279.9   0.027613266   0.25446  -0.43513   0.24649  -0.06608
  68   36051.2    277.4   0.024601151   0.22465   0.22033  -0.04313   0.41743
  69   36235.5    276.0   0.023087550   0.20976  -0.20458  -0.39731   0.10025
  70   36427.1    274.5   0.041957588   0.37919  -0.49090  -0.36118  -0.08806
  71   36524.4    273.8   0.030752119   0.27718  -0.43866  -0.28764   0.04505
  72   36654.0    272.8   0.012711178   0.11417  -0.11055  -0.29644  -0.11862
  73   36776.3    271.9   0.011972980   0.10718   0.10994  -0.20211   0.23290
  74   36909.0    270.9   0.001518764   0.01355  -0.04893   0.08825  -0.05800
  75   36961.4    270.6   0.053296615   0.47471  -0.23607   0.40069  -0.50836
  76   37077.0    269.7   0.000175444   0.00156  -0.01242  -0.01455  -0.03452
  77   37244.3    268.5   0.001032741   0.00913  -0.07504  -0.02446   0.05385
  78   37293.6    268.1   0.005728213   0.05057  -0.07263   0.05301  -0.20611
  79   37526.4    266.5   0.000523018   0.00459  -0.05621   0.00121  -0.03778
  80   37708.2    265.2   0.002415755   0.02109   0.07299  -0.03123   0.12161
  81   37873.0    264.0   0.017718095   0.15402  -0.06633  -0.24568  -0.29876
  82   37885.8    264.0   0.008024159   0.06973  -0.10672   0.22477   0.08840
  83   38008.7    263.1   0.001567381   0.01358  -0.07637  -0.02900   0.08308
  84   38156.0    262.1   0.008214712   0.07088  -0.10135  -0.21890   0.11264
  85   38386.5    260.5   0.014843167   0.12730  -0.02607   0.15344   0.32105
  86   38392.6    260.5   0.007910995   0.06784  -0.18235   0.18565  -0.01090
  87   38437.2    260.2   0.013981273   0.11975   0.17959   0.27589   0.10667
  88   38556.1    259.4   0.005983327   0.05109  -0.16374   0.07694   0.13549
  89   38759.0    258.0   0.014517064   0.12331   0.07961  -0.20795   0.27153
  90   38896.1    257.1   0.031932872   0.27028  -0.16023   0.19159  -0.45596
  91   38982.4    256.5   0.022873789   0.19317  -0.09752  -0.41410   0.11039
  92   39166.6    255.3   0.021694681   0.18235   0.39041   0.13010  -0.11406
  93   39402.8    253.8   0.001754669   0.01466   0.07821   0.09220  -0.00647
  94   39507.9    253.1   0.076465849   0.63718   0.00580   0.62816   0.49250
  95   39596.7    252.5   0.060348895   0.50175  -0.14727   0.36499  -0.58893
  96   39684.3    252.0   0.126437506   1.04890  -0.57928   0.62143   0.57198
  97   39727.4    251.7   0.002367075   0.01962  -0.06575  -0.12338  -0.00837
  98   39860.9    250.9   0.031970726   0.26405   0.10428  -0.36680  -0.34443
  99   39975.3    250.2   0.011046122   0.09097   0.15768   0.21343   0.14337
 100   40006.3    250.0   0.019711723   0.16221  -0.38061  -0.11190  -0.06942
 101   40195.7    248.8   0.050589363   0.41434  -0.48373  -0.22638  -0.35930
 102   40283.8    248.2   0.056932090   0.46527  -0.28344   0.01839   0.62015

FINAL SINGLE POINT ENERGY     -3279.358687300298

DIPOLE MOMENT
-------------
                                X             Y             Z
Electronic contribution:     17.48669     -65.63831     -48.42210
Nuclear contribution   :    -17.17585      67.21797      49.24520
                        -----------------------------------------
Total Dipole Moment    :      0.31084       1.57965       0.82310
                        -----------------------------------------
Magnitude (a.u.)       :      1.80815
Magnitude (Debye)      :      4.59596

Rotational constants in cm-1:     0.001769     0.000923     0.000855
Rotational constants in MHz :    53.031038    27.665694    25.628694

                             ****ORCA TERMINATED NORMALLY****
TOTAL RUN TIME: 0 days 1 hours 43 minutes 2 seconds 408 msec
