                         Program Version 4.2.0 -  RELEASE  -
|  1> # ORCA input file
|  2> # PC70BM.out
|  3> ! CAM-B3LYP def2-SVP def2/J RIJCOSX Grid4 TightSCF
|  4> %maxcore 5000
|  5> %tddft
|  6>     Mode sTDDFT
|  7>     Ethresh 5.0
|  8>     maxcore 5000
|  9> end
| 10> * xyz 0 1
| 11>    C        0.12257         0.01575        -0.00003
| 12>    C        1.46035        -0.31633         0.18452
| 13>    C        2.47114         0.70444         0.07079
| 14>    C        3.47294         0.45295         1.07639
| 15>    C       -0.25314         1.37121        -0.29564
| 16>    C        2.10177         2.01169        -0.22299
| 17>    C       -0.88383        -0.51273         0.87977
| 18>    C        1.83523        -1.19678         1.26064
| 19>    C        3.07828        -0.72133         1.81353
| 20>    C        0.85638        -1.70738         2.10614
| 21>    C        4.06380         1.51886         1.74279
| 22>    C        0.71589         2.35006        -0.40533
| 23>    C        2.71084         3.11127         0.47530
| 24>    C        3.28933        -0.77734         3.18604
| 25>    C        3.67435         2.86974         1.43718
| 26>    C        4.27628         1.45649         3.16439
| 27>    C       -1.48803         1.66559         0.38296
| 28>    C       -0.52420        -1.35716         1.91202
| 29>    C       -1.87889         0.50396         1.10628
| 30>    C        0.48098         3.65125         0.16307
| 31>    C        1.71094         4.12051         0.70409
| 32>    C        3.66215         3.62984         2.65727
| 33>    C        4.03293         2.75924         3.72146
| 34>    C        3.89416         0.33210         3.87248
| 35>    C       -1.77720         2.96267         0.85839
| 36>    C       -0.75654         3.98851         0.75069
| 37>    C        1.74385         4.94237         1.85074
| 38>    C        2.74798         4.68472         2.85662
| 39>    C        3.50143         2.91646         5.01801
| 40>    C        3.26218         0.47764         5.15718
| 41>    C       -2.69715         3.03403         1.92456
| 42>    C       -2.57475         0.59671         2.32958
| 43>    C       -0.71966         5.01128         1.72378
| 44>    C        0.50758         5.48174         2.26734
| 45>    C        2.43949         4.99152         4.19993
| 46>    C        2.80928         4.12282         5.26183
| 47>    C        3.10627         1.74320         5.76206
| 48>    C       -2.70441         4.14739         2.83809
| 49>    C       -3.09102         1.87212         2.64681
| 50>    C       -1.72365         5.11957         2.74522
| 51>    C        0.27278         5.89303         3.62616
| 52>    C        1.24125         5.67707         4.57854
| 53>    C        1.84400         4.25963         6.30945
| 54>    C        2.04749         1.86739         6.68788
| 55>    C        1.07809        -1.75499         3.52546
| 56>    C        2.26994        -1.29963         4.05578
| 57>    C       -1.14885        -1.21053         3.20168
| 58>    C        2.26011        -0.52663         5.26980
| 59>    C       -2.19687        -0.29089         3.41428
| 60>    C       -3.11179         3.67897         4.12519
| 61>    C       -3.34135         2.26427         4.00816
| 62>    C       -1.13001         5.67600         3.92984
| 63>    C        0.93194         5.36600         5.98124
| 64>    C        1.44677         3.13813         6.99736
| 65>    C        1.04833         0.86076         6.79778
| 66>    C       -0.15967        -1.45355         4.19561
| 67>    C        1.06917        -0.29810         5.99089
| 68>    C       -2.36061         0.15629         4.74353
| 69>    C       -2.51247         4.20140         5.26840
| 70>    C       -2.98184         1.41945         5.04023
| 71>    C       -1.53346         5.24379         5.17907
| 72>    C       -0.60865         5.12469         6.32185
| 73>    C        0.04760         2.91338         7.30790
| 74>    C       -0.18252         1.50185         7.16820
| 75>    C       -0.18155        -0.78368         5.43776
| 76>    C       -1.36889        -0.08443         5.73635
| 77>    C       -2.13858         3.32327         6.34011
| 78>    C       -2.37855         1.95619         6.22996
| 79>    C       -0.92451         3.81381         6.91945
| 80>    C       -1.37591         1.02888         6.65004
| 81>    C        0.18408         6.21768         6.97016
| 82>    C        0.54900         6.02188         8.40729
| 83>    C       -0.41064         5.65666         9.34169
| 84>    C       -0.05974         5.48791        10.66918
| 85>    C        1.25053         5.68069        11.07214
| 86>    C        2.21060         6.04720        10.14408
| 87>    C        1.86149         6.21810         8.81697
| 88>    C       -0.14050         7.65039         6.58661
| 89>    C       -1.48554         8.08460         7.16594
| 90>    C       -1.85408         9.49657         6.72364
| 91>    C       -3.13218         9.96852         7.37969
| 92>    O       -3.62282         9.50282         8.37247
| 93>    O       -3.65624        11.00139         6.70685
| 94>    C       -4.84703        11.56465         7.24170
| 95>    H       -1.43252         5.50138         9.02834
| 96>    H       -0.81181         5.20312        11.38975
| 97>    H        1.52380         5.54480        12.10791
| 98>    H        3.23412         6.19809        10.45405
| 99>    H        2.61020         6.49914         8.08975
|100>    H       -0.16812         7.74155         5.49955
|101>    H        0.65281         8.30155         6.96230
|102>    H       -2.26325         7.39239         6.83591
|103>    H       -1.45228         8.05173         8.25599
|104>    H       -1.06608        10.19853         7.00997
|105>    H       -1.97425         9.55906         5.64115
|106>    H       -4.63526        12.06923         8.18644
|107>    H       -5.20548        12.27649         6.50320
|108>    H       -5.58941        10.78407         7.41867
|109> *
|110>
|111>                          ****END OF INPUT****

CARTESIAN COORDINATES (ANGSTROEM)
---------------------------------
  C      0.122570    0.015750   -0.000030
  C      1.460350   -0.316330    0.184520
  C      2.471140    0.704440    0.070790
  C      3.472940    0.452950    1.076390
  C     -0.253140    1.371210   -0.295640
  C      2.101770    2.011690   -0.222990
  C     -0.883830   -0.512730    0.879770
  C      1.835230   -1.196780    1.260640
  C      3.078280   -0.721330    1.813530
  C      0.856380   -1.707380    2.106140
  C      4.063800    1.518860    1.742790
  C      0.715890    2.350060   -0.405330
  C      2.710840    3.111270    0.475300
  C      3.289330   -0.777340    3.186040
  C      3.674350    2.869740    1.437180
  C      4.276280    1.456490    3.164390
  C     -1.488030    1.665590    0.382960
  C     -0.524200   -1.357160    1.912020
  C     -1.878890    0.503960    1.106280
  C      0.480980    3.651250    0.163070
  C      1.710940    4.120510    0.704090
  C      3.662150    3.629840    2.657270
  C      4.032930    2.759240    3.721460
  C      3.894160    0.332100    3.872480
  C     -1.777200    2.962670    0.858390
  C     -0.756540    3.988510    0.750690
  C      1.743850    4.942370    1.850740
  C      2.747980    4.684720    2.856620
  C      3.501430    2.916460    5.018010
  C      3.262180    0.477640    5.157180
  C     -2.697150    3.034030    1.924560
  C     -2.574750    0.596710    2.329580
  C     -0.719660    5.011280    1.723780
  C      0.507580    5.481740    2.267340
  C      2.439490    4.991520    4.199930
  C      2.809280    4.122820    5.261830
  C      3.106270    1.743200    5.762060
  C     -2.704410    4.147390    2.838090
  C     -3.091020    1.872120    2.646810
  C     -1.723650    5.119570    2.745220
  C      0.272780    5.893030    3.626160
  C      1.241250    5.677070    4.578540
  C      1.844000    4.259630    6.309450
  C      2.047490    1.867390    6.687880
  C      1.078090   -1.754990    3.525460
  C      2.269940   -1.299630    4.055780
  C     -1.148850   -1.210530    3.201680
  C      2.260110   -0.526630    5.269800
  C     -2.196870   -0.290890    3.414280
  C     -3.111790    3.678970    4.125190
  C     -3.341350    2.264270    4.008160
  C     -1.130010    5.676000    3.929840
  C      0.931940    5.366000    5.981240
  C      1.446770    3.138130    6.997360
  C      1.048330    0.860760    6.797780
  C     -0.159670   -1.453550    4.195610
  C      1.069170   -0.298100    5.990890
  C     -2.360610    0.156290    4.743530
  C     -2.512470    4.201400    5.268400
  C     -2.981840    1.419450    5.040230
  C     -1.533460    5.243790    5.179070
  C     -0.608650    5.124690    6.321850
  C      0.047600    2.913380    7.307900
  C     -0.182520    1.501850    7.168200
  C     -0.181550   -0.783680    5.437760
  C     -1.368890   -0.084430    5.736350
  C     -2.138580    3.323270    6.340110
  C     -2.378550    1.956190    6.229960
  C     -0.924510    3.813810    6.919450
  C     -1.375910    1.028880    6.650040
  C      0.184080    6.217680    6.970160
  C      0.549000    6.021880    8.407290
  C     -0.410640    5.656660    9.341690
  C     -0.059740    5.487910   10.669180
  C      1.250530    5.680690   11.072140
  C      2.210600    6.047200   10.144080
  C      1.861490    6.218100    8.816970
  C     -0.140500    7.650390    6.586610
  C     -1.485540    8.084600    7.165940
  C     -1.854080    9.496570    6.723640
  C     -3.132180    9.968520    7.379690
  O     -3.622820    9.502820    8.372470
  O     -3.656240   11.001390    6.706850
  C     -4.847030   11.564650    7.241700
  H     -1.432520    5.501380    9.028340
  H     -0.811810    5.203120   11.389750
  H      1.523800    5.544800   12.107910
  H      3.234120    6.198090   10.454050
  H      2.610200    6.499140    8.089750
  H     -0.168120    7.741550    5.499550
  H      0.652810    8.301550    6.962300
  H     -2.263250    7.392390    6.835910
  H     -1.452280    8.051730    8.255990
  H     -1.066080   10.198530    7.009970
  H     -1.974250    9.559060    5.641150
  H     -4.635260   12.069230    8.186440
  H     -5.205480   12.276490    6.503200
  H     -5.589410   10.784070    7.418670

 Total Charge           Charge          ....    0
 Multiplicity           Mult            ....    1
 Number of Electrons    NEL             ....  522
 Basis Dimension        Dim             .... 1246

ORBITAL ENERGIES
----------------

  NO   OCC          E(Eh)            E(eV)
   0   2.0000     -19.253049      -523.9021
   1   2.0000     -19.198453      -522.4165
   2   2.0000     -10.390353      -282.7359
   3   2.0000     -10.318345      -280.7764
   4   2.0000     -10.317941      -280.7654
   5   2.0000     -10.315955      -280.7114
   6   2.0000     -10.313016      -280.6314
   7   2.0000     -10.306435      -280.4524
   8   2.0000     -10.305953      -280.4392
   9   2.0000     -10.305852      -280.4365
  10   2.0000     -10.305543      -280.4281
  11   2.0000     -10.305398      -280.4241
  12   2.0000     -10.305217      -280.4192
  13   2.0000     -10.304865      -280.4096
  14   2.0000     -10.304769      -280.4070
  15   2.0000     -10.304640      -280.4035
  16   2.0000     -10.304350      -280.3956
  17   2.0000     -10.304341      -280.3954
  18   2.0000     -10.304248      -280.3928
  19   2.0000     -10.304003      -280.3862
  20   2.0000     -10.303022      -280.3595
  21   2.0000     -10.302911      -280.3565
  22   2.0000     -10.302753      -280.3521
  23   2.0000     -10.302611      -280.3483
  24   2.0000     -10.301871      -280.3282
  25   2.0000     -10.301482      -280.3176
  26   2.0000     -10.301348      -280.3139
  27   2.0000     -10.301209      -280.3101
  28   2.0000     -10.301134      -280.3081
  29   2.0000     -10.300317      -280.2859
  30   2.0000     -10.298986      -280.2497
  31   2.0000     -10.298699      -280.2419
  32   2.0000     -10.298679      -280.2413
  33   2.0000     -10.298332      -280.2319
  34   2.0000     -10.298291      -280.2308
  35   2.0000     -10.297901      -280.2201
  36   2.0000     -10.297864      -280.2191
  37   2.0000     -10.297752      -280.2161
  38   2.0000     -10.297369      -280.2057
  39   2.0000     -10.297275      -280.2031
  40   2.0000     -10.297008      -280.1958
  41   2.0000     -10.296907      -280.1931
  42   2.0000     -10.296823      -280.1908
  43   2.0000     -10.296784      -280.1897
  44   2.0000     -10.296775      -280.1895
  45   2.0000     -10.296739      -280.1885
  46   2.0000     -10.296453      -280.1807
  47   2.0000     -10.296400      -280.1793
  48   2.0000     -10.296313      -280.1769
  49   2.0000     -10.296210      -280.1741
  50   2.0000     -10.296137      -280.1721
  51   2.0000     -10.296083      -280.1707
  52   2.0000     -10.295964      -280.1674
  53   2.0000     -10.295819      -280.1635
  54   2.0000     -10.295779      -280.1624
  55   2.0000     -10.295681      -280.1597
  56   2.0000     -10.295648      -280.1588
  57   2.0000     -10.295505      -280.1549
  58   2.0000     -10.295419      -280.1526
  59   2.0000     -10.295414      -280.1525
  60   2.0000     -10.295256      -280.1482
  61   2.0000     -10.295189      -280.1463
  62   2.0000     -10.295148      -280.1452
  63   2.0000     -10.294924      -280.1391
  64   2.0000     -10.294700      -280.1330
  65   2.0000     -10.294602      -280.1304
  66   2.0000     -10.294568      -280.1294
  67   2.0000     -10.294244      -280.1206
  68   2.0000     -10.294171      -280.1186
  69   2.0000     -10.293355      -280.0964
  70   2.0000     -10.292868      -280.0832
  71   2.0000     -10.292079      -280.0617
  72   2.0000     -10.290815      -280.0273
  73   2.0000     -10.290403      -280.0161
  74   2.0000     -10.289789      -279.9994
  75   2.0000     -10.279808      -279.7278
  76   2.0000     -10.276553      -279.6392
  77   2.0000     -10.275668      -279.6151
  78   2.0000     -10.271010      -279.4884
  79   2.0000     -10.270012      -279.4612
  80   2.0000     -10.269578      -279.4494
  81   2.0000     -10.268780      -279.4277
  82   2.0000     -10.268384      -279.4169
  83   2.0000     -10.265364      -279.3347
  84   2.0000      -1.184985       -32.2451
  85   2.0000      -1.091586       -29.7036
  86   2.0000      -1.058535       -28.8042
  87   2.0000      -1.047559       -28.5055
  88   2.0000      -1.036958       -28.2171
  89   2.0000      -1.035366       -28.1737
  90   2.0000      -1.018595       -27.7174
  91   2.0000      -1.010298       -27.4916
  92   2.0000      -1.008685       -27.4477
  93   2.0000      -0.999759       -27.2048
  94   2.0000      -0.998422       -27.1685
  95   2.0000      -0.982580       -26.7373
  96   2.0000      -0.972062       -26.4511
  97   2.0000      -0.965448       -26.2712
  98   2.0000      -0.962487       -26.1906
  99   2.0000      -0.948743       -25.8166
 100   2.0000      -0.946762       -25.7627
 101   2.0000      -0.940115       -25.5818
 102   2.0000      -0.938846       -25.5473
 103   2.0000      -0.924158       -25.1476
 104   2.0000      -0.915998       -24.9256
 105   2.0000      -0.893760       -24.3204
 106   2.0000      -0.890705       -24.2373
 107   2.0000      -0.890344       -24.2275
 108   2.0000      -0.889892       -24.2152
 109   2.0000      -0.888253       -24.1706
 110   2.0000      -0.887683       -24.1551
 111   2.0000      -0.871656       -23.7190
 112   2.0000      -0.870651       -23.6916
 113   2.0000      -0.864287       -23.5184
 114   2.0000      -0.837732       -22.7959
 115   2.0000      -0.835357       -22.7312
 116   2.0000      -0.833051       -22.6685
 117   2.0000      -0.829653       -22.5760
 118   2.0000      -0.827943       -22.5295
 119   2.0000      -0.823777       -22.4161
 120   2.0000      -0.821595       -22.3567
 121   2.0000      -0.818538       -22.2736
 122   2.0000      -0.811361       -22.0782
 123   2.0000      -0.811180       -22.0733
 124   2.0000      -0.809727       -22.0338
 125   2.0000      -0.804353       -21.8876
 126   2.0000      -0.787615       -21.4321
 127   2.0000      -0.773834       -21.0571
 128   2.0000      -0.763420       -20.7737
 129   2.0000      -0.751832       -20.4584
 130   2.0000      -0.749087       -20.3837
 131   2.0000      -0.742772       -20.2118
 132   2.0000      -0.741658       -20.1815
 133   2.0000      -0.737123       -20.0581
 134   2.0000      -0.735841       -20.0232
 135   2.0000      -0.725558       -19.7434
 136   2.0000      -0.716552       -19.4984
 137   2.0000      -0.711161       -19.3517
 138   2.0000      -0.707840       -19.2613
 139   2.0000      -0.704530       -19.1712
 140   2.0000      -0.698221       -18.9995
 141   2.0000      -0.691821       -18.8254
 142   2.0000      -0.689851       -18.7718
 143   2.0000      -0.684241       -18.6191
 144   2.0000      -0.676851       -18.4181
 145   2.0000      -0.661043       -17.9879
 146   2.0000      -0.659332       -17.9413
 147   2.0000      -0.649528       -17.6746
 148   2.0000      -0.648253       -17.6399
 149   2.0000      -0.644777       -17.5453
 150   2.0000      -0.641497       -17.4560
 151   2.0000      -0.637291       -17.3416
 152   2.0000      -0.636265       -17.3136
 153   2.0000      -0.635175       -17.2840
 154   2.0000      -0.632807       -17.2195
 155   2.0000      -0.615409       -16.7461
 156   2.0000      -0.610383       -16.6094
 157   2.0000      -0.604853       -16.4589
 158   2.0000      -0.601188       -16.3592
 159   2.0000      -0.600636       -16.3441
 160   2.0000      -0.599477       -16.3126
 161   2.0000      -0.590396       -16.0655
 162   2.0000      -0.584906       -15.9161
 163   2.0000      -0.578541       -15.7429
 164   2.0000      -0.577145       -15.7049
 165   2.0000      -0.570210       -15.5162
 166   2.0000      -0.566331       -15.4107
 167   2.0000      -0.563032       -15.3209
 168   2.0000      -0.559801       -15.2330
 169   2.0000      -0.557680       -15.1752
 170   2.0000      -0.556276       -15.1370
 171   2.0000      -0.555856       -15.1256
 172   2.0000      -0.552856       -15.0440
 173   2.0000      -0.550405       -14.9773
 174   2.0000      -0.548584       -14.9277
 175   2.0000      -0.547150       -14.8887
 176   2.0000      -0.545490       -14.8435
 177   2.0000      -0.543164       -14.7802
 178   2.0000      -0.541225       -14.7275
 179   2.0000      -0.539946       -14.6927
 180   2.0000      -0.538156       -14.6440
 181   2.0000      -0.534034       -14.5318
 182   2.0000      -0.533048       -14.5050
 183   2.0000      -0.530176       -14.4268
 184   2.0000      -0.523889       -14.2557
 185   2.0000      -0.522019       -14.2049
 186   2.0000      -0.520300       -14.1581
 187   2.0000      -0.512082       -13.9345
 188   2.0000      -0.510368       -13.8878
 189   2.0000      -0.508501       -13.8370
 190   2.0000      -0.506341       -13.7782
 191   2.0000      -0.504441       -13.7265
 192   2.0000      -0.502387       -13.6706
 193   2.0000      -0.502210       -13.6658
 194   2.0000      -0.500938       -13.6312
 195   2.0000      -0.500325       -13.6145
 196   2.0000      -0.498311       -13.5597
 197   2.0000      -0.494594       -13.4586
 198   2.0000      -0.493591       -13.4313
 199   2.0000      -0.492925       -13.4132
 200   2.0000      -0.492757       -13.4086
 201   2.0000      -0.489344       -13.3157
 202   2.0000      -0.489037       -13.3074
 203   2.0000      -0.487612       -13.2686
 204   2.0000      -0.482558       -13.1311
 205   2.0000      -0.479757       -13.0549
 206   2.0000      -0.477053       -12.9813
 207   2.0000      -0.468734       -12.7549
 208   2.0000      -0.465903       -12.6779
 209   2.0000      -0.465414       -12.6645
 210   2.0000      -0.463623       -12.6158
 211   2.0000      -0.461623       -12.5614
 212   2.0000      -0.458828       -12.4853
 213   2.0000      -0.453502       -12.3404
 214   2.0000      -0.452209       -12.3052
 215   2.0000      -0.448871       -12.2144
 216   2.0000      -0.442641       -12.0449
 217   2.0000      -0.442127       -12.0309
 218   2.0000      -0.438964       -11.9448
 219   2.0000      -0.436863       -11.8877
 220   2.0000      -0.434860       -11.8331
 221   2.0000      -0.430452       -11.7132
 222   2.0000      -0.427630       -11.6364
 223   2.0000      -0.426300       -11.6002
 224   2.0000      -0.421807       -11.4780
 225   2.0000      -0.420805       -11.4507
 226   2.0000      -0.420146       -11.4327
 227   2.0000      -0.418811       -11.3964
 228   2.0000      -0.418197       -11.3797
 229   2.0000      -0.417347       -11.3566
 230   2.0000      -0.416026       -11.3206
 231   2.0000      -0.415122       -11.2960
 232   2.0000      -0.414459       -11.2780
 233   2.0000      -0.413214       -11.2441
 234   2.0000      -0.410534       -11.1712
 235   2.0000      -0.406389       -11.0584
 236   2.0000      -0.400034       -10.8855
 237   2.0000      -0.397843       -10.8259
 238   2.0000      -0.373256       -10.1568
 239   2.0000      -0.371796       -10.1171
 240   2.0000      -0.368937       -10.0393
 241   2.0000      -0.366279        -9.9670
 242   2.0000      -0.361628        -9.8404
 243   2.0000      -0.356396        -9.6980
 244   2.0000      -0.353171        -9.6103
 245   2.0000      -0.349375        -9.5070
 246   2.0000      -0.346553        -9.4302
 247   2.0000      -0.333570        -9.0769
 248   2.0000      -0.333265        -9.0686
 249   2.0000      -0.322686        -8.7807
 250   2.0000      -0.318814        -8.6754
 251   2.0000      -0.306995        -8.3538
 252   2.0000      -0.298169        -8.1136
 253   2.0000      -0.287865        -7.8332
 254   2.0000      -0.287202        -7.8152
 255   2.0000      -0.286587        -7.7984
 256   2.0000      -0.283860        -7.7242
 257   2.0000      -0.275197        -7.4885
 258   2.0000      -0.263092        -7.1591
 259   2.0000      -0.262288        -7.1372
 260   2.0000      -0.252589        -6.8733
 261   0.0000      -0.091630        -2.4934
 262   0.0000      -0.089474        -2.4347
 263   0.0000      -0.085270        -2.3203
 264   0.0000      -0.067743        -1.8434
 265   0.0000      -0.049791        -1.3549

MULLIKEN ATOMIC CHARGES
-----------------------
   0 C :    0.017600
   1 C :   -0.002603
   2 C :   -0.005031
   3 C :    0.001757
   4 C :   -0.006595
   5 C :    0.014809
   6 C :   -0.004328
   7 C :    0.000160
   8 C :    0.004540
   9 C :    0.014436
  10 C :    0.011947
  11 C :   -0.000001
  12 C :   -0.001883
  13 C :    0.008512
  14 C :   -0.008524
  15 C :   -0.001281
  16 C :   -0.050506
  17 C :   -0.008053
  18 C :   -0.047456
  19 C :   -0.052902
  20 C :   -0.045024
  21 C :   -0.044628
  22 C :   -0.045252
  23 C :   -0.003723
  24 C :    0.084365
  25 C :    0.084324
  26 C :    0.073098
  27 C :    0.072596
  28 C :    0.073729
  29 C :   -0.045106
  30 C :   -0.050879
  31 C :    0.081373
  32 C :   -0.049572
  33 C :   -0.042567
  34 C :   -0.042129
  35 C :   -0.041948
  36 C :    0.075011
  37 C :   -0.021270
  38 C :   -0.044681
  39 C :    0.004991
  40 C :   -0.008661
  41 C :    0.048280
  42 C :    0.045179
  43 C :   -0.039019
  44 C :   -0.000543
  45 C :   -0.005027
  46 C :   -0.047027
  47 C :   -0.051817
  48 C :    0.083202
  49 C :    0.005969
  50 C :   -0.002014
  51 C :   -0.000874
  52 C :   -0.140572
  53 C :    0.009237
  54 C :   -0.051517
  55 C :   -0.050833
  56 C :    0.087557
  57 C :   -0.043460
  58 C :    0.008518
  59 C :   -0.011834
  60 C :    0.048561
  61 C :   -0.158119
  62 C :    0.031997
  63 C :    0.007365
  64 C :    0.083696
  65 C :   -0.052854
  66 C :    0.014665
  67 C :    0.006159
  68 C :    0.023385
  69 C :   -0.018815
  70 C :   -0.023645
  71 C :   -0.008196
  72 C :    0.028853
  73 C :    0.018361
  74 C :    0.031069
  75 C :    0.020694
  76 C :    0.015653
  77 C :    0.226492
  78 C :   -0.056935
  79 C :    0.057912
  80 C :    0.130799
  81 O :   -0.218875
  82 O :   -0.300401
  83 C :    0.181787
  84 H :   -0.010716
  85 H :   -0.013328
  86 H :   -0.013131
  87 H :   -0.016127
  88 H :   -0.021529
  89 H :   -0.007374
  90 H :   -0.004502
  91 H :    0.014279
  92 H :    0.031673
  93 H :    0.031692
  94 H :    0.028958
  95 H :    0.029574
  96 H :    0.033689
  97 H :    0.035185
Sum of atomic charges:   -0.0000000

LOEWDIN ATOMIC CHARGES
----------------------
   0 C :   -0.008313
   1 C :    0.003717
   2 C :    0.006981
   3 C :    0.005722
   4 C :    0.000959
   5 C :   -0.008248
   6 C :    0.000531
   7 C :    0.003942
   8 C :    0.007298
   9 C :   -0.008199
  10 C :   -0.006678
  11 C :    0.000152
  12 C :    0.001538
  13 C :   -0.008180
  14 C :   -0.001089
  15 C :   -0.001296
  16 C :   -0.001736
  17 C :    0.000966
  18 C :   -0.004708
  19 C :   -0.005106
  20 C :   -0.001218
  21 C :   -0.000890
  22 C :    0.000101
  23 C :    0.002204
  24 C :   -0.000350
  25 C :    0.000056
  26 C :   -0.002578
  27 C :   -0.004867
  28 C :   -0.004778
  29 C :   -0.001317
  30 C :   -0.000495
  31 C :    0.001421
  32 C :   -0.000795
  33 C :   -0.002958
  34 C :    0.001620
  35 C :    0.001608
  36 C :   -0.002515
  37 C :   -0.006939
  38 C :   -0.006373
  39 C :   -0.002121
  40 C :   -0.017932
  41 C :    0.012912
  42 C :    0.015490
  43 C :   -0.001403
  44 C :    0.000901
  45 C :    0.000276
  46 C :   -0.005443
  47 C :   -0.005044
  48 C :    0.001547
  49 C :   -0.017348
  50 C :    0.002515
  51 C :   -0.021347
  52 C :   -0.001299
  53 C :   -0.006246
  54 C :    0.000188
  55 C :   -0.001316
  56 C :    0.000197
  57 C :   -0.007153
  58 C :    0.004612
  59 C :    0.003332
  60 C :    0.014072
  61 C :    0.001057
  62 C :   -0.010617
  63 C :   -0.000123
  64 C :   -0.000302
  65 C :    0.000446
  66 C :    0.003510
  67 C :   -0.016978
  68 C :    0.018684
  69 C :   -0.007988
  70 C :   -0.002821
  71 C :   -0.020229
  72 C :   -0.013830
  73 C :   -0.019499
  74 C :   -0.020660
  75 C :   -0.021372
  76 C :   -0.016523
  77 C :   -0.006846
  78 C :   -0.026744
  79 C :   -0.055383
  80 C :    0.085376
  81 O :   -0.176043
  82 O :   -0.098882
  83 C :    0.079947
  84 H :    0.029790
  85 H :    0.030111
  86 H :    0.028547
  87 H :    0.028525
  88 H :    0.027349
  89 H :    0.025318
  90 H :    0.029722
  91 H :    0.025406
  92 H :    0.030234
  93 H :    0.044377
  94 H :    0.037600
  95 H :    0.022083
  96 H :    0.025181
  97 H :    0.023000

  Mayer bond orders larger than 0.100000
B(  0-C ,  1-C ) :   1.4566 B(  0-C ,  4-C ) :   1.1988 B(  0-C ,  6-C ) :   1.2033
B(  1-C ,  2-C ) :   1.1974 B(  1-C ,  7-C ) :   1.2048 B(  2-C ,  3-C ) :   1.1965
B(  2-C ,  5-C ) :   1.4639 B(  3-C ,  8-C ) :   1.1938 B(  3-C , 10-C ) :   1.4677
B(  4-C , 11-C ) :   1.4634 B(  4-C , 16-C ) :   1.1710 B(  5-C , 11-C ) :   1.1968
B(  5-C , 12-C ) :   1.1979 B(  6-C , 17-C ) :   1.4640 B(  6-C , 18-C ) :   1.1672
B(  7-C ,  8-C ) :   1.1974 B(  7-C ,  9-C ) :   1.4559 B(  8-C , 13-C ) :   1.4634
B(  9-C , 17-C ) :   1.2006 B(  9-C , 44-C ) :   1.2022 B( 10-C , 14-C ) :   1.1975
B( 10-C , 15-C ) :   1.1974 B( 11-C , 19-C ) :   1.1746 B( 12-C , 14-C ) :   1.4615
B( 12-C , 20-C ) :   1.1782 B( 13-C , 23-C ) :   1.1982 B( 13-C , 45-C ) :   1.1982
B( 14-C , 21-C ) :   1.1782 B( 15-C , 22-C ) :   1.1769 B( 15-C , 23-C ) :   1.4606
B( 16-C , 18-C ) :   1.3072 B( 16-C , 24-C ) :   1.3176 B( 17-C , 46-C ) :   1.1690
B( 18-C , 31-C ) :   1.3229 B( 19-C , 20-C ) :   1.3028 B( 19-C , 25-C ) :   1.3200
B( 20-C , 26-C ) :   1.3148 B( 21-C , 22-C ) :   1.2994 B( 21-C , 27-C ) :   1.3160
B( 22-C , 28-C ) :   1.3149 B( 23-C , 29-C ) :   1.1759 B( 24-C , 25-C ) :   1.1963
B( 24-C , 30-C ) :   1.3192 B( 25-C , 32-C ) :   1.3143 B( 26-C , 27-C ) :   1.2148
B( 26-C , 33-C ) :   1.3103 B( 27-C , 34-C ) :   1.2824 B( 28-C , 35-C ) :   1.2828
B( 28-C , 36-C ) :   1.2162 B( 29-C , 36-C ) :   1.3144 B( 29-C , 47-C ) :   1.3041
B( 30-C , 37-C ) :   1.1723 B( 30-C , 38-C ) :   1.3078 B( 31-C , 38-C ) :   1.3126
B( 31-C , 48-C ) :   1.1978 B( 32-C , 33-C ) :   1.3018 B( 32-C , 39-C ) :   1.1750
B( 33-C , 40-C ) :   1.1922 B( 34-C , 35-C ) :   1.3027 B( 34-C , 41-C ) :   1.2103
B( 35-C , 42-C ) :   1.2020 B( 36-C , 43-C ) :   1.3092 B( 37-C , 39-C ) :   1.4425
B( 37-C , 49-C ) :   1.2340 B( 38-C , 50-C ) :   1.1743 B( 39-C , 51-C ) :   1.2239
B( 40-C , 41-C ) :   1.5190 B( 40-C , 51-C ) :   1.1206 B( 41-C , 52-C ) :   1.0524
B( 42-C , 52-C ) :   1.0676 B( 42-C , 53-C ) :   1.5233 B( 43-C , 53-C ) :   1.1873
B( 43-C , 54-C ) :   1.2997 B( 44-C , 45-C ) :   1.4605 B( 44-C , 55-C ) :   1.1704
B( 45-C , 47-C ) :   1.1731 B( 46-C , 48-C ) :   1.3225 B( 46-C , 55-C ) :   1.3064
B( 47-C , 56-C ) :   1.3214 B( 48-C , 57-C ) :   1.3129 B( 49-C , 50-C ) :   1.1994
B( 49-C , 58-C ) :   1.4110 B( 50-C , 59-C ) :   1.4642 B( 51-C , 60-C ) :   1.5122
B( 52-C , 61-C ) :   0.7624 B( 52-C , 70-C ) :   0.8357 B( 53-C , 62-C ) :   1.1341
B( 54-C , 56-C ) :   1.3144 B( 54-C , 63-C ) :   1.1735 B( 55-C , 64-C ) :   1.3178
B( 56-C , 64-C ) :   1.1949 B( 57-C , 59-C ) :   1.1746 B( 57-C , 65-C ) :   1.3086
B( 58-C , 60-C ) :   1.2408 B( 58-C , 66-C ) :   1.2054 B( 59-C , 67-C ) :   1.1996
B( 60-C , 61-C ) :   1.0573 B( 61-C , 68-C ) :   1.0644 B( 61-C , 70-C ) :   0.8459
B( 62-C , 63-C ) :   1.2226 B( 62-C , 68-C ) :   1.5072 B( 63-C , 69-C ) :   1.4353
B( 64-C , 65-C ) :   1.3194 B( 65-C , 69-C ) :   1.1729 B( 66-C , 67-C ) :   1.4089
B( 66-C , 68-C ) :   1.2377 B( 67-C , 69-C ) :   1.2369 B( 70-C , 71-C ) :   0.9880
B( 70-C , 77-C ) :   1.0941 B( 71-C , 72-C ) :   1.4098 B( 71-C , 76-C ) :   1.4007
B( 72-C , 73-C ) :   1.3774 B( 72-C , 84-H ) :   0.9828 B( 73-C , 74-C ) :   1.3909
B( 73-C , 85-H ) :   0.9890 B( 74-C , 75-C ) :   1.3868 B( 74-C , 86-H ) :   0.9932
B( 75-C , 76-C ) :   1.3817 B( 75-C , 87-H ) :   0.9886 B( 76-C , 88-H ) :   0.9886
B( 77-C , 78-C ) :   1.0946 B( 77-C , 89-H ) :   0.8899 B( 77-C , 90-H ) :   0.9040
B( 78-C , 79-C ) :   1.0749 B( 78-C , 91-H ) :   0.9451 B( 78-C , 92-H ) :   0.9308
B( 79-C , 80-C ) :   0.9730 B( 79-C , 93-H ) :   0.9131 B( 79-C , 94-H ) :   0.9315
B( 80-C , 81-O ) :   2.0936 B( 80-C , 82-O ) :   1.2049 B( 82-O , 83-C ) :   0.9248
B( 83-C , 95-H ) :   0.9791 B( 83-C , 96-H ) :   0.9817 B( 83-C , 97-H ) :   0.9743

-----------------------------------------------------------------------------
         ABSORPTION SPECTRUM VIA TRANSITION ELECTRIC DIPOLE MOMENTS
-----------------------------------------------------------------------------
State   Energy  Wavelength   fosc         T2         TX        TY        TZ
        (cm-1)    (nm)                  (au**2)     (au)      (au)      (au)
-----------------------------------------------------------------------------
   0   17020.9    587.5   0.004644532   0.08983  -0.07710   0.19397  -0.21509
   1   17114.7    584.3   0.034177486   0.65743   0.21944  -0.49585   0.60283
   2   18107.4    552.3   0.012874023   0.23406  -0.40710  -0.25515  -0.05682
   3   18838.9    530.8   0.006045729   0.10565   0.30229   0.11821   0.01725
   4   19282.2    518.6   0.000386110   0.00659   0.01923  -0.04421   0.06533
   5   20108.1    497.3   0.057855864   0.94722   0.86147   0.32702   0.31330
   6   20225.6    494.4   0.024347992   0.39631  -0.14932  -0.50875   0.33939
   7   20257.5    493.6   0.109637495   1.78176   0.21685  -0.88763   0.97307
   8   20379.0    490.7   0.002145246   0.03466   0.12877  -0.10809   0.07993
   9   20649.4    484.3   0.095258497   1.51870  -1.02992  -0.61837  -0.27491
  10   21213.1    471.4   0.008100115   0.12571  -0.30332  -0.16555  -0.07937
  11   22265.6    449.1   0.000355628   0.00526   0.04028  -0.05444   0.02593
  12   22842.1    437.8   0.001037136   0.01495   0.08431  -0.03122   0.08286
  13   23099.3    432.9   0.011575104   0.16497   0.04054  -0.26079  -0.30873
  14   23174.3    431.5   0.019478185   0.27670   0.10169  -0.32910   0.39756
  15   23234.8    430.4   0.001390489   0.01970   0.00784   0.00874   0.13987
  16   23254.0    430.0   0.005802149   0.08214  -0.28325   0.02384   0.03666
  17   23524.5    425.1   0.001674586   0.02343   0.09203  -0.01475   0.12144
  18   23905.4    418.3   0.001896438   0.02612   0.00000   0.06049   0.14986
  19   23937.6    417.8   0.007982654   0.10978  -0.07026   0.20658  -0.24935
  20   24543.1    407.4   0.028214112   0.37845   0.32951  -0.34658  -0.38698
  21   24597.2    406.6   0.107297574   1.43609  -0.74460   0.59102   0.72962
  22   24813.6    403.0   0.051996220   0.68985   0.81560   0.08847  -0.12969
  23   25193.2    396.9   0.037379390   0.48845   0.58077   0.25264  -0.29553
  24   25305.8    395.2   0.111009269   1.44416  -0.46209   0.67450  -0.88073
  25   25770.7    388.0   0.118667729   1.51594   0.72488   0.92646   0.36352
  26   25968.4    385.1   0.010137185   0.12851  -0.08620   0.26037  -0.23085
  27   26164.9    382.2   0.006190374   0.07789  -0.05107   0.17407  -0.21209
  28   26309.2    380.1   0.018608397   0.23285  -0.23667   0.35632  -0.22333
  29   26887.2    371.9   0.108057993   1.32308  -0.19700   0.73603   0.86170
  30   26911.6    371.6   0.026466366   0.32377   0.12931  -0.32487  -0.44889
  31   27308.4    366.2   0.004460464   0.05377  -0.01260  -0.02971  -0.22963
  32   27660.1    361.5   0.041273209   0.49124   0.16648  -0.53029   0.42698
  33   28010.5    357.0   0.009172863   0.10781  -0.20096  -0.23065  -0.11927
  34   28500.6    350.9   0.012464615   0.14398  -0.05670   0.19981  -0.31756
  35   28901.3    346.0   0.070444345   0.80242  -0.66889  -0.54743  -0.23522
  36   29184.6    342.6   0.066723985   0.75267  -0.55873   0.32462   0.57889
  37   29246.6    341.9   0.036431492   0.41009   0.36533  -0.32181  -0.41601
  38   29379.1    340.4   0.025905794   0.29029  -0.04749  -0.53512   0.04108
  39   29533.6    338.6   0.045506061   0.50726  -0.41376   0.19485  -0.54598
  40   29871.2    334.8   0.002395480   0.02640  -0.01511   0.03818  -0.15721
  41   30236.1    330.7   0.006446618   0.07019  -0.02527   0.21583   0.15156
  42   30337.3    329.6   0.023441182   0.25438  -0.26564   0.29152   0.31437
  43   30440.6    328.5   0.004403213   0.04762   0.08335  -0.16486   0.11617
  44   31674.7    315.7   0.027110661   0.28178  -0.09016   0.29900  -0.42923
  45   31758.8    314.9   0.018067222   0.18728  -0.30899   0.17714   0.24583
  46   31909.3    313.4   0.353027131   3.64222   0.79420  -1.21487  -1.23918
  47   32373.3    308.9   0.024079518   0.24487  -0.03899   0.02081   0.49287
  48   32680.4    306.0   0.007772487   0.07830  -0.16502  -0.01110   0.22570
  49   32802.4    304.9   0.005012321   0.05030   0.13491  -0.17190   0.05056
  50   33013.9    302.9   0.037903098   0.37797   0.41092   0.04757  -0.45480
  51   33715.3    296.6   0.042860037   0.41851  -0.55761   0.26472  -0.19364
  52   33858.9    295.3   0.011210395   0.10900  -0.06964  -0.13908   0.29122
  53   33872.8    295.2   0.000475051   0.00462   0.02082   0.02380  -0.06014
  54   34066.8    293.5   0.048156025   0.46537   0.39685   0.00482  -0.55484
  55   34089.7    293.3   0.027856828   0.26902   0.48343  -0.18333   0.04136
  56   34400.6    290.7   0.041174378   0.39404  -0.07382   0.52571  -0.33499
  57   34534.1    289.6   0.015891667   0.15149   0.04560  -0.33012   0.20109
  58   34673.6    288.4   0.014244403   0.13524  -0.01669   0.32584   0.16969
  59   34743.7    287.8   0.046239833   0.43814   0.50251  -0.09442  -0.42037
  60   34768.7    287.6   0.019940412   0.18881   0.15617   0.21790   0.34196
  61   34992.4    285.8   0.064854833   0.61016   0.26895   0.57068   0.46059
  62   35256.0    283.6   0.084490214   0.78895   0.54004   0.55807   0.43112
  63   35491.0    281.8   0.004299104   0.03988   0.01134   0.15140   0.12973
  64   35627.4    280.7   0.014717228   0.13599   0.08210  -0.28754   0.21581
  65   35701.9    280.1   0.006071761   0.05599   0.17449  -0.08257   0.13683
  66   35737.3    279.8   0.023988693   0.22098  -0.02782  -0.45902  -0.09752
  67   36107.9    276.9   0.029293228   0.26708  -0.45043   0.24012  -0.08085
  68   36481.6    274.1   0.020002905   0.18051  -0.16463   0.00222  -0.39166
  69   36653.6    272.8   0.022478322   0.20189  -0.10895  -0.38993   0.19487
  70   36920.1    270.9   0.066884255   0.59640   0.61306   0.45295   0.12410
  71   36970.1    270.5   0.024733428   0.22025   0.39313   0.25616  -0.00884
  72   37141.9    269.2   0.009043737   0.08016   0.04503   0.25080   0.12341
  73   37225.0    268.6   0.001105895   0.00978  -0.01541   0.06697  -0.07112
  74   37309.9    268.0   0.005205559   0.04593   0.09519  -0.13824   0.13328
  75   37442.3    267.1   0.061777497   0.54318  -0.17792   0.46701  -0.54169
  76   37543.3    266.4   0.000149709   0.00131   0.02904   0.02156  -0.00217
  77   37736.8    265.0   0.001206288   0.01052   0.06519  -0.01613  -0.07755
  78   37775.2    264.7   0.007568640   0.06596   0.10991  -0.04206   0.22828
  79   38048.5    262.8   0.000793773   0.00687  -0.05749   0.05608  -0.02043
  80   38161.5    262.0   0.001871952   0.01615   0.09132  -0.03562   0.08087
  81   38417.5    260.3   0.021739124   0.18629  -0.03011   0.30858   0.30027
  82   38537.5    259.5   0.003456926   0.02953   0.12138  -0.12101  -0.01236
  83   38697.1    258.4   0.007700138   0.06551   0.16529   0.15093  -0.12413
  84   38855.5    257.4   0.000986096   0.00835   0.02102  -0.08767  -0.01506
  85   38900.2    257.1   0.017696988   0.14977   0.15293   0.04572   0.35255
  86   38997.4    256.4   0.025066760   0.21161  -0.11049  -0.34761  -0.28031
  87   39276.1    254.6   0.006688661   0.05606  -0.02024   0.10794   0.20977
  88   39342.7    254.2   0.020564255   0.17208  -0.31496   0.26550   0.04884
  89   39409.5    253.7   0.053701516   0.44860  -0.04851   0.32698  -0.58252
  90   39467.0    253.4   0.001209477   0.01009   0.03730   0.07129   0.06013
  91   39609.5    252.5   0.015448556   0.12840   0.01600   0.35017   0.07433
  92   39798.0    251.3   0.036727576   0.30381  -0.54676  -0.06971  -0.00281
  93   39944.2    250.3   0.003837661   0.03163  -0.02550  -0.12998   0.11867
  94   40022.1    249.9   0.089141083   0.73325   0.00760   0.66382   0.54087
  95   40160.1    249.0   0.084239953   0.69056  -0.46984   0.67868  -0.09593
  96   40174.0    248.9   0.095951776   0.78629  -0.40579   0.14613   0.77477
  97   40302.0    248.1   0.003243973   0.02650  -0.14724   0.06136  -0.03246

FINAL SINGLE POINT ENERGY     -3279.356530053641

DIPOLE MOMENT
-------------
                                X             Y             Z
Electronic contribution:     18.29052     -65.85481     -49.22129
Nuclear contribution   :    -18.10116      67.27606      49.80146
                        -----------------------------------------
Total Dipole Moment    :      0.18937       1.42125       0.58017
                        -----------------------------------------
Magnitude (a.u.)       :      1.54674
Magnitude (Debye)      :      3.93151

Rotational constants in cm-1:     0.001838     0.000912     0.000854
Rotational constants in MHz :    55.102435    27.344846    25.606897

                             ****ORCA TERMINATED NORMALLY****
TOTAL RUN TIME: 0 days 1 hours 56 minutes 23 seconds 772 msec
