                         Program Version 4.2.0 -  RELEASE  -
|  1> # ORCA input file
|  2> # PCBM.out
|  3> ! CAM-B3LYP def2-SVP def2/J RIJCOSX Grid4 TightSCF
|  4> %maxcore 5000
|  5> %tddft
|  6>     Mode sTDDFT
|  7>     Ethresh 5.0
|  8>     maxcore 5000
|  9> end
| 10> * xyz 0 1
| 11>    C        0.30559        -2.43478         1.23997
| 12>    C        0.71540        -2.31512        -0.12843
| 13>    C        1.48289        -1.06491        -0.28305
| 14>    C        1.27037        -0.33412         0.98111
| 15>    C        0.64873        -1.21707         1.92221
| 16>    C       -0.17297        -0.73013         2.93128
| 17>    C       -0.44010         0.67684         3.00241
| 18>    C        0.12795         1.52917         2.06123
| 19>    C        0.99600         1.01620         1.03496
| 20>    C        0.73618         1.77347        -0.18283
| 21>    C        0.76051         1.15709        -1.41614
| 22>    C        1.20016        -0.23852        -1.61125
| 23>    C        0.20131        -0.82253        -2.52668
| 24>    C       -0.35453        -2.07191        -2.33862
| 25>    C       -0.09312        -2.83049        -1.12074
| 26>    C       -1.30351        -3.52650        -0.77324
| 27>    C       -2.30619        -3.21484        -1.75864
| 28>    C       -1.72053        -2.31606        -2.71909
| 29>    C       -2.49439        -1.30163        -3.27224
| 30>    C       -1.92703         0.00438        -3.44170
| 31>    C       -0.61337         0.23359        -3.05111
| 32>    C       -0.26870         1.45095        -2.36876
| 33>    C       -1.24999         2.39752        -2.10052
| 34>    C       -1.26012         3.05771        -0.82771
| 35>    C       -0.28838         2.73906         0.11516
| 36>    C       -0.66187         2.59368         1.49841
| 37>    C       -1.98266         2.76578         1.88837
| 38>    C       -2.57182         1.87291         2.85528
| 39>    C       -1.81343         0.84782         3.40282
| 40>    C       -2.39323        -0.46138         3.57902
| 41>    C       -3.70740        -0.69635         3.19812
| 42>    C       -4.49377         0.36971         2.63089
| 43>    C       -3.93650         1.63060         2.46445
| 44>    C       -4.19465         2.37962         1.25918
| 45>    C       -2.98926         3.08414         0.90626
| 46>    C       -2.63363         3.22839        -0.42732
| 47>    C       -3.47226         2.67029        -1.45991
| 48>    C       -2.61481         2.15656        -2.49760
| 49>    C       -2.94728         0.98206        -3.15624
| 50>    C       -4.15095         0.27232        -2.80498
| 51>    C       -3.87053        -1.14083        -2.87777
| 52>    C       -4.43023        -2.00678        -1.94886
| 53>    C       -3.63395        -3.06717        -1.38267
| 54>    C       -4.01292        -3.21826         0.00025
| 55>    C       -5.03356        -2.24485         0.29110
| 56>    C       -5.29168        -1.49576        -0.91419
| 57>    C       -5.55922        -0.13516        -0.84202
| 58>    C       -4.97776         0.76576        -1.80482
| 59>    C       -4.63206         1.98712        -1.11980
| 60>    C       -5.00039         1.83968         0.26556
| 61>    C       -5.57495         0.52895         0.43718
| 62>    C       -5.32645        -0.19192         1.59708
| 63>    C       -5.05260        -1.60516         1.52333
| 64>    C       -4.05295        -1.91777         2.51311
| 65>    C       -3.07172        -2.85946         2.23411
| 66>    C       -3.05018        -3.52160         0.95266
| 67>    C       -1.67412        -3.68308         0.55808
| 68>    C       -0.84965        -3.12326         1.58920
| 69>    C       -1.70817        -2.61400         2.62945
| 70>    C       -1.37601        -1.43947         3.28828
| 71>    C        2.56334        -0.78185        -1.28512
| 72>    C        3.09186        -1.94100        -2.11065
| 73>    C        3.60142         0.21917        -0.88996
| 74>    C        4.23428         0.13767         0.34323
| 75>    C        5.20855         1.05749         0.68737
| 76>    C        5.55728         2.06446        -0.19624
| 77>    C        4.92939         2.14943        -1.42741
| 78>    C        3.95542         1.23052        -1.77355
| 79>    H        5.69644         0.98645         1.64797
| 80>    H        6.31818         2.78150         0.07347
| 81>    H        3.96257        -0.64680         1.03420
| 82>    H        3.46059         1.29742        -2.73213
| 83>    H        5.19873         2.93333        -2.11976
| 84>    C        3.94725        -2.88121        -1.26451
| 85>    H        3.68924        -1.53750        -2.93234
| 86>    H        2.25721        -2.49711        -2.54039
| 87>    H        3.35872        -3.25844        -0.42603
| 88>    C        4.45478        -4.06045        -2.08596
| 89>    H        4.79917        -2.33820        -0.85204
| 90>    H        5.04791        -3.71976        -2.93705
| 91>    H        3.62006        -4.64307        -2.48300
| 92>    C        5.31281        -4.98892        -1.25710
| 93>    O        5.51344        -4.89199        -0.07686
| 94>    O        5.83538        -5.95738        -2.02162
| 95>    C        6.66155        -6.90533        -1.35822
| 96>    H        7.04757        -7.56491        -2.13081
| 97>    H        6.07877        -7.47014        -0.62794
| 98>    H        7.47817        -6.39897        -0.84003
| 99> *
|100>
|101>                          ****END OF INPUT****

CARTESIAN COORDINATES (ANGSTROEM)
---------------------------------
  C      0.305590   -2.434780    1.239970
  C      0.715400   -2.315120   -0.128430
  C      1.482890   -1.064910   -0.283050
  C      1.270370   -0.334120    0.981110
  C      0.648730   -1.217070    1.922210
  C     -0.172970   -0.730130    2.931280
  C     -0.440100    0.676840    3.002410
  C      0.127950    1.529170    2.061230
  C      0.996000    1.016200    1.034960
  C      0.736180    1.773470   -0.182830
  C      0.760510    1.157090   -1.416140
  C      1.200160   -0.238520   -1.611250
  C      0.201310   -0.822530   -2.526680
  C     -0.354530   -2.071910   -2.338620
  C     -0.093120   -2.830490   -1.120740
  C     -1.303510   -3.526500   -0.773240
  C     -2.306190   -3.214840   -1.758640
  C     -1.720530   -2.316060   -2.719090
  C     -2.494390   -1.301630   -3.272240
  C     -1.927030    0.004380   -3.441700
  C     -0.613370    0.233590   -3.051110
  C     -0.268700    1.450950   -2.368760
  C     -1.249990    2.397520   -2.100520
  C     -1.260120    3.057710   -0.827710
  C     -0.288380    2.739060    0.115160
  C     -0.661870    2.593680    1.498410
  C     -1.982660    2.765780    1.888370
  C     -2.571820    1.872910    2.855280
  C     -1.813430    0.847820    3.402820
  C     -2.393230   -0.461380    3.579020
  C     -3.707400   -0.696350    3.198120
  C     -4.493770    0.369710    2.630890
  C     -3.936500    1.630600    2.464450
  C     -4.194650    2.379620    1.259180
  C     -2.989260    3.084140    0.906260
  C     -2.633630    3.228390   -0.427320
  C     -3.472260    2.670290   -1.459910
  C     -2.614810    2.156560   -2.497600
  C     -2.947280    0.982060   -3.156240
  C     -4.150950    0.272320   -2.804980
  C     -3.870530   -1.140830   -2.877770
  C     -4.430230   -2.006780   -1.948860
  C     -3.633950   -3.067170   -1.382670
  C     -4.012920   -3.218260    0.000250
  C     -5.033560   -2.244850    0.291100
  C     -5.291680   -1.495760   -0.914190
  C     -5.559220   -0.135160   -0.842020
  C     -4.977760    0.765760   -1.804820
  C     -4.632060    1.987120   -1.119800
  C     -5.000390    1.839680    0.265560
  C     -5.574950    0.528950    0.437180
  C     -5.326450   -0.191920    1.597080
  C     -5.052600   -1.605160    1.523330
  C     -4.052950   -1.917770    2.513110
  C     -3.071720   -2.859460    2.234110
  C     -3.050180   -3.521600    0.952660
  C     -1.674120   -3.683080    0.558080
  C     -0.849650   -3.123260    1.589200
  C     -1.708170   -2.614000    2.629450
  C     -1.376010   -1.439470    3.288280
  C      2.563340   -0.781850   -1.285120
  C      3.091860   -1.941000   -2.110650
  C      3.601420    0.219170   -0.889960
  C      4.234280    0.137670    0.343230
  C      5.208550    1.057490    0.687370
  C      5.557280    2.064460   -0.196240
  C      4.929390    2.149430   -1.427410
  C      3.955420    1.230520   -1.773550
  H      5.696440    0.986450    1.647970
  H      6.318180    2.781500    0.073470
  H      3.962570   -0.646800    1.034200
  H      3.460590    1.297420   -2.732130
  H      5.198730    2.933330   -2.119760
  C      3.947250   -2.881210   -1.264510
  H      3.689240   -1.537500   -2.932340
  H      2.257210   -2.497110   -2.540390
  H      3.358720   -3.258440   -0.426030
  C      4.454780   -4.060450   -2.085960
  H      4.799170   -2.338200   -0.852040
  H      5.047910   -3.719760   -2.937050
  H      3.620060   -4.643070   -2.483000
  C      5.312810   -4.988920   -1.257100
  O      5.513440   -4.891990   -0.076860
  O      5.835380   -5.957380   -2.021620
  C      6.661550   -6.905330   -1.358220
  H      7.047570   -7.564910   -2.130810
  H      6.078770   -7.470140   -0.627940
  H      7.478170   -6.398970   -0.840030

 Total Charge           Charge          ....    0
 Multiplicity           Mult            ....    1
 Number of Electrons    NEL             ....  462
 Basis Dimension        Dim             .... 1106

ORBITAL ENERGIES
----------------

  NO   OCC          E(Eh)            E(eV)
   0   2.0000     -19.252145      -523.8775
   1   2.0000     -19.198441      -522.4161
   2   2.0000     -10.389960      -282.7252
   3   2.0000     -10.318170      -280.7717
   4   2.0000     -10.315184      -280.6904
   5   2.0000     -10.314979      -280.6849
   6   2.0000     -10.310732      -280.5693
   7   2.0000     -10.303783      -280.3802
   8   2.0000     -10.303327      -280.3678
   9   2.0000     -10.301521      -280.3186
  10   2.0000     -10.301444      -280.3166
  11   2.0000     -10.300028      -280.2780
  12   2.0000     -10.299943      -280.2757
  13   2.0000     -10.299624      -280.2670
  14   2.0000     -10.299454      -280.2624
  15   2.0000     -10.299362      -280.2599
  16   2.0000     -10.299213      -280.2558
  17   2.0000     -10.299116      -280.2532
  18   2.0000     -10.298988      -280.2497
  19   2.0000     -10.298960      -280.2490
  20   2.0000     -10.298931      -280.2482
  21   2.0000     -10.298881      -280.2468
  22   2.0000     -10.298834      -280.2455
  23   2.0000     -10.298762      -280.2436
  24   2.0000     -10.298747      -280.2432
  25   2.0000     -10.298672      -280.2411
  26   2.0000     -10.298639      -280.2402
  27   2.0000     -10.298551      -280.2378
  28   2.0000     -10.298479      -280.2359
  29   2.0000     -10.298435      -280.2347
  30   2.0000     -10.298395      -280.2336
  31   2.0000     -10.298383      -280.2332
  32   2.0000     -10.298303      -280.2311
  33   2.0000     -10.298272      -280.2302
  34   2.0000     -10.298234      -280.2292
  35   2.0000     -10.298220      -280.2288
  36   2.0000     -10.298192      -280.2281
  37   2.0000     -10.298147      -280.2268
  38   2.0000     -10.298081      -280.2250
  39   2.0000     -10.298023      -280.2235
  40   2.0000     -10.297989      -280.2225
  41   2.0000     -10.297914      -280.2205
  42   2.0000     -10.297863      -280.2191
  43   2.0000     -10.297839      -280.2184
  44   2.0000     -10.297814      -280.2178
  45   2.0000     -10.297773      -280.2167
  46   2.0000     -10.297709      -280.2149
  47   2.0000     -10.297654      -280.2134
  48   2.0000     -10.297548      -280.2105
  49   2.0000     -10.297541      -280.2103
  50   2.0000     -10.297499      -280.2092
  51   2.0000     -10.297422      -280.2071
  52   2.0000     -10.297258      -280.2026
  53   2.0000     -10.297148      -280.1997
  54   2.0000     -10.297084      -280.1979
  55   2.0000     -10.296302      -280.1766
  56   2.0000     -10.296258      -280.1754
  57   2.0000     -10.296094      -280.1710
  58   2.0000     -10.296042      -280.1695
  59   2.0000     -10.295727      -280.1610
  60   2.0000     -10.295716      -280.1607
  61   2.0000     -10.295375      -280.1514
  62   2.0000     -10.295228      -280.1474
  63   2.0000     -10.294686      -280.1326
  64   2.0000     -10.294418      -280.1254
  65   2.0000     -10.279072      -279.7078
  66   2.0000     -10.275305      -279.6053
  67   2.0000     -10.275200      -279.6024
  68   2.0000     -10.270549      -279.4758
  69   2.0000     -10.269406      -279.4448
  70   2.0000     -10.269140      -279.4375
  71   2.0000     -10.268483      -279.4196
  72   2.0000     -10.268092      -279.4090
  73   2.0000     -10.263845      -279.2934
  74   2.0000      -1.184484       -32.2314
  75   2.0000      -1.091360       -29.6974
  76   2.0000      -1.058996       -28.8167
  77   2.0000      -1.042928       -28.3795
  78   2.0000      -1.036667       -28.2091
  79   2.0000      -1.035926       -28.1890
  80   2.0000      -1.010431       -27.4952
  81   2.0000      -0.998229       -27.1632
  82   2.0000      -0.997002       -27.1298
  83   2.0000      -0.996961       -27.1287
  84   2.0000      -0.996579       -27.1183
  85   2.0000      -0.968911       -26.3654
  86   2.0000      -0.957567       -26.0567
  87   2.0000      -0.956094       -26.0167
  88   2.0000      -0.952469       -25.9180
  89   2.0000      -0.938959       -25.5504
  90   2.0000      -0.922612       -25.1056
  91   2.0000      -0.921416       -25.0730
  92   2.0000      -0.921217       -25.0676
  93   2.0000      -0.903534       -24.5864
  94   2.0000      -0.886667       -24.1274
  95   2.0000      -0.871534       -23.7157
  96   2.0000      -0.870870       -23.6976
  97   2.0000      -0.870248       -23.6807
  98   2.0000      -0.869926       -23.6719
  99   2.0000      -0.862184       -23.4612
 100   2.0000      -0.851396       -23.1677
 101   2.0000      -0.851256       -23.1639
 102   2.0000      -0.850873       -23.1534
 103   2.0000      -0.845215       -22.9995
 104   2.0000      -0.832608       -22.6564
 105   2.0000      -0.827964       -22.5300
 106   2.0000      -0.812454       -22.1080
 107   2.0000      -0.792065       -21.5532
 108   2.0000      -0.791352       -21.5338
 109   2.0000      -0.788816       -21.4648
 110   2.0000      -0.788726       -21.4623
 111   2.0000      -0.784722       -21.3534
 112   2.0000      -0.784298       -21.3418
 113   2.0000      -0.782706       -21.2985
 114   2.0000      -0.779951       -21.2235
 115   2.0000      -0.751048       -20.4371
 116   2.0000      -0.741289       -20.1715
 117   2.0000      -0.739371       -20.1193
 118   2.0000      -0.725751       -19.7487
 119   2.0000      -0.704483       -19.1700
 120   2.0000      -0.698670       -19.0118
 121   2.0000      -0.697884       -18.9904
 122   2.0000      -0.697635       -18.9836
 123   2.0000      -0.696117       -18.9423
 124   2.0000      -0.695061       -18.9136
 125   2.0000      -0.692328       -18.8392
 126   2.0000      -0.691663       -18.8211
 127   2.0000      -0.688161       -18.7258
 128   2.0000      -0.682794       -18.5798
 129   2.0000      -0.679906       -18.5012
 130   2.0000      -0.641499       -17.4561
 131   2.0000      -0.635516       -17.2933
 132   2.0000      -0.632854       -17.2208
 133   2.0000      -0.630516       -17.1572
 134   2.0000      -0.629918       -17.1409
 135   2.0000      -0.628746       -17.1090
 136   2.0000      -0.612396       -16.6641
 137   2.0000      -0.607367       -16.5273
 138   2.0000      -0.600032       -16.3277
 139   2.0000      -0.599390       -16.3102
 140   2.0000      -0.599130       -16.3031
 141   2.0000      -0.593303       -16.1446
 142   2.0000      -0.590459       -16.0672
 143   2.0000      -0.590286       -16.0625
 144   2.0000      -0.586864       -15.9694
 145   2.0000      -0.580052       -15.7840
 146   2.0000      -0.575956       -15.6726
 147   2.0000      -0.566141       -15.4055
 148   2.0000      -0.563085       -15.3223
 149   2.0000      -0.562782       -15.3141
 150   2.0000      -0.558331       -15.1929
 151   2.0000      -0.553345       -15.0573
 152   2.0000      -0.550119       -14.9695
 153   2.0000      -0.544890       -14.8272
 154   2.0000      -0.540031       -14.6950
 155   2.0000      -0.538928       -14.6650
 156   2.0000      -0.538172       -14.6444
 157   2.0000      -0.537538       -14.6271
 158   2.0000      -0.536113       -14.5884
 159   2.0000      -0.533489       -14.5170
 160   2.0000      -0.533245       -14.5103
 161   2.0000      -0.528488       -14.3809
 162   2.0000      -0.523047       -14.2328
 163   2.0000      -0.518603       -14.1119
 164   2.0000      -0.517739       -14.0884
 165   2.0000      -0.516382       -14.0515
 166   2.0000      -0.515530       -14.0283
 167   2.0000      -0.506807       -13.7909
 168   2.0000      -0.506075       -13.7710
 169   2.0000      -0.503581       -13.7031
 170   2.0000      -0.500811       -13.6278
 171   2.0000      -0.499301       -13.5867
 172   2.0000      -0.497904       -13.5486
 173   2.0000      -0.495974       -13.4962
 174   2.0000      -0.493576       -13.4309
 175   2.0000      -0.490866       -13.3571
 176   2.0000      -0.490453       -13.3459
 177   2.0000      -0.488819       -13.3014
 178   2.0000      -0.488586       -13.2951
 179   2.0000      -0.488485       -13.2924
 180   2.0000      -0.487851       -13.2751
 181   2.0000      -0.481813       -13.1108
 182   2.0000      -0.476114       -12.9557
 183   2.0000      -0.474827       -12.9207
 184   2.0000      -0.471142       -12.8204
 185   2.0000      -0.470567       -12.8048
 186   2.0000      -0.469752       -12.7826
 187   2.0000      -0.457948       -12.4614
 188   2.0000      -0.449911       -12.2427
 189   2.0000      -0.445103       -12.1119
 190   2.0000      -0.439684       -11.9644
 191   2.0000      -0.433720       -11.8021
 192   2.0000      -0.430780       -11.7221
 193   2.0000      -0.430221       -11.7069
 194   2.0000      -0.426839       -11.6149
 195   2.0000      -0.426123       -11.5954
 196   2.0000      -0.425548       -11.5798
 197   2.0000      -0.424805       -11.5595
 198   2.0000      -0.423970       -11.5368
 199   2.0000      -0.422651       -11.5009
 200   2.0000      -0.419157       -11.4058
 201   2.0000      -0.417702       -11.3663
 202   2.0000      -0.416998       -11.3471
 203   2.0000      -0.416835       -11.3427
 204   2.0000      -0.413780       -11.2595
 205   2.0000      -0.412822       -11.2335
 206   2.0000      -0.410955       -11.1827
 207   2.0000      -0.406084       -11.0501
 208   2.0000      -0.405738       -11.0407
 209   2.0000      -0.405360       -11.0304
 210   2.0000      -0.402271       -10.9464
 211   2.0000      -0.397353       -10.8125
 212   2.0000      -0.383369       -10.4320
 213   2.0000      -0.372382       -10.1330
 214   2.0000      -0.346755        -9.4357
 215   2.0000      -0.342217        -9.3122
 216   2.0000      -0.331151        -9.0111
 217   2.0000      -0.327686        -8.9168
 218   2.0000      -0.326887        -8.8950
 219   2.0000      -0.325575        -8.8593
 220   2.0000      -0.324619        -8.8333
 221   2.0000      -0.323840        -8.8121
 222   2.0000      -0.322704        -8.7812
 223   2.0000      -0.318697        -8.6722
 224   2.0000      -0.311397        -8.4735
 225   2.0000      -0.304833        -8.2949
 226   2.0000      -0.277453        -7.5499
 227   2.0000      -0.269599        -7.3362
 228   2.0000      -0.266659        -7.2562
 229   2.0000      -0.266528        -7.2526
 230   2.0000      -0.259407        -7.0588
 231   0.0000      -0.090945        -2.4747
 232   0.0000      -0.087781        -2.3886
 233   0.0000      -0.078154        -2.1267
 234   0.0000      -0.039962        -1.0874
 235   0.0000      -0.036529        -0.9940

MULLIKEN ATOMIC CHARGES
-----------------------
   0 C :    0.014867
   1 C :    0.049357
   2 C :   -0.154680
   3 C :    0.019813
   4 C :    0.016000
   5 C :   -0.013640
   6 C :   -0.008042
   7 C :    0.001019
   8 C :    0.018558
   9 C :    0.012394
  10 C :    0.039863
  11 C :   -0.145049
  12 C :    0.046406
  13 C :   -0.011062
  14 C :   -0.016600
  15 C :    0.008467
  16 C :   -0.003292
  17 C :    0.004283
  18 C :   -0.010534
  19 C :   -0.008067
  20 C :    0.002606
  21 C :    0.009493
  22 C :   -0.007670
  23 C :   -0.013365
  24 C :    0.007515
  25 C :   -0.006352
  26 C :    0.006666
  27 C :   -0.006500
  28 C :    0.000503
  29 C :    0.002871
  30 C :   -0.000999
  31 C :   -0.000410
  32 C :   -0.004697
  33 C :    0.002002
  34 C :   -0.005815
  35 C :   -0.001318
  36 C :   -0.000839
  37 C :   -0.002738
  38 C :   -0.005745
  39 C :   -0.002203
  40 C :    0.003389
  41 C :   -0.009222
  42 C :    0.001184
  43 C :   -0.004508
  44 C :    0.001135
  45 C :   -0.002562
  46 C :   -0.000624
  47 C :    0.002116
  48 C :    0.000874
  49 C :   -0.002838
  50 C :   -0.002616
  51 C :    0.003293
  52 C :   -0.006302
  53 C :   -0.000405
  54 C :    0.002747
  55 C :   -0.000831
  56 C :   -0.014102
  57 C :   -0.011982
  58 C :   -0.001885
  59 C :   -0.005702
  60 C :   -0.023485
  61 C :    0.223433
  62 C :   -0.010674
  63 C :    0.031128
  64 C :    0.019940
  65 C :    0.029054
  66 C :    0.019726
  67 C :    0.017173
  68 H :   -0.015521
  69 H :   -0.013331
  70 H :   -0.009205
  71 H :   -0.023002
  72 H :   -0.015590
  73 C :   -0.043426
  74 H :   -0.005788
  75 H :   -0.008383
  76 H :    0.019773
  77 C :    0.046665
  78 H :    0.021082
  79 H :    0.029174
  80 H :    0.031644
  81 C :    0.137182
  82 O :   -0.218731
  83 O :   -0.303127
  84 C :    0.185024
  85 H :    0.032120
  86 H :    0.030845
  87 H :    0.032080
Sum of atomic charges:   -0.0000000

LOEWDIN ATOMIC CHARGES
----------------------
   0 C :    0.001030
   1 C :    0.009788
   2 C :   -0.001993
   3 C :    0.012405
   4 C :   -0.000917
   5 C :   -0.005890
   6 C :   -0.006869
   7 C :   -0.001694
   8 C :   -0.006573
   9 C :   -0.005787
  10 C :    0.012745
  11 C :   -0.000764
  12 C :    0.009665
  13 C :   -0.017189
  14 C :   -0.017414
  15 C :   -0.003278
  16 C :    0.002024
  17 C :   -0.003407
  18 C :   -0.006263
  19 C :   -0.006086
  20 C :   -0.000346
  21 C :   -0.001350
  22 C :   -0.006411
  23 C :   -0.006724
  24 C :   -0.001658
  25 C :    0.003113
  26 C :   -0.000847
  27 C :   -0.002625
  28 C :   -0.000059
  29 C :   -0.001223
  30 C :   -0.000040
  31 C :   -0.001211
  32 C :   -0.000773
  33 C :   -0.000653
  34 C :   -0.002389
  35 C :   -0.000390
  36 C :   -0.001379
  37 C :   -0.000099
  38 C :   -0.001072
  39 C :   -0.001557
  40 C :   -0.000329
  41 C :   -0.002390
  42 C :   -0.000657
  43 C :   -0.002399
  44 C :   -0.000942
  45 C :   -0.001043
  46 C :   -0.000809
  47 C :    0.000049
  48 C :   -0.000110
  49 C :   -0.001177
  50 C :   -0.001000
  51 C :   -0.000731
  52 C :   -0.000894
  53 C :    0.000059
  54 C :   -0.001226
  55 C :   -0.000227
  56 C :   -0.005994
  57 C :   -0.005394
  58 C :   -0.000510
  59 C :    0.000166
  60 C :   -0.003452
  61 C :   -0.006963
  62 C :   -0.019787
  63 C :   -0.014433
  64 C :   -0.020422
  65 C :   -0.021452
  66 C :   -0.021676
  67 C :   -0.016116
  68 H :    0.029488
  69 H :    0.028395
  70 H :    0.030081
  71 H :    0.027172
  72 H :    0.028610
  73 C :   -0.026696
  74 H :    0.029303
  75 H :    0.025340
  76 H :    0.026985
  77 C :   -0.056030
  78 H :    0.028578
  79 H :    0.040261
  80 H :    0.042609
  81 C :    0.085412
  82 O :   -0.174952
  83 O :   -0.100426
  84 C :    0.080404
  85 H :    0.024875
  86 H :    0.022322
  87 H :    0.022291

  Mayer bond orders larger than 0.100000
B(  0-C ,  1-C ) :   1.2349 B(  0-C ,  4-C ) :   1.1931 B(  0-C , 57-C ) :   1.4285
B(  1-C ,  2-C ) :   1.0519 B(  1-C , 14-C ) :   1.5257 B(  2-C ,  3-C ) :   1.0633
B(  2-C , 11-C ) :   0.7685 B(  2-C , 60-C ) :   0.8438 B(  3-C ,  4-C ) :   1.2336
B(  3-C ,  8-C ) :   1.5169 B(  4-C ,  5-C ) :   1.4267 B(  5-C ,  6-C ) :   1.2246
B(  5-C , 59-C ) :   1.1908 B(  6-C ,  7-C ) :   1.4451 B(  6-C , 28-C ) :   1.1958
B(  7-C ,  8-C ) :   1.2210 B(  7-C , 25-C ) :   1.1891 B(  8-C ,  9-C ) :   1.1246
B(  9-C , 10-C ) :   1.5259 B(  9-C , 24-C ) :   1.2174 B( 10-C , 11-C ) :   1.0663
B( 10-C , 21-C ) :   1.2325 B( 11-C , 12-C ) :   1.0543 B( 11-C , 60-C ) :   0.8422
B( 12-C , 13-C ) :   1.5187 B( 12-C , 20-C ) :   1.2407 B( 13-C , 14-C ) :   1.1103
B( 13-C , 17-C ) :   1.2264 B( 14-C , 15-C ) :   1.2210 B( 15-C , 16-C ) :   1.1921
B( 15-C , 56-C ) :   1.4489 B( 16-C , 17-C ) :   1.1879 B( 16-C , 42-C ) :   1.4694
B( 17-C , 18-C ) :   1.4480 B( 18-C , 19-C ) :   1.2206 B( 18-C , 40-C ) :   1.1966
B( 19-C , 20-C ) :   1.4265 B( 19-C , 38-C ) :   1.1928 B( 20-C , 21-C ) :   1.1907
B( 21-C , 22-C ) :   1.4269 B( 22-C , 23-C ) :   1.2218 B( 22-C , 37-C ) :   1.1909
B( 23-C , 24-C ) :   1.4441 B( 23-C , 35-C ) :   1.1995 B( 24-C , 25-C ) :   1.1905
B( 25-C , 26-C ) :   1.4711 B( 26-C , 27-C ) :   1.1885 B( 26-C , 34-C ) :   1.1922
B( 27-C , 28-C ) :   1.4657 B( 27-C , 32-C ) :   1.2047 B( 28-C , 29-C ) :   1.1952
B( 29-C , 30-C ) :   1.4653 B( 29-C , 59-C ) :   1.1969 B( 30-C , 31-C ) :   1.1977
B( 30-C , 53-C ) :   1.1928 B( 31-C , 32-C ) :   1.4645 B( 31-C , 51-C ) :   1.1944
B( 32-C , 33-C ) :   1.1881 B( 33-C , 34-C ) :   1.1999 B( 33-C , 49-C ) :   1.4649
B( 34-C , 35-C ) :   1.4657 B( 35-C , 36-C ) :   1.1927 B( 36-C , 37-C ) :   1.1993
B( 36-C , 48-C ) :   1.4662 B( 37-C , 38-C ) :   1.4736 B( 38-C , 39-C ) :   1.1955
B( 39-C , 40-C ) :   1.1964 B( 39-C , 47-C ) :   1.4666 B( 40-C , 41-C ) :   1.4653
B( 41-C , 42-C ) :   1.1930 B( 41-C , 45-C ) :   1.2000 B( 42-C , 43-C ) :   1.1929
B( 43-C , 44-C ) :   1.2000 B( 43-C , 55-C ) :   1.4631 B( 44-C , 45-C ) :   1.1913
B( 44-C , 52-C ) :   1.4651 B( 45-C , 46-C ) :   1.4625 B( 46-C , 47-C ) :   1.1979
B( 46-C , 50-C ) :   1.1943 B( 47-C , 48-C ) :   1.1925 B( 48-C , 49-C ) :   1.1970
B( 49-C , 50-C ) :   1.1954 B( 50-C , 51-C ) :   1.4661 B( 51-C , 52-C ) :   1.1934
B( 52-C , 53-C ) :   1.1974 B( 53-C , 54-C ) :   1.4664 B( 54-C , 55-C ) :   1.1946
B( 54-C , 58-C ) :   1.1950 B( 55-C , 56-C ) :   1.2007 B( 56-C , 57-C ) :   1.2173
B( 57-C , 58-C ) :   1.1951 B( 58-C , 59-C ) :   1.4735 B( 60-C , 61-C ) :   1.0918
B( 60-C , 62-C ) :   0.9902 B( 61-C , 73-C ) :   1.0956 B( 61-C , 74-H ) :   0.9032
B( 61-C , 75-H ) :   0.8911 B( 62-C , 63-C ) :   1.4076 B( 62-C , 67-C ) :   1.4010
B( 63-C , 64-C ) :   1.3752 B( 63-C , 70-H ) :   0.9826 B( 64-C , 65-C ) :   1.3897
B( 64-C , 68-H ) :   0.9903 B( 65-C , 66-C ) :   1.3854 B( 65-C , 69-H ) :   0.9941
B( 66-C , 67-C ) :   1.3794 B( 66-C , 72-H ) :   0.9893 B( 67-C , 71-H ) :   0.9901
B( 73-C , 76-H ) :   0.9368 B( 73-C , 77-C ) :   1.0758 B( 73-C , 78-H ) :   0.9379
B( 77-C , 79-H ) :   0.9252 B( 77-C , 80-H ) :   0.9202 B( 77-C , 81-C ) :   0.9731
B( 81-C , 82-O ) :   2.0937 B( 81-C , 83-O ) :   1.2034 B( 83-O , 84-C ) :   0.9261
B( 84-C , 85-H ) :   0.9816 B( 84-C , 86-H ) :   0.9783 B( 84-C , 87-H ) :   0.9758

-----------------------------------------------------------------------------
         ABSORPTION SPECTRUM VIA TRANSITION ELECTRIC DIPOLE MOMENTS
-----------------------------------------------------------------------------
State   Energy  Wavelength   fosc         T2         TX        TY        TZ
        (cm-1)    (nm)                  (au**2)     (au)      (au)      (au)
-----------------------------------------------------------------------------
   0   16939.1    590.4   0.004321959   0.08400   0.04759  -0.15554   0.23987
   1   18218.1    548.9   0.000007068   0.00013   0.01125  -0.00021   0.00100
   2   18300.3    546.4   0.000003251   0.00006  -0.00254  -0.00626   0.00358
   3   18889.5    529.4   0.000003941   0.00007  -0.00703   0.00177   0.00402
   4   19096.6    523.7   0.000746929   0.01288   0.11078  -0.00362  -0.02433
   5   19290.5    518.4   0.000001569   0.00003  -0.00412  -0.00075   0.00304
   6   20085.9    497.9   0.000005272   0.00009  -0.00817  -0.00251   0.00365
   7   20659.6    484.0   0.000738822   0.01177  -0.01793   0.05296  -0.09299
   8   21019.8    475.7   0.001973227   0.03090   0.16958   0.04573  -0.00740
   9   21184.4    472.0   0.000197177   0.00306   0.04159  -0.02965  -0.02134
  10   21567.5    463.7   0.000006533   0.00010  -0.00055  -0.00756   0.00650
  11   22007.2    454.4   0.004289947   0.06417  -0.09033  -0.20740  -0.11402
  12   22067.4    453.2   0.001331175   0.01986   0.00662  -0.11921  -0.07486
  13   22665.5    441.2   0.004257772   0.06184   0.06526   0.21109   0.11413
  14   24091.6    415.1   0.020064154   0.27418  -0.09383   0.27048  -0.43842
  15   26564.5    376.4   0.012689114   0.15726   0.04811  -0.21620   0.32894
  16   27315.2    366.1   0.000075242   0.00091  -0.02748  -0.01228  -0.00076
  17   27532.9    363.2   0.002967024   0.03548  -0.18159   0.01843   0.04648
  18   28525.4    350.6   0.018814409   0.21714  -0.04648  -0.39373  -0.24486
  19   28928.3    345.7   0.000182117   0.00207  -0.03102  -0.02306  -0.02405
  20   29057.6    344.1   0.000187148   0.00212   0.02703   0.03330  -0.01675
  21   29159.9    342.9   0.000165746   0.00187  -0.02260  -0.01057  -0.03534
  22   29984.8    333.5   0.018645058   0.20471  -0.12141   0.42686  -0.08806
  23   30084.7    332.4   0.049241203   0.53884  -0.01731   0.36310  -0.63773
  24   30246.0    330.6   0.043883104   0.47764  -0.36752  -0.47077  -0.34777
  25   30448.8    328.4   0.001736725   0.01878   0.01095   0.06388  -0.12073
  26   30570.0    327.1   0.001639016   0.01765  -0.12900  -0.01692   0.02691
  27   31352.3    319.0   0.019989620   0.20990  -0.16668  -0.36729  -0.21729
  28   31523.9    317.2   0.001973673   0.02061   0.05839  -0.04281   0.12397
  29   31729.1    315.2   0.000871366   0.00904   0.03607  -0.06977   0.05359
  30   31800.2    314.5   0.027552880   0.28524   0.09540  -0.31309   0.42204
  31   32059.4    311.9   0.095623209   0.98194   0.17128  -0.46418   0.85857
  32   32079.5    311.7   0.002506305   0.02572  -0.09060  -0.09101   0.09607
  33   32174.5    310.8   0.029067565   0.29742  -0.11893   0.47989   0.23017
  34   32491.5    307.8   0.005225189   0.05294   0.19648   0.03086  -0.11569
  35   32563.6    307.1   0.002134820   0.02158   0.14191  -0.00945   0.03679
  36   32598.7    306.8   0.027297110   0.27567   0.50100   0.15160  -0.04109
  37   32793.0    304.9   0.000341067   0.00342  -0.02896   0.01742   0.04777
  38   33050.0    302.6   0.005778182   0.05756   0.00184  -0.21434  -0.10776
  39   33172.2    301.5   0.001167336   0.01159  -0.06735  -0.03220   0.07754
  40   33263.7    300.6   0.035082842   0.34722   0.55819  -0.00583  -0.18869
  41   33310.3    300.2   0.013325605   0.13170  -0.34871   0.09896   0.01755
  42   33479.7    298.7   0.002614662   0.02571   0.07550  -0.09540   0.10445
  43   33701.3    296.7   0.006204454   0.06061   0.15746  -0.12969  -0.13782
  44   33873.2    295.2   0.023303191   0.22648  -0.24669   0.32046   0.25086
  45   34013.2    294.0   0.000287386   0.00278   0.04102  -0.02969   0.01475
  46   34306.3    291.5   0.051976163   0.49878   0.67564  -0.08452  -0.18746
  47   34340.7    291.2   0.217590560   2.08596   1.36965  -0.20554  -0.40961
  48   34542.1    289.5   0.006296114   0.06001   0.18858  -0.07494  -0.13722
  49   34824.7    287.2   0.033600211   0.31764   0.55856   0.06781   0.03234
  50   34833.6    287.1   0.179544088   1.69687   1.18404   0.54281   0.01682
  51   34973.6    285.9   0.009872867   0.09293  -0.18794  -0.21724  -0.10207
  52   35301.7    283.3   0.011858513   0.11059  -0.10000  -0.00741  -0.31707
  53   35371.2    282.7   0.194897918   1.81398  -0.57243   1.00989   0.68296
  54   35903.9    278.5   0.102244775   0.93751   0.93825   0.22126  -0.09078
  55   36058.4    277.3   0.025799593   0.23555   0.10860  -0.29074   0.37313
  56   36281.0    275.6   0.116900029   1.06074  -0.02890  -0.91298  -0.47579
  57   36368.8    275.0   0.009011319   0.08157   0.00720   0.06063   0.27900
  58   36662.7    272.8   0.070725872   0.63508   0.21903   0.42328   0.63870
  59   36712.8    272.4   0.120776948   1.08303   0.15740  -0.64511   0.80130
  60   37142.9    269.2   0.088917620   0.78811   0.26236  -0.32658   0.78270
  61   37193.3    268.9   0.048482753   0.42914  -0.16093  -0.59078  -0.23286
  62   37306.6    268.0   0.020530833   0.18117   0.10235  -0.20158   0.36064
  63   37380.6    267.5   0.029344576   0.25844   0.07842   0.43678  -0.24802
  64   37859.9    264.1   0.002016018   0.01753   0.01754   0.07903  -0.10477
  65   38613.4    259.0   0.000183751   0.00157  -0.02876  -0.02706   0.00262
  66   39004.4    256.4   0.000089203   0.00075  -0.01444  -0.01600   0.01699
  67   39436.2    253.6   0.009077311   0.07578   0.25807   0.08826  -0.03724
  68   39708.1    251.8   0.032451012   0.26905  -0.13080   0.25568  -0.43193
  69   39866.5    250.8   0.000070258   0.00058   0.02190  -0.00761   0.00653
  70   39943.0    250.4   0.014739935   0.12149  -0.34679   0.02909   0.01936
  71   39957.9    250.3   0.002308715   0.01902   0.07061   0.05373  -0.10559
  72   40020.3    249.9   0.130991914   1.07756   0.99274  -0.09480  -0.28817

FINAL SINGLE POINT ENERGY     -2898.711010320586

DIPOLE MOMENT
-------------
                                X             Y             Z
Electronic contribution:    -72.09518      22.01049      13.73720
Nuclear contribution   :     73.42731     -22.32570     -14.49782
                        -----------------------------------------
Total Dipole Moment    :      1.33213      -0.31521      -0.76062
                        -----------------------------------------
Magnitude (a.u.)       :      1.56604
Magnitude (Debye)      :      3.98056

Rotational constants in cm-1:     0.002214     0.001169     0.001072
Rotational constants in MHz :    66.386768    35.039189    32.136526

                             ****ORCA TERMINATED NORMALLY****
TOTAL RUN TIME: 0 days 1 hours 23 minutes 7 seconds 603 msec
