                         Program Version 4.2.0 -  RELEASE  -
|  1> # ORCA input file
|  2> # PCBM.out: Geometry 9
|  3> ! CAM-B3LYP def2-SVP def2/J RIJCOSX Grid4 TightSCF
|  4> %maxcore 5000
|  5> %tddft
|  6>     Mode sTDDFT
|  7>     Ethresh 5.0
|  8>     maxcore 5000
|  9> end
| 10> * xyz 0 1
| 11>    C        0.36771        -2.43092         1.23868
| 12>    C        0.77804        -2.29688        -0.14141
| 13>    C        1.53282        -1.01517        -0.28437
| 14>    C        1.30375        -0.28798         0.99795
| 15>    C        0.69255        -1.19859         1.93664
| 16>    C       -0.14043        -0.72974         2.95907
| 17>    C       -0.43291         0.68521         3.04127
| 18>    C        0.12358         1.56128         2.09921
| 19>    C        1.00770         1.06518         1.06048
| 20>    C        0.73328         1.83598        -0.16923
| 21>    C        0.76733         1.22475        -1.41408
| 22>    C        1.23331        -0.17886        -1.62404
| 23>    C        0.23405        -0.78204        -2.55338
| 24>    C       -0.30239        -2.04967        -2.37377
| 25>    C       -0.02488        -2.82182        -1.14467
| 26>    C       -1.23553        -3.54624        -0.79898
| 27>    C       -2.25226        -3.23978        -1.79374
| 28>    C       -1.67720        -2.31663        -2.75950
| 29>    C       -2.47181        -1.30244        -3.31001
| 30>    C       -1.92048         0.02616        -3.47135
| 31>    C       -0.60218         0.27600        -3.07301
| 32>    C       -0.27430         1.50760        -2.37425
| 33>    C       -1.27676         2.44595        -2.10031
| 34>    C       -1.29825         3.10464        -0.81225
| 35>    C       -0.31610         2.79231         0.13813
| 36>    C       -0.69073         2.62720         1.53504
| 37>    C       -2.02377         2.77482         1.92787
| 38>    C       -2.60348         1.85585         2.89818
| 39>    C       -1.82370         0.83234         3.44356
| 40>    C       -2.38835        -0.50097         3.61276
| 41>    C       -3.70775        -0.75645         3.22645
| 42>    C       -4.51798         0.31151         2.65995
| 43>    C       -3.97676         1.59105         2.50046
| 44>    C       -4.24886         2.35183         1.28723
| 45>    C       -3.04448         3.08617         0.93604
| 46>    C       -2.68887         3.24959        -0.40603
| 47>    C       -3.52629         2.67715        -1.45268
| 48>    C       -2.65150         2.17925        -2.50313
| 49>    C       -2.96654         0.99613        -3.17510
| 50>    C       -4.17094         0.25738        -2.82658
| 51>    C       -3.86402        -1.16537        -2.90938
| 52>    C       -4.41302        -2.05330        -1.97990
| 53>    C       -3.59207        -3.11601        -1.41446
| 54>    C       -3.97251        -3.28550        -0.01809
| 55>    C       -5.01846        -2.32034         0.28164
| 56>    C       -5.29031        -1.55900        -0.93135
| 57>    C       -5.58230        -0.19393        -0.84929
| 58>    C       -5.01096         0.73287        -1.81530
| 59>    C       -4.68323         1.96782        -1.11530
| 60>    C       -5.05169         1.80244         0.28292
| 61>    C       -5.60918         0.46754         0.44722
| 62>    C       -5.34878        -0.26219         1.61050
| 63>    C       -5.04959        -1.68471         1.52693
| 64>    C       -4.03575        -1.99107         2.52534
| 65>    C       -3.03207        -2.92221         2.23914
| 66>    C       -2.99855        -3.58208         0.94000
| 67>    C       -1.60524        -3.72155         0.54157
| 68>    C       -0.78362        -3.14711         1.58535
| 69>    C       -1.65894        -2.65272         2.63943
| 70>    C       -1.34451        -1.46962         3.31181
| 71>    C        2.60837        -0.71219        -1.29726
| 72>    C        3.13968        -1.88572        -2.11697
| 73>    C        3.65192         0.30575        -0.91521
| 74>    C        4.34371         0.21802         0.29967
| 75>    C        5.33534         1.14913         0.62002
| 76>    C        5.64864         2.17637        -0.27410
| 77>    C        4.96508         2.26887        -1.49086
| 78>    C        3.97331         1.33823        -1.80744
| 79>    H        5.86254         1.07281         1.57340
| 80>    H        6.42113         2.90630        -0.02042
| 81>    H        4.09706        -0.57775         1.00494
| 82>    H        3.42902         1.41840        -2.75156
| 83>    H        5.20201         3.07014        -2.19483
| 84>    C        3.94343        -2.87170        -1.27207
| 85>    H        3.75971        -1.47648        -2.93214
| 86>    H        2.30584        -2.41540        -2.59955
| 87>    H        3.31155        -3.26133        -0.45853
| 88>    C        4.47418        -4.04597        -2.08483
| 89>    H        4.78310        -2.35818        -0.77756
| 90>    H        5.18379        -3.72405        -2.86523
| 91>    H        3.65713        -4.55708        -2.62604
| 92>    C        5.15888        -5.08414        -1.22338
| 93>    O        5.15402        -5.10418        -0.01655
| 94>    O        5.77912        -6.01188        -1.97492
| 95>    C        6.45141        -7.04878        -1.26138
| 96>    H        6.95116        -7.66889        -2.01610
| 97>    H        5.73566        -7.65397        -0.68331
| 98>    H        7.18900        -6.62654        -0.56256
| 99> *
|100>
|101>                          ****END OF INPUT****

CARTESIAN COORDINATES (ANGSTROEM)
---------------------------------
  C      0.367710   -2.430920    1.238680
  C      0.778040   -2.296880   -0.141410
  C      1.532820   -1.015170   -0.284370
  C      1.303750   -0.287980    0.997950
  C      0.692550   -1.198590    1.936640
  C     -0.140430   -0.729740    2.959070
  C     -0.432910    0.685210    3.041270
  C      0.123580    1.561280    2.099210
  C      1.007700    1.065180    1.060480
  C      0.733280    1.835980   -0.169230
  C      0.767330    1.224750   -1.414080
  C      1.233310   -0.178860   -1.624040
  C      0.234050   -0.782040   -2.553380
  C     -0.302390   -2.049670   -2.373770
  C     -0.024880   -2.821820   -1.144670
  C     -1.235530   -3.546240   -0.798980
  C     -2.252260   -3.239780   -1.793740
  C     -1.677200   -2.316630   -2.759500
  C     -2.471810   -1.302440   -3.310010
  C     -1.920480    0.026160   -3.471350
  C     -0.602180    0.276000   -3.073010
  C     -0.274300    1.507600   -2.374250
  C     -1.276760    2.445950   -2.100310
  C     -1.298250    3.104640   -0.812250
  C     -0.316100    2.792310    0.138130
  C     -0.690730    2.627200    1.535040
  C     -2.023770    2.774820    1.927870
  C     -2.603480    1.855850    2.898180
  C     -1.823700    0.832340    3.443560
  C     -2.388350   -0.500970    3.612760
  C     -3.707750   -0.756450    3.226450
  C     -4.517980    0.311510    2.659950
  C     -3.976760    1.591050    2.500460
  C     -4.248860    2.351830    1.287230
  C     -3.044480    3.086170    0.936040
  C     -2.688870    3.249590   -0.406030
  C     -3.526290    2.677150   -1.452680
  C     -2.651500    2.179250   -2.503130
  C     -2.966540    0.996130   -3.175100
  C     -4.170940    0.257380   -2.826580
  C     -3.864020   -1.165370   -2.909380
  C     -4.413020   -2.053300   -1.979900
  C     -3.592070   -3.116010   -1.414460
  C     -3.972510   -3.285500   -0.018090
  C     -5.018460   -2.320340    0.281640
  C     -5.290310   -1.559000   -0.931350
  C     -5.582300   -0.193930   -0.849290
  C     -5.010960    0.732870   -1.815300
  C     -4.683230    1.967820   -1.115300
  C     -5.051690    1.802440    0.282920
  C     -5.609180    0.467540    0.447220
  C     -5.348780   -0.262190    1.610500
  C     -5.049590   -1.684710    1.526930
  C     -4.035750   -1.991070    2.525340
  C     -3.032070   -2.922210    2.239140
  C     -2.998550   -3.582080    0.940000
  C     -1.605240   -3.721550    0.541570
  C     -0.783620   -3.147110    1.585350
  C     -1.658940   -2.652720    2.639430
  C     -1.344510   -1.469620    3.311810
  C      2.608370   -0.712190   -1.297260
  C      3.139680   -1.885720   -2.116970
  C      3.651920    0.305750   -0.915210
  C      4.343710    0.218020    0.299670
  C      5.335340    1.149130    0.620020
  C      5.648640    2.176370   -0.274100
  C      4.965080    2.268870   -1.490860
  C      3.973310    1.338230   -1.807440
  H      5.862540    1.072810    1.573400
  H      6.421130    2.906300   -0.020420
  H      4.097060   -0.577750    1.004940
  H      3.429020    1.418400   -2.751560
  H      5.202010    3.070140   -2.194830
  C      3.943430   -2.871700   -1.272070
  H      3.759710   -1.476480   -2.932140
  H      2.305840   -2.415400   -2.599550
  H      3.311550   -3.261330   -0.458530
  C      4.474180   -4.045970   -2.084830
  H      4.783100   -2.358180   -0.777560
  H      5.183790   -3.724050   -2.865230
  H      3.657130   -4.557080   -2.626040
  C      5.158880   -5.084140   -1.223380
  O      5.154020   -5.104180   -0.016550
  O      5.779120   -6.011880   -1.974920
  C      6.451410   -7.048780   -1.261380
  H      6.951160   -7.668890   -2.016100
  H      5.735660   -7.653970   -0.683310
  H      7.189000   -6.626540   -0.562560

 Total Charge           Charge          ....    0
 Multiplicity           Mult            ....    1
 Number of Electrons    NEL             ....  462
 Basis Dimension        Dim             .... 1106

ORBITAL ENERGIES
----------------

  NO   OCC          E(Eh)            E(eV)
   0   2.0000     -19.253498      -523.9143
   1   2.0000     -19.198726      -522.4239
   2   2.0000     -10.391896      -282.7779
   3   2.0000     -10.321198      -280.8541
   4   2.0000     -10.320521      -280.8356
   5   2.0000     -10.319811      -280.8163
   6   2.0000     -10.315123      -280.6888
   7   2.0000     -10.309029      -280.5229
   8   2.0000     -10.308403      -280.5059
   9   2.0000     -10.306961      -280.4667
  10   2.0000     -10.306496      -280.4540
  11   2.0000     -10.305623      -280.4303
  12   2.0000     -10.305420      -280.4247
  13   2.0000     -10.305252      -280.4202
  14   2.0000     -10.305144      -280.4172
  15   2.0000     -10.305095      -280.4159
  16   2.0000     -10.305032      -280.4142
  17   2.0000     -10.304670      -280.4043
  18   2.0000     -10.304663      -280.4041
  19   2.0000     -10.304620      -280.4030
  20   2.0000     -10.304576      -280.4018
  21   2.0000     -10.304550      -280.4011
  22   2.0000     -10.304532      -280.4006
  23   2.0000     -10.304528      -280.4005
  24   2.0000     -10.304459      -280.3986
  25   2.0000     -10.304384      -280.3966
  26   2.0000     -10.304347      -280.3955
  27   2.0000     -10.304271      -280.3935
  28   2.0000     -10.304221      -280.3921
  29   2.0000     -10.304206      -280.3917
  30   2.0000     -10.304194      -280.3914
  31   2.0000     -10.304188      -280.3912
  32   2.0000     -10.304134      -280.3897
  33   2.0000     -10.304121      -280.3894
  34   2.0000     -10.304063      -280.3878
  35   2.0000     -10.303944      -280.3846
  36   2.0000     -10.303928      -280.3841
  37   2.0000     -10.303903      -280.3835
  38   2.0000     -10.303846      -280.3819
  39   2.0000     -10.303826      -280.3814
  40   2.0000     -10.303803      -280.3807
  41   2.0000     -10.303782      -280.3802
  42   2.0000     -10.303741      -280.3791
  43   2.0000     -10.303704      -280.3780
  44   2.0000     -10.303680      -280.3774
  45   2.0000     -10.303615      -280.3756
  46   2.0000     -10.303571      -280.3744
  47   2.0000     -10.303494      -280.3723
  48   2.0000     -10.303479      -280.3719
  49   2.0000     -10.303466      -280.3716
  50   2.0000     -10.303424      -280.3704
  51   2.0000     -10.303404      -280.3699
  52   2.0000     -10.303227      -280.3650
  53   2.0000     -10.302998      -280.3588
  54   2.0000     -10.302895      -280.3560
  55   2.0000     -10.302427      -280.3433
  56   2.0000     -10.302161      -280.3360
  57   2.0000     -10.302005      -280.3318
  58   2.0000     -10.301760      -280.3251
  59   2.0000     -10.301741      -280.3246
  60   2.0000     -10.301528      -280.3188
  61   2.0000     -10.301361      -280.3143
  62   2.0000     -10.300968      -280.3036
  63   2.0000     -10.300882      -280.3012
  64   2.0000     -10.300427      -280.2889
  65   2.0000     -10.284574      -279.8575
  66   2.0000     -10.279207      -279.7114
  67   2.0000     -10.278411      -279.6898
  68   2.0000     -10.275623      -279.6139
  69   2.0000     -10.274960      -279.5959
  70   2.0000     -10.274667      -279.5879
  71   2.0000     -10.274167      -279.5743
  72   2.0000     -10.273828      -279.5651
  73   2.0000     -10.267239      -279.3858
  74   2.0000      -1.181622       -32.1536
  75   2.0000      -1.088572       -29.6215
  76   2.0000      -1.051292       -28.6071
  77   2.0000      -1.035453       -28.1761
  78   2.0000      -1.029518       -28.0146
  79   2.0000      -1.028733       -27.9932
  80   2.0000      -1.003696       -27.3120
  81   2.0000      -0.991660       -26.9844
  82   2.0000      -0.990594       -26.9554
  83   2.0000      -0.990317       -26.9479
  84   2.0000      -0.989931       -26.9374
  85   2.0000      -0.962888       -26.2015
  86   2.0000      -0.951035       -25.8790
  87   2.0000      -0.949698       -25.8426
  88   2.0000      -0.946103       -25.7448
  89   2.0000      -0.933476       -25.4012
  90   2.0000      -0.918428       -24.9917
  91   2.0000      -0.916775       -24.9467
  92   2.0000      -0.916728       -24.9454
  93   2.0000      -0.899537       -24.4776
  94   2.0000      -0.883754       -24.0482
  95   2.0000      -0.866823       -23.5875
  96   2.0000      -0.866699       -23.5841
  97   2.0000      -0.865835       -23.5606
  98   2.0000      -0.865156       -23.5421
  99   2.0000      -0.858338       -23.3566
 100   2.0000      -0.848390       -23.0859
 101   2.0000      -0.848304       -23.0835
 102   2.0000      -0.847497       -23.0616
 103   2.0000      -0.841926       -22.9100
 104   2.0000      -0.828995       -22.5581
 105   2.0000      -0.825588       -22.4654
 106   2.0000      -0.809851       -22.0372
 107   2.0000      -0.790609       -21.5136
 108   2.0000      -0.790239       -21.5035
 109   2.0000      -0.787939       -21.4409
 110   2.0000      -0.787764       -21.4361
 111   2.0000      -0.781690       -21.2709
 112   2.0000      -0.779940       -21.2232
 113   2.0000      -0.778208       -21.1761
 114   2.0000      -0.776375       -21.1262
 115   2.0000      -0.747534       -20.3414
 116   2.0000      -0.737113       -20.0579
 117   2.0000      -0.734851       -19.9963
 118   2.0000      -0.722849       -19.6697
 119   2.0000      -0.702502       -19.1160
 120   2.0000      -0.697036       -18.9673
 121   2.0000      -0.696193       -18.9444
 122   2.0000      -0.695793       -18.9335
 123   2.0000      -0.694692       -18.9035
 124   2.0000      -0.693676       -18.8759
 125   2.0000      -0.690942       -18.8015
 126   2.0000      -0.690691       -18.7947
 127   2.0000      -0.686118       -18.6702
 128   2.0000      -0.681207       -18.5366
 129   2.0000      -0.674131       -18.3440
 130   2.0000      -0.638555       -17.3760
 131   2.0000      -0.633838       -17.2476
 132   2.0000      -0.630377       -17.1534
 133   2.0000      -0.627300       -17.0697
 134   2.0000      -0.626671       -17.0526
 135   2.0000      -0.625445       -17.0192
 136   2.0000      -0.609038       -16.5728
 137   2.0000      -0.606437       -16.5020
 138   2.0000      -0.600089       -16.3292
 139   2.0000      -0.599178       -16.3045
 140   2.0000      -0.598570       -16.2879
 141   2.0000      -0.591340       -16.0912
 142   2.0000      -0.588256       -16.0072
 143   2.0000      -0.587968       -15.9994
 144   2.0000      -0.584747       -15.9118
 145   2.0000      -0.575772       -15.6676
 146   2.0000      -0.573796       -15.6138
 147   2.0000      -0.563262       -15.3271
 148   2.0000      -0.560883       -15.2624
 149   2.0000      -0.559237       -15.2176
 150   2.0000      -0.556690       -15.1483
 151   2.0000      -0.549973       -14.9655
 152   2.0000      -0.547894       -14.9089
 153   2.0000      -0.543313       -14.7843
 154   2.0000      -0.537610       -14.6291
 155   2.0000      -0.536199       -14.5907
 156   2.0000      -0.534412       -14.5421
 157   2.0000      -0.533817       -14.5259
 158   2.0000      -0.532580       -14.4922
 159   2.0000      -0.531066       -14.4510
 160   2.0000      -0.529932       -14.4202
 161   2.0000      -0.525794       -14.3076
 162   2.0000      -0.521517       -14.1912
 163   2.0000      -0.517078       -14.0704
 164   2.0000      -0.516001       -14.0411
 165   2.0000      -0.515439       -14.0258
 166   2.0000      -0.514097       -13.9893
 167   2.0000      -0.505812       -13.7638
 168   2.0000      -0.504920       -13.7396
 169   2.0000      -0.503071       -13.6893
 170   2.0000      -0.500335       -13.6148
 171   2.0000      -0.498116       -13.5544
 172   2.0000      -0.497248       -13.5308
 173   2.0000      -0.493258       -13.4222
 174   2.0000      -0.492262       -13.3951
 175   2.0000      -0.489601       -13.3227
 176   2.0000      -0.489068       -13.3082
 177   2.0000      -0.485905       -13.2221
 178   2.0000      -0.484988       -13.1972
 179   2.0000      -0.484726       -13.1901
 180   2.0000      -0.484231       -13.1766
 181   2.0000      -0.479113       -13.0373
 182   2.0000      -0.475407       -12.9365
 183   2.0000      -0.473141       -12.8748
 184   2.0000      -0.471394       -12.8273
 185   2.0000      -0.470365       -12.7993
 186   2.0000      -0.469732       -12.7821
 187   2.0000      -0.457481       -12.4487
 188   2.0000      -0.447527       -12.1778
 189   2.0000      -0.442729       -12.0473
 190   2.0000      -0.439237       -11.9522
 191   2.0000      -0.432768       -11.7762
 192   2.0000      -0.430148       -11.7049
 193   2.0000      -0.429475       -11.6866
 194   2.0000      -0.426452       -11.6044
 195   2.0000      -0.425000       -11.5648
 196   2.0000      -0.424711       -11.5570
 197   2.0000      -0.423216       -11.5163
 198   2.0000      -0.422828       -11.5057
 199   2.0000      -0.420641       -11.4462
 200   2.0000      -0.418909       -11.3991
 201   2.0000      -0.417696       -11.3661
 202   2.0000      -0.416617       -11.3367
 203   2.0000      -0.416484       -11.3331
 204   2.0000      -0.413943       -11.2640
 205   2.0000      -0.413037       -11.2393
 206   2.0000      -0.407422       -11.0865
 207   2.0000      -0.404779       -11.0146
 208   2.0000      -0.403904       -10.9908
 209   2.0000      -0.403575       -10.9818
 210   2.0000      -0.400750       -10.9050
 211   2.0000      -0.396349       -10.7852
 212   2.0000      -0.383778       -10.4431
 213   2.0000      -0.372138       -10.1264
 214   2.0000      -0.346581        -9.4310
 215   2.0000      -0.341080        -9.2813
 216   2.0000      -0.330388        -8.9903
 217   2.0000      -0.327177        -8.9029
 218   2.0000      -0.326797        -8.8926
 219   2.0000      -0.325214        -8.8495
 220   2.0000      -0.324230        -8.8227
 221   2.0000      -0.323076        -8.7913
 222   2.0000      -0.321794        -8.7565
 223   2.0000      -0.318091        -8.6557
 224   2.0000      -0.311012        -8.4631
 225   2.0000      -0.305284        -8.3072
 226   2.0000      -0.278010        -7.5650
 227   2.0000      -0.270949        -7.3729
 228   2.0000      -0.267961        -7.2916
 229   2.0000      -0.267722        -7.2851
 230   2.0000      -0.261100        -7.1049
 231   0.0000      -0.092189        -2.5086
 232   0.0000      -0.089079        -2.4240
 233   0.0000      -0.079926        -2.1749
 234   0.0000      -0.042858        -1.1662
 235   0.0000      -0.038999        -1.0612

MULLIKEN ATOMIC CHARGES
-----------------------
   0 C :    0.019273
   1 C :    0.047842
   2 C :   -0.159656
   3 C :    0.035673
   4 C :    0.011327
   5 C :   -0.012138
   6 C :   -0.005192
   7 C :    0.001340
   8 C :    0.010347
   9 C :    0.009336
  10 C :    0.044172
  11 C :   -0.152538
  12 C :    0.051361
  13 C :   -0.016434
  14 C :   -0.014124
  15 C :    0.006771
  16 C :   -0.004650
  17 C :    0.006789
  18 C :   -0.008924
  19 C :   -0.008347
  20 C :    0.002227
  21 C :    0.006478
  22 C :   -0.006529
  23 C :   -0.010843
  24 C :    0.008110
  25 C :   -0.007355
  26 C :    0.003729
  27 C :   -0.003161
  28 C :   -0.001936
  29 C :    0.003051
  30 C :   -0.000481
  31 C :   -0.001063
  32 C :   -0.004854
  33 C :    0.002956
  34 C :   -0.006032
  35 C :   -0.001015
  36 C :   -0.002053
  37 C :   -0.003342
  38 C :   -0.005691
  39 C :   -0.001164
  40 C :    0.001003
  41 C :   -0.006555
  42 C :   -0.001423
  43 C :   -0.001410
  44 C :   -0.000343
  45 C :   -0.003239
  46 C :    0.000605
  47 C :    0.000508
  48 C :    0.002190
  49 C :   -0.003370
  50 C :   -0.003106
  51 C :    0.002753
  52 C :   -0.004730
  53 C :   -0.001701
  54 C :    0.003931
  55 C :   -0.003867
  56 C :   -0.008460
  57 C :   -0.013048
  58 C :   -0.001743
  59 C :   -0.006353
  60 C :   -0.017632
  61 C :    0.203205
  62 C :   -0.007867
  63 C :    0.016783
  64 C :    0.010324
  65 C :    0.019424
  66 C :    0.010406
  67 C :    0.012276
  68 H :   -0.005958
  69 H :   -0.003647
  70 H :   -0.000643
  71 H :   -0.012997
  72 H :   -0.005788
  73 C :   -0.042826
  74 H :   -0.000484
  75 H :   -0.003310
  76 H :    0.027068
  77 C :    0.035855
  78 H :    0.019497
  79 H :    0.033279
  80 H :    0.035255
  81 C :    0.144361
  82 O :   -0.224803
  83 O :   -0.306080
  84 C :    0.171875
  85 H :    0.036328
  86 H :    0.035017
  87 H :    0.036180
Sum of atomic charges:   -0.0000000

LOEWDIN ATOMIC CHARGES
----------------------
   0 C :    0.001404
   1 C :    0.010112
   2 C :   -0.000572
   3 C :    0.011356
   4 C :   -0.000459
   5 C :   -0.005948
   6 C :   -0.006773
   7 C :   -0.001722
   8 C :   -0.006461
   9 C :   -0.005104
  10 C :    0.011335
  11 C :    0.000619
  12 C :    0.008129
  13 C :   -0.016706
  14 C :   -0.017179
  15 C :   -0.002507
  16 C :    0.001810
  17 C :   -0.003414
  18 C :   -0.006143
  19 C :   -0.006021
  20 C :   -0.000472
  21 C :   -0.001341
  22 C :   -0.006541
  23 C :   -0.006622
  24 C :   -0.001568
  25 C :    0.003043
  26 C :   -0.000850
  27 C :   -0.002816
  28 C :    0.000282
  29 C :   -0.001252
  30 C :   -0.000164
  31 C :   -0.001272
  32 C :   -0.000717
  33 C :   -0.000715
  34 C :   -0.002216
  35 C :   -0.000366
  36 C :   -0.001354
  37 C :   -0.000053
  38 C :   -0.001018
  39 C :   -0.001824
  40 C :   -0.000123
  41 C :   -0.002511
  42 C :   -0.000492
  43 C :   -0.002682
  44 C :   -0.000835
  45 C :   -0.000989
  46 C :   -0.000890
  47 C :    0.000133
  48 C :   -0.000372
  49 C :   -0.001149
  50 C :   -0.001070
  51 C :   -0.000769
  52 C :   -0.001094
  53 C :    0.000227
  54 C :   -0.001430
  55 C :    0.000303
  56 C :   -0.006194
  57 C :   -0.004537
  58 C :   -0.000329
  59 C :    0.000262
  60 C :   -0.003749
  61 C :   -0.010584
  62 C :   -0.019793
  63 C :   -0.018178
  64 C :   -0.023388
  65 C :   -0.023685
  66 C :   -0.024169
  67 C :   -0.018110
  68 H :    0.032035
  69 H :    0.031122
  70 H :    0.031918
  71 H :    0.029604
  72 H :    0.031415
  73 C :   -0.031102
  74 H :    0.030911
  75 H :    0.026923
  76 H :    0.029639
  77 C :   -0.059132
  78 H :    0.029556
  79 H :    0.041782
  80 H :    0.045798
  81 C :    0.091529
  82 O :   -0.180102
  83 O :   -0.105541
  84 C :    0.077580
  85 H :    0.026585
  86 H :    0.023926
  87 H :    0.023831

  Mayer bond orders larger than 0.100000
B(  0-C ,  1-C ) :   1.2266 B(  0-C ,  4-C ) :   1.1854 B(  0-C , 57-C ) :   1.4276
B(  1-C ,  2-C ) :   1.0493 B(  1-C , 14-C ) :   1.5257 B(  2-C ,  3-C ) :   1.0573
B(  2-C , 11-C ) :   0.7635 B(  2-C , 60-C ) :   0.8430 B(  3-C ,  4-C ) :   1.2278
B(  3-C ,  8-C ) :   1.5198 B(  4-C ,  5-C ) :   1.4248 B(  5-C ,  6-C ) :   1.2189
B(  5-C , 59-C ) :   1.1831 B(  6-C ,  7-C ) :   1.4421 B(  6-C , 28-C ) :   1.1887
B(  7-C ,  8-C ) :   1.2137 B(  7-C , 25-C ) :   1.1824 B(  8-C ,  9-C ) :   1.1155
B(  9-C , 10-C ) :   1.5276 B(  9-C , 24-C ) :   1.2115 B( 10-C , 11-C ) :   1.0599
B( 10-C , 21-C ) :   1.2259 B( 11-C , 12-C ) :   1.0488 B( 11-C , 60-C ) :   0.8448
B( 12-C , 13-C ) :   1.5195 B( 12-C , 20-C ) :   1.2338 B( 13-C , 14-C ) :   1.1038
B( 13-C , 17-C ) :   1.2185 B( 14-C , 15-C ) :   1.2138 B( 15-C , 16-C ) :   1.1849
B( 15-C , 56-C ) :   1.4457 B( 16-C , 17-C ) :   1.1815 B( 16-C , 42-C ) :   1.4680
B( 17-C , 18-C ) :   1.4448 B( 18-C , 19-C ) :   1.2151 B( 18-C , 40-C ) :   1.1895
B( 19-C , 20-C ) :   1.4254 B( 19-C , 38-C ) :   1.1843 B( 20-C , 21-C ) :   1.1827
B( 21-C , 22-C ) :   1.4249 B( 22-C , 23-C ) :   1.2172 B( 22-C , 37-C ) :   1.1825
B( 23-C , 24-C ) :   1.4410 B( 23-C , 35-C ) :   1.1919 B( 24-C , 25-C ) :   1.1829
B( 25-C , 26-C ) :   1.4701 B( 26-C , 27-C ) :   1.1814 B( 26-C , 34-C ) :   1.1843
B( 27-C , 28-C ) :   1.4637 B( 27-C , 32-C ) :   1.1969 B( 28-C , 29-C ) :   1.1880
B( 29-C , 30-C ) :   1.4627 B( 29-C , 59-C ) :   1.1896 B( 30-C , 31-C ) :   1.1908
B( 30-C , 53-C ) :   1.1860 B( 31-C , 32-C ) :   1.4629 B( 31-C , 51-C ) :   1.1869
B( 32-C , 33-C ) :   1.1811 B( 33-C , 34-C ) :   1.1928 B( 33-C , 49-C ) :   1.4628
B( 34-C , 35-C ) :   1.4637 B( 35-C , 36-C ) :   1.1861 B( 36-C , 37-C ) :   1.1919
B( 36-C , 48-C ) :   1.4632 B( 37-C , 38-C ) :   1.4717 B( 38-C , 39-C ) :   1.1886
B( 39-C , 40-C ) :   1.1890 B( 39-C , 47-C ) :   1.4641 B( 40-C , 41-C ) :   1.4633
B( 41-C , 42-C ) :   1.1857 B( 41-C , 45-C ) :   1.1925 B( 42-C , 43-C ) :   1.1850
B( 43-C , 44-C ) :   1.1931 B( 43-C , 55-C ) :   1.4614 B( 44-C , 45-C ) :   1.1842
B( 44-C , 52-C ) :   1.4629 B( 45-C , 46-C ) :   1.4603 B( 46-C , 47-C ) :   1.1907
B( 46-C , 50-C ) :   1.1867 B( 47-C , 48-C ) :   1.1861 B( 48-C , 49-C ) :   1.1903
B( 49-C , 50-C ) :   1.1879 B( 50-C , 51-C ) :   1.4648 B( 51-C , 52-C ) :   1.1862
B( 52-C , 53-C ) :   1.1904 B( 53-C , 54-C ) :   1.4637 B( 54-C , 55-C ) :   1.1882
B( 54-C , 58-C ) :   1.1875 B( 55-C , 56-C ) :   1.1929 B( 56-C , 57-C ) :   1.2121
B( 57-C , 58-C ) :   1.1867 B( 58-C , 59-C ) :   1.4713 B( 60-C , 61-C ) :   1.0876
B( 60-C , 62-C ) :   0.9927 B( 61-C , 73-C ) :   1.0907 B( 61-C , 74-H ) :   0.9064
B( 61-C , 75-H ) :   0.8956 B( 62-C , 63-C ) :   1.4091 B( 62-C , 67-C ) :   1.3991
B( 63-C , 64-C ) :   1.3780 B( 63-C , 70-H ) :   0.9780 B( 64-C , 65-C ) :   1.3943
B( 64-C , 68-H ) :   0.9855 B( 65-C , 66-C ) :   1.3854 B( 65-C , 69-H ) :   0.9890
B( 66-C , 67-C ) :   1.3855 B( 66-C , 72-H ) :   0.9852 B( 67-C , 71-H ) :   0.9842
B( 73-C , 76-H ) :   0.9348 B( 73-C , 77-C ) :   1.0709 B( 73-C , 78-H ) :   0.9380
B( 77-C , 79-H ) :   0.9270 B( 77-C , 80-H ) :   0.9193 B( 77-C , 81-C ) :   0.9761
B( 81-C , 82-O ) :   2.0853 B( 81-C , 83-O ) :   1.1973 B( 83-O , 84-C ) :   0.9247
B( 84-C , 85-H ) :   0.9813 B( 84-C , 86-H ) :   0.9776 B( 84-C , 87-H ) :   0.9754

-----------------------------------------------------------------------------
         ABSORPTION SPECTRUM VIA TRANSITION ELECTRIC DIPOLE MOMENTS
-----------------------------------------------------------------------------
State   Energy  Wavelength   fosc         T2         TX        TY        TZ
        (cm-1)    (nm)                  (au**2)     (au)      (au)      (au)
-----------------------------------------------------------------------------
   0   17113.2    584.3   0.004045055   0.07782  -0.05205   0.15065  -0.22893
   1   18323.3    545.8   0.000006748   0.00012  -0.01079   0.00199  -0.00093
   2   18450.9    542.0   0.000005386   0.00010   0.00823   0.00474  -0.00243
   3   18987.8    526.7   0.000008895   0.00015   0.00972  -0.00531  -0.00561
   4   19135.5    522.6   0.000649131   0.01117   0.10312   0.00053  -0.02311
   5   19393.8    515.6   0.000001561   0.00003  -0.00482   0.00101   0.00151
   6   20187.5    495.4   0.000002542   0.00004  -0.00590  -0.00117   0.00230
   7   20742.9    482.1   0.000894811   0.01420   0.01655  -0.05900   0.10221
   8   21046.3    475.1   0.001266783   0.01982  -0.13276  -0.04679  -0.00047
   9   21148.1    472.9   0.000528546   0.00823   0.08905  -0.00855  -0.01500
  10   21534.1    464.4   0.000008606   0.00013   0.00289   0.00744  -0.00824
  11   21968.8    455.2   0.003234884   0.04848   0.08545   0.17827   0.09692
  12   22012.3    454.3   0.002564123   0.03835  -0.01308  -0.16666  -0.10198
  13   22646.8    441.6   0.003874285   0.05632  -0.05850  -0.20133  -0.11120
  14   23920.0    418.1   0.020169795   0.27760  -0.10222   0.27695  -0.43640
  15   26320.5    379.9   0.010786325   0.13491   0.06157  -0.20079   0.30134
  16   27196.9    367.7   0.000255400   0.00309  -0.05392   0.00036   0.01355
  17   27227.0    367.3   0.002393088   0.02894  -0.16374   0.01322   0.04416
  18   28295.2    353.4   0.017397445   0.20242  -0.03953  -0.37968  -0.23811
  19   28673.7    348.8   0.000198331   0.00228  -0.03557  -0.02380  -0.02111
  20   28879.4    346.3   0.000107035   0.00122  -0.01338  -0.02716   0.01741
  21   28999.9    344.8   0.000392585   0.00446  -0.02099   0.01632  -0.06124
  22   29749.6    336.1   0.013326010   0.14747  -0.12815   0.35109   0.08818
  23   29852.5    335.0   0.065121061   0.71815   0.09314  -0.45582   0.70831
  24   29951.7    333.9   0.045275697   0.49765   0.36457   0.50616   0.32945
  25   30197.5    331.2   0.001332808   0.01453  -0.00469  -0.07512   0.09416
  26   30308.7    329.9   0.000705810   0.00767  -0.08721  -0.00773   0.00124
  27   31052.0    322.0   0.020986453   0.22250  -0.16400  -0.37632  -0.23235
  28   31288.9    319.6   0.002202733   0.02318  -0.05013   0.04657  -0.13599
  29   31400.9    318.5   0.000133714   0.00140  -0.02062   0.02732  -0.01517
  30   31592.0    316.5   0.018488645   0.19267  -0.09581   0.28012  -0.32407
  31   31726.4    315.2   0.022931052   0.23795  -0.16605   0.05775  -0.45502
  32   31736.6    315.1   0.077849873   0.80756  -0.12779   0.54603  -0.70219
  33   31911.6    313.4   0.028950335   0.29866   0.19889  -0.40880  -0.30329
  34   32250.4    310.1   0.002191072   0.02237  -0.01543  -0.09797  -0.11194
  35   32335.0    309.3   0.031630732   0.32204  -0.53533  -0.18458   0.03737
  36   32341.1    309.2   0.000354576   0.00361  -0.01800  -0.03940   0.04163
  37   32540.4    307.3   0.000480377   0.00486   0.05428  -0.01152  -0.04221
  38   32751.7    305.3   0.005578478   0.05607  -0.11495  -0.19124  -0.07929
  39   32873.1    304.2   0.001044628   0.01046  -0.04414  -0.02680   0.08829
  40   32982.3    303.2   0.011327768   0.11307  -0.27249  -0.05142   0.19020
  41   33039.5    302.7   0.045003749   0.44843  -0.64982   0.09494   0.13094
  42   33213.3    301.1   0.001854564   0.01838   0.08956  -0.06116   0.08137
  43   33363.5    299.7   0.012562899   0.12396  -0.24601   0.17991   0.17628
  44   33595.1    297.7   0.024276636   0.23790   0.24454  -0.33379  -0.25823
  45   33681.8    296.9   0.000202589   0.00198   0.00934   0.02058  -0.03833
  46   33951.5    294.5   0.013460509   0.13052  -0.34976   0.03514   0.08338
  47   34024.9    293.9   0.281038552   2.71922  -1.57026   0.17978   0.47032
  48   34182.8    292.5   0.003311392   0.03189  -0.11747   0.00010   0.13451
  49   34473.4    290.1   0.203190735   1.94042   1.25904   0.59149   0.07326
  50   34548.9    289.4   0.003005853   0.02864   0.05286  -0.15545  -0.04104
  51   34646.4    288.6   0.003970837   0.03773   0.00458  -0.15992  -0.11016
  52   34880.9    286.7   0.003084282   0.02911   0.07433  -0.01363   0.15297
  53   34999.5    285.7   0.204038048   1.91922  -0.50540   1.04828   0.75159
  54   35538.5    281.4   0.073362934   0.67960  -0.75952  -0.31355   0.06641
  55   35626.0    280.7   0.023590050   0.21799   0.19650  -0.19232   0.37734
  56   35900.5    278.5   0.091627947   0.84024  -0.01699   0.80016   0.44688
  57   36041.9    277.5   0.012860174   0.11747   0.04287  -0.04475   0.33709
  58   36260.9    275.8   0.119283200   1.08297   0.24032  -0.51024   0.87457
  59   36272.1    275.7   0.048967072   0.44443  -0.20733  -0.54578  -0.32181
  60   36672.6    272.7   0.074660008   0.67023   0.20777  -0.40280   0.68177
  61   36801.9    271.7   0.037986727   0.33981   0.18210   0.38359   0.39938
  62   36864.6    271.3   0.035682440   0.31866  -0.02247   0.47367  -0.30625
  63   36985.5    270.4   0.003654795   0.03253   0.07378   0.15825  -0.04521
  64   37510.2    266.6   0.001222332   0.01073   0.01593   0.06084  -0.08229
  65   38127.7    262.3   0.000170471   0.00147  -0.03501  -0.00838   0.01326
  66   38317.9    261.0   0.000046040   0.00040   0.00018   0.00942   0.01751
  67   38874.1    257.2   0.008242742   0.06981  -0.24908  -0.07940   0.03817
  68   39064.8    256.0   0.049895007   0.42048  -0.13406   0.33386  -0.53949
  69   39153.6    255.4   0.001603361   0.01348   0.07327  -0.05667   0.07001
  70   39193.5    255.1   0.001776121   0.01492   0.04826  -0.05142   0.09973
  71   39357.2    254.1   0.015605956   0.13054   0.35289   0.00009  -0.07750
  72   39485.9    253.3   0.121739374   1.01500   0.96822  -0.06793  -0.27005
  73   39815.7    251.2   0.000218358   0.00181   0.01693  -0.02805   0.02705
  74   39931.8    250.4   0.099241342   0.81818   0.18450  -0.47278   0.74875
  75   40135.7    249.2   0.003871542   0.03176   0.00765  -0.13839  -0.11201
  76   40222.2    248.6   0.002309297   0.01890  -0.00783  -0.13468   0.02648
  77   40238.2    248.5   0.000887428   0.00726  -0.04126  -0.06197  -0.04145
  78   40284.2    248.2   0.001424780   0.01164   0.07092  -0.06562  -0.04805

FINAL SINGLE POINT ENERGY     -2898.714048371355

DIPOLE MOMENT
-------------
                                X             Y             Z
Electronic contribution:    -71.89781      21.81664      13.79022
Nuclear contribution   :     73.30838     -22.06830     -14.55025
                        -----------------------------------------
Total Dipole Moment    :      1.41057      -0.25166      -0.76004
                        -----------------------------------------
Magnitude (a.u.)       :      1.62194
Magnitude (Debye)      :      4.12265

Rotational constants in cm-1:     0.002147     0.001169     0.001064
Rotational constants in MHz :    64.362280    35.060487    31.902290

                             ****ORCA TERMINATED NORMALLY****
TOTAL RUN TIME: 0 days 1 hours 20 minutes 59 seconds 691 msec
