                         Program Version 4.2.0 -  RELEASE  -
|  1> # ORCA input file
|  2> # SNBDT1-F.out
|  3> ! CAM-B3LYP def2-SVP def2/J RIJCOSX Grid4 TightSCF
|  4> %maxcore 5000
|  5> %tddft
|  6>     Mode sTDDFT
|  7>     Ethresh 5.0
|  8>     maxcore 5000
|  9> end
| 10> * xyz 0 1
| 11>    C       -2.75775        -0.28298         0.46022
| 12>    C       -1.64820         0.35948        -0.10791
| 13>    C       -0.43908        -0.31159        -0.07805
| 14>    C       -0.24055        -1.55111         0.58587
| 15>    C       -1.30408        -2.06736         1.36280
| 16>    C       -2.54433        -1.44639         1.25749
| 17>    S        0.98268         0.34692        -0.85103
| 18>    C        1.86730        -1.04648        -0.34291
| 19>    C        1.10640        -1.98383         0.39234
| 20>    C        3.15556        -1.54909        -0.45640
| 21>    C        3.14882        -2.80500         0.19241
| 22>    N        1.90424        -3.05416         0.70766
| 23>    S        4.70313        -1.15719        -1.09025
| 24>    C        5.34789        -2.68405        -0.47470
| 25>    C        4.37896        -3.45397         0.14902
| 26>    S       -4.02964        -1.98707         2.05892
| 27>    C       -4.92437        -0.73651         1.27614
| 28>    C       -4.13769         0.06000         0.42492
| 29>    C       -6.23614        -0.28797         1.16929
| 30>    C       -6.21732         0.75858         0.21314
| 31>    N       -4.93804         0.95657        -0.23915
| 32>    S       -7.81217        -0.56112         1.78988
| 33>    C       -8.44039         0.76614         0.80703
| 34>    C       -7.46006         1.34489         0.01220
| 35>    O       -1.01045        -3.13685         2.14337
| 36>    O       -1.70373         1.61441        -0.66139
| 37>    C       -1.89782         2.65795         0.29709
| 38>    C       -0.64917         2.94782         1.13761
| 39>    C        0.41143         3.64290         0.28893
| 40>    C       -1.02766         3.80387         2.34280
| 41>    C       -1.79773        -3.46375         3.27795
| 42>    C       -0.95014        -4.31517         4.22854
| 43>    C        0.18601        -3.48488         4.81962
| 44>    C       -1.83848        -4.88396         5.33044
| 45>    C       -4.63070         1.66037        -1.45970
| 46>    C       -4.55651         0.71089        -2.66852
| 47>    C        1.55701        -4.33509         1.26581
| 48>    C        1.32099        -5.39801         0.17948
| 49>    C       -5.91965         0.10647        -2.99067
| 50>    C       -4.00069         1.47303        -3.86741
| 51>    C        1.06211        -6.74513         0.84731
| 52>    C        0.14500        -5.00209        -0.70807
| 53>    C        6.68878        -3.06501        -0.69462
| 54>    C        7.76071        -2.27122        -0.97860
| 55>    C        8.95602        -2.83869        -1.64921
| 56>    C        9.71074        -1.66203        -2.14219
| 57>    C        9.09341        -0.48225        -1.68635
| 58>    C        7.96672        -0.84723        -0.83059
| 59>    C       10.83863        -1.63095        -2.93703
| 60>    C       11.33097        -0.37922        -3.27617
| 61>    C       10.73322         0.79836        -2.85188
| 62>    C        9.60586         0.75467        -2.04561
| 63>    C       -9.81415         1.05209         0.89010
| 64>    C      -10.51439         2.14630         0.46220
| 65>    C      -11.98155         2.01556         0.27035
| 66>    C      -12.37967         3.21166        -0.50681
| 67>    C      -11.26594         4.05554        -0.66696
| 68>    C      -10.13055         3.47601         0.05373
| 69>    C      -13.61317         3.52205        -1.04133
| 70>    C      -13.70407         4.70633        -1.75824
| 71>    C      -12.61895         5.54972        -1.94385
| 72>    C      -11.38662         5.23036        -1.39343
| 73>    O      -12.68561         1.10374         0.63804
| 74>    F      -14.88473         5.05027        -2.29871
| 75>    C       -9.02922         4.18300         0.46734
| 76>    C       -8.74622         5.50590         0.07277
| 77>    C       -8.08188         3.70487         1.39358
| 78>    N       -8.44274         6.57002        -0.23402
| 79>    N       -7.28917         3.38437         2.15984
| 80>    O        9.22417        -4.00849        -1.80056
| 81>    F       12.42771        -0.30033        -4.04904
| 82>    C        7.42095        -0.05247         0.14338
| 83>    C        7.72835         1.31231         0.30785
| 84>    C        6.56865        -0.54802         1.15252
| 85>    N        5.92601        -0.93246         2.02276
| 86>    N        7.93789         2.42844         0.47570
| 87>    H        4.59939        -4.41379         0.57947
| 88>    H       -7.67016         2.12149        -0.70026
| 89>    H       -2.74069         2.40713         0.95393
| 90>    H       -2.15655         3.54180        -0.29166
| 91>    H       -0.25125         1.99126         1.49585
| 92>    H        0.08078         4.64462         0.02263
| 93>    H        0.59167         3.08338        -0.62532
| 94>    H        1.34707         3.72124         0.83611
| 95>    H       -1.47231         4.74153         2.01690
| 96>    H       -0.14262         4.02969         2.93162
| 97>    H       -1.74258         3.28745         2.97970
| 98>    H       -2.68489        -4.02870         2.96756
| 99>    H       -2.11700        -2.55312         3.79432
|100>    H       -0.52595        -5.14397         3.65238
|101>    H       -0.21490        -2.69980         5.45707
|102>    H        0.77623        -3.02190         4.03296
|103>    H        0.84091        -4.11217         5.41855
|104>    H       -2.30488        -4.07982         5.89448
|105>    H       -1.24591        -5.48522         6.01457
|106>    H       -2.62302        -5.50993         4.91253
|107>    H       -3.67005         2.16082        -1.36137
|108>    H       -5.40787         2.41133        -1.61559
|109>    H       -3.86094        -0.09703        -2.41471
|110>    H        0.65195        -4.22181         1.85563
|111>    H        2.37759        -4.64846         1.91802
|112>    H        2.22174        -5.47372        -0.44014
|113>    H       -5.83988        -0.56820        -3.83944
|114>    H       -6.63317         0.88855        -3.24339
|115>    H       -6.30976        -0.45851        -2.14671
|116>    H       -4.64772         2.31027        -4.12031
|117>    H       -3.93331         0.81854        -4.73252
|118>    H       -3.00689         1.85490        -3.64714
|119>    H        0.16109        -6.69760         1.45502
|120>    H        1.89512        -7.02878         1.48653
|121>    H        0.92744        -7.52016         0.09724
|122>    H       -0.75272        -4.87255        -0.10756
|123>    H       -0.04420        -5.77260        -1.45145
|124>    H        0.34689        -4.06953        -1.23047
|125>    H        6.88111        -4.13350        -0.71816
|126>    H       11.31654        -2.53547        -3.27761
|127>    H       11.15734         1.74219        -3.15636
|128>    H        9.14023         1.67159        -1.72237
|129>    H      -10.43456         0.25943         1.29843
|130>    H      -14.46636         2.87661        -0.90755
|131>    H      -12.74787         6.45348        -2.51825
|132>    H      -10.54746         5.88925        -1.54617
|133> *
|134>
|135>                          ****END OF INPUT****

CARTESIAN COORDINATES (ANGSTROEM)
---------------------------------
  C     -2.757750   -0.282980    0.460220
  C     -1.648200    0.359480   -0.107910
  C     -0.439080   -0.311590   -0.078050
  C     -0.240550   -1.551110    0.585870
  C     -1.304080   -2.067360    1.362800
  C     -2.544330   -1.446390    1.257490
  S      0.982680    0.346920   -0.851030
  C      1.867300   -1.046480   -0.342910
  C      1.106400   -1.983830    0.392340
  C      3.155560   -1.549090   -0.456400
  C      3.148820   -2.805000    0.192410
  N      1.904240   -3.054160    0.707660
  S      4.703130   -1.157190   -1.090250
  C      5.347890   -2.684050   -0.474700
  C      4.378960   -3.453970    0.149020
  S     -4.029640   -1.987070    2.058920
  C     -4.924370   -0.736510    1.276140
  C     -4.137690    0.060000    0.424920
  C     -6.236140   -0.287970    1.169290
  C     -6.217320    0.758580    0.213140
  N     -4.938040    0.956570   -0.239150
  S     -7.812170   -0.561120    1.789880
  C     -8.440390    0.766140    0.807030
  C     -7.460060    1.344890    0.012200
  O     -1.010450   -3.136850    2.143370
  O     -1.703730    1.614410   -0.661390
  C     -1.897820    2.657950    0.297090
  C     -0.649170    2.947820    1.137610
  C      0.411430    3.642900    0.288930
  C     -1.027660    3.803870    2.342800
  C     -1.797730   -3.463750    3.277950
  C     -0.950140   -4.315170    4.228540
  C      0.186010   -3.484880    4.819620
  C     -1.838480   -4.883960    5.330440
  C     -4.630700    1.660370   -1.459700
  C     -4.556510    0.710890   -2.668520
  C      1.557010   -4.335090    1.265810
  C      1.320990   -5.398010    0.179480
  C     -5.919650    0.106470   -2.990670
  C     -4.000690    1.473030   -3.867410
  C      1.062110   -6.745130    0.847310
  C      0.145000   -5.002090   -0.708070
  C      6.688780   -3.065010   -0.694620
  C      7.760710   -2.271220   -0.978600
  C      8.956020   -2.838690   -1.649210
  C      9.710740   -1.662030   -2.142190
  C      9.093410   -0.482250   -1.686350
  C      7.966720   -0.847230   -0.830590
  C     10.838630   -1.630950   -2.937030
  C     11.330970   -0.379220   -3.276170
  C     10.733220    0.798360   -2.851880
  C      9.605860    0.754670   -2.045610
  C     -9.814150    1.052090    0.890100
  C    -10.514390    2.146300    0.462200
  C    -11.981550    2.015560    0.270350
  C    -12.379670    3.211660   -0.506810
  C    -11.265940    4.055540   -0.666960
  C    -10.130550    3.476010    0.053730
  C    -13.613170    3.522050   -1.041330
  C    -13.704070    4.706330   -1.758240
  C    -12.618950    5.549720   -1.943850
  C    -11.386620    5.230360   -1.393430
  O    -12.685610    1.103740    0.638040
  F    -14.884730    5.050270   -2.298710
  C     -9.029220    4.183000    0.467340
  C     -8.746220    5.505900    0.072770
  C     -8.081880    3.704870    1.393580
  N     -8.442740    6.570020   -0.234020
  N     -7.289170    3.384370    2.159840
  O      9.224170   -4.008490   -1.800560
  F     12.427710   -0.300330   -4.049040
  C      7.420950   -0.052470    0.143380
  C      7.728350    1.312310    0.307850
  C      6.568650   -0.548020    1.152520
  N      5.926010   -0.932460    2.022760
  N      7.937890    2.428440    0.475700
  H      4.599390   -4.413790    0.579470
  H     -7.670160    2.121490   -0.700260
  H     -2.740690    2.407130    0.953930
  H     -2.156550    3.541800   -0.291660
  H     -0.251250    1.991260    1.495850
  H      0.080780    4.644620    0.022630
  H      0.591670    3.083380   -0.625320
  H      1.347070    3.721240    0.836110
  H     -1.472310    4.741530    2.016900
  H     -0.142620    4.029690    2.931620
  H     -1.742580    3.287450    2.979700
  H     -2.684890   -4.028700    2.967560
  H     -2.117000   -2.553120    3.794320
  H     -0.525950   -5.143970    3.652380
  H     -0.214900   -2.699800    5.457070
  H      0.776230   -3.021900    4.032960
  H      0.840910   -4.112170    5.418550
  H     -2.304880   -4.079820    5.894480
  H     -1.245910   -5.485220    6.014570
  H     -2.623020   -5.509930    4.912530
  H     -3.670050    2.160820   -1.361370
  H     -5.407870    2.411330   -1.615590
  H     -3.860940   -0.097030   -2.414710
  H      0.651950   -4.221810    1.855630
  H      2.377590   -4.648460    1.918020
  H      2.221740   -5.473720   -0.440140
  H     -5.839880   -0.568200   -3.839440
  H     -6.633170    0.888550   -3.243390
  H     -6.309760   -0.458510   -2.146710
  H     -4.647720    2.310270   -4.120310
  H     -3.933310    0.818540   -4.732520
  H     -3.006890    1.854900   -3.647140
  H      0.161090   -6.697600    1.455020
  H      1.895120   -7.028780    1.486530
  H      0.927440   -7.520160    0.097240
  H     -0.752720   -4.872550   -0.107560
  H     -0.044200   -5.772600   -1.451450
  H      0.346890   -4.069530   -1.230470
  H      6.881110   -4.133500   -0.718160
  H     11.316540   -2.535470   -3.277610
  H     11.157340    1.742190   -3.156360
  H      9.140230    1.671590   -1.722370
  H    -10.434560    0.259430    1.298430
  H    -14.466360    2.876610   -0.907550
  H    -12.747870    6.453480   -2.518250
  H    -10.547460    5.889250   -1.546170

 Total Charge           Charge          ....    0
 Multiplicity           Mult            ....    1
 Number of Electrons    NEL             ....  562
 Basis Dimension        Dim             .... 1310

ORBITAL ENERGIES
----------------

  NO   OCC          E(Eh)            E(eV)
   0   2.0000     -88.967363     -2420.9250
   1   2.0000     -88.962667     -2420.7972
   2   2.0000     -88.962582     -2420.7949
   3   2.0000     -88.956690     -2420.6346
   4   2.0000     -24.791606      -674.6139
   5   2.0000     -24.787798      -674.5103
   6   2.0000     -19.267588      -524.2977
   7   2.0000     -19.251483      -523.8595
   8   2.0000     -19.215571      -522.8823
   9   2.0000     -19.211912      -522.7827
  10   2.0000     -14.477243      -393.9458
  11   2.0000     -14.473933      -393.8557
  12   2.0000     -14.415286      -392.2599
  13   2.0000     -14.414373      -392.2350
  14   2.0000     -14.409690      -392.1076
  15   2.0000     -14.405406      -391.9910
  16   2.0000     -10.377643      -282.3900
  17   2.0000     -10.373508      -282.2775
  18   2.0000     -10.366535      -282.0877
  19   2.0000     -10.363576      -282.0072
  20   2.0000     -10.359891      -281.9070
  21   2.0000     -10.342535      -281.4347
  22   2.0000     -10.342464      -281.4328
  23   2.0000     -10.340987      -281.3926
  24   2.0000     -10.336029      -281.2577
  25   2.0000     -10.335280      -281.2373
  26   2.0000     -10.334812      -281.2245
  27   2.0000     -10.327183      -281.0169
  28   2.0000     -10.325545      -280.9724
  29   2.0000     -10.322641      -280.8933
  30   2.0000     -10.320609      -280.8380
  31   2.0000     -10.320001      -280.8215
  32   2.0000     -10.319510      -280.8081
  33   2.0000     -10.318604      -280.7835
  34   2.0000     -10.316253      -280.7195
  35   2.0000     -10.316201      -280.7181
  36   2.0000     -10.315888      -280.7096
  37   2.0000     -10.313072      -280.6330
  38   2.0000     -10.312754      -280.6243
  39   2.0000     -10.312575      -280.6194
  40   2.0000     -10.312484      -280.6169
  41   2.0000     -10.312186      -280.6088
  42   2.0000     -10.311394      -280.5873
  43   2.0000     -10.308290      -280.5028
  44   2.0000     -10.307406      -280.4788
  45   2.0000     -10.307159      -280.4721
  46   2.0000     -10.306750      -280.4609
  47   2.0000     -10.305749      -280.4337
  48   2.0000     -10.304326      -280.3950
  49   2.0000     -10.304167      -280.3906
  50   2.0000     -10.304073      -280.3881
  51   2.0000     -10.303683      -280.3775
  52   2.0000     -10.303095      -280.3615
  53   2.0000     -10.301059      -280.3061
  54   2.0000     -10.300292      -280.2852
  55   2.0000     -10.299765      -280.2709
  56   2.0000     -10.299545      -280.2649
  57   2.0000     -10.299453      -280.2624
  58   2.0000     -10.299426      -280.2616
  59   2.0000     -10.296486      -280.1816
  60   2.0000     -10.295995      -280.1683
  61   2.0000     -10.295756      -280.1618
  62   2.0000     -10.293474      -280.0997
  63   2.0000     -10.289052      -279.9793
  64   2.0000     -10.283594      -279.8308
  65   2.0000     -10.278036      -279.6796
  66   2.0000     -10.277743      -279.6716
  67   2.0000     -10.267834      -279.4020
  68   2.0000     -10.267062      -279.3810
  69   2.0000     -10.264225      -279.3038
  70   2.0000     -10.261093      -279.2185
  71   2.0000     -10.260145      -279.1927
  72   2.0000     -10.259518      -279.1757
  73   2.0000     -10.257556      -279.1223
  74   2.0000     -10.254058      -279.0271
  75   2.0000     -10.247594      -278.8512
  76   2.0000      -8.062236      -219.3846
  77   2.0000      -8.056983      -219.2417
  78   2.0000      -8.056876      -219.2387
  79   2.0000      -8.051150      -219.0829
  80   2.0000      -6.031873      -164.1356
  81   2.0000      -6.027865      -164.0266
  82   2.0000      -6.027171      -164.0077
  83   2.0000      -6.026627      -163.9929
  84   2.0000      -6.023602      -163.9105
  85   2.0000      -6.022950      -163.8928
  86   2.0000      -6.022552      -163.8820
  87   2.0000      -6.021116      -163.8429
  88   2.0000      -6.018159      -163.7624
  89   2.0000      -6.017453      -163.7432
  90   2.0000      -6.017069      -163.7328
  91   2.0000      -6.011879      -163.5915
  92   2.0000      -1.307139       -35.5691
  93   2.0000      -1.303155       -35.4606
  94   2.0000      -1.172057       -31.8933
  95   2.0000      -1.154095       -31.4045
  96   2.0000      -1.130933       -30.7743
  97   2.0000      -1.126850       -30.6632
  98   2.0000      -1.105585       -30.0845
  99   2.0000      -1.100998       -29.9597
 100   2.0000      -1.019125       -27.7318
 101   2.0000      -1.013748       -27.5855
 102   2.0000      -0.999998       -27.2113
 103   2.0000      -0.998665       -27.1751
 104   2.0000      -0.994695       -27.0670
 105   2.0000      -0.993093       -27.0234
 106   2.0000      -0.988483       -26.8980
 107   2.0000      -0.987225       -26.8638
 108   2.0000      -0.980991       -26.6941
 109   2.0000      -0.976632       -26.5755
 110   2.0000      -0.951781       -25.8993
 111   2.0000      -0.947460       -25.7817
 112   2.0000      -0.931490       -25.3471
 113   2.0000      -0.915697       -24.9174
 114   2.0000      -0.914538       -24.8858
 115   2.0000      -0.902434       -24.5565
 116   2.0000      -0.900297       -24.4983
 117   2.0000      -0.897569       -24.4241
 118   2.0000      -0.892629       -24.2897
 119   2.0000      -0.887443       -24.1486
 120   2.0000      -0.881693       -23.9921
 121   2.0000      -0.869631       -23.6639
 122   2.0000      -0.867268       -23.5995
 123   2.0000      -0.863050       -23.4848
 124   2.0000      -0.861011       -23.4293
 125   2.0000      -0.857290       -23.3280
 126   2.0000      -0.843858       -22.9625
 127   2.0000      -0.837601       -22.7923
 128   2.0000      -0.827746       -22.5241
 129   2.0000      -0.815156       -22.1815
 130   2.0000      -0.807410       -21.9707
 131   2.0000      -0.795951       -21.6589
 132   2.0000      -0.791890       -21.5484
 133   2.0000      -0.777930       -21.1686
 134   2.0000      -0.775335       -21.0979
 135   2.0000      -0.774462       -21.0742
 136   2.0000      -0.771063       -20.9817
 137   2.0000      -0.769862       -20.9490
 138   2.0000      -0.765815       -20.8389
 139   2.0000      -0.765108       -20.8196
 140   2.0000      -0.763737       -20.7823
 141   2.0000      -0.760350       -20.6902
 142   2.0000      -0.747579       -20.3427
 143   2.0000      -0.733016       -19.9464
 144   2.0000      -0.716499       -19.4969
 145   2.0000      -0.706818       -19.2335
 146   2.0000      -0.701674       -19.0935
 147   2.0000      -0.697966       -18.9926
 148   2.0000      -0.688863       -18.7449
 149   2.0000      -0.684192       -18.6178
 150   2.0000      -0.681216       -18.5368
 151   2.0000      -0.675900       -18.3922
 152   2.0000      -0.672918       -18.3110
 153   2.0000      -0.667909       -18.1747
 154   2.0000      -0.664837       -18.0911
 155   2.0000      -0.663337       -18.0503
 156   2.0000      -0.659602       -17.9487
 157   2.0000      -0.655663       -17.8415
 158   2.0000      -0.647600       -17.6221
 159   2.0000      -0.641852       -17.4657
 160   2.0000      -0.637557       -17.3488
 161   2.0000      -0.636363       -17.3163
 162   2.0000      -0.632299       -17.2057
 163   2.0000      -0.617229       -16.7957
 164   2.0000      -0.612543       -16.6681
 165   2.0000      -0.610324       -16.6078
 166   2.0000      -0.606261       -16.4972
 167   2.0000      -0.605127       -16.4663
 168   2.0000      -0.600300       -16.3350
 169   2.0000      -0.597047       -16.2465
 170   2.0000      -0.590366       -16.0647
 171   2.0000      -0.588094       -16.0029
 172   2.0000      -0.586048       -15.9472
 173   2.0000      -0.581837       -15.8326
 174   2.0000      -0.580357       -15.7923
 175   2.0000      -0.572644       -15.5824
 176   2.0000      -0.568135       -15.4597
 177   2.0000      -0.566442       -15.4137
 178   2.0000      -0.565914       -15.3993
 179   2.0000      -0.564783       -15.3685
 180   2.0000      -0.563258       -15.3270
 181   2.0000      -0.560698       -15.2574
 182   2.0000      -0.557436       -15.1686
 183   2.0000      -0.551888       -15.0176
 184   2.0000      -0.547836       -14.9074
 185   2.0000      -0.545474       -14.8431
 186   2.0000      -0.544684       -14.8216
 187   2.0000      -0.540387       -14.7047
 188   2.0000      -0.538071       -14.6417
 189   2.0000      -0.532530       -14.4909
 190   2.0000      -0.531440       -14.4612
 191   2.0000      -0.528883       -14.3916
 192   2.0000      -0.528614       -14.3843
 193   2.0000      -0.526993       -14.3402
 194   2.0000      -0.525654       -14.3038
 195   2.0000      -0.524734       -14.2787
 196   2.0000      -0.520466       -14.1626
 197   2.0000      -0.517575       -14.0839
 198   2.0000      -0.514248       -13.9934
 199   2.0000      -0.511993       -13.9320
 200   2.0000      -0.510619       -13.8946
 201   2.0000      -0.508428       -13.8350
 202   2.0000      -0.506242       -13.7755
 203   2.0000      -0.501741       -13.6531
 204   2.0000      -0.499309       -13.5869
 205   2.0000      -0.497760       -13.5447
 206   2.0000      -0.494349       -13.4519
 207   2.0000      -0.491708       -13.3800
 208   2.0000      -0.490385       -13.3441
 209   2.0000      -0.488501       -13.2928
 210   2.0000      -0.486229       -13.2310
 211   2.0000      -0.483241       -13.1497
 212   2.0000      -0.481572       -13.1042
 213   2.0000      -0.478055       -13.0085
 214   2.0000      -0.476349       -12.9621
 215   2.0000      -0.473148       -12.8750
 216   2.0000      -0.471928       -12.8418
 217   2.0000      -0.470749       -12.8097
 218   2.0000      -0.469453       -12.7745
 219   2.0000      -0.468563       -12.7502
 220   2.0000      -0.468017       -12.7354
 221   2.0000      -0.466343       -12.6898
 222   2.0000      -0.464396       -12.6368
 223   2.0000      -0.459557       -12.5052
 224   2.0000      -0.458908       -12.4875
 225   2.0000      -0.457080       -12.4378
 226   2.0000      -0.456116       -12.4116
 227   2.0000      -0.454269       -12.3613
 228   2.0000      -0.453247       -12.3335
 229   2.0000      -0.450948       -12.2709
 230   2.0000      -0.448825       -12.2131
 231   2.0000      -0.448589       -12.2067
 232   2.0000      -0.447019       -12.1640
 233   2.0000      -0.444323       -12.0906
 234   2.0000      -0.443792       -12.0762
 235   2.0000      -0.442304       -12.0357
 236   2.0000      -0.441831       -12.0228
 237   2.0000      -0.440129       -11.9765
 238   2.0000      -0.436338       -11.8734
 239   2.0000      -0.434772       -11.8308
 240   2.0000      -0.430928       -11.7261
 241   2.0000      -0.430101       -11.7037
 242   2.0000      -0.427605       -11.6357
 243   2.0000      -0.427153       -11.6234
 244   2.0000      -0.423680       -11.5289
 245   2.0000      -0.422694       -11.5021
 246   2.0000      -0.421875       -11.4798
 247   2.0000      -0.419840       -11.4244
 248   2.0000      -0.418556       -11.3895
 249   2.0000      -0.417056       -11.3487
 250   2.0000      -0.416814       -11.3421
 251   2.0000      -0.415063       -11.2944
 252   2.0000      -0.414188       -11.2706
 253   2.0000      -0.411352       -11.1935
 254   2.0000      -0.409529       -11.1438
 255   2.0000      -0.408315       -11.1108
 256   2.0000      -0.407574       -11.0907
 257   2.0000      -0.404272       -11.0008
 258   2.0000      -0.401507       -10.9256
 259   2.0000      -0.399082       -10.8596
 260   2.0000      -0.396974       -10.8022
 261   2.0000      -0.392191       -10.6721
 262   2.0000      -0.389497       -10.5987
 263   2.0000      -0.383820       -10.4443
 264   2.0000      -0.369992       -10.0680
 265   2.0000      -0.363747        -9.8980
 266   2.0000      -0.352117        -9.5816
 267   2.0000      -0.351469        -9.5640
 268   2.0000      -0.347654        -9.4601
 269   2.0000      -0.346289        -9.4230
 270   2.0000      -0.338544        -9.2122
 271   2.0000      -0.337130        -9.1738
 272   2.0000      -0.333095        -9.0640
 273   2.0000      -0.325440        -8.8557
 274   2.0000      -0.311560        -8.4780
 275   2.0000      -0.304911        -8.2970
 276   2.0000      -0.303999        -8.2722
 277   2.0000      -0.283696        -7.7198
 278   2.0000      -0.270801        -7.3689
 279   2.0000      -0.263443        -7.1687
 280   2.0000      -0.234448        -6.3796
 281   0.0000      -0.093548        -2.5456
 282   0.0000      -0.082366        -2.2413
 283   0.0000      -0.061088        -1.6623
 284   0.0000      -0.055328        -1.5056
 285   0.0000      -0.022478        -0.6117

MULLIKEN ATOMIC CHARGES
-----------------------
   0 C :    0.097338
   1 C :    0.004341
   2 C :   -0.107135
   3 C :    0.078985
   4 C :    0.103951
   5 C :   -0.163744
   6 S :    0.158275
   7 C :   -0.103697
   8 C :    0.046934
   9 C :   -0.095274
  10 C :    0.169527
  11 N :   -0.150027
  12 S :    0.152955
  13 C :   -0.101106
  14 C :   -0.036726
  15 S :    0.100653
  16 C :   -0.085823
  17 C :    0.041638
  18 C :   -0.086061
  19 C :    0.123253
  20 N :   -0.151334
  21 S :    0.156976
  22 C :   -0.118953
  23 C :   -0.026685
  24 O :   -0.341281
  25 O :   -0.349578
  26 C :    0.211870
  27 C :   -0.134657
  28 C :    0.045991
  29 C :    0.032516
  30 C :    0.181391
  31 C :   -0.129609
  32 C :    0.031987
  33 C :    0.040975
  34 C :    0.171664
  35 C :   -0.149521
  36 C :    0.157238
  37 C :   -0.133107
  38 C :    0.038247
  39 C :    0.044764
  40 C :    0.045407
  41 C :    0.030128
  42 C :    0.049374
  43 C :   -0.145237
  44 C :    0.139811
  45 C :   -0.003633
  46 C :    0.016150
  47 C :    0.245486
  48 C :   -0.093547
  49 C :    0.308705
  50 C :   -0.030587
  51 C :   -0.014337
  52 C :    0.085446
  53 C :   -0.146456
  54 C :    0.131237
  55 C :    0.005277
  56 C :    0.015269
  57 C :    0.272560
  58 C :   -0.095368
  59 C :    0.310882
  60 C :   -0.031366
  61 C :   -0.024765
  62 O :   -0.143650
  63 F :   -0.186112
  64 C :   -0.353027
  65 C :   -0.179554
  66 C :   -0.209146
  67 N :    0.153324
  68 N :    0.173249
  69 O :   -0.144359
  70 F :   -0.188038
  71 C :   -0.321157
  72 C :   -0.180082
  73 C :   -0.196844
  74 N :    0.160646
  75 N :    0.153072
  76 H :   -0.011936
  77 H :   -0.001239
  78 H :    0.024439
  79 H :    0.018191
  80 H :    0.018231
  81 H :   -0.000063
  82 H :    0.015900
  83 H :    0.017599
  84 H :    0.009205
  85 H :    0.018161
  86 H :    0.016009
  87 H :    0.033155
  88 H :    0.027889
  89 H :    0.016288
  90 H :    0.008406
  91 H :    0.022421
  92 H :    0.017626
  93 H :    0.012094
  94 H :    0.019900
  95 H :    0.013210
  96 H :    0.030069
  97 H :    0.008653
  98 H :    0.018657
  99 H :    0.035281
 100 H :    0.011508
 101 H :    0.004999
 102 H :    0.016133
 103 H :   -0.001978
 104 H :    0.031663
 105 H :    0.003545
 106 H :    0.014983
 107 H :    0.022108
 108 H :    0.007245
 109 H :    0.007200
 110 H :    0.017328
 111 H :    0.007058
 112 H :    0.012073
 113 H :    0.029178
 114 H :    0.023424
 115 H :    0.003860
 116 H :    0.008427
 117 H :    0.010051
 118 H :    0.021459
 119 H :    0.005790
 120 H :    0.009878
 121 H :    0.010016
Sum of atomic charges:    0.0000000

LOEWDIN ATOMIC CHARGES
----------------------
   0 C :   -0.066583
   1 C :    0.004354
   2 C :   -0.153826
   3 C :   -0.071640
   4 C :    0.034002
   5 C :   -0.173474
   6 S :    0.423660
   7 C :   -0.220748
   8 C :    0.003080
   9 C :   -0.196833
  10 C :   -0.019855
  11 N :    0.055527
  12 S :    0.441057
  13 C :   -0.176470
  14 C :   -0.019104
  15 S :    0.396196
  16 C :   -0.218721
  17 C :   -0.002381
  18 C :   -0.200492
  19 C :   -0.013575
  20 N :    0.051001
  21 S :    0.432125
  22 C :   -0.178730
  23 C :   -0.019167
  24 O :   -0.093097
  25 O :   -0.127837
  26 C :    0.086371
  27 C :   -0.054165
  28 C :   -0.051996
  29 C :   -0.045948
  30 C :    0.076460
  31 C :   -0.047832
  32 C :   -0.049251
  33 C :   -0.045226
  34 C :    0.046625
  35 C :   -0.042792
  36 C :    0.039695
  37 C :   -0.043483
  38 C :   -0.053241
  39 C :   -0.047139
  40 C :   -0.048069
  41 C :   -0.052429
  42 C :    0.052970
  43 C :   -0.111557
  44 C :    0.082936
  45 C :   -0.034540
  46 C :   -0.022024
  47 C :    0.060288
  48 C :   -0.015892
  49 C :    0.099378
  50 C :   -0.029272
  51 C :    0.010413
  52 C :    0.051842
  53 C :   -0.110618
  54 C :    0.082591
  55 C :   -0.033654
  56 C :   -0.024012
  57 C :    0.067285
  58 C :   -0.015360
  59 C :    0.100292
  60 C :   -0.029771
  61 C :    0.009066
  62 O :   -0.141806
  63 F :   -0.060057
  64 C :   -0.151369
  65 C :   -0.022739
  66 C :   -0.020004
  67 N :   -0.057763
  68 N :   -0.044887
  69 O :   -0.144071
  70 F :   -0.061686
  71 C :   -0.144653
  72 C :   -0.020499
  73 C :   -0.032671
  74 N :   -0.054366
  75 N :   -0.055641
  76 H :    0.036785
  77 H :    0.034495
  78 H :    0.014056
  79 H :    0.020799
  80 H :    0.024540
  81 H :    0.019089
  82 H :    0.012481
  83 H :    0.026596
  84 H :    0.022707
  85 H :    0.028210
  86 H :    0.024077
  87 H :    0.008937
  88 H :    0.013308
  89 H :    0.022138
  90 H :    0.023861
  91 H :    0.024079
  92 H :    0.026662
  93 H :    0.024492
  94 H :    0.028987
  95 H :    0.023565
  96 H :    0.029345
  97 H :    0.026010
  98 H :    0.026278
  99 H :    0.024115
 100 H :    0.024043
 101 H :    0.019264
 102 H :    0.027286
 103 H :    0.019113
 104 H :    0.025771
 105 H :    0.021221
 106 H :    0.026699
 107 H :    0.027093
 108 H :    0.021342
 109 H :    0.021936
 110 H :    0.027526
 111 H :    0.021430
 112 H :    0.025461
 113 H :    0.026171
 114 H :    0.049994
 115 H :    0.047953
 116 H :    0.044168
 117 H :    0.042452
 118 H :    0.045803
 119 H :    0.048697
 120 H :    0.044667
 121 H :    0.042105

  Mayer bond orders larger than 0.100000
B(  0-C ,  1-C ) :   1.2782 B(  0-C ,  3-C ) :   0.1286 B(  0-C ,  5-C ) :   1.2997
B(  0-C , 17-C ) :   1.1268 B(  1-C ,  2-C ) :   1.3929 B(  1-C , 25-O ) :   1.1927
B(  2-C ,  3-C ) :   1.3423 B(  2-C ,  6-S ) :   1.0471 B(  3-C ,  4-C ) :   1.2939
B(  3-C ,  8-C ) :   1.0999 B(  4-C ,  5-C ) :   1.3782 B(  4-C , 24-O ) :   1.1503
B(  5-C , 15-S ) :   1.0021 B(  6-S ,  7-C ) :   0.9751 B(  7-C ,  8-C ) :   1.4314
B(  7-C ,  9-C ) :   1.4309 B(  8-C , 11-N ) :   1.2048 B(  9-C , 10-C ) :   1.3500
B(  9-C , 12-S ) :   1.0462 B( 10-C , 11-N ) :   1.1343 B( 10-C , 14-C ) :   1.2451
B( 11-N , 36-C ) :   0.9577 B( 12-S , 13-C ) :   1.0768 B( 13-C , 14-C ) :   1.3931
B( 13-C , 42-C ) :   1.1692 B( 14-C , 76-H ) :   1.0166 B( 15-S , 16-C ) :   0.9801
B( 16-C , 17-C ) :   1.4442 B( 16-C , 18-C ) :   1.4005 B( 17-C , 20-N ) :   1.1893
B( 18-C , 19-C ) :   1.3506 B( 18-C , 21-S ) :   1.0511 B( 19-C , 20-N ) :   1.1371
B( 19-C , 23-C ) :   1.3097 B( 20-N , 34-C ) :   0.9588 B( 21-S , 22-C ) :   1.0670
B( 22-C , 23-C ) :   1.3854 B( 22-C , 52-C ) :   1.1889 B( 23-C , 77-H ) :   0.9951
B( 24-O , 30-C ) :   0.9218 B( 25-O , 26-C ) :   0.9083 B( 26-C , 27-C ) :   1.0420
B( 26-C , 78-H ) :   0.9484 B( 26-C , 79-H ) :   0.9419 B( 27-C , 28-C ) :   1.0656
B( 27-C , 29-C ) :   1.0679 B( 27-C , 80-H ) :   0.9247 B( 28-C , 81-H ) :   0.9636
B( 28-C , 82-H ) :   0.9630 B( 28-C , 83-H ) :   0.9693 B( 29-C , 84-H ) :   0.9680
B( 29-C , 85-H ) :   0.9670 B( 29-C , 86-H ) :   0.9666 B( 30-C , 31-C ) :   1.0315
B( 30-C , 87-H ) :   0.9457 B( 30-C , 88-H ) :   0.9426 B( 31-C , 32-C ) :   1.0636
B( 31-C , 33-C ) :   1.0669 B( 31-C , 89-H ) :   0.9243 B( 32-C , 90-H ) :   0.9662
B( 32-C , 91-H ) :   0.9688 B( 32-C , 92-H ) :   0.9698 B( 33-C , 93-H ) :   0.9675
B( 33-C , 94-H ) :   0.9682 B( 33-C , 95-H ) :   0.9657 B( 34-C , 35-C ) :   1.0471
B( 34-C , 96-H ) :   0.9320 B( 34-C , 97-H ) :   0.9327 B( 35-C , 38-C ) :   1.0667
B( 35-C , 39-C ) :   1.0757 B( 35-C , 98-H ) :   0.9237 B( 36-C , 37-C ) :   1.0506
B( 36-C , 99-H ) :   0.9202 B( 36-C ,100-H ) :   0.9369 B( 37-C , 40-C ) :   1.0759
B( 37-C , 41-C ) :   1.0595 B( 37-C ,101-H ) :   0.9262 B( 38-C ,102-H ) :   0.9644
B( 38-C ,103-H ) :   0.9669 B( 38-C ,104-H ) :   0.9624 B( 39-C ,105-H ) :   0.9663
B( 39-C ,106-H ) :   0.9670 B( 39-C ,107-H ) :   0.9652 B( 40-C ,108-H ) :   0.9664
B( 40-C ,109-H ) :   0.9652 B( 40-C ,110-H ) :   0.9656 B( 41-C ,111-H ) :   0.9680
B( 41-C ,112-H ) :   0.9649 B( 41-C ,113-H ) :   0.9645 B( 42-C , 43-C ) :   1.6032
B( 42-C ,114-H ) :   0.9499 B( 43-C , 44-C ) :   0.9570 B( 43-C , 47-C ) :   1.0471
B( 44-C , 45-C ) :   0.9207 B( 44-C , 69-O ) :   2.2690 B( 45-C , 46-C ) :   1.3384
B( 45-C , 48-C ) :   1.3440 B( 46-C , 47-C ) :   1.0109 B( 46-C , 51-C ) :   1.3704
B( 47-C , 71-C ) :   1.6531 B( 48-C , 49-C ) :   1.3134 B( 48-C ,115-H ) :   1.0176
B( 49-C , 50-C ) :   1.3624 B( 49-C , 70-F ) :   1.0861 B( 50-C , 51-C ) :   1.3487
B( 50-C ,116-H ) :   0.9902 B( 51-C ,117-H ) :   0.9863 B( 52-C , 53-C ) :   1.6094
B( 52-C ,118-H ) :   0.9265 B( 53-C , 54-C ) :   0.9599 B( 53-C , 57-C ) :   1.0594
B( 54-C , 55-C ) :   0.9204 B( 54-C , 62-O ) :   2.2612 B( 55-C , 56-C ) :   1.3379
B( 55-C , 58-C ) :   1.3437 B( 56-C , 57-C ) :   1.0063 B( 56-C , 61-C ) :   1.3694
B( 57-C , 64-C ) :   1.6250 B( 58-C , 59-C ) :   1.3107 B( 58-C ,119-H ) :   1.0174
B( 59-C , 60-C ) :   1.3647 B( 59-C , 63-F ) :   1.0882 B( 60-C , 61-C ) :   1.3488
B( 60-C ,120-H ) :   0.9890 B( 61-C ,121-H ) :   0.9849 B( 64-C , 65-C ) :   1.1292
B( 64-C , 66-C ) :   1.1709 B( 65-C , 67-N ) :   2.9910 B( 66-C , 68-N ) :   3.0008
B( 71-C , 72-C ) :   1.1373 B( 71-C , 73-C ) :   1.1485 B( 72-C , 75-N ) :   2.9953
B( 73-C , 74-N ) :   3.0202

-----------------------------------------------------------------------------
         ABSORPTION SPECTRUM VIA TRANSITION ELECTRIC DIPOLE MOMENTS
-----------------------------------------------------------------------------
State   Energy  Wavelength   fosc         T2         TX        TY        TZ
        (cm-1)    (nm)                  (au**2)     (au)      (au)      (au)
-----------------------------------------------------------------------------
   0   16071.5    622.2   1.673317906  34.27649   5.72202  -1.12429  -0.52052
   1   18840.8    530.8   0.206971254   3.61648   1.10911   1.51797  -0.28656
   2   21649.7    461.9   0.181541130   2.76058   1.05037  -1.10380   0.66251
   3   22974.8    435.3   0.104655435   1.49963   0.20191  -1.19092   0.20146
   4   24276.8    411.9   0.513257338   6.96017   2.52674  -0.69947  -0.29409
   5   25329.8    394.8   0.013318203   0.17310  -0.14625  -0.11721   0.37144
   6   25771.7    388.0   0.030689508   0.39203  -0.17092   0.60030   0.04964
   7   27673.1    361.4   0.062378151   0.74208  -0.84436  -0.16134   0.05578
   8   28855.3    346.6   0.011304953   0.12898  -0.28634   0.17675  -0.12550
   9   29176.1    342.7   0.140941025   1.59033  -1.09485   0.33829   0.52649
  10   29620.5    337.6   0.049556095   0.55078   0.62623   0.35406  -0.18238
  11   29988.9    333.5   0.075654850   0.83052  -0.65002   0.42333  -0.47832
  12   31198.3    320.5   0.086164431   0.90923  -0.81060  -0.17945   0.46899
  13   31356.2    318.9   0.012880397   0.13523  -0.06319  -0.35394   0.07723
  14   32031.1    312.2   0.145511753   1.49555   0.10555  -0.04015   1.21770
  15   32041.6    312.1   0.041332851   0.42467   0.53674  -0.26543   0.25716
  16   32343.8    309.2   0.505721732   5.14750  -2.23244   0.30486   0.26604
  17   32562.5    307.1   0.018954435   0.19163  -0.22382   0.37491   0.03133
  18   32952.6    303.5   0.024737165   0.24714   0.44925   0.11156   0.18130
  19   33140.3    301.7   0.044648924   0.44354   0.07357  -0.55145  -0.36610
  20   33892.2    295.1   0.086886816   0.84397  -0.77691  -0.34550   0.34788
  21   34936.7    286.2   0.018346627   0.17288  -0.31502  -0.01776   0.27079
  22   35575.5    281.1   0.096778976   0.89558   0.62630   0.36122   0.61061
  23   35772.0    279.5   0.367576873   3.38283   1.60746   0.19328   0.87267
  24   35832.3    279.1   0.123111050   1.13109  -0.55213   0.66602   0.61859
  25   36040.5    277.5   0.386646100   3.53182  -1.51048   0.28516   1.08118
  26   36863.2    271.3   0.093609020   0.83599  -0.84320   0.34728   0.06635
  27   37610.0    265.9   0.026098993   0.22845   0.10121  -0.46569   0.03663
  28   38072.9    262.7   0.013966143   0.12076  -0.30114  -0.15196  -0.08358
  29   38273.8    261.3   0.094340417   0.81147   0.76934  -0.40279   0.23947
  30   38442.4    260.1   0.033373077   0.28580   0.29111   0.41098   0.17930
  31   38775.3    257.9   0.172616750   1.46556   1.19014   0.22151   0.00842
  32   38905.3    257.0   0.079243704   0.67055   0.43856  -0.23162  -0.65159
  33   39206.5    255.1   0.154785042   1.29971  -0.43739   1.04078   0.15866
  34   39272.9    254.6   0.005157553   0.04323  -0.20490   0.00785   0.03447
  35   39654.3    252.2   0.163284915   1.35560  -0.51292   0.96436  -0.40314

FINAL SINGLE POINT ENERGY     -4731.447969287494

DIPOLE MOMENT
-------------
                                X             Y             Z
Electronic contribution:      3.07491      36.38400     -21.87663
Nuclear contribution   :     -4.19910     -38.51088      20.87040
                        -----------------------------------------
Total Dipole Moment    :     -1.12420      -2.12688      -1.00623
                        -----------------------------------------
Magnitude (a.u.)       :      2.60767
Magnitude (Debye)      :      6.62817

Rotational constants in cm-1:     0.001745     0.000281     0.000259
Rotational constants in MHz :    52.327766     8.430094     7.758706

                             ****ORCA TERMINATED NORMALLY****
TOTAL RUN TIME: 0 days 1 hours 20 minutes 39 seconds 790 msec
