                         Program Version 4.2.0 -  RELEASE  -
|  1> # ORCA input file
|  2> # SNBDT1-F.out: Geometry 170
|  3> ! CAM-B3LYP def2-SVP def2/J RIJCOSX Grid4 TightSCF
|  4> %maxcore 5000
|  5> %tddft
|  6>     Mode sTDDFT
|  7>     Ethresh 5.0
|  8>     maxcore 5000
|  9> end
| 10> * xyz 0 1
| 11>    C       -3.02947        -0.81091         0.18491
| 12>    C       -1.97407        -0.21533        -0.53148
| 13>    C       -0.68458        -0.69249        -0.32498
| 14>    C       -0.36290        -1.72726         0.61672
| 15>    C       -1.41665        -2.25157         1.41810
| 16>    C       -2.72276        -1.77071         1.21500
| 17>    S        0.69953         0.01391        -1.15209
| 18>    C        1.75073        -1.02901        -0.24277
| 19>    C        1.07578        -1.91824         0.63522
| 20>    C        3.12978        -1.22518        -0.08882
| 21>    C        3.27602        -2.24751         0.87931
| 22>    N        2.03102        -2.66983         1.31459
| 23>    S        4.66005        -0.65745        -0.66057
| 24>    C        5.50513        -1.81243         0.39360
| 25>    C        4.60857        -2.59314         1.13885
| 26>    S       -4.13158        -2.06215         2.27995
| 27>    C       -5.11036        -0.97651         1.32718
| 28>    C       -4.42500        -0.46594         0.20571
| 29>    C       -6.37937        -0.36164         1.35909
| 30>    C       -6.43507         0.47970         0.21833
| 31>    N       -5.26193         0.38449        -0.50750
| 32>    S       -7.81324        -0.19879         2.31859
| 33>    C       -8.45136         1.03110         1.20461
| 34>    C       -7.59537         1.25205         0.12494
| 35>    O       -1.05712        -3.12846         2.39392
| 36>    O       -2.16552         0.86645        -1.34591
| 37>    C       -2.48747         2.10067        -0.65805
| 38>    C       -1.26840         2.88939        -0.18849
| 39>    C       -0.44804         3.41360        -1.36879
| 40>    C       -1.74799         4.02705         0.72087
| 41>    C       -1.94101        -4.15577         2.84747
| 42>    C       -1.16590        -5.13587         3.72346
| 43>    C       -0.52909        -4.43194         4.92562
| 44>    C       -2.09096        -6.27316         4.16661
| 45>    C       -5.18977         0.76637        -1.91542
| 46>    C       -5.72932        -0.29131        -2.89690
| 47>    C        1.90915        -3.86285         2.14070
| 48>    C        2.28917        -5.15073         1.38695
| 49>    C       -7.16915        -0.72884        -2.61677
| 50>    C       -5.59512         0.25787        -4.32057
| 51>    C        2.56263        -6.28381         2.37931
| 52>    C        1.22904        -5.53834         0.35465
| 53>    C        6.90366        -2.04307         0.35829
| 54>    C        7.95107        -1.38702        -0.24651
| 55>    C        9.17124        -2.18517        -0.58601
| 56>    C        9.92731        -1.35571        -1.56878
| 57>    C        9.26534        -0.12169        -1.75291
| 58>    C        8.11981        -0.05767        -0.81245
| 59>    C       11.08567        -1.69344        -2.25467
| 60>    C       11.56812        -0.75921        -3.17141
| 61>    C       10.92827         0.46402        -3.39452
| 62>    C        9.77493         0.79836        -2.67856
| 63>    C       -9.70380         1.66060         1.44755
| 64>    C      -10.14885         2.86933         0.96159
| 65>    C      -11.62534         3.11677         0.86324
| 66>    C      -11.77266         4.30180        -0.03410
| 67>    C      -10.49420         4.80149        -0.36331
| 68>    C       -9.46992         4.02057         0.37139
| 69>    C      -12.94436         4.85882        -0.53208
| 70>    C      -12.80802         5.93841        -1.40739
| 71>    C      -11.55607         6.44707        -1.76844
| 72>    C      -10.38914         5.88895        -1.24160
| 73>    O      -12.51628         2.45826         1.35735
| 74>    F      -13.89616         6.51131        -1.92954
| 75>    C       -8.17683         4.45446         0.61422
| 76>    C       -7.63279         5.63373         0.01634
| 77>    C       -7.28620         3.82650         1.53851
| 78>    N       -7.15702         6.57434        -0.47389
| 79>    N       -6.52321         3.37772         2.29167
| 80>    O        9.45040        -3.30288        -0.20251
| 81>    F       12.67496        -1.03764        -3.86532
| 82>    C        7.50812         1.10318        -0.37041
| 83>    C        7.72703         2.37004        -0.99409
| 84>    C        6.73029         1.13747         0.82808
| 85>    N        6.14497         1.18656         1.83061
| 86>    N        7.88682         3.39684        -1.51542
| 87>    H        4.94958        -3.36827         1.82462
| 88>    H       -7.83073         1.94773        -0.67755
| 89>    H       -3.15068         1.87701         0.19129
| 90>    H       -3.06027         2.69819        -1.38451
| 91>    H       -0.63842         2.20849         0.40993
| 92>    H       -1.02657         4.16031        -1.93910
| 93>    H       -0.16917         2.60315        -2.05670
| 94>    H        0.47693         3.89876        -1.02143
| 95>    H       -2.42247         4.71005         0.17657
| 96>    H       -0.89831         4.62295         1.08684
| 97>    H       -2.29640         3.64291         1.59565
| 98>    H       -2.38710        -4.66439         1.97549
| 99>    H       -2.75696        -3.72187         3.44840
|100>    H       -0.36621        -5.57350         3.10279
|101>    H       -1.30859        -4.00631         5.57965
|102>    H        0.13202        -3.60972         4.61695
|103>    H        0.06220        -5.14104         5.52647
|104>    H       -2.90975        -5.89532         4.80157
|105>    H       -1.53103        -7.01557         4.75626
|106>    H       -2.54129        -6.79512         3.30704
|107>    H       -4.14440         0.97052        -2.16445
|108>    H       -5.75407         1.70609        -2.02349
|109>    H       -5.07738        -1.17769        -2.79877
|110>    H        0.88530        -3.90679         2.50989
|111>    H        2.57123        -3.72937         3.01056
|112>    H        3.22864        -4.94626         0.84462
|113>    H       -7.49112        -1.47555        -3.35909
|114>    H       -7.86407         0.12513        -2.68437
|115>    H       -7.28542        -1.18067        -1.62145
|116>    H       -6.25427         1.13088        -4.46289
|117>    H       -5.88672        -0.50008        -5.06349
|118>    H       -4.56530         0.57891        -4.54303
|119>    H        1.65618        -6.54532         2.94974
|120>    H        3.34301        -6.00644         3.10546
|121>    H        2.89923        -7.19155         1.85510
|122>    H        0.30217        -5.86866         0.85166
|123>    H        1.58178        -6.36710        -0.27861
|124>    H        0.97454        -4.69495        -0.30554
|125>    H        7.20441        -3.00307         0.79717
|126>    H       11.59241        -2.64453        -2.08456
|127>    H       11.35133         1.15047        -4.13006
|128>    H        9.29301         1.75692        -2.85994
|129>    H      -10.45636         1.09576         2.01313
|130>    H      -13.92265         4.46526        -0.25149
|131>    H      -11.51415         7.28931        -2.46121
|132>    H       -9.42652         6.30462        -1.53106
|133> *
|134>
|135>                          ****END OF INPUT****

CARTESIAN COORDINATES (ANGSTROEM)
---------------------------------
  C     -3.029470   -0.810910    0.184910
  C     -1.974070   -0.215330   -0.531480
  C     -0.684580   -0.692490   -0.324980
  C     -0.362900   -1.727260    0.616720
  C     -1.416650   -2.251570    1.418100
  C     -2.722760   -1.770710    1.215000
  S      0.699530    0.013910   -1.152090
  C      1.750730   -1.029010   -0.242770
  C      1.075780   -1.918240    0.635220
  C      3.129780   -1.225180   -0.088820
  C      3.276020   -2.247510    0.879310
  N      2.031020   -2.669830    1.314590
  S      4.660050   -0.657450   -0.660570
  C      5.505130   -1.812430    0.393600
  C      4.608570   -2.593140    1.138850
  S     -4.131580   -2.062150    2.279950
  C     -5.110360   -0.976510    1.327180
  C     -4.425000   -0.465940    0.205710
  C     -6.379370   -0.361640    1.359090
  C     -6.435070    0.479700    0.218330
  N     -5.261930    0.384490   -0.507500
  S     -7.813240   -0.198790    2.318590
  C     -8.451360    1.031100    1.204610
  C     -7.595370    1.252050    0.124940
  O     -1.057120   -3.128460    2.393920
  O     -2.165520    0.866450   -1.345910
  C     -2.487470    2.100670   -0.658050
  C     -1.268400    2.889390   -0.188490
  C     -0.448040    3.413600   -1.368790
  C     -1.747990    4.027050    0.720870
  C     -1.941010   -4.155770    2.847470
  C     -1.165900   -5.135870    3.723460
  C     -0.529090   -4.431940    4.925620
  C     -2.090960   -6.273160    4.166610
  C     -5.189770    0.766370   -1.915420
  C     -5.729320   -0.291310   -2.896900
  C      1.909150   -3.862850    2.140700
  C      2.289170   -5.150730    1.386950
  C     -7.169150   -0.728840   -2.616770
  C     -5.595120    0.257870   -4.320570
  C      2.562630   -6.283810    2.379310
  C      1.229040   -5.538340    0.354650
  C      6.903660   -2.043070    0.358290
  C      7.951070   -1.387020   -0.246510
  C      9.171240   -2.185170   -0.586010
  C      9.927310   -1.355710   -1.568780
  C      9.265340   -0.121690   -1.752910
  C      8.119810   -0.057670   -0.812450
  C     11.085670   -1.693440   -2.254670
  C     11.568120   -0.759210   -3.171410
  C     10.928270    0.464020   -3.394520
  C      9.774930    0.798360   -2.678560
  C     -9.703800    1.660600    1.447550
  C    -10.148850    2.869330    0.961590
  C    -11.625340    3.116770    0.863240
  C    -11.772660    4.301800   -0.034100
  C    -10.494200    4.801490   -0.363310
  C     -9.469920    4.020570    0.371390
  C    -12.944360    4.858820   -0.532080
  C    -12.808020    5.938410   -1.407390
  C    -11.556070    6.447070   -1.768440
  C    -10.389140    5.888950   -1.241600
  O    -12.516280    2.458260    1.357350
  F    -13.896160    6.511310   -1.929540
  C     -8.176830    4.454460    0.614220
  C     -7.632790    5.633730    0.016340
  C     -7.286200    3.826500    1.538510
  N     -7.157020    6.574340   -0.473890
  N     -6.523210    3.377720    2.291670
  O      9.450400   -3.302880   -0.202510
  F     12.674960   -1.037640   -3.865320
  C      7.508120    1.103180   -0.370410
  C      7.727030    2.370040   -0.994090
  C      6.730290    1.137470    0.828080
  N      6.144970    1.186560    1.830610
  N      7.886820    3.396840   -1.515420
  H      4.949580   -3.368270    1.824620
  H     -7.830730    1.947730   -0.677550
  H     -3.150680    1.877010    0.191290
  H     -3.060270    2.698190   -1.384510
  H     -0.638420    2.208490    0.409930
  H     -1.026570    4.160310   -1.939100
  H     -0.169170    2.603150   -2.056700
  H      0.476930    3.898760   -1.021430
  H     -2.422470    4.710050    0.176570
  H     -0.898310    4.622950    1.086840
  H     -2.296400    3.642910    1.595650
  H     -2.387100   -4.664390    1.975490
  H     -2.756960   -3.721870    3.448400
  H     -0.366210   -5.573500    3.102790
  H     -1.308590   -4.006310    5.579650
  H      0.132020   -3.609720    4.616950
  H      0.062200   -5.141040    5.526470
  H     -2.909750   -5.895320    4.801570
  H     -1.531030   -7.015570    4.756260
  H     -2.541290   -6.795120    3.307040
  H     -4.144400    0.970520   -2.164450
  H     -5.754070    1.706090   -2.023490
  H     -5.077380   -1.177690   -2.798770
  H      0.885300   -3.906790    2.509890
  H      2.571230   -3.729370    3.010560
  H      3.228640   -4.946260    0.844620
  H     -7.491120   -1.475550   -3.359090
  H     -7.864070    0.125130   -2.684370
  H     -7.285420   -1.180670   -1.621450
  H     -6.254270    1.130880   -4.462890
  H     -5.886720   -0.500080   -5.063490
  H     -4.565300    0.578910   -4.543030
  H      1.656180   -6.545320    2.949740
  H      3.343010   -6.006440    3.105460
  H      2.899230   -7.191550    1.855100
  H      0.302170   -5.868660    0.851660
  H      1.581780   -6.367100   -0.278610
  H      0.974540   -4.694950   -0.305540
  H      7.204410   -3.003070    0.797170
  H     11.592410   -2.644530   -2.084560
  H     11.351330    1.150470   -4.130060
  H      9.293010    1.756920   -2.859940
  H    -10.456360    1.095760    2.013130
  H    -13.922650    4.465260   -0.251490
  H    -11.514150    7.289310   -2.461210
  H     -9.426520    6.304620   -1.531060

 Total Charge           Charge          ....    0
 Multiplicity           Mult            ....    1
 Number of Electrons    NEL             ....  562
 Basis Dimension        Dim             .... 1310

ORBITAL ENERGIES
----------------

  NO   OCC          E(Eh)            E(eV)
   0   2.0000     -88.970905     -2421.0214
   1   2.0000     -88.965823     -2420.8831
   2   2.0000     -88.964952     -2420.8594
   3   2.0000     -88.957929     -2420.6683
   4   2.0000     -24.796519      -674.7476
   5   2.0000     -24.789418      -674.5544
   6   2.0000     -19.263696      -524.1918
   7   2.0000     -19.249077      -523.7940
   8   2.0000     -19.219701      -522.9947
   9   2.0000     -19.211640      -522.7753
  10   2.0000     -14.476932      -393.9373
  11   2.0000     -14.475247      -393.8915
  12   2.0000     -14.422076      -392.4446
  13   2.0000     -14.419474      -392.3738
  14   2.0000     -14.413137      -392.2014
  15   2.0000     -14.407508      -392.0482
  16   2.0000     -10.382708      -282.5278
  17   2.0000     -10.374535      -282.3055
  18   2.0000     -10.372838      -282.2593
  19   2.0000     -10.364257      -282.0258
  20   2.0000     -10.361707      -281.9564
  21   2.0000     -10.350832      -281.6604
  22   2.0000     -10.350003      -281.6379
  23   2.0000     -10.344685      -281.4932
  24   2.0000     -10.341069      -281.3948
  25   2.0000     -10.340040      -281.3668
  26   2.0000     -10.337644      -281.3016
  27   2.0000     -10.332678      -281.1665
  28   2.0000     -10.330249      -281.1004
  29   2.0000     -10.328557      -281.0543
  30   2.0000     -10.326190      -280.9899
  31   2.0000     -10.322946      -280.9016
  32   2.0000     -10.322413      -280.8871
  33   2.0000     -10.322034      -280.8768
  34   2.0000     -10.322001      -280.8759
  35   2.0000     -10.321828      -280.8712
  36   2.0000     -10.319956      -280.8203
  37   2.0000     -10.318249      -280.7738
  38   2.0000     -10.317091      -280.7423
  39   2.0000     -10.316974      -280.7391
  40   2.0000     -10.316936      -280.7381
  41   2.0000     -10.316356      -280.7223
  42   2.0000     -10.315255      -280.6924
  43   2.0000     -10.314239      -280.6647
  44   2.0000     -10.312041      -280.6049
  45   2.0000     -10.311846      -280.5996
  46   2.0000     -10.310801      -280.5712
  47   2.0000     -10.310099      -280.5521
  48   2.0000     -10.309716      -280.5416
  49   2.0000     -10.309552      -280.5372
  50   2.0000     -10.309211      -280.5279
  51   2.0000     -10.306678      -280.4590
  52   2.0000     -10.306458      -280.4530
  53   2.0000     -10.306088      -280.4429
  54   2.0000     -10.305639      -280.4307
  55   2.0000     -10.305188      -280.4184
  56   2.0000     -10.304493      -280.3995
  57   2.0000     -10.304363      -280.3960
  58   2.0000     -10.302633      -280.3489
  59   2.0000     -10.301236      -280.3109
  60   2.0000     -10.297362      -280.2055
  61   2.0000     -10.297021      -280.1962
  62   2.0000     -10.296870      -280.1921
  63   2.0000     -10.291639      -280.0497
  64   2.0000     -10.288407      -279.9618
  65   2.0000     -10.284001      -279.8419
  66   2.0000     -10.283649      -279.8323
  67   2.0000     -10.274132      -279.5733
  68   2.0000     -10.271806      -279.5100
  69   2.0000     -10.268320      -279.4152
  70   2.0000     -10.268101      -279.4092
  71   2.0000     -10.268012      -279.4068
  72   2.0000     -10.267432      -279.3910
  73   2.0000     -10.266244      -279.3587
  74   2.0000     -10.254756      -279.0461
  75   2.0000     -10.250660      -278.9346
  76   2.0000      -8.065023      -219.4604
  77   2.0000      -8.059586      -219.3125
  78   2.0000      -8.058386      -219.2798
  79   2.0000      -8.051797      -219.1005
  80   2.0000      -6.034776      -164.2146
  81   2.0000      -6.030716      -164.1041
  82   2.0000      -6.029409      -164.0686
  83   2.0000      -6.028628      -164.0473
  84   2.0000      -6.026348      -163.9853
  85   2.0000      -6.025248      -163.9553
  86   2.0000      -6.024528      -163.9358
  87   2.0000      -6.021834      -163.8624
  88   2.0000      -6.020906      -163.8372
  89   2.0000      -6.018835      -163.7808
  90   2.0000      -6.017788      -163.7523
  91   2.0000      -6.012520      -163.6090
  92   2.0000      -1.314170       -35.7604
  93   2.0000      -1.307320       -35.5740
  94   2.0000      -1.164437       -31.6859
  95   2.0000      -1.148699       -31.2577
  96   2.0000      -1.131793       -30.7976
  97   2.0000      -1.123639       -30.5758
  98   2.0000      -1.096196       -29.8290
  99   2.0000      -1.091806       -29.7096
 100   2.0000      -1.014275       -27.5998
 101   2.0000      -1.004847       -27.3433
 102   2.0000      -0.994652       -27.0658
 103   2.0000      -0.992243       -27.0003
 104   2.0000      -0.990641       -26.9567
 105   2.0000      -0.985692       -26.8221
 106   2.0000      -0.982482       -26.7347
 107   2.0000      -0.981152       -26.6985
 108   2.0000      -0.976987       -26.5852
 109   2.0000      -0.970148       -26.3991
 110   2.0000      -0.948513       -25.8104
 111   2.0000      -0.940482       -25.5918
 112   2.0000      -0.926812       -25.2198
 113   2.0000      -0.914057       -24.8728
 114   2.0000      -0.911522       -24.8038
 115   2.0000      -0.899373       -24.4732
 116   2.0000      -0.897318       -24.4173
 117   2.0000      -0.891965       -24.2716
 118   2.0000      -0.888768       -24.1846
 119   2.0000      -0.884830       -24.0775
 120   2.0000      -0.877335       -23.8735
 121   2.0000      -0.864926       -23.5358
 122   2.0000      -0.864117       -23.5138
 123   2.0000      -0.857913       -23.3450
 124   2.0000      -0.856311       -23.3014
 125   2.0000      -0.852750       -23.2045
 126   2.0000      -0.840785       -22.8789
 127   2.0000      -0.835846       -22.7445
 128   2.0000      -0.824143       -22.4261
 129   2.0000      -0.811484       -22.0816
 130   2.0000      -0.805321       -21.9139
 131   2.0000      -0.792138       -21.5552
 132   2.0000      -0.786882       -21.4121
 133   2.0000      -0.777026       -21.1439
 134   2.0000      -0.775143       -21.0927
 135   2.0000      -0.774325       -21.0705
 136   2.0000      -0.768223       -20.9044
 137   2.0000      -0.766921       -20.8690
 138   2.0000      -0.763035       -20.7633
 139   2.0000      -0.760379       -20.6910
 140   2.0000      -0.758882       -20.6502
 141   2.0000      -0.756241       -20.5784
 142   2.0000      -0.744775       -20.2664
 143   2.0000      -0.730804       -19.8862
 144   2.0000      -0.714497       -19.4425
 145   2.0000      -0.704610       -19.1734
 146   2.0000      -0.697939       -18.9919
 147   2.0000      -0.692340       -18.8395
 148   2.0000      -0.687909       -18.7190
 149   2.0000      -0.681367       -18.5409
 150   2.0000      -0.678210       -18.4550
 151   2.0000      -0.671912       -18.2837
 152   2.0000      -0.670713       -18.2510
 153   2.0000      -0.666588       -18.1388
 154   2.0000      -0.664707       -18.0876
 155   2.0000      -0.660580       -17.9753
 156   2.0000      -0.656975       -17.8772
 157   2.0000      -0.650837       -17.7102
 158   2.0000      -0.647672       -17.6240
 159   2.0000      -0.639809       -17.4101
 160   2.0000      -0.637927       -17.3589
 161   2.0000      -0.635246       -17.2859
 162   2.0000      -0.630527       -17.1575
 163   2.0000      -0.614450       -16.7200
 164   2.0000      -0.608985       -16.5713
 165   2.0000      -0.607462       -16.5299
 166   2.0000      -0.604192       -16.4409
 167   2.0000      -0.600824       -16.3492
 168   2.0000      -0.596972       -16.2444
 169   2.0000      -0.593770       -16.1573
 170   2.0000      -0.589992       -16.0545
 171   2.0000      -0.587359       -15.9828
 172   2.0000      -0.584744       -15.9117
 173   2.0000      -0.579584       -15.7713
 174   2.0000      -0.578625       -15.7452
 175   2.0000      -0.571516       -15.5517
 176   2.0000      -0.568803       -15.4779
 177   2.0000      -0.565129       -15.3779
 178   2.0000      -0.563747       -15.3403
 179   2.0000      -0.562081       -15.2950
 180   2.0000      -0.560725       -15.2581
 181   2.0000      -0.560223       -15.2445
 182   2.0000      -0.554397       -15.0859
 183   2.0000      -0.548732       -14.9318
 184   2.0000      -0.546339       -14.8666
 185   2.0000      -0.542672       -14.7668
 186   2.0000      -0.541379       -14.7317
 187   2.0000      -0.539305       -14.6752
 188   2.0000      -0.533924       -14.5288
 189   2.0000      -0.531119       -14.4525
 190   2.0000      -0.529237       -14.4013
 191   2.0000      -0.526846       -14.3362
 192   2.0000      -0.524865       -14.2823
 193   2.0000      -0.523252       -14.2384
 194   2.0000      -0.520876       -14.1738
 195   2.0000      -0.520324       -14.1587
 196   2.0000      -0.518079       -14.0976
 197   2.0000      -0.514674       -14.0050
 198   2.0000      -0.512705       -13.9514
 199   2.0000      -0.510359       -13.8876
 200   2.0000      -0.508939       -13.8489
 201   2.0000      -0.506702       -13.7881
 202   2.0000      -0.505879       -13.7657
 203   2.0000      -0.500336       -13.6148
 204   2.0000      -0.496653       -13.5146
 205   2.0000      -0.494881       -13.4664
 206   2.0000      -0.493289       -13.4231
 207   2.0000      -0.490626       -13.3506
 208   2.0000      -0.487533       -13.2664
 209   2.0000      -0.486583       -13.2406
 210   2.0000      -0.484980       -13.1970
 211   2.0000      -0.482624       -13.1329
 212   2.0000      -0.480740       -13.0816
 213   2.0000      -0.478429       -13.0187
 214   2.0000      -0.474158       -12.9025
 215   2.0000      -0.472665       -12.8619
 216   2.0000      -0.470638       -12.8067
 217   2.0000      -0.469148       -12.7662
 218   2.0000      -0.467537       -12.7223
 219   2.0000      -0.466469       -12.6933
 220   2.0000      -0.465932       -12.6787
 221   2.0000      -0.464979       -12.6527
 222   2.0000      -0.461910       -12.5692
 223   2.0000      -0.457933       -12.4610
 224   2.0000      -0.457154       -12.4398
 225   2.0000      -0.455307       -12.3895
 226   2.0000      -0.454609       -12.3706
 227   2.0000      -0.452543       -12.3143
 228   2.0000      -0.451473       -12.2852
 229   2.0000      -0.451170       -12.2770
 230   2.0000      -0.449630       -12.2350
 231   2.0000      -0.446888       -12.1604
 232   2.0000      -0.445341       -12.1183
 233   2.0000      -0.444903       -12.1064
 234   2.0000      -0.444172       -12.0865
 235   2.0000      -0.442262       -12.0346
 236   2.0000      -0.438854       -11.9418
 237   2.0000      -0.436296       -11.8722
 238   2.0000      -0.433931       -11.8079
 239   2.0000      -0.429903       -11.6983
 240   2.0000      -0.428679       -11.6649
 241   2.0000      -0.427238       -11.6257
 242   2.0000      -0.425522       -11.5790
 243   2.0000      -0.425192       -11.5701
 244   2.0000      -0.423793       -11.5320
 245   2.0000      -0.422850       -11.5063
 246   2.0000      -0.420896       -11.4532
 247   2.0000      -0.420728       -11.4486
 248   2.0000      -0.419113       -11.4046
 249   2.0000      -0.416873       -11.3437
 250   2.0000      -0.414966       -11.2918
 251   2.0000      -0.414518       -11.2796
 252   2.0000      -0.412922       -11.2362
 253   2.0000      -0.411833       -11.2065
 254   2.0000      -0.410214       -11.1625
 255   2.0000      -0.408719       -11.1218
 256   2.0000      -0.406625       -11.0648
 257   2.0000      -0.402268       -10.9463
 258   2.0000      -0.400517       -10.8986
 259   2.0000      -0.398197       -10.8355
 260   2.0000      -0.395332       -10.7575
 261   2.0000      -0.389520       -10.5994
 262   2.0000      -0.386602       -10.5200
 263   2.0000      -0.380834       -10.3630
 264   2.0000      -0.370269       -10.0755
 265   2.0000      -0.363212        -9.8835
 266   2.0000      -0.352667        -9.5965
 267   2.0000      -0.351562        -9.5665
 268   2.0000      -0.344810        -9.3828
 269   2.0000      -0.343857        -9.3568
 270   2.0000      -0.340177        -9.2567
 271   2.0000      -0.335999        -9.1430
 272   2.0000      -0.332943        -9.0598
 273   2.0000      -0.324301        -8.8247
 274   2.0000      -0.312279        -8.4976
 275   2.0000      -0.305857        -8.3228
 276   2.0000      -0.301329        -8.1996
 277   2.0000      -0.286145        -7.7864
 278   2.0000      -0.271734        -7.3942
 279   2.0000      -0.265200        -7.2165
 280   2.0000      -0.237091        -6.4516
 281   0.0000      -0.096315        -2.6209
 282   0.0000      -0.084799        -2.3075
 283   0.0000      -0.063162        -1.7187
 284   0.0000      -0.054991        -1.4964
 285   0.0000      -0.024733        -0.6730

MULLIKEN ATOMIC CHARGES
-----------------------
   0 C :    0.062232
   1 C :    0.043096
   2 C :   -0.114038
   3 C :    0.068333
   4 C :    0.118424
   5 C :   -0.160831
   6 S :    0.161602
   7 C :   -0.122422
   8 C :    0.066824
   9 C :   -0.087578
  10 C :    0.159950
  11 N :   -0.181887
  12 S :    0.171082
  13 C :   -0.078124
  14 C :   -0.053990
  15 S :    0.113693
  16 C :   -0.105284
  17 C :    0.065494
  18 C :   -0.079670
  19 C :    0.110259
  20 N :   -0.188503
  21 S :    0.168435
  22 C :   -0.140674
  23 C :   -0.005523
  24 O :   -0.341586
  25 O :   -0.353664
  26 C :    0.208570
  27 C :   -0.114183
  28 C :    0.027726
  29 C :    0.003315
  30 C :    0.205562
  31 C :   -0.155272
  32 C :    0.018865
  33 C :    0.022110
  34 C :    0.130973
  35 C :   -0.112235
  36 C :    0.174219
  37 C :   -0.135514
  38 C :    0.019671
  39 C :    0.018158
  40 C :    0.022828
  41 C :    0.026108
  42 C :    0.029935
  43 C :   -0.135682
  44 C :    0.140057
  45 C :   -0.016706
  46 C :    0.025239
  47 C :    0.228151
  48 C :   -0.091657
  49 C :    0.299882
  50 C :   -0.042880
  51 C :   -0.019145
  52 C :    0.082105
  53 C :   -0.144247
  54 C :    0.136540
  55 C :   -0.011699
  56 C :    0.013388
  57 C :    0.242416
  58 C :   -0.089463
  59 C :    0.300205
  60 C :   -0.042221
  61 C :   -0.018420
  62 O :   -0.144596
  63 F :   -0.177714
  64 C :   -0.334235
  65 C :   -0.166419
  66 C :   -0.176219
  67 N :    0.129562
  68 N :    0.151960
  69 O :   -0.152640
  70 F :   -0.179641
  71 C :   -0.306944
  72 C :   -0.156257
  73 C :   -0.189190
  74 N :    0.149849
  75 N :    0.118439
  76 H :    0.004482
  77 H :    0.009556
  78 H :    0.032865
  79 H :    0.010175
  80 H :    0.015565
  81 H :    0.004128
  82 H :    0.020948
  83 H :    0.021714
  84 H :    0.015374
  85 H :    0.023387
  86 H :    0.027261
  87 H :    0.022755
  88 H :    0.030633
  89 H :    0.022173
  90 H :    0.013354
  91 H :    0.029092
  92 H :    0.020363
  93 H :    0.018986
  94 H :    0.024094
  95 H :    0.017268
  96 H :    0.054139
  97 H :    0.010417
  98 H :    0.014018
  99 H :    0.023685
 100 H :    0.014027
 101 H :    0.013914
 102 H :    0.019257
 103 H :    0.004043
 104 H :    0.039252
 105 H :    0.008961
 106 H :    0.022512
 107 H :    0.022762
 108 H :    0.006439
 109 H :    0.014862
 110 H :    0.023135
 111 H :    0.001637
 112 H :    0.019799
 113 H :    0.029606
 114 H :    0.028833
 115 H :    0.012806
 116 H :    0.017632
 117 H :    0.016684
 118 H :    0.036465
 119 H :    0.015781
 120 H :    0.020490
 121 H :    0.016363
Sum of atomic charges:   -0.0000000

LOEWDIN ATOMIC CHARGES
----------------------
   0 C :   -0.064191
   1 C :    0.008149
   2 C :   -0.152124
   3 C :   -0.071037
   4 C :    0.035698
   5 C :   -0.171414
   6 S :    0.416352
   7 C :   -0.219948
   8 C :    0.010885
   9 C :   -0.193330
  10 C :   -0.021112
  11 N :    0.038290
  12 S :    0.437510
  13 C :   -0.174455
  14 C :   -0.024415
  15 S :    0.384216
  16 C :   -0.211158
  17 C :   -0.002179
  18 C :   -0.197664
  19 C :   -0.012707
  20 N :    0.033334
  21 S :    0.427519
  22 C :   -0.179337
  23 C :   -0.027738
  24 O :   -0.106440
  25 O :   -0.134083
  26 C :    0.092523
  27 C :   -0.056345
  28 C :   -0.056439
  29 C :   -0.051191
  30 C :    0.085208
  31 C :   -0.054307
  32 C :   -0.054167
  33 C :   -0.049069
  34 C :    0.043711
  35 C :   -0.044914
  36 C :    0.044670
  37 C :   -0.048322
  38 C :   -0.058532
  39 C :   -0.052132
  40 C :   -0.053166
  41 C :   -0.054627
  42 C :    0.052646
  43 C :   -0.116038
  44 C :    0.087848
  45 C :   -0.035786
  46 C :   -0.022472
  47 C :    0.067099
  48 C :   -0.021154
  49 C :    0.095369
  50 C :   -0.034625
  51 C :    0.008350
  52 C :    0.055187
  53 C :   -0.105977
  54 C :    0.087258
  55 C :   -0.035188
  56 C :   -0.025854
  57 C :    0.068217
  58 C :   -0.020058
  59 C :    0.098043
  60 C :   -0.033121
  61 C :    0.007954
  62 O :   -0.142575
  63 F :   -0.052158
  64 C :   -0.145744
  65 C :   -0.016925
  66 C :   -0.017938
  67 N :   -0.061504
  68 N :   -0.049433
  69 O :   -0.149863
  70 F :   -0.053978
  71 C :   -0.145097
  72 C :   -0.013979
  73 C :   -0.032476
  74 N :   -0.053924
  75 N :   -0.061802
  76 H :    0.040465
  77 H :    0.036708
  78 H :    0.019366
  79 H :    0.018982
  80 H :    0.023730
  81 H :    0.021352
  82 H :    0.016792
  83 H :    0.028659
  84 H :    0.024885
  85 H :    0.030029
  86 H :    0.028727
  87 H :    0.017638
  88 H :    0.003466
  89 H :    0.019836
  90 H :    0.027036
  91 H :    0.026676
  92 H :    0.027569
  93 H :    0.026207
  94 H :    0.030601
  95 H :    0.025882
  96 H :    0.032117
  97 H :    0.024830
  98 H :    0.027484
  99 H :    0.026186
 100 H :    0.025371
 101 H :    0.024199
 102 H :    0.029558
 103 H :    0.020741
 104 H :    0.029036
 105 H :    0.023234
 106 H :    0.029409
 107 H :    0.028105
 108 H :    0.022306
 109 H :    0.024616
 110 H :    0.030395
 111 H :    0.020227
 112 H :    0.028926
 113 H :    0.028771
 114 H :    0.052433
 115 H :    0.050829
 116 H :    0.046604
 117 H :    0.044227
 118 H :    0.050518
 119 H :    0.051893
 120 H :    0.047626
 121 H :    0.043933

  Mayer bond orders larger than 0.100000
B(  0-C ,  1-C ) :   1.2990 B(  0-C ,  3-C ) :   0.1096 B(  0-C ,  5-C ) :   1.2903
B(  0-C , 17-C ) :   1.1292 B(  1-C ,  2-C ) :   1.4120 B(  1-C , 25-O ) :   1.1849
B(  2-C ,  3-C ) :   1.3296 B(  2-C ,  6-S ) :   1.0462 B(  3-C ,  4-C ) :   1.3022
B(  3-C ,  8-C ) :   1.1002 B(  4-C ,  5-C ) :   1.3849 B(  4-C , 24-O ) :   1.1615
B(  5-C , 15-S ) :   1.0075 B(  6-S ,  7-C ) :   0.9791 B(  7-C ,  8-C ) :   1.4394
B(  7-C ,  9-C ) :   1.4171 B(  8-C , 11-N ) :   1.1862 B(  9-C , 10-C ) :   1.3494
B(  9-C , 12-S ) :   1.0619 B( 10-C , 11-N ) :   1.1294 B( 10-C , 14-C ) :   1.2502
B( 11-N , 36-C ) :   0.9536 B( 12-S , 13-C ) :   1.0688 B( 13-C , 14-C ) :   1.3773
B( 13-C , 42-C ) :   1.2211 B( 14-C , 76-H ) :   1.0120 B( 15-S , 16-C ) :   0.9906
B( 16-C , 17-C ) :   1.4474 B( 16-C , 18-C ) :   1.3861 B( 17-C , 20-N ) :   1.1651
B( 18-C , 19-C ) :   1.3644 B( 18-C , 21-S ) :   1.0513 B( 19-C , 20-N ) :   1.1312
B( 19-C , 23-C ) :   1.2972 B( 20-N , 34-C ) :   0.9481 B( 21-S , 22-C ) :   1.0730
B( 22-C , 23-C ) :   1.4153 B( 22-C , 52-C ) :   1.1588 B( 23-C , 77-H ) :   0.9930
B( 24-O , 30-C ) :   0.9253 B( 25-O , 26-C ) :   0.8863 B( 26-C , 27-C ) :   1.0525
B( 26-C , 78-H ) :   0.9448 B( 26-C , 79-H ) :   0.9435 B( 27-C , 28-C ) :   1.0626
B( 27-C , 29-C ) :   1.0607 B( 27-C , 80-H ) :   0.9213 B( 28-C , 81-H ) :   0.9650
B( 28-C , 82-H ) :   0.9658 B( 28-C , 83-H ) :   0.9697 B( 29-C , 84-H ) :   0.9690
B( 29-C , 85-H ) :   0.9679 B( 29-C , 86-H ) :   0.9680 B( 30-C , 31-C ) :   1.0491
B( 30-C , 87-H ) :   0.9471 B( 30-C , 88-H ) :   0.9312 B( 31-C , 32-C ) :   1.0622
B( 31-C , 33-C ) :   1.0664 B( 31-C , 89-H ) :   0.9166 B( 32-C , 90-H ) :   0.9652
B( 32-C , 91-H ) :   0.9688 B( 32-C , 92-H ) :   0.9698 B( 33-C , 93-H ) :   0.9677
B( 33-C , 94-H ) :   0.9685 B( 33-C , 95-H ) :   0.9671 B( 34-C , 35-C ) :   1.0473
B( 34-C , 96-H ) :   0.9261 B( 34-C , 97-H ) :   0.9374 B( 35-C , 38-C ) :   1.0744
B( 35-C , 39-C ) :   1.0708 B( 35-C , 98-H ) :   0.9199 B( 36-C , 37-C ) :   1.0338
B( 36-C , 99-H ) :   0.9256 B( 36-C ,100-H ) :   0.9389 B( 37-C , 40-C ) :   1.0687
B( 37-C , 41-C ) :   1.0584 B( 37-C ,101-H ) :   0.9286 B( 38-C ,102-H ) :   0.9647
B( 38-C ,103-H ) :   0.9647 B( 38-C ,104-H ) :   0.9590 B( 39-C ,105-H ) :   0.9667
B( 39-C ,106-H ) :   0.9677 B( 39-C ,107-H ) :   0.9685 B( 40-C ,108-H ) :   0.9680
B( 40-C ,109-H ) :   0.9634 B( 40-C ,110-H ) :   0.9654 B( 41-C ,111-H ) :   0.9674
B( 41-C ,112-H ) :   0.9643 B( 41-C ,113-H ) :   0.9656 B( 42-C , 43-C ) :   1.5865
B( 42-C ,114-H ) :   0.9322 B( 43-C , 44-C ) :   0.9594 B( 43-C , 47-C ) :   1.0523
B( 44-C , 45-C ) :   0.9292 B( 44-C , 69-O ) :   2.2392 B( 45-C , 46-C ) :   1.3402
B( 45-C , 48-C ) :   1.3481 B( 46-C , 47-C ) :   1.0124 B( 46-C , 51-C ) :   1.3675
B( 47-C , 71-C ) :   1.6453 B( 48-C , 49-C ) :   1.3157 B( 48-C ,115-H ) :   1.0091
B( 49-C , 50-C ) :   1.3594 B( 49-C , 70-F ) :   1.0937 B( 50-C , 51-C ) :   1.3559
B( 50-C ,116-H ) :   0.9845 B( 51-C ,117-H ) :   0.9815 B( 52-C , 53-C ) :   1.6405
B( 52-C ,118-H ) :   0.9309 B( 53-C , 54-C ) :   0.9518 B( 53-C , 57-C ) :   1.0492
B( 54-C , 55-C ) :   0.9218 B( 54-C , 62-O ) :   2.2572 B( 55-C , 56-C ) :   1.3435
B( 55-C , 58-C ) :   1.3463 B( 56-C , 57-C ) :   1.0097 B( 56-C , 61-C ) :   1.3593
B( 57-C , 64-C ) :   1.6410 B( 58-C , 59-C ) :   1.3156 B( 58-C ,119-H ) :   1.0092
B( 59-C , 60-C ) :   1.3568 B( 59-C , 63-F ) :   1.0962 B( 60-C , 61-C ) :   1.3627
B( 60-C ,120-H ) :   0.9845 B( 61-C ,121-H ) :   0.9817 B( 64-C , 65-C ) :   1.1170
B( 64-C , 66-C ) :   1.1514 B( 65-C , 67-N ) :   2.9825 B( 66-C , 68-N ) :   3.0057
B( 71-C , 72-C ) :   1.1156 B( 71-C , 73-C ) :   1.1425 B( 72-C , 75-N ) :   2.9797
B( 73-C , 74-N ) :   3.0227

-----------------------------------------------------------------------------
         ABSORPTION SPECTRUM VIA TRANSITION ELECTRIC DIPOLE MOMENTS
-----------------------------------------------------------------------------
State   Energy  Wavelength   fosc         T2         TX        TY        TZ
        (cm-1)    (nm)                  (au**2)     (au)      (au)      (au)
-----------------------------------------------------------------------------
   0   16065.4    622.5   1.332382943  27.30322  -5.00224   1.36470   0.64687
   1   18917.1    528.6   0.538593540   9.37309  -2.38492  -1.83760   0.55541
   2   21738.3    460.0   0.209606825   3.17435   1.21471  -1.12726   0.65430
   3   22980.8    435.1   0.091071167   1.30464  -0.67115  -0.91128   0.15419
   4   24495.6    408.2   0.421113627   5.65962   2.22398  -0.83368  -0.13607
   5   25307.7    395.1   0.059258357   0.77085  -0.18161   0.84185   0.17075
   6   25800.6    387.6   0.087447626   1.11582   1.04763   0.03773  -0.12991
   7   27390.1    365.1   0.018016714   0.21655  -0.31617  -0.33078   0.08466
   8   28525.4    350.6   0.053510899   0.61757   0.73840  -0.26133   0.06353
   9   29128.0    343.3   0.046258927   0.52283  -0.51026   0.41177   0.30481
  10   29248.7    341.9   0.231549185   2.60623  -1.54973   0.44975   0.04783
  11   29662.3    337.1   0.076283711   0.84665   0.02549   0.46151  -0.79562
  12   30958.0    323.0   0.065634218   0.69796   0.83409  -0.04746   0.00136
  13   31400.1    318.5   0.085179913   0.89306  -0.52821  -0.01242   0.78352
  14   31521.2    317.2   0.138219452   1.44358  -0.86759   0.72013  -0.41507
  15   31856.0    313.9   0.035761352   0.36957  -0.35472  -0.01475  -0.49349
  16   32275.0    309.8   0.122696231   1.25153   1.11282   0.11430  -0.01012
  17   32435.3    308.3   0.251689823   2.55460   1.52834  -0.44315  -0.14962
  18   32644.7    306.3   0.020446282   0.20619  -0.17089  -0.39563   0.14306
  19   32787.7    305.0   0.030559143   0.30684  -0.20601   0.50354   0.10414
  20   33732.2    296.5   0.145876760   1.42369  -1.09657  -0.06723   0.46551
  21   34678.6    288.4   0.025036516   0.23768  -0.44227   0.20511   0.00137
  22   35277.1    283.5   0.478628428   4.46665   2.03969  -0.43526   0.34187
  23   35436.0    282.2   0.137880197   1.28095   0.40096  -0.64337  -0.84039
  24   35755.4    279.7   0.172565298   1.58887  -0.96460   0.52559   0.61819
  25   35998.5    277.8   0.119796046   1.09555  -0.53733   0.89595  -0.06403
  26   36337.1    275.2   0.013231771   0.11988  -0.21485   0.25358  -0.09705
  27   37257.6    268.4   0.014737309   0.13022   0.02229   0.33112  -0.14172
  28   37611.6    265.9   0.010089686   0.08831   0.01151   0.29453  -0.03785
  29   37862.8    264.1   0.225581352   1.96140  -1.36600  -0.28650  -0.11566
  30   37916.9    263.7   0.014322585   0.12436  -0.32861   0.03684  -0.12252
  31   37968.2    263.4   0.052872422   0.45844   0.61734  -0.20709   0.18559
  32   38161.8    262.0   0.060164585   0.51902   0.53838  -0.38139  -0.28933
  33   38558.7    259.3   0.071969110   0.61447   0.30753  -0.53055  -0.48827
  34   38791.0    257.8   0.208737266   1.77152   0.77290  -0.91150   0.58592
  35   39384.3    253.9   0.072776336   0.60834  -0.22363   0.63848  -0.38816
  36   39772.4    251.4   0.093018574   0.76995   0.65651  -0.49138   0.31224
  37   40266.0    248.3   0.038549488   0.31518  -0.12496   0.40618  -0.36685

FINAL SINGLE POINT ENERGY     -4731.453918691001

DIPOLE MOMENT
-------------
                                X             Y             Z
Electronic contribution:     13.70659      55.76433     -12.74427
Nuclear contribution   :    -15.71489     -58.92729      11.75488
                        -----------------------------------------
Total Dipole Moment    :     -2.00830      -3.16296      -0.98939
                        -----------------------------------------
Magnitude (a.u.)       :      3.87511
Magnitude (Debye)      :      9.84974

Rotational constants in cm-1:     0.001545     0.000288     0.000257
Rotational constants in MHz :    46.332745     8.647981     7.690798

                             ****ORCA TERMINATED NORMALLY****
TOTAL RUN TIME: 0 days 1 hours 17 minutes 58 seconds 119 msec
