                         Program Version 4.2.0 -  RELEASE  -
|  1> # ORCA input file
|  2> # Y1-4F.out
|  3> ! CAM-B3LYP def2-SVP def2/J RIJCOSX Grid4 TightSCF
|  4> %maxcore 5000
|  5> %tddft
|  6>     Mode sTDDFT
|  7>     Ethresh 5.0
|  8>     maxcore 5000
|  9> end
| 10> * xyz 0 1
| 11>    C        6.25257         3.09290         0.78855
| 12>    O        7.39651         3.02781         0.37278
| 13>    C        5.62162         4.27714         1.40581
| 14>    C        6.17629         5.51903         1.64186
| 15>    C        5.37322         6.47743         2.23881
| 16>    F        5.86885         7.69559         2.48780
| 17>    C        4.05362         6.18383         2.58243
| 18>    F        3.30031         7.12795         3.15660
| 19>    C        3.49789         4.93476         2.34518
| 20>    C        4.29463         3.96982         1.74951
| 21>    C        4.02081         2.58036         1.37492
| 22>    C        2.82642         1.93651         1.56867
| 23>    C        2.54339         0.59721         1.22668
| 24>    N        2.23128        -0.48137         0.98423
| 25>    C        1.68995         2.53795         2.15106
| 26>    N        0.73062         2.96518         2.61368
| 27>    C        5.23111         2.04596         0.78389
| 28>    C        5.39402         0.76842         0.29930
| 29>    C        6.50693         0.15236        -0.28016
| 30>    S        8.07934         0.89136        -0.56663
| 31>    C        8.66453        -0.58167        -1.24280
| 32>    C        7.68228        -1.59654        -1.23890
| 33>    C        6.48064        -1.18112        -0.70516
| 34>    S        8.24400        -3.11915        -1.89861
| 35>    C        9.79368        -2.39252        -2.17036
| 36>    C        9.86233        -1.04623        -1.78767
| 37>    N       11.12075        -0.56117        -2.01148
| 38>    C       11.43984         0.76603        -1.53816
| 39>    C       10.92455         1.84960        -2.48539
| 40>    C       11.88782        -1.57917        -2.55126
| 41>    C       11.06269        -2.74758        -2.63183
| 42>    C       11.58581        -3.99094        -3.04039
| 43>    N       11.04223        -5.20172        -3.17581
| 44>    N       12.04482        -5.96027        -3.54213
| 45>    C       11.88471        -7.36986        -3.75269
| 46>    C       12.02479        -8.12719        -2.43546
| 47>    N       13.20969        -5.37429        -3.66195
| 48>    C       12.96406        -4.10055        -3.34973
| 49>    C       13.77321        -2.94668        -3.33138
| 50>    C       13.23904        -1.66417        -2.98885
| 51>    N       14.24464        -0.72777        -3.17107
| 52>    C       14.24252         0.71706        -3.19015
| 53>    C       14.93709         1.30763        -1.96264
| 54>    C       15.37317        -1.38709        -3.57397
| 55>    C       15.11497        -2.76124        -3.67368
| 56>    S       16.47454        -3.69688        -4.19568
| 57>    C       17.41329        -2.22472        -4.29797
| 58>    C       16.68108        -1.07119        -3.94131
| 59>    S       17.65049         0.34181        -4.07749
| 60>    C       19.04486        -0.62229        -4.59172
| 61>    C       18.72722        -1.97259        -4.65657
| 62>    C       20.21197         0.10827        -4.85873
| 63>    C       21.48546        -0.28698        -5.18668
| 64>    C       22.57000         0.64631        -5.43815
| 65>    C       22.48261         2.00332        -5.61143
| 66>    C       23.59098         2.83850        -5.87079
| 67>    N       24.44531         3.57550        -6.08011
| 68>    C       21.30032         2.77433        -5.59514
| 69>    N       20.39416         3.48017        -5.61234
| 70>    C       23.80714        -0.12733        -5.54192
| 71>    C       25.12671         0.26506        -5.70668
| 72>    C       26.09672        -0.72417        -5.77079
| 73>    F       27.37666        -0.36604        -5.92264
| 74>    C       25.77204        -2.07802        -5.67840
| 75>    F       26.74173        -2.99817        -5.74718
| 76>    C       24.45604        -2.47741        -5.51244
| 77>    C       23.49211        -1.49117        -5.44335
| 78>    C       22.03333        -1.65652        -5.25207
| 79>    O       21.45652        -2.72010        -5.16358
| 80>    H        7.19691         5.74084         1.37395
| 81>    H        2.47361         4.76132         2.63081
| 82>    H        4.53677         0.11017         0.36757
| 83>    H        5.60511        -1.79765        -0.61091
| 84>    H       12.50971         0.84576        -1.37289
| 85>    H       10.94416         0.89283        -0.56970
| 86>    H       11.27879         2.82221        -2.15683
| 87>    H        9.83835         1.86398        -2.48021
| 88>    H       11.25366         1.67949        -3.50862
| 89>    H       12.65535        -7.68234        -4.45952
| 90>    H       10.89253        -7.52965        -4.17934
| 91>    H       13.01022        -7.95834        -2.00815
| 92>    H       11.89432        -9.19175        -2.60628
| 93>    H       11.27061        -7.78931        -1.72897
| 94>    H       13.22293         1.07653        -3.29087
| 95>    H       14.79269         1.03172        -4.08389
| 96>    H       14.53818         0.89502        -1.03820
| 97>    H       14.80919         2.38620        -1.95212
| 98>    H       16.00114         1.08984        -1.99194
| 99>    H       19.43876        -2.72164        -4.95054
|100>    H       20.06587         1.17785        -4.76125
|101>    H       25.43207         1.29555        -5.78130
|102>    H       24.19852        -3.52193        -5.43824
|103> *
|104>
|105>                          ****END OF INPUT****

CARTESIAN COORDINATES (ANGSTROEM)
---------------------------------
  C      6.252570    3.092900    0.788550
  O      7.396510    3.027810    0.372780
  C      5.621620    4.277140    1.405810
  C      6.176290    5.519030    1.641860
  C      5.373220    6.477430    2.238810
  F      5.868850    7.695590    2.487800
  C      4.053620    6.183830    2.582430
  F      3.300310    7.127950    3.156600
  C      3.497890    4.934760    2.345180
  C      4.294630    3.969820    1.749510
  C      4.020810    2.580360    1.374920
  C      2.826420    1.936510    1.568670
  C      2.543390    0.597210    1.226680
  N      2.231280   -0.481370    0.984230
  C      1.689950    2.537950    2.151060
  N      0.730620    2.965180    2.613680
  C      5.231110    2.045960    0.783890
  C      5.394020    0.768420    0.299300
  C      6.506930    0.152360   -0.280160
  S      8.079340    0.891360   -0.566630
  C      8.664530   -0.581670   -1.242800
  C      7.682280   -1.596540   -1.238900
  C      6.480640   -1.181120   -0.705160
  S      8.244000   -3.119150   -1.898610
  C      9.793680   -2.392520   -2.170360
  C      9.862330   -1.046230   -1.787670
  N     11.120750   -0.561170   -2.011480
  C     11.439840    0.766030   -1.538160
  C     10.924550    1.849600   -2.485390
  C     11.887820   -1.579170   -2.551260
  C     11.062690   -2.747580   -2.631830
  C     11.585810   -3.990940   -3.040390
  N     11.042230   -5.201720   -3.175810
  N     12.044820   -5.960270   -3.542130
  C     11.884710   -7.369860   -3.752690
  C     12.024790   -8.127190   -2.435460
  N     13.209690   -5.374290   -3.661950
  C     12.964060   -4.100550   -3.349730
  C     13.773210   -2.946680   -3.331380
  C     13.239040   -1.664170   -2.988850
  N     14.244640   -0.727770   -3.171070
  C     14.242520    0.717060   -3.190150
  C     14.937090    1.307630   -1.962640
  C     15.373170   -1.387090   -3.573970
  C     15.114970   -2.761240   -3.673680
  S     16.474540   -3.696880   -4.195680
  C     17.413290   -2.224720   -4.297970
  C     16.681080   -1.071190   -3.941310
  S     17.650490    0.341810   -4.077490
  C     19.044860   -0.622290   -4.591720
  C     18.727220   -1.972590   -4.656570
  C     20.211970    0.108270   -4.858730
  C     21.485460   -0.286980   -5.186680
  C     22.570000    0.646310   -5.438150
  C     22.482610    2.003320   -5.611430
  C     23.590980    2.838500   -5.870790
  N     24.445310    3.575500   -6.080110
  C     21.300320    2.774330   -5.595140
  N     20.394160    3.480170   -5.612340
  C     23.807140   -0.127330   -5.541920
  C     25.126710    0.265060   -5.706680
  C     26.096720   -0.724170   -5.770790
  F     27.376660   -0.366040   -5.922640
  C     25.772040   -2.078020   -5.678400
  F     26.741730   -2.998170   -5.747180
  C     24.456040   -2.477410   -5.512440
  C     23.492110   -1.491170   -5.443350
  C     22.033330   -1.656520   -5.252070
  O     21.456520   -2.720100   -5.163580
  H      7.196910    5.740840    1.373950
  H      2.473610    4.761320    2.630810
  H      4.536770    0.110170    0.367570
  H      5.605110   -1.797650   -0.610910
  H     12.509710    0.845760   -1.372890
  H     10.944160    0.892830   -0.569700
  H     11.278790    2.822210   -2.156830
  H      9.838350    1.863980   -2.480210
  H     11.253660    1.679490   -3.508620
  H     12.655350   -7.682340   -4.459520
  H     10.892530   -7.529650   -4.179340
  H     13.010220   -7.958340   -2.008150
  H     11.894320   -9.191750   -2.606280
  H     11.270610   -7.789310   -1.728970
  H     13.222930    1.076530   -3.290870
  H     14.792690    1.031720   -4.083890
  H     14.538180    0.895020   -1.038200
  H     14.809190    2.386200   -1.952120
  H     16.001140    1.089840   -1.991940
  H     19.438760   -2.721640   -4.950540
  H     20.065870    1.177850   -4.761250
  H     25.432070    1.295550   -5.781300
  H     24.198520   -3.521930   -5.438240

 Total Charge           Charge          ....    0
 Multiplicity           Mult            ....    1
 Number of Electrons    NEL             ....  502
 Basis Dimension        Dim             .... 1097

ORBITAL ENERGIES
----------------

  NO   OCC          E(Eh)            E(eV)
   0   2.0000     -88.980651     -2421.2866
   1   2.0000     -88.976070     -2421.1619
   2   2.0000     -88.969392     -2420.9802
   3   2.0000     -88.967909     -2420.9399
   4   2.0000     -24.804810      -674.9732
   5   2.0000     -24.802956      -674.9228
   6   2.0000     -24.802881      -674.9207
   7   2.0000     -24.801219      -674.8755
   8   2.0000     -19.229374      -523.2579
   9   2.0000     -19.225518      -523.1529
  10   2.0000     -14.530470      -395.3942
  11   2.0000     -14.488779      -394.2597
  12   2.0000     -14.487857      -394.2346
  13   2.0000     -14.442644      -393.0043
  14   2.0000     -14.442297      -392.9949
  15   2.0000     -14.422229      -392.4488
  16   2.0000     -14.421265      -392.4226
  17   2.0000     -14.418027      -392.3345
  18   2.0000     -14.417279      -392.3141
  19   2.0000     -10.389585      -282.7150
  20   2.0000     -10.389067      -282.7009
  21   2.0000     -10.387937      -282.6701
  22   2.0000     -10.387288      -282.6525
  23   2.0000     -10.378154      -282.4039
  24   2.0000     -10.376912      -282.3701
  25   2.0000     -10.348090      -281.5859
  26   2.0000     -10.347141      -281.5600
  27   2.0000     -10.347002      -281.5562
  28   2.0000     -10.346198      -281.5344
  29   2.0000     -10.344553      -281.4896
  30   2.0000     -10.344166      -281.4791
  31   2.0000     -10.340524      -281.3800
  32   2.0000     -10.338216      -281.3172
  33   2.0000     -10.332968      -281.1743
  34   2.0000     -10.328851      -281.0623
  35   2.0000     -10.328738      -281.0592
  36   2.0000     -10.327886      -281.0361
  37   2.0000     -10.325077      -280.9596
  38   2.0000     -10.325029      -280.9583
  39   2.0000     -10.324255      -280.9373
  40   2.0000     -10.323770      -280.9241
  41   2.0000     -10.323716      -280.9226
  42   2.0000     -10.322753      -280.8964
  43   2.0000     -10.321034      -280.8496
  44   2.0000     -10.320929      -280.8468
  45   2.0000     -10.320402      -280.8324
  46   2.0000     -10.319832      -280.8169
  47   2.0000     -10.318027      -280.7678
  48   2.0000     -10.317157      -280.7441
  49   2.0000     -10.315769      -280.7063
  50   2.0000     -10.312919      -280.6288
  51   2.0000     -10.311280      -280.5842
  52   2.0000     -10.311030      -280.5774
  53   2.0000     -10.310902      -280.5739
  54   2.0000     -10.310413      -280.5606
  55   2.0000     -10.309808      -280.5441
  56   2.0000     -10.309695      -280.5411
  57   2.0000     -10.305936      -280.4388
  58   2.0000     -10.303748      -280.3792
  59   2.0000     -10.303578      -280.3746
  60   2.0000     -10.303198      -280.3643
  61   2.0000     -10.302544      -280.3465
  62   2.0000     -10.302241      -280.3382
  63   2.0000     -10.300518      -280.2914
  64   2.0000     -10.296514      -280.1824
  65   2.0000     -10.296032      -280.1693
  66   2.0000     -10.289287      -279.9857
  67   2.0000     -10.286302      -279.9045
  68   2.0000     -10.271987      -279.5150
  69   2.0000      -8.075217      -219.7378
  70   2.0000      -8.068418      -219.5528
  71   2.0000      -8.063839      -219.4282
  72   2.0000      -8.062295      -219.3862
  73   2.0000      -6.044727      -164.4854
  74   2.0000      -6.040643      -164.3743
  75   2.0000      -6.038229      -164.3086
  76   2.0000      -6.036941      -164.2735
  77   2.0000      -6.033734      -164.1862
  78   2.0000      -6.033556      -164.1814
  79   2.0000      -6.032242      -164.1457
  80   2.0000      -6.030158      -164.0889
  81   2.0000      -6.029724      -164.0771
  82   2.0000      -6.028249      -164.0370
  83   2.0000      -6.024684      -163.9400
  84   2.0000      -6.023061      -163.8958
  85   2.0000      -1.327645       -36.1270
  86   2.0000      -1.325757       -36.0757
  87   2.0000      -1.312413       -35.7126
  88   2.0000      -1.310525       -35.6612
  89   2.0000      -1.213925       -33.0326
  90   2.0000      -1.144960       -31.1559
  91   2.0000      -1.140676       -31.0394
  92   2.0000      -1.118162       -30.4267
  93   2.0000      -1.106704       -30.1149
  94   2.0000      -1.025814       -27.9138
  95   2.0000      -1.025042       -27.8928
  96   2.0000      -1.019162       -27.7328
  97   2.0000      -1.016101       -27.6495
  98   2.0000      -1.007729       -27.4217
  99   2.0000      -1.006247       -27.3814
 100   2.0000      -0.998526       -27.1713
 101   2.0000      -0.997694       -27.1486
 102   2.0000      -0.989321       -26.9208
 103   2.0000      -0.982811       -26.7436
 104   2.0000      -0.966188       -26.2913
 105   2.0000      -0.965173       -26.2637
 106   2.0000      -0.956485       -26.0273
 107   2.0000      -0.955089       -25.9893
 108   2.0000      -0.935998       -25.4698
 109   2.0000      -0.917817       -24.9751
 110   2.0000      -0.908332       -24.7170
 111   2.0000      -0.905690       -24.6451
 112   2.0000      -0.889571       -24.2065
 113   2.0000      -0.888651       -24.1814
 114   2.0000      -0.887035       -24.1375
 115   2.0000      -0.878141       -23.8954
 116   2.0000      -0.876453       -23.8495
 117   2.0000      -0.871143       -23.7050
 118   2.0000      -0.866384       -23.5755
 119   2.0000      -0.851749       -23.1773
 120   2.0000      -0.838310       -22.8116
 121   2.0000      -0.833093       -22.6696
 122   2.0000      -0.819828       -22.3086
 123   2.0000      -0.814399       -22.1609
 124   2.0000      -0.808955       -22.0128
 125   2.0000      -0.794823       -21.6282
 126   2.0000      -0.779033       -21.1986
 127   2.0000      -0.776933       -21.1414
 128   2.0000      -0.774327       -21.0705
 129   2.0000      -0.771067       -20.9818
 130   2.0000      -0.764913       -20.8143
 131   2.0000      -0.748324       -20.3629
 132   2.0000      -0.734777       -19.9943
 133   2.0000      -0.730514       -19.8783
 134   2.0000      -0.719589       -19.5810
 135   2.0000      -0.713541       -19.4165
 136   2.0000      -0.710458       -19.3325
 137   2.0000      -0.707497       -19.2520
 138   2.0000      -0.705078       -19.1861
 139   2.0000      -0.697962       -18.9925
 140   2.0000      -0.683829       -18.6079
 141   2.0000      -0.674074       -18.3425
 142   2.0000      -0.669402       -18.2153
 143   2.0000      -0.664786       -18.0897
 144   2.0000      -0.659762       -17.9530
 145   2.0000      -0.653180       -17.7739
 146   2.0000      -0.651511       -17.7285
 147   2.0000      -0.648048       -17.6343
 148   2.0000      -0.645512       -17.5653
 149   2.0000      -0.643039       -17.4980
 150   2.0000      -0.639518       -17.4022
 151   2.0000      -0.638214       -17.3667
 152   2.0000      -0.624080       -16.9821
 153   2.0000      -0.619163       -16.8483
 154   2.0000      -0.613972       -16.7070
 155   2.0000      -0.610431       -16.6107
 156   2.0000      -0.606290       -16.4980
 157   2.0000      -0.602220       -16.3872
 158   2.0000      -0.596996       -16.2451
 159   2.0000      -0.595508       -16.2046
 160   2.0000      -0.592722       -16.1288
 161   2.0000      -0.590853       -16.0779
 162   2.0000      -0.590219       -16.0607
 163   2.0000      -0.584886       -15.9156
 164   2.0000      -0.581269       -15.8171
 165   2.0000      -0.576427       -15.6854
 166   2.0000      -0.571642       -15.5552
 167   2.0000      -0.562613       -15.3095
 168   2.0000      -0.556899       -15.1540
 169   2.0000      -0.556284       -15.1373
 170   2.0000      -0.554361       -15.0849
 171   2.0000      -0.552517       -15.0348
 172   2.0000      -0.550680       -14.9848
 173   2.0000      -0.548173       -14.9166
 174   2.0000      -0.546693       -14.8763
 175   2.0000      -0.544899       -14.8274
 176   2.0000      -0.542520       -14.7627
 177   2.0000      -0.541519       -14.7355
 178   2.0000      -0.540981       -14.7208
 179   2.0000      -0.537597       -14.6288
 180   2.0000      -0.536757       -14.6059
 181   2.0000      -0.534067       -14.5327
 182   2.0000      -0.529968       -14.4212
 183   2.0000      -0.527676       -14.3588
 184   2.0000      -0.521848       -14.2002
 185   2.0000      -0.519405       -14.1337
 186   2.0000      -0.513831       -13.9821
 187   2.0000      -0.511267       -13.9123
 188   2.0000      -0.509396       -13.8614
 189   2.0000      -0.505723       -13.7614
 190   2.0000      -0.502079       -13.6623
 191   2.0000      -0.500671       -13.6240
 192   2.0000      -0.500502       -13.6193
 193   2.0000      -0.498853       -13.5745
 194   2.0000      -0.497350       -13.5336
 195   2.0000      -0.494281       -13.4501
 196   2.0000      -0.493812       -13.4373
 197   2.0000      -0.489618       -13.3232
 198   2.0000      -0.486240       -13.2313
 199   2.0000      -0.482297       -13.1240
 200   2.0000      -0.481393       -13.0994
 201   2.0000      -0.476655       -12.9705
 202   2.0000      -0.474625       -12.9152
 203   2.0000      -0.472404       -12.8548
 204   2.0000      -0.469992       -12.7891
 205   2.0000      -0.463036       -12.5998
 206   2.0000      -0.461392       -12.5551
 207   2.0000      -0.460727       -12.5370
 208   2.0000      -0.460086       -12.5196
 209   2.0000      -0.459433       -12.5018
 210   2.0000      -0.457546       -12.4505
 211   2.0000      -0.454132       -12.3575
 212   2.0000      -0.453073       -12.3287
 213   2.0000      -0.451814       -12.2945
 214   2.0000      -0.449555       -12.2330
 215   2.0000      -0.447332       -12.1725
 216   2.0000      -0.445813       -12.1312
 217   2.0000      -0.444015       -12.0822
 218   2.0000      -0.441838       -12.0230
 219   2.0000      -0.439588       -11.9618
 220   2.0000      -0.433315       -11.7911
 221   2.0000      -0.431914       -11.7530
 222   2.0000      -0.430894       -11.7252
 223   2.0000      -0.428583       -11.6623
 224   2.0000      -0.427033       -11.6202
 225   2.0000      -0.426082       -11.5943
 226   2.0000      -0.416635       -11.3372
 227   2.0000      -0.412314       -11.2196
 228   2.0000      -0.410853       -11.1799
 229   2.0000      -0.409973       -11.1559
 230   2.0000      -0.408524       -11.1165
 231   2.0000      -0.402141       -10.9428
 232   2.0000      -0.395261       -10.7556
 233   2.0000      -0.393310       -10.7025
 234   2.0000      -0.376125       -10.2349
 235   2.0000      -0.373590       -10.1659
 236   2.0000      -0.373480       -10.1629
 237   2.0000      -0.359409        -9.7800
 238   2.0000      -0.353540        -9.6203
 239   2.0000      -0.349386        -9.5073
 240   2.0000      -0.347607        -9.4589
 241   2.0000      -0.344501        -9.3743
 242   2.0000      -0.343952        -9.3594
 243   2.0000      -0.324551        -8.8315
 244   2.0000      -0.320282        -8.7153
 245   2.0000      -0.318980        -8.6799
 246   2.0000      -0.310625        -8.4525
 247   2.0000      -0.293816        -7.9951
 248   2.0000      -0.283145        -7.7048
 249   2.0000      -0.273791        -7.4502
 250   2.0000      -0.242858        -6.6085
 251   0.0000      -0.103011        -2.8031
 252   0.0000      -0.091078        -2.4784
 253   0.0000      -0.070348        -1.9143
 254   0.0000      -0.066651        -1.8137
 255   0.0000      -0.029365        -0.7991

MULLIKEN ATOMIC CHARGES
-----------------------
   0 C :    0.159350
   1 O :   -0.183538
   2 C :   -0.002357
   3 C :   -0.105019
   4 C :    0.233873
   5 F :   -0.169013
   6 C :    0.234948
   7 F :   -0.164462
   8 C :   -0.088233
   9 C :    0.039433
  10 C :    0.323852
  11 C :   -0.360279
  12 C :   -0.184158
  13 N :    0.145768
  14 C :   -0.192556
  15 N :    0.158900
  16 C :   -0.103085
  17 C :   -0.018759
  18 C :   -0.048930
  19 S :    0.183963
  20 C :   -0.043600
  21 C :   -0.011671
  22 C :   -0.045484
  23 S :    0.192869
  24 C :   -0.099434
  25 C :    0.031575
  26 N :   -0.161273
  27 C :    0.092405
  28 C :    0.004322
  29 C :    0.050301
  30 C :   -0.089395
  31 C :   -0.025146
  32 N :   -0.034337
  33 N :   -0.107782
  34 C :    0.146969
  35 C :   -0.011540
  36 N :   -0.032700
  37 C :   -0.031639
  38 C :   -0.086970
  39 C :    0.053287
  40 N :   -0.165110
  41 C :    0.089843
  42 C :    0.002849
  43 C :    0.039703
  44 C :   -0.100753
  45 S :    0.202342
  46 C :   -0.052023
  47 C :   -0.054382
  48 S :    0.147650
  49 C :   -0.103323
  50 C :   -0.004565
  51 C :    0.043536
  52 C :   -0.095450
  53 C :    0.300939
  54 C :   -0.352853
  55 C :   -0.191780
  56 N :    0.155798
  57 C :   -0.189987
  58 N :    0.150659
  59 C :    0.041839
  60 C :   -0.086646
  61 C :    0.235932
  62 F :   -0.165402
  63 C :    0.234351
  64 F :   -0.169518
  65 C :   -0.102878
  66 C :   -0.005962
  67 C :    0.153227
  68 O :   -0.156457
  69 H :    0.007868
  70 H :    0.016144
  71 H :    0.007843
  72 H :    0.010496
  73 H :    0.001743
  74 H :    0.038273
  75 H :    0.032298
  76 H :    0.033908
  77 H :    0.037948
  78 H :    0.036000
  79 H :    0.034722
  80 H :    0.030094
  81 H :    0.028184
  82 H :    0.033282
  83 H :    0.007019
  84 H :    0.036386
  85 H :    0.039638
  86 H :    0.035676
  87 H :    0.028422
  88 H :    0.018280
  89 H :    0.006721
  90 H :    0.016894
  91 H :    0.010127
Sum of atomic charges:    0.0000000

LOEWDIN ATOMIC CHARGES
----------------------
   0 C :    0.084170
   1 O :   -0.171564
   2 C :   -0.044657
   3 C :   -0.007387
   4 C :    0.069679
   5 F :   -0.045935
   6 C :    0.073238
   7 F :   -0.043131
   8 C :   -0.017461
   9 C :   -0.013595
  10 C :    0.077025
  11 C :   -0.142226
  12 C :   -0.020351
  13 N :   -0.052541
  14 C :   -0.020399
  15 N :   -0.050093
  16 C :   -0.123211
  17 C :    0.057833
  18 C :   -0.185317
  19 S :    0.487701
  20 C :   -0.195705
  21 C :   -0.193878
  22 C :   -0.014214
  23 S :    0.418938
  24 C :   -0.169188
  25 C :   -0.044815
  26 N :    0.041852
  27 C :    0.036538
  28 C :   -0.062977
  29 C :    0.010746
  30 C :   -0.070739
  31 C :   -0.061895
  32 N :   -0.091050
  33 N :    0.144676
  34 C :    0.036603
  35 C :   -0.056533
  36 N :   -0.090429
  37 C :   -0.063457
  38 C :   -0.070210
  39 C :    0.011048
  40 N :    0.038917
  41 C :    0.036896
  42 C :   -0.064049
  43 C :   -0.043315
  44 C :   -0.170431
  45 S :    0.430243
  46 C :   -0.193031
  47 C :   -0.190438
  48 S :    0.437632
  49 C :   -0.179978
  50 C :   -0.007196
  51 C :    0.046750
  52 C :   -0.109587
  53 C :    0.077276
  54 C :   -0.142960
  55 C :   -0.020222
  56 N :   -0.050700
  57 C :   -0.023671
  58 N :   -0.052673
  59 C :   -0.015540
  60 C :   -0.018143
  61 C :    0.073116
  62 F :   -0.043928
  63 C :    0.070673
  64 F :   -0.045858
  65 C :   -0.006661
  66 C :   -0.043961
  67 C :    0.087604
  68 O :   -0.143570
  69 H :    0.050495
  70 H :    0.051719
  71 H :    0.051476
  72 H :    0.043486
  73 H :    0.026902
  74 H :    0.031702
  75 H :    0.035356
  76 H :    0.025219
  77 H :    0.026014
  78 H :    0.036598
  79 H :    0.035996
  80 H :    0.030723
  81 H :    0.032253
  82 H :    0.031295
  83 H :    0.028336
  84 H :    0.031500
  85 H :    0.027014
  86 H :    0.036181
  87 H :    0.022374
  88 H :    0.039588
  89 H :    0.042604
  90 H :    0.051513
  91 H :    0.051371

  Mayer bond orders larger than 0.100000
B(  0-C ,  1-O ) :   2.1266 B(  0-C ,  2-C ) :   0.9689 B(  0-C , 16-C ) :   0.9890
B(  2-C ,  3-C ) :   1.3195 B(  2-C ,  9-C ) :   1.3456 B(  3-C ,  4-C ) :   1.3123
B(  3-C ,  8-C ) :   0.1047 B(  3-C , 69-H ) :   1.0202 B(  4-C ,  5-F ) :   1.1314
B(  4-C ,  6-C ) :   1.2953 B(  6-C ,  7-F ) :   1.1468 B(  6-C ,  8-C ) :   1.3317
B(  8-C ,  9-C ) :   1.3180 B(  8-C , 70-H ) :   0.9908 B(  9-C , 10-C ) :   0.9989
B( 10-C , 11-C ) :   1.6203 B( 10-C , 16-C ) :   1.0962 B( 11-C , 12-C ) :   1.1486
B( 11-C , 14-C ) :   1.1440 B( 12-C , 13-N ) :   2.9556 B( 14-C , 15-N ) :   2.9769
B( 16-C , 17-C ) :   1.4561 B( 17-C , 18-C ) :   1.3018 B( 17-C , 71-H ) :   0.9378
B( 18-C , 19-S ) :   1.0498 B( 18-C , 22-C ) :   1.3389 B( 19-S , 20-C ) :   1.0315
B( 20-C , 21-C ) :   1.3478 B( 20-C , 25-C ) :   1.3001 B( 21-C , 22-C ) :   1.3540
B( 21-C , 23-S ) :   1.0269 B( 22-C , 72-H ) :   1.0120 B( 23-S , 24-C ) :   1.0145
B( 24-C , 25-C ) :   1.3977 B( 24-C , 30-C ) :   1.3859 B( 25-C , 26-N ) :   1.1518
B( 25-C , 29-C ) :   0.1064 B( 26-N , 27-C ) :   0.9482 B( 26-N , 29-C ) :   1.1716
B( 27-C , 28-C ) :   1.0990 B( 27-C , 73-H ) :   0.9466 B( 27-C , 74-H ) :   0.9385
B( 28-C , 75-H ) :   0.9665 B( 28-C , 76-H ) :   0.9515 B( 28-C , 77-H ) :   0.9570
B( 29-C , 30-C ) :   1.3783 B( 29-C , 39-C ) :   1.1464 B( 30-C , 31-C ) :   1.0798
B( 30-C , 38-C ) :   0.1052 B( 31-C , 32-N ) :   1.5586 B( 31-C , 37-C ) :   1.2366
B( 32-N , 33-N ) :   1.2109 B( 32-N , 36-N ) :   0.1462 B( 33-N , 34-C ) :   0.9366
B( 33-N , 36-N ) :   1.2144 B( 34-C , 35-C ) :   1.1142 B( 34-C , 78-H ) :   0.9450
B( 34-C , 79-H ) :   0.9458 B( 35-C , 80-H ) :   0.9683 B( 35-C , 81-H ) :   0.9687
B( 35-C , 82-H ) :   0.9691 B( 36-N , 37-C ) :   1.5588 B( 37-C , 38-C ) :   1.0851
B( 38-C , 39-C ) :   1.3835 B( 38-C , 44-C ) :   1.3816 B( 39-C , 40-N ) :   1.1668
B( 39-C , 43-C ) :   0.1066 B( 40-N , 41-C ) :   0.9482 B( 40-N , 43-C ) :   1.1494
B( 41-C , 42-C ) :   1.0990 B( 41-C , 83-H ) :   0.9468 B( 41-C , 84-H ) :   0.9410
B( 42-C , 85-H ) :   0.9565 B( 42-C , 86-H ) :   0.9662 B( 42-C , 87-H ) :   0.9516
B( 43-C , 44-C ) :   1.4029 B( 43-C , 47-C ) :   1.2880 B( 44-C , 45-S ) :   1.0185
B( 45-S , 46-C ) :   1.0382 B( 46-C , 47-C ) :   1.3698 B( 46-C , 50-C ) :   1.3189
B( 47-C , 48-S ) :   1.0801 B( 48-S , 49-C ) :   1.0435 B( 49-C , 50-C ) :   1.4203
B( 49-C , 51-C ) :   1.2560 B( 50-C , 88-H ) :   0.9766 B( 51-C , 52-C ) :   1.5531
B( 51-C , 89-H ) :   0.9088 B( 52-C , 53-C ) :   1.0966 B( 52-C , 67-C ) :   0.9537
B( 53-C , 54-C ) :   1.6210 B( 53-C , 59-C ) :   0.9987 B( 54-C , 55-C ) :   1.1430
B( 54-C , 57-C ) :   1.1400 B( 55-C , 56-N ) :   2.9778 B( 57-C , 58-N ) :   2.9724
B( 59-C , 60-C ) :   1.3142 B( 59-C , 66-C ) :   1.3453 B( 60-C , 61-C ) :   1.3347
B( 60-C , 65-C ) :   0.1046 B( 60-C , 90-H ) :   0.9922 B( 61-C , 62-F ) :   1.1458
B( 61-C , 63-C ) :   1.2908 B( 63-C , 64-F ) :   1.1305 B( 63-C , 65-C ) :   1.3151
B( 65-C , 66-C ) :   1.3189 B( 65-C , 91-H ) :   1.0211 B( 66-C , 67-C ) :   0.9624
B( 67-C , 68-O ) :   2.1685

-----------------------------------------------------------------------------
         ABSORPTION SPECTRUM VIA TRANSITION ELECTRIC DIPOLE MOMENTS
-----------------------------------------------------------------------------
State   Energy  Wavelength   fosc         T2         TX        TY        TZ
        (cm-1)    (nm)                  (au**2)     (au)      (au)      (au)
-----------------------------------------------------------------------------
   0   16333.5    612.2   2.549507377  51.38708   6.66379  -0.84069  -2.50485
   1   20201.7    495.0   0.449435909   7.32413  -0.49987  -2.60756  -0.52429
   2   23022.9    434.4   0.040131524   0.57385  -0.25413  -0.70979  -0.07399
   3   23769.6    420.7   0.131565272   1.82220   0.21153  -1.28510  -0.35494
   4   24662.1    405.5   0.015240501   0.20344   0.20974   0.34106   0.20768
   5   24891.5    401.7   0.140861314   1.86301  -1.33270   0.13593   0.26164
   6   26509.3    377.2   0.159473972   1.98046  -0.29277  -1.35687  -0.23164
   7   28897.0    346.1   0.037231298   0.42416   0.53287   0.15890  -0.33906
   8   29407.8    340.0   0.016031200   0.17946  -0.28966  -0.16006   0.26447
   9   29902.7    334.4   0.019314867   0.21265  -0.05728  -0.45304  -0.06417
  10   30664.0    326.1   0.001685772   0.01810  -0.07498  -0.04774   0.10098
  11   30757.3    325.1   0.076303564   0.81672  -0.89355   0.05419   0.12391
  12   31156.1    321.0   0.097865394   1.03410   1.01635   0.00959   0.03216
  13   31178.8    320.7   0.089686788   0.94699   0.40976  -0.87580  -0.10980
  14   31980.8    312.7   0.091193386   0.93875  -0.05142   0.88650   0.38759
  15   32306.5    309.5   0.156096836   1.59067  -1.16362  -0.35821   0.32914
  16   32994.4    303.1   0.029586151   0.29521   0.42700  -0.29093  -0.16805
  17   33101.8    302.1   0.000085025   0.00085   0.01355   0.01087  -0.02332
  18   33231.6    300.9   0.056368040   0.55842   0.74569  -0.04520  -0.01804
  19   33638.3    297.3   0.115142692   1.12688  -0.53068  -0.88822  -0.23733
  20   33983.6    294.3   0.057559902   0.55760   0.49616  -0.54669  -0.11207
  21   34425.1    290.5   0.032814209   0.31381   0.34659  -0.43626  -0.05794
  22   34714.0    288.1   0.190352742   1.80522   0.69053  -1.12882  -0.23267
  23   36178.6    276.4   0.140401616   1.27760   1.08846   0.29908   0.05845
  24   36252.6    275.8   0.009377161   0.08515   0.25511   0.13671  -0.03720
  25   36643.8    272.9   0.429580063   3.85940  -0.41684  -1.91569   0.12565
  26   37010.4    270.2   0.190127696   1.69121  -0.01890  -1.28138  -0.22118
  27   37269.3    268.3   0.189822202   1.67676  -1.15832   0.56663   0.11827
  28   37507.9    266.6   0.070806652   0.62148  -0.73376  -0.22430  -0.18101
  29   37901.5    263.8   0.120049414   1.04275  -0.14759   0.99078   0.19831
  30   38006.4    263.1   0.013491474   0.11686   0.16994   0.26917  -0.12461
  31   38389.7    260.5   0.243979280   2.09225   0.51197  -1.33342  -0.22833
  32   38515.2    259.6   0.353744424   3.02366   1.23684   1.15211  -0.40807
  33   39265.3    254.7   0.244565649   2.05051   0.09550   1.41380   0.20631
  34   39759.3    251.5   0.023001099   0.19045   0.19155  -0.33351  -0.20624

FINAL SINGLE POINT ENERGY     -4550.317798436071

DIPOLE MOMENT
-------------
                                X             Y             Z
Electronic contribution:     16.17710      26.40255       3.50788
Nuclear contribution   :    -15.68440     -28.09878      -3.49642
                        -----------------------------------------
Total Dipole Moment    :      0.49271      -1.69623       0.01146
                        -----------------------------------------
Magnitude (a.u.)       :      1.76638
Magnitude (Debye)      :      4.48977

Rotational constants in cm-1:     0.001670     0.000270     0.000234
Rotational constants in MHz :    50.059416     8.092459     7.026829

                             ****ORCA TERMINATED NORMALLY****
TOTAL RUN TIME: 0 days 0 hours 53 minutes 28 seconds 798 msec
