                         Program Version 4.2.0 -  RELEASE  -
|  1> # ORCA input file
|  2> # Y1-4F.out: Geometry 69
|  3> ! CAM-B3LYP def2-SVP def2/J RIJCOSX Grid4 TightSCF
|  4> %maxcore 5000
|  5> %tddft
|  6>     Mode sTDDFT
|  7>     Ethresh 5.0
|  8>     maxcore 5000
|  9> end
| 10> * xyz 0 1
| 11>    C        5.98613         3.37779         0.58267
| 12>    O        7.20387         3.32388         0.61785
| 13>    C        5.14063         4.51001         1.04938
| 14>    C        5.54544         5.69064         1.66512
| 15>    C        4.55469         6.58674         2.05523
| 16>    F        4.86238         7.72771         2.66414
| 17>    C        3.19813         6.30114         1.82230
| 18>    F        2.29029         7.18511         2.23063
| 19>    C        2.79605         5.12749         1.19235
| 20>    C        3.78504         4.21451         0.80235
| 21>    C        3.69044         2.88349         0.15453
| 22>    C        2.51494         2.32200        -0.31600
| 23>    C        2.43281         1.04006        -0.94404
| 24>    N        2.33473         0.00131        -1.45717
| 25>    C        1.25584         2.99616        -0.24820
| 26>    N        0.22584         3.53310        -0.21103
| 27>    C        5.04872         2.34083         0.08491
| 28>    C        5.39475         1.07313        -0.33329
| 29>    C        6.61662         0.37549        -0.50362
| 30>    S        8.28470         0.94975        -0.28162
| 31>    C        8.91506        -0.57407        -0.84708
| 32>    C        7.87041        -1.48325        -1.16390
| 33>    C        6.59723        -0.95069        -0.97444
| 34>    S        8.43386        -3.02177        -1.80794
| 35>    C       10.06887        -2.44142        -1.67083
| 36>    C       10.17865        -1.13971        -1.15024
| 37>    N       11.52127        -0.77510        -1.09693
| 38>    C       11.97601         0.17416        -0.07222
| 39>    C       11.76127         1.64200        -0.41908
| 40>    C       12.26954        -1.83935        -1.63876
| 41>    C       11.36654        -2.90200        -1.96709
| 42>    C       11.85705        -4.12704        -2.50302
| 43>    N       11.22686        -5.25844        -2.85511
| 44>    N       12.21398        -6.03957        -3.27487
| 45>    C       11.96323        -7.41786        -3.67422
| 46>    C       11.59035        -8.28536        -2.47905
| 47>    N       13.44031        -5.53391        -3.22652
| 48>    C       13.24488        -4.29950        -2.73749
| 49>    C       14.14534        -3.21813        -2.52009
| 50>    C       13.65962        -1.97147        -1.98755
| 51>    N       14.71228        -1.05201        -2.04204
| 52>    C       14.72586         0.38005        -1.78392
| 53>    C       15.41073         0.74203        -0.46715
| 54>    C       15.81358        -1.68495        -2.58379
| 55>    C       15.49333        -3.02160        -2.87522
| 56>    S       16.77149        -3.88559        -3.69385
| 57>    C       17.74334        -2.41370        -3.68274
| 58>    C       17.10153        -1.32518        -3.03652
| 59>    S       18.08701         0.09240        -3.07809
| 60>    C       19.34906        -0.76283        -4.01063
| 61>    C       18.98993        -2.10066        -4.23078
| 62>    C       20.48080         0.00982        -4.37805
| 63>    C       21.54382        -0.23529        -5.22958
| 64>    C       22.63595         0.70586        -5.51162
| 65>    C       22.90599         1.91645        -4.89607
| 66>    C       23.96898         2.77944        -5.31071
| 67>    N       24.81561         3.51026        -5.62733
| 68>    C       22.16685         2.44423        -3.79102
| 69>    N       21.59630         2.92025        -2.89654
| 70>    C       23.45291         0.12732        -6.60750
| 71>    C       24.60380         0.58761        -7.26334
| 72>    C       25.14512        -0.20688        -8.26985
| 73>    F       26.23681         0.19208        -8.91694
| 74>    C       24.56978        -1.43724        -8.63469
| 75>    F       25.13594        -2.13871        -9.61132
| 76>    C       23.43655        -1.90781        -7.98266
| 77>    C       22.90150        -1.11334        -6.97455
| 78>    C       21.72290        -1.41430        -6.12425
| 79>    O       21.06408        -2.43836        -6.19365
| 80>    H        6.59815         5.90704         1.85569
| 81>    H        1.73214         4.96898         1.03049
| 82>    H        4.56064         0.42865        -0.61014
| 83>    H        5.66157        -1.46795        -1.18993
| 84>    H       13.02989        -0.03658         0.12645
| 85>    H       11.44243        -0.06504         0.86309
| 86>    H       12.20890         2.27569         0.36146
| 87>    H       10.69437         1.89677        -0.47641
| 88>    H       12.21469         1.91387        -1.38358
| 89>    H       12.88319        -7.76161        -4.16432
| 90>    H       11.15282        -7.40142        -4.41810
| 91>    H       12.42081        -8.33637        -1.75848
| 92>    H       11.34975        -9.30549        -2.81480
| 93>    H       10.70995        -7.86675        -1.96956
| 94>    H       13.69735         0.74586        -1.83271
| 95>    H       15.25276         0.86172        -2.62260
| 96>    H       14.95239         0.21713         0.38418
| 97>    H       15.34652         1.82552        -0.28407
| 98>    H       16.47506         0.46165        -0.48991
| 99>    H       19.63174        -2.76898        -4.79987
|100>    H       20.48000         0.99467        -3.90982
|101>    H       25.09702         1.52927        -7.03411
|102>    H       22.98768        -2.86384        -8.25576
|103> *
|104>
|105>                          ****END OF INPUT****

CARTESIAN COORDINATES (ANGSTROEM)
---------------------------------
  C      5.986130    3.377790    0.582670
  O      7.203870    3.323880    0.617850
  C      5.140630    4.510010    1.049380
  C      5.545440    5.690640    1.665120
  C      4.554690    6.586740    2.055230
  F      4.862380    7.727710    2.664140
  C      3.198130    6.301140    1.822300
  F      2.290290    7.185110    2.230630
  C      2.796050    5.127490    1.192350
  C      3.785040    4.214510    0.802350
  C      3.690440    2.883490    0.154530
  C      2.514940    2.322000   -0.316000
  C      2.432810    1.040060   -0.944040
  N      2.334730    0.001310   -1.457170
  C      1.255840    2.996160   -0.248200
  N      0.225840    3.533100   -0.211030
  C      5.048720    2.340830    0.084910
  C      5.394750    1.073130   -0.333290
  C      6.616620    0.375490   -0.503620
  S      8.284700    0.949750   -0.281620
  C      8.915060   -0.574070   -0.847080
  C      7.870410   -1.483250   -1.163900
  C      6.597230   -0.950690   -0.974440
  S      8.433860   -3.021770   -1.807940
  C     10.068870   -2.441420   -1.670830
  C     10.178650   -1.139710   -1.150240
  N     11.521270   -0.775100   -1.096930
  C     11.976010    0.174160   -0.072220
  C     11.761270    1.642000   -0.419080
  C     12.269540   -1.839350   -1.638760
  C     11.366540   -2.902000   -1.967090
  C     11.857050   -4.127040   -2.503020
  N     11.226860   -5.258440   -2.855110
  N     12.213980   -6.039570   -3.274870
  C     11.963230   -7.417860   -3.674220
  C     11.590350   -8.285360   -2.479050
  N     13.440310   -5.533910   -3.226520
  C     13.244880   -4.299500   -2.737490
  C     14.145340   -3.218130   -2.520090
  C     13.659620   -1.971470   -1.987550
  N     14.712280   -1.052010   -2.042040
  C     14.725860    0.380050   -1.783920
  C     15.410730    0.742030   -0.467150
  C     15.813580   -1.684950   -2.583790
  C     15.493330   -3.021600   -2.875220
  S     16.771490   -3.885590   -3.693850
  C     17.743340   -2.413700   -3.682740
  C     17.101530   -1.325180   -3.036520
  S     18.087010    0.092400   -3.078090
  C     19.349060   -0.762830   -4.010630
  C     18.989930   -2.100660   -4.230780
  C     20.480800    0.009820   -4.378050
  C     21.543820   -0.235290   -5.229580
  C     22.635950    0.705860   -5.511620
  C     22.905990    1.916450   -4.896070
  C     23.968980    2.779440   -5.310710
  N     24.815610    3.510260   -5.627330
  C     22.166850    2.444230   -3.791020
  N     21.596300    2.920250   -2.896540
  C     23.452910    0.127320   -6.607500
  C     24.603800    0.587610   -7.263340
  C     25.145120   -0.206880   -8.269850
  F     26.236810    0.192080   -8.916940
  C     24.569780   -1.437240   -8.634690
  F     25.135940   -2.138710   -9.611320
  C     23.436550   -1.907810   -7.982660
  C     22.901500   -1.113340   -6.974550
  C     21.722900   -1.414300   -6.124250
  O     21.064080   -2.438360   -6.193650
  H      6.598150    5.907040    1.855690
  H      1.732140    4.968980    1.030490
  H      4.560640    0.428650   -0.610140
  H      5.661570   -1.467950   -1.189930
  H     13.029890   -0.036580    0.126450
  H     11.442430   -0.065040    0.863090
  H     12.208900    2.275690    0.361460
  H     10.694370    1.896770   -0.476410
  H     12.214690    1.913870   -1.383580
  H     12.883190   -7.761610   -4.164320
  H     11.152820   -7.401420   -4.418100
  H     12.420810   -8.336370   -1.758480
  H     11.349750   -9.305490   -2.814800
  H     10.709950   -7.866750   -1.969560
  H     13.697350    0.745860   -1.832710
  H     15.252760    0.861720   -2.622600
  H     14.952390    0.217130    0.384180
  H     15.346520    1.825520   -0.284070
  H     16.475060    0.461650   -0.489910
  H     19.631740   -2.768980   -4.799870
  H     20.480000    0.994670   -3.909820
  H     25.097020    1.529270   -7.034110
  H     22.987680   -2.863840   -8.255760

 Total Charge           Charge          ....    0
 Multiplicity           Mult            ....    1
 Number of Electrons    NEL             ....  502
 Basis Dimension        Dim             .... 1097

ORBITAL ENERGIES
----------------

  NO   OCC          E(Eh)            E(eV)
   0   2.0000     -88.981745     -2421.3164
   1   2.0000     -88.979635     -2421.2590
   2   2.0000     -88.971066     -2421.0258
   3   2.0000     -88.969334     -2420.9787
   4   2.0000     -24.806095      -675.0082
   5   2.0000     -24.805385      -674.9889
   6   2.0000     -24.803818      -674.9462
   7   2.0000     -24.803253      -674.9308
   8   2.0000     -19.226977      -523.1927
   9   2.0000     -19.226316      -523.1746
  10   2.0000     -14.530537      -395.3960
  11   2.0000     -14.489598      -394.2820
  12   2.0000     -14.484563      -394.1450
  13   2.0000     -14.446756      -393.1162
  14   2.0000     -14.446386      -393.1061
  15   2.0000     -14.426745      -392.5717
  16   2.0000     -14.426507      -392.5652
  17   2.0000     -14.423105      -392.4726
  18   2.0000     -14.422709      -392.4619
  19   2.0000     -10.389874      -282.7228
  20   2.0000     -10.389102      -282.7018
  21   2.0000     -10.388694      -282.6907
  22   2.0000     -10.388295      -282.6799
  23   2.0000     -10.378915      -282.4246
  24   2.0000     -10.378077      -282.4018
  25   2.0000     -10.354040      -281.7478
  26   2.0000     -10.353412      -281.7307
  27   2.0000     -10.353308      -281.7278
  28   2.0000     -10.352777      -281.7134
  29   2.0000     -10.346508      -281.5428
  30   2.0000     -10.345446      -281.5139
  31   2.0000     -10.340446      -281.3778
  32   2.0000     -10.338725      -281.3310
  33   2.0000     -10.336228      -281.2631
  34   2.0000     -10.332874      -281.1718
  35   2.0000     -10.332714      -281.1674
  36   2.0000     -10.331893      -281.1451
  37   2.0000     -10.331569      -281.1363
  38   2.0000     -10.330661      -281.1116
  39   2.0000     -10.330596      -281.1098
  40   2.0000     -10.330186      -281.0987
  41   2.0000     -10.328534      -281.0537
  42   2.0000     -10.328099      -281.0419
  43   2.0000     -10.327094      -281.0145
  44   2.0000     -10.326771      -281.0057
  45   2.0000     -10.324803      -280.9522
  46   2.0000     -10.322812      -280.8980
  47   2.0000     -10.322380      -280.8863
  48   2.0000     -10.320506      -280.8352
  49   2.0000     -10.319941      -280.8199
  50   2.0000     -10.315716      -280.7049
  51   2.0000     -10.314963      -280.6844
  52   2.0000     -10.314463      -280.6708
  53   2.0000     -10.313877      -280.6549
  54   2.0000     -10.312629      -280.6209
  55   2.0000     -10.312295      -280.6118
  56   2.0000     -10.312209      -280.6095
  57   2.0000     -10.308789      -280.5164
  58   2.0000     -10.308198      -280.5003
  59   2.0000     -10.307910      -280.4925
  60   2.0000     -10.307895      -280.4921
  61   2.0000     -10.306819      -280.4628
  62   2.0000     -10.306028      -280.4413
  63   2.0000     -10.304649      -280.4038
  64   2.0000     -10.301474      -280.3174
  65   2.0000     -10.300572      -280.2928
  66   2.0000     -10.293068      -280.0886
  67   2.0000     -10.289945      -280.0036
  68   2.0000     -10.276719      -279.6437
  69   2.0000      -8.075823      -219.7543
  70   2.0000      -8.071862      -219.6465
  71   2.0000      -8.065166      -219.4643
  72   2.0000      -8.063265      -219.4126
  73   2.0000      -6.045378      -164.5031
  74   2.0000      -6.041684      -164.4026
  75   2.0000      -6.041339      -164.3932
  76   2.0000      -6.037522      -164.2893
  77   2.0000      -6.037319      -164.2838
  78   2.0000      -6.035101      -164.2235
  79   2.0000      -6.033457      -164.1787
  80   2.0000      -6.033251      -164.1731
  81   2.0000      -6.031146      -164.1158
  82   2.0000      -6.029279      -164.0650
  83   2.0000      -6.025972      -163.9750
  84   2.0000      -6.023996      -163.9213
  85   2.0000      -1.331960       -36.2445
  86   2.0000      -1.331549       -36.2333
  87   2.0000      -1.315332       -35.7920
  88   2.0000      -1.315154       -35.7872
  89   2.0000      -1.202146       -32.7121
  90   2.0000      -1.137399       -30.9502
  91   2.0000      -1.137227       -30.9455
  92   2.0000      -1.107520       -30.1372
  93   2.0000      -1.093933       -29.7674
  94   2.0000      -1.018819       -27.7235
  95   2.0000      -1.018738       -27.7213
  96   2.0000      -1.012558       -27.5531
  97   2.0000      -1.010156       -27.4877
  98   2.0000      -1.000994       -27.2384
  99   2.0000      -1.000740       -27.2315
 100   2.0000      -0.994450       -27.0604
 101   2.0000      -0.994314       -27.0567
 102   2.0000      -0.985232       -26.8095
 103   2.0000      -0.976170       -26.5629
 104   2.0000      -0.960037       -26.1239
 105   2.0000      -0.959101       -26.0985
 106   2.0000      -0.950746       -25.8711
 107   2.0000      -0.949409       -25.8347
 108   2.0000      -0.928299       -25.2603
 109   2.0000      -0.910885       -24.7864
 110   2.0000      -0.902322       -24.5534
 111   2.0000      -0.900129       -24.4938
 112   2.0000      -0.885477       -24.0951
 113   2.0000      -0.884806       -24.0768
 114   2.0000      -0.883460       -24.0402
 115   2.0000      -0.873115       -23.7587
 116   2.0000      -0.872789       -23.7498
 117   2.0000      -0.865477       -23.5508
 118   2.0000      -0.861192       -23.4342
 119   2.0000      -0.848146       -23.0792
 120   2.0000      -0.834278       -22.7019
 121   2.0000      -0.830467       -22.5981
 122   2.0000      -0.815854       -22.2005
 123   2.0000      -0.810827       -22.0637
 124   2.0000      -0.806300       -21.9405
 125   2.0000      -0.791053       -21.5256
 126   2.0000      -0.772775       -21.0283
 127   2.0000      -0.771982       -21.0067
 128   2.0000      -0.768666       -20.9165
 129   2.0000      -0.768034       -20.8993
 130   2.0000      -0.757302       -20.6072
 131   2.0000      -0.745640       -20.2899
 132   2.0000      -0.731090       -19.8940
 133   2.0000      -0.727720       -19.8023
 134   2.0000      -0.716997       -19.5105
 135   2.0000      -0.709549       -19.3078
 136   2.0000      -0.707830       -19.2610
 137   2.0000      -0.703927       -19.1548
 138   2.0000      -0.698951       -19.0194
 139   2.0000      -0.693956       -18.8835
 140   2.0000      -0.681590       -18.5470
 141   2.0000      -0.671741       -18.2790
 142   2.0000      -0.667891       -18.1742
 143   2.0000      -0.661624       -18.0037
 144   2.0000      -0.655808       -17.8454
 145   2.0000      -0.649946       -17.6859
 146   2.0000      -0.648347       -17.6424
 147   2.0000      -0.644557       -17.5393
 148   2.0000      -0.644234       -17.5305
 149   2.0000      -0.641475       -17.4554
 150   2.0000      -0.636801       -17.3282
 151   2.0000      -0.635089       -17.2816
 152   2.0000      -0.620903       -16.8956
 153   2.0000      -0.617402       -16.8004
 154   2.0000      -0.609841       -16.5946
 155   2.0000      -0.606832       -16.5127
 156   2.0000      -0.601579       -16.3698
 157   2.0000      -0.597097       -16.2478
 158   2.0000      -0.594917       -16.1885
 159   2.0000      -0.593792       -16.1579
 160   2.0000      -0.593329       -16.1453
 161   2.0000      -0.590922       -16.0798
 162   2.0000      -0.587358       -15.9828
 163   2.0000      -0.582567       -15.8524
 164   2.0000      -0.578312       -15.7367
 165   2.0000      -0.573604       -15.6085
 166   2.0000      -0.564931       -15.3726
 167   2.0000      -0.561681       -15.2841
 168   2.0000      -0.554278       -15.0827
 169   2.0000      -0.553896       -15.0723
 170   2.0000      -0.552334       -15.0298
 171   2.0000      -0.551630       -15.0106
 172   2.0000      -0.550739       -14.9864
 173   2.0000      -0.544307       -14.8114
 174   2.0000      -0.543125       -14.7792
 175   2.0000      -0.538824       -14.6621
 176   2.0000      -0.537961       -14.6387
 177   2.0000      -0.537191       -14.6177
 178   2.0000      -0.536401       -14.5962
 179   2.0000      -0.534073       -14.5329
 180   2.0000      -0.532861       -14.4999
 181   2.0000      -0.527772       -14.3614
 182   2.0000      -0.527416       -14.3517
 183   2.0000      -0.525750       -14.3064
 184   2.0000      -0.518804       -14.1174
 185   2.0000      -0.518477       -14.1085
 186   2.0000      -0.510158       -13.8821
 187   2.0000      -0.508325       -13.8322
 188   2.0000      -0.507447       -13.8083
 189   2.0000      -0.503910       -13.7121
 190   2.0000      -0.499164       -13.5829
 191   2.0000      -0.498947       -13.5770
 192   2.0000      -0.496325       -13.5057
 193   2.0000      -0.496006       -13.4970
 194   2.0000      -0.495659       -13.4876
 195   2.0000      -0.492320       -13.3967
 196   2.0000      -0.490777       -13.3547
 197   2.0000      -0.488314       -13.2877
 198   2.0000      -0.485258       -13.2045
 199   2.0000      -0.481059       -13.0903
 200   2.0000      -0.479062       -13.0360
 201   2.0000      -0.474972       -12.9246
 202   2.0000      -0.471009       -12.8168
 203   2.0000      -0.469990       -12.7891
 204   2.0000      -0.467088       -12.7101
 205   2.0000      -0.461581       -12.5603
 206   2.0000      -0.458745       -12.4831
 207   2.0000      -0.458132       -12.4664
 208   2.0000      -0.457647       -12.4532
 209   2.0000      -0.455907       -12.4059
 210   2.0000      -0.455707       -12.4004
 211   2.0000      -0.455288       -12.3890
 212   2.0000      -0.454449       -12.3662
 213   2.0000      -0.450014       -12.2455
 214   2.0000      -0.449444       -12.2300
 215   2.0000      -0.446690       -12.1551
 216   2.0000      -0.446526       -12.1506
 217   2.0000      -0.442774       -12.0485
 218   2.0000      -0.440246       -11.9797
 219   2.0000      -0.435244       -11.8436
 220   2.0000      -0.429845       -11.6967
 221   2.0000      -0.429651       -11.6914
 222   2.0000      -0.429122       -11.6770
 223   2.0000      -0.425420       -11.5763
 224   2.0000      -0.424423       -11.5491
 225   2.0000      -0.422986       -11.5100
 226   2.0000      -0.416511       -11.3338
 227   2.0000      -0.412617       -11.2279
 228   2.0000      -0.410368       -11.1667
 229   2.0000      -0.408379       -11.1126
 230   2.0000      -0.405960       -11.0467
 231   2.0000      -0.399350       -10.8669
 232   2.0000      -0.397681       -10.8214
 233   2.0000      -0.393065       -10.6959
 234   2.0000      -0.378834       -10.3086
 235   2.0000      -0.372078       -10.1248
 236   2.0000      -0.371695       -10.1143
 237   2.0000      -0.356881        -9.7112
 238   2.0000      -0.351310        -9.5596
 239   2.0000      -0.348023        -9.4702
 240   2.0000      -0.347382        -9.4527
 241   2.0000      -0.345773        -9.4090
 242   2.0000      -0.343127        -9.3369
 243   2.0000      -0.322999        -8.7892
 244   2.0000      -0.320100        -8.7104
 245   2.0000      -0.317731        -8.6459
 246   2.0000      -0.310317        -8.4442
 247   2.0000      -0.295006        -8.0275
 248   2.0000      -0.283700        -7.7199
 249   2.0000      -0.276383        -7.5208
 250   2.0000      -0.244675        -6.6580
 251   0.0000      -0.103289        -2.8106
 252   0.0000      -0.092199        -2.5089
 253   0.0000      -0.070159        -1.9091
 254   0.0000      -0.066603        -1.8124
 255   0.0000      -0.031741        -0.8637

MULLIKEN ATOMIC CHARGES
-----------------------
   0 C :    0.145597
   1 O :   -0.165677
   2 C :   -0.018650
   3 C :   -0.106887
   4 C :    0.230883
   5 F :   -0.160694
   6 C :    0.228871
   7 F :   -0.158180
   8 C :   -0.092485
   9 C :    0.039267
  10 C :    0.284586
  11 C :   -0.327320
  12 C :   -0.163204
  13 N :    0.117949
  14 C :   -0.162556
  15 N :    0.125938
  16 C :   -0.077159
  17 C :   -0.025716
  18 C :   -0.058908
  19 S :    0.192641
  20 C :   -0.061263
  21 C :   -0.028345
  22 C :   -0.037923
  23 S :    0.201921
  24 C :   -0.113297
  25 C :    0.050107
  26 N :   -0.218198
  27 C :    0.097944
  28 C :   -0.007684
  29 C :    0.067529
  30 C :   -0.067366
  31 C :   -0.018534
  32 N :   -0.044359
  33 N :   -0.124336
  34 C :    0.145032
  35 C :   -0.030218
  36 N :   -0.035305
  37 C :   -0.036323
  38 C :   -0.057412
  39 C :    0.048028
  40 N :   -0.192278
  41 C :    0.086763
  42 C :   -0.008044
  43 C :    0.049199
  44 C :   -0.107090
  45 S :    0.199918
  46 C :   -0.062453
  47 C :   -0.048470
  48 S :    0.151252
  49 C :   -0.126451
  50 C :    0.005358
  51 C :    0.056411
  52 C :   -0.092824
  53 C :    0.275516
  54 C :   -0.331081
  55 C :   -0.165996
  56 N :    0.129720
  57 C :   -0.164548
  58 N :    0.122967
  59 C :    0.042071
  60 C :   -0.086040
  61 C :    0.225805
  62 F :   -0.157922
  63 C :    0.228547
  64 F :   -0.160507
  65 C :   -0.097362
  66 C :   -0.018776
  67 C :    0.153681
  68 O :   -0.164765
  69 H :    0.018620
  70 H :    0.024627
  71 H :    0.013237
  72 H :    0.026333
  73 H :    0.008170
  74 H :    0.038369
  75 H :    0.037194
  76 H :    0.039199
  77 H :    0.033544
  78 H :    0.039029
  79 H :    0.040279
  80 H :    0.034565
  81 H :    0.032562
  82 H :    0.043075
  83 H :    0.017415
  84 H :    0.035864
  85 H :    0.038210
  86 H :    0.041460
  87 H :    0.034511
  88 H :    0.032322
  89 H :    0.008171
  90 H :    0.023862
  91 H :    0.018484
Sum of atomic charges:    0.0000000

LOEWDIN ATOMIC CHARGES
----------------------
   0 C :    0.086036
   1 O :   -0.163679
   2 C :   -0.046395
   3 C :   -0.013205
   4 C :    0.066721
   5 F :   -0.037699
   6 C :    0.069706
   7 F :   -0.037734
   8 C :   -0.022814
   9 C :   -0.014390
  10 C :    0.081106
  11 C :   -0.143315
  12 C :   -0.014281
  13 N :   -0.059783
  14 C :   -0.013893
  15 N :   -0.056491
  16 C :   -0.118478
  17 C :    0.055334
  18 C :   -0.183142
  19 S :    0.463657
  20 C :   -0.187661
  21 C :   -0.195533
  22 C :   -0.014408
  23 S :    0.420636
  24 C :   -0.168279
  25 C :   -0.037280
  26 N :    0.008122
  27 C :    0.039934
  28 C :   -0.067815
  29 C :    0.014199
  30 C :   -0.067150
  31 C :   -0.059340
  32 N :   -0.092457
  33 N :    0.135674
  34 C :    0.038697
  35 C :   -0.062654
  36 N :   -0.089854
  37 C :   -0.060281
  38 C :   -0.069331
  39 C :    0.013951
  40 N :    0.032481
  41 C :    0.035260
  42 C :   -0.065571
  43 C :   -0.038864
  44 C :   -0.169863
  45 S :    0.418348
  46 C :   -0.190713
  47 C :   -0.189416
  48 S :    0.426364
  49 C :   -0.177953
  50 C :   -0.007917
  51 C :    0.047769
  52 C :   -0.110061
  53 C :    0.080706
  54 C :   -0.142282
  55 C :   -0.014063
  56 N :   -0.055659
  57 C :   -0.017148
  58 N :   -0.057528
  59 C :   -0.015460
  60 C :   -0.022928
  61 C :    0.069137
  62 F :   -0.037163
  63 C :    0.066828
  64 F :   -0.037212
  65 C :   -0.011350
  66 C :   -0.045660
  67 C :    0.092654
  68 O :   -0.148519
  69 H :    0.053914
  70 H :    0.053638
  71 H :    0.052744
  72 H :    0.048158
  73 H :    0.026783
  74 H :    0.034407
  75 H :    0.039559
  76 H :    0.022201
  77 H :    0.027591
  78 H :    0.037962
  79 H :    0.036837
  80 H :    0.032917
  81 H :    0.035177
  82 H :    0.034462
  83 H :    0.029144
  84 H :    0.031564
  85 H :    0.027812
  86 H :    0.038636
  87 H :    0.030624
  88 H :    0.043571
  89 H :    0.044044
  90 H :    0.053326
  91 H :    0.054283

  Mayer bond orders larger than 0.100000
B(  0-C ,  1-O ) :   2.2050 B(  0-C ,  2-C ) :   0.9529 B(  0-C , 16-C ) :   0.9647
B(  2-C ,  3-C ) :   1.3131 B(  2-C ,  9-C ) :   1.3566 B(  3-C ,  4-C ) :   1.3287
B(  3-C ,  8-C ) :   0.1038 B(  3-C , 69-H ) :   1.0126 B(  4-C ,  5-F ) :   1.1372
B(  4-C ,  6-C ) :   1.2802 B(  6-C ,  7-F ) :   1.1521 B(  6-C ,  8-C ) :   1.3505
B(  8-C ,  9-C ) :   1.3057 B(  8-C , 70-H ) :   0.9839 B(  9-C , 10-C ) :   1.0035
B( 10-C , 11-C ) :   1.6231 B( 10-C , 16-C ) :   1.0974 B( 11-C , 12-C ) :   1.1313
B( 11-C , 14-C ) :   1.1258 B( 12-C , 13-N ) :   2.9564 B( 14-C , 15-N ) :   2.9670
B( 16-C , 17-C ) :   1.4922 B( 17-C , 18-C ) :   1.2834 B( 17-C , 71-H ) :   0.9273
B( 18-C , 19-S ) :   1.0500 B( 18-C , 22-C ) :   1.3711 B( 19-S , 20-C ) :   1.0454
B( 20-C , 21-C ) :   1.3716 B( 20-C , 25-C ) :   1.3071 B( 21-C , 22-C ) :   1.3293
B( 21-C , 23-S ) :   1.0350 B( 22-C , 72-H ) :   1.0024 B( 23-S , 24-C ) :   1.0275
B( 24-C , 25-C ) :   1.4195 B( 24-C , 30-C ) :   1.3511 B( 25-C , 26-N ) :   1.1350
B( 26-N , 27-C ) :   0.9266 B( 26-N , 29-C ) :   1.1331 B( 27-C , 28-C ) :   1.0988
B( 27-C , 73-H ) :   0.9497 B( 27-C , 74-H ) :   0.9443 B( 28-C , 75-H ) :   0.9603
B( 28-C , 76-H ) :   0.9542 B( 28-C , 77-H ) :   0.9595 B( 29-C , 30-C ) :   1.4103
B( 29-C , 39-C ) :   1.1482 B( 30-C , 31-C ) :   1.0754 B( 31-C , 32-N ) :   1.5462
B( 31-C , 37-C ) :   1.2408 B( 32-N , 33-N ) :   1.2051 B( 32-N , 36-N ) :   0.1498
B( 33-N , 34-C ) :   0.9227 B( 33-N , 36-N ) :   1.2141 B( 34-C , 35-C ) :   1.1094
B( 34-C , 78-H ) :   0.9467 B( 34-C , 79-H ) :   0.9492 B( 35-C , 80-H ) :   0.9683
B( 35-C , 81-H ) :   0.9677 B( 35-C , 82-H ) :   0.9691 B( 36-N , 37-C ) :   1.5492
B( 37-C , 38-C ) :   1.0855 B( 38-C , 39-C ) :   1.3717 B( 38-C , 44-C ) :   1.3719
B( 39-C , 40-N ) :   1.1640 B( 40-N , 41-C ) :   0.9432 B( 40-N , 43-C ) :   1.1461
B( 41-C , 42-C ) :   1.0970 B( 41-C , 83-H ) :   0.9455 B( 41-C , 84-H ) :   0.9413
B( 42-C , 85-H ) :   0.9593 B( 42-C , 86-H ) :   0.9655 B( 42-C , 87-H ) :   0.9555
B( 43-C , 44-C ) :   1.4056 B( 43-C , 47-C ) :   1.2761 B( 44-C , 45-S ) :   1.0219
B( 45-S , 46-C ) :   1.0384 B( 46-C , 47-C ) :   1.3748 B( 46-C , 50-C ) :   1.3188
B( 47-C , 48-S ) :   1.0849 B( 48-S , 49-C ) :   1.0461 B( 49-C , 50-C ) :   1.4284
B( 49-C , 51-C ) :   1.2498 B( 50-C , 88-H ) :   0.9689 B( 51-C , 52-C ) :   1.5597
B( 51-C , 89-H ) :   0.9075 B( 52-C , 53-C ) :   1.0941 B( 52-C , 67-C ) :   0.9565
B( 53-C , 54-C ) :   1.6241 B( 53-C , 59-C ) :   1.0035 B( 54-C , 55-C ) :   1.1287
B( 54-C , 57-C ) :   1.1295 B( 55-C , 56-N ) :   2.9683 B( 57-C , 58-N ) :   2.9564
B( 59-C , 60-C ) :   1.3034 B( 59-C , 66-C ) :   1.3571 B( 60-C , 61-C ) :   1.3546
B( 60-C , 65-C ) :   0.1034 B( 60-C , 90-H ) :   0.9836 B( 61-C , 62-F ) :   1.1514
B( 61-C , 63-C ) :   1.2773 B( 63-C , 64-F ) :   1.1378 B( 63-C , 65-C ) :   1.3264
B( 65-C , 66-C ) :   1.3171 B( 65-C , 91-H ) :   1.0122 B( 66-C , 67-C ) :   0.9656
B( 67-C , 68-O ) :   2.1579

-----------------------------------------------------------------------------
         ABSORPTION SPECTRUM VIA TRANSITION ELECTRIC DIPOLE MOMENTS
-----------------------------------------------------------------------------
State   Energy  Wavelength   fosc         T2         TX        TY        TZ
        (cm-1)    (nm)                  (au**2)     (au)      (au)      (au)
-----------------------------------------------------------------------------
   0   16607.7    602.1   2.470116018  48.96484   6.64723  -0.78066  -2.04199
   1   20305.2    492.5   0.509664720   8.26329  -0.01969   2.86313  -0.25575
   2   23525.1    425.1   0.058599945   0.82005   0.03338   0.83248   0.35486
   3   24439.3    409.2   0.123225091   1.65992   0.66692  -0.81362  -0.74375
   4   24948.3    400.8   0.044884393   0.59228   0.02533   0.76604  -0.06945
   5   25292.5    395.4   0.097260000   1.26595   1.04065   0.37678  -0.20257
   6   26600.4    375.9   0.180604022   2.23519  -0.08253  -1.47858   0.20537
   7   28911.6    345.9   0.053857806   0.61327  -0.77761  -0.08616   0.03419
   8   29536.6    338.6   0.007411003   0.08260   0.22664   0.03038   0.17411
   9   30071.5    332.5   0.023215222   0.25415   0.03871   0.45829   0.20645
  10   30714.5    325.6   0.164284277   1.76087  -1.04671   0.11792   0.80707
  11   30945.5    323.1   0.049301628   0.52449   0.11853  -0.50254  -0.50784
  12   31031.6    322.3   0.126741076   1.34459  -0.00014  -1.01297  -0.56434
  13   31330.1    319.2   0.046914150   0.49297   0.12131   0.62842   0.28869
  14   32002.9    312.5   0.135601613   1.39493   1.11542   0.36552   0.13101
  15   32686.8    305.9   0.003177215   0.03200  -0.07507   0.16011  -0.02700
  16   32893.1    304.0   0.009152260   0.09160  -0.26351  -0.08261   0.12385
  17   33007.2    303.0   0.024441764   0.24378  -0.32820   0.23033   0.28812
  18   33156.4    301.6   0.045330258   0.45009  -0.53615   0.33326   0.22708
  19   33798.4    295.9   0.079251521   0.77195  -0.36310  -0.73486  -0.31636
  20   33955.9    294.5   0.073448296   0.71210   0.51802  -0.30221  -0.59366
  21   34403.1    290.7   0.006946439   0.06647   0.02594   0.18897   0.17346
  22   34740.1    287.9   0.227911262   2.15978   0.35594  -1.08431  -0.92594
  23   35828.5    279.1   0.044404485   0.40801   0.49644  -0.14582  -0.37456
  24   36006.1    277.7   0.053977565   0.49353   0.57232   0.34345   0.21913
  25   36362.3    275.0   0.635931295   5.75750   0.60925   1.86279   1.38432
  26   37050.2    269.9   0.063797354   0.56687   0.01625   0.71546   0.23395
  27   37113.1    269.4   0.100485442   0.89136  -0.85921   0.20897   0.33083
  28   37418.8    267.2   0.023824287   0.20961  -0.35633   0.25270   0.13705
  29   37673.3    265.4   0.184059113   1.60842  -0.51396  -1.04681  -0.49845
  30   38030.9    262.9   0.091673981   0.79357  -0.35479   0.81689   0.01981
  31   38119.2    262.3   0.179580452   1.55093   1.24373   0.01867   0.06089
  32   38249.8    261.4   0.377906503   3.25260   0.81463   1.53751   0.47439
  33   39299.1    254.5   0.129296677   1.08313   0.16467   0.96526   0.35253
  34   39447.2    253.5   0.035154390   0.29339  -0.18914   0.42928   0.27079
  35   40195.7    248.8   0.052955906   0.43372   0.12808   0.63204   0.13356

FINAL SINGLE POINT ENERGY     -4550.327040509144

DIPOLE MOMENT
-------------
                                X             Y             Z
Electronic contribution:      8.53935      31.40330     -15.78051
Nuclear contribution   :     -8.06540     -33.37539      16.53649
                        -----------------------------------------
Total Dipole Moment    :      0.47394      -1.97209       0.75597
                        -----------------------------------------
Magnitude (a.u.)       :      2.16455
Magnitude (Debye)      :      5.50185

Rotational constants in cm-1:     0.001548     0.000264     0.000233
Rotational constants in MHz :    46.408876     7.917037     6.979983

                             ****ORCA TERMINATED NORMALLY****
TOTAL RUN TIME: 0 days 0 hours 47 minutes 35 seconds 578 msec
