                         Program Version 4.2.0 -  RELEASE  -
|  1> # ORCA input file
|  2> # Y11.out
|  3> ! CAM-B3LYP def2-SVP def2/J RIJCOSX Grid4 TightSCF
|  4> %maxcore 5000
|  5> %tddft
|  6>     Mode sTDDFT
|  7>     Ethresh 5.0
|  8>     maxcore 5000
|  9> end
| 10> * xyz 0 1
| 11>   C      3.833669    3.784110   -2.446604
| 12>   O      5.051035    3.707685   -2.474767
| 13>   C      3.021447    4.763112   -3.207041
| 14>   C      3.477462    5.741159   -4.083346
| 15>   C      2.530527    6.575766   -4.664137
| 16>   F      2.899552    7.528390   -5.517477
| 17>   C      1.167653    6.428510   -4.347877
| 18>   F      0.296721    7.270461   -4.896214
| 19>   C      0.713343    5.436333   -3.481609
| 20>   C      1.659602    4.581381   -2.902641
| 21>   C      1.529537    3.442486   -1.955406
| 22>   C      0.326331    2.986578   -1.437927
| 23>   C      0.218109    1.902603   -0.511545
| 24>   N      0.105287    1.023654    0.242106
| 25>   C     -0.933874    3.571222   -1.776447
| 26>   N     -1.967960    4.033765   -2.037499
| 27>   C      2.879284    2.946683   -1.682113
| 28>   C      3.204499    1.866251   -0.877705
| 29>   C      4.420231    1.306302   -0.429419
| 30>   S      6.047428    1.950130   -0.761802
| 31>   C      6.742050    0.757959    0.274036
| 32>   C      5.779971   -0.111698    0.829673
| 33>   C      4.463347    0.170333    0.430670
| 34>   C      3.278764   -0.645175    0.873742
| 35>   C      2.856315   -0.382509    2.327004
| 36>   S      6.494774   -1.348765    1.879784
| 37>   C      8.085227   -0.696554    1.535428
| 38>   C      8.044230    0.415718    0.685139
| 39>   N      9.320833    0.867644    0.411445
| 40>   C      9.504052    1.624299   -0.828950
| 41>   C      9.512593    0.743558   -2.072614
| 42>   C     10.216562    0.031807    1.097823
| 43>   C      9.447569   -0.959094    1.805266
| 44>   C     10.115597   -1.972606    2.552734
| 45>   N      9.641474   -2.983308    3.297787
| 46>   N     10.741635   -3.584603    3.734475
| 47>   C     10.680580   -4.789124    4.550131
| 48>   C     10.647284   -6.058344    3.707255
| 49>   N     11.900915   -3.077326    3.332030
| 50>   C     11.535097   -2.032614    2.573941
| 51>   C     12.310321   -1.041318    1.906135
| 52>   C     11.650460    0.028401    1.204004
| 53>   N     12.639289    0.898342    0.729749
| 54>   C     12.556411    2.248610    0.184921
| 55>   C     12.787929    2.307714   -1.323611
| 56>   C     13.868160    0.373127    1.072127
| 57>   C     13.699574   -0.816368    1.793691
| 58>   S     15.213056   -1.573737    2.220131
| 59>   C     16.097995   -0.269633    1.399841
| 60>   C     15.220256    0.696683    0.851066
| 61>   S     16.073942    1.922418   -0.004088
| 62>   C     17.631287    1.141286    0.357535
| 63>   C     17.467727   -0.040138    1.126556
| 64>   C     18.600404   -0.959996    1.471404
| 65>   C     18.232433   -2.417501    1.743444
| 66>   C     18.721366    1.678627   -0.368372
| 67>   C     20.095116    1.600758   -0.217082
| 68>   C     21.059194    1.955077   -1.260109
| 69>   C     20.799165    2.187687   -2.600603
| 70>   C     21.814619    2.564675   -3.534401
| 71>   N     22.616011    2.880812   -4.314729
| 72>   C     19.506630    2.058940   -3.202161
| 73>   N     18.481043    1.960384   -3.741536
| 74>   C     22.405022    1.959680   -0.642394
| 75>   C     23.677783    2.192192   -1.180613
| 76>   C     24.775838    2.101257   -0.330665
| 77>   F     26.001092    2.317935   -0.803299
| 78>   C     24.631357    1.779508    1.030854
| 79>   F     25.725364    1.691472    1.782425
| 80>   C     23.370623    1.553360    1.574832
| 81>   C     22.276096    1.636022    0.721732
| 82>   C     20.842111    1.407209    1.057299
| 83>   O     20.402544    1.199271    2.174009
| 84>   H      4.537816    5.855713   -4.314403
| 85>   H     -0.355487    5.377071   -3.287240
| 86>   H      2.355366    1.323587   -0.471223
| 87>   H      3.555665   -1.707810    0.759535
| 88>   H      2.416848   -0.481874    0.213920
| 89>   H      3.688030   -0.562393    3.025667
| 90>   H      2.024524   -1.045641    2.605643
| 91>   H      2.511740    0.654718    2.453783
| 92>   H     10.411391    2.218587   -0.770457
| 93>   H      8.680562    2.351033   -0.879415
| 94>   H     10.336524    0.014116   -2.035481
| 95>   H      9.637798    1.366730   -2.971541
| 96>   H      8.567241    0.189916   -2.171743
| 97>   H      9.779483   -4.695852    5.171862
| 98>   H     11.563801   -4.764038    5.203512
| 99>   H      9.765303   -6.064026    3.049308
|100>   H     10.599988   -6.940845    4.363362
|101>   H     11.550638   -6.133595    3.083563
|102>   H     13.321962    2.849235    0.700530
|103>   H     11.597851    2.685692    0.489071
|104>   H     13.795310    1.948331   -1.578026
|105>   H     12.696816    3.343398   -1.684878
|106>   H     12.073118    1.684158   -1.874677
|107>   H     19.131529   -0.524269    2.333477
|108>   H     19.336874   -0.903198    0.651468
|109>   H     17.622948   -2.526131    2.653887
|110>   H     19.146942   -3.007417    1.903692
|111>   H     17.678016   -2.869617    0.906494
|112>   H     18.390399    2.252224   -1.237452
|113>   H     23.854478    2.451679   -2.222417
|114>   H     23.252913    1.300923    2.629904
|115> *
|116>
|117>                          ****END OF INPUT****

CARTESIAN COORDINATES (ANGSTROEM)
---------------------------------
  C      3.833669    3.784110   -2.446604
  O      5.051035    3.707685   -2.474767
  C      3.021447    4.763112   -3.207041
  C      3.477462    5.741159   -4.083346
  C      2.530527    6.575766   -4.664137
  F      2.899552    7.528390   -5.517477
  C      1.167653    6.428510   -4.347877
  F      0.296721    7.270461   -4.896214
  C      0.713343    5.436333   -3.481609
  C      1.659602    4.581381   -2.902641
  C      1.529537    3.442486   -1.955406
  C      0.326331    2.986578   -1.437927
  C      0.218109    1.902603   -0.511545
  N      0.105287    1.023654    0.242106
  C     -0.933874    3.571222   -1.776447
  N     -1.967960    4.033765   -2.037499
  C      2.879284    2.946683   -1.682113
  C      3.204499    1.866251   -0.877705
  C      4.420231    1.306302   -0.429419
  S      6.047428    1.950130   -0.761802
  C      6.742050    0.757959    0.274036
  C      5.779971   -0.111698    0.829673
  C      4.463347    0.170333    0.430670
  C      3.278764   -0.645175    0.873742
  C      2.856315   -0.382509    2.327004
  S      6.494774   -1.348765    1.879784
  C      8.085227   -0.696554    1.535428
  C      8.044230    0.415718    0.685139
  N      9.320833    0.867644    0.411445
  C      9.504052    1.624299   -0.828950
  C      9.512593    0.743558   -2.072614
  C     10.216562    0.031807    1.097823
  C      9.447569   -0.959094    1.805266
  C     10.115597   -1.972606    2.552734
  N      9.641474   -2.983308    3.297787
  N     10.741635   -3.584603    3.734475
  C     10.680580   -4.789124    4.550131
  C     10.647284   -6.058344    3.707255
  N     11.900915   -3.077326    3.332030
  C     11.535097   -2.032614    2.573941
  C     12.310321   -1.041318    1.906135
  C     11.650460    0.028401    1.204004
  N     12.639289    0.898342    0.729749
  C     12.556411    2.248610    0.184921
  C     12.787929    2.307714   -1.323611
  C     13.868160    0.373127    1.072127
  C     13.699574   -0.816368    1.793691
  S     15.213056   -1.573737    2.220131
  C     16.097995   -0.269633    1.399841
  C     15.220256    0.696683    0.851066
  S     16.073942    1.922418   -0.004088
  C     17.631287    1.141286    0.357535
  C     17.467727   -0.040138    1.126556
  C     18.600404   -0.959996    1.471404
  C     18.232433   -2.417501    1.743444
  C     18.721366    1.678627   -0.368372
  C     20.095116    1.600758   -0.217082
  C     21.059194    1.955077   -1.260109
  C     20.799165    2.187687   -2.600603
  C     21.814619    2.564675   -3.534401
  N     22.616011    2.880812   -4.314729
  C     19.506630    2.058940   -3.202161
  N     18.481043    1.960384   -3.741536
  C     22.405022    1.959680   -0.642394
  C     23.677783    2.192192   -1.180613
  C     24.775838    2.101257   -0.330665
  F     26.001092    2.317935   -0.803299
  C     24.631357    1.779508    1.030854
  F     25.725364    1.691472    1.782425
  C     23.370623    1.553360    1.574832
  C     22.276096    1.636022    0.721732
  C     20.842111    1.407209    1.057299
  O     20.402544    1.199271    2.174009
  H      4.537816    5.855713   -4.314403
  H     -0.355487    5.377071   -3.287240
  H      2.355366    1.323587   -0.471223
  H      3.555665   -1.707810    0.759535
  H      2.416848   -0.481874    0.213920
  H      3.688030   -0.562393    3.025667
  H      2.024524   -1.045641    2.605643
  H      2.511740    0.654718    2.453783
  H     10.411391    2.218587   -0.770457
  H      8.680562    2.351033   -0.879415
  H     10.336524    0.014116   -2.035481
  H      9.637798    1.366730   -2.971541
  H      8.567241    0.189916   -2.171743
  H      9.779483   -4.695852    5.171862
  H     11.563801   -4.764038    5.203512
  H      9.765303   -6.064026    3.049308
  H     10.599988   -6.940845    4.363362
  H     11.550638   -6.133595    3.083563
  H     13.321962    2.849235    0.700530
  H     11.597851    2.685692    0.489071
  H     13.795310    1.948331   -1.578026
  H     12.696816    3.343398   -1.684878
  H     12.073118    1.684158   -1.874677
  H     19.131529   -0.524269    2.333477
  H     19.336874   -0.903198    0.651468
  H     17.622948   -2.526131    2.653887
  H     19.146942   -3.007417    1.903692
  H     17.678016   -2.869617    0.906494
  H     18.390399    2.252224   -1.237452
  H     23.854478    2.451679   -2.222417
  H     23.252913    1.300923    2.629904

 Total Charge           Charge          ....    0
 Multiplicity           Mult            ....    1
 Number of Electrons    NEL             ....  534
 Basis Dimension        Dim             .... 1193

ORBITAL ENERGIES
----------------

  NO   OCC          E(Eh)            E(eV)
   0   2.0000     -88.977414     -2421.1985
   1   2.0000     -88.973082     -2421.0806
   2   2.0000     -88.970504     -2421.0105
   3   2.0000     -88.969840     -2420.9924
   4   2.0000     -24.804442      -674.9632
   5   2.0000     -24.803906      -674.9486
   6   2.0000     -24.801885      -674.8936
   7   2.0000     -24.801612      -674.8862
   8   2.0000     -19.223603      -523.1008
   9   2.0000     -19.220776      -523.0239
  10   2.0000     -14.529395      -395.3649
  11   2.0000     -14.487564      -394.2266
  12   2.0000     -14.483356      -394.1122
  13   2.0000     -14.445456      -393.0808
  14   2.0000     -14.444970      -393.0676
  15   2.0000     -14.427135      -392.5823
  16   2.0000     -14.422749      -392.4630
  17   2.0000     -14.421373      -392.4255
  18   2.0000     -14.420517      -392.4022
  19   2.0000     -10.387795      -282.6663
  20   2.0000     -10.387681      -282.6632
  21   2.0000     -10.387037      -282.6456
  22   2.0000     -10.386314      -282.6260
  23   2.0000     -10.374508      -282.3047
  24   2.0000     -10.374243      -282.2975
  25   2.0000     -10.351924      -281.6902
  26   2.0000     -10.351210      -281.6707
  27   2.0000     -10.350076      -281.6399
  28   2.0000     -10.349974      -281.6371
  29   2.0000     -10.345615      -281.5185
  30   2.0000     -10.344217      -281.4805
  31   2.0000     -10.341784      -281.4143
  32   2.0000     -10.334171      -281.2071
  33   2.0000     -10.333643      -281.1927
  34   2.0000     -10.331625      -281.1378
  35   2.0000     -10.329994      -281.0934
  36   2.0000     -10.328920      -281.0642
  37   2.0000     -10.327034      -281.0129
  38   2.0000     -10.326887      -281.0089
  39   2.0000     -10.325906      -280.9822
  40   2.0000     -10.325311      -280.9660
  41   2.0000     -10.325289      -280.9654
  42   2.0000     -10.324956      -280.9563
  43   2.0000     -10.324943      -280.9560
  44   2.0000     -10.324625      -280.9473
  45   2.0000     -10.323459      -280.9156
  46   2.0000     -10.323430      -280.9148
  47   2.0000     -10.320612      -280.8381
  48   2.0000     -10.320570      -280.8370
  49   2.0000     -10.319729      -280.8141
  50   2.0000     -10.319059      -280.7959
  51   2.0000     -10.314883      -280.6822
  52   2.0000     -10.313915      -280.6559
  53   2.0000     -10.312787      -280.6252
  54   2.0000     -10.311413      -280.5878
  55   2.0000     -10.311076      -280.5786
  56   2.0000     -10.310493      -280.5628
  57   2.0000     -10.310461      -280.5619
  58   2.0000     -10.307775      -280.4888
  59   2.0000     -10.307425      -280.4793
  60   2.0000     -10.304676      -280.4045
  61   2.0000     -10.304194      -280.3914
  62   2.0000     -10.304026      -280.3868
  63   2.0000     -10.302120      -280.3349
  64   2.0000     -10.301478      -280.3175
  65   2.0000     -10.300549      -280.2922
  66   2.0000     -10.289580      -279.9937
  67   2.0000     -10.287671      -279.9418
  68   2.0000     -10.284954      -279.8678
  69   2.0000     -10.282187      -279.7925
  70   2.0000     -10.277465      -279.6640
  71   2.0000     -10.270199      -279.4663
  72   2.0000     -10.267546      -279.3941
  73   2.0000      -8.071897      -219.6475
  74   2.0000      -8.065672      -219.4781
  75   2.0000      -8.063530      -219.4198
  76   2.0000      -8.063089      -219.4078
  77   2.0000      -6.041547      -164.3989
  78   2.0000      -6.037441      -164.2871
  79   2.0000      -6.035481      -164.2338
  80   2.0000      -6.033646      -164.1839
  81   2.0000      -6.033369      -164.1763
  82   2.0000      -6.033143      -164.1702
  83   2.0000      -6.031035      -164.1128
  84   2.0000      -6.029453      -164.0698
  85   2.0000      -6.029131      -164.0610
  86   2.0000      -6.027261      -164.0101
  87   2.0000      -6.024332      -163.9304
  88   2.0000      -6.023874      -163.9180
  89   2.0000      -1.329718       -36.1835
  90   2.0000      -1.329503       -36.1776
  91   2.0000      -1.313965       -35.7548
  92   2.0000      -1.313276       -35.7361
  93   2.0000      -1.200466       -32.6663
  94   2.0000      -1.135027       -30.8856
  95   2.0000      -1.131942       -30.8017
  96   2.0000      -1.107238       -30.1295
  97   2.0000      -1.095398       -29.8073
  98   2.0000      -1.017201       -27.6794
  99   2.0000      -1.016620       -27.6636
 100   2.0000      -1.012440       -27.5499
 101   2.0000      -1.008836       -27.4518
 102   2.0000      -1.000079       -27.2135
 103   2.0000      -0.997853       -27.1530
 104   2.0000      -0.992874       -27.0175
 105   2.0000      -0.991891       -26.9907
 106   2.0000      -0.983676       -26.7672
 107   2.0000      -0.974737       -26.5239
 108   2.0000      -0.958972       -26.0950
 109   2.0000      -0.957000       -26.0413
 110   2.0000      -0.949364       -25.8335
 111   2.0000      -0.947529       -25.7836
 112   2.0000      -0.927941       -25.2506
 113   2.0000      -0.910329       -24.7713
 114   2.0000      -0.899691       -24.4818
 115   2.0000      -0.898693       -24.4547
 116   2.0000      -0.897604       -24.4250
 117   2.0000      -0.895402       -24.3651
 118   2.0000      -0.882643       -24.0179
 119   2.0000      -0.877427       -23.8760
 120   2.0000      -0.875234       -23.8163
 121   2.0000      -0.871001       -23.7011
 122   2.0000      -0.870557       -23.6891
 123   2.0000      -0.849140       -23.1063
 124   2.0000      -0.847395       -23.0588
 125   2.0000      -0.830576       -22.6011
 126   2.0000      -0.828868       -22.5546
 127   2.0000      -0.823059       -22.3966
 128   2.0000      -0.813303       -22.1311
 129   2.0000      -0.805563       -21.9205
 130   2.0000      -0.799884       -21.7660
 131   2.0000      -0.788128       -21.4461
 132   2.0000      -0.770272       -20.9602
 133   2.0000      -0.769860       -20.9490
 134   2.0000      -0.769169       -20.9302
 135   2.0000      -0.766217       -20.8498
 136   2.0000      -0.757016       -20.5995
 137   2.0000      -0.744079       -20.2474
 138   2.0000      -0.733120       -19.9492
 139   2.0000      -0.730257       -19.8713
 140   2.0000      -0.720430       -19.6039
 141   2.0000      -0.713437       -19.4136
 142   2.0000      -0.707677       -19.2569
 143   2.0000      -0.707080       -19.2406
 144   2.0000      -0.704174       -19.1615
 145   2.0000      -0.700207       -19.0536
 146   2.0000      -0.697777       -18.9875
 147   2.0000      -0.689804       -18.7705
 148   2.0000      -0.675796       -18.3893
 149   2.0000      -0.670540       -18.2463
 150   2.0000      -0.661318       -17.9954
 151   2.0000      -0.659593       -17.9484
 152   2.0000      -0.651523       -17.7288
 153   2.0000      -0.647827       -17.6283
 154   2.0000      -0.646255       -17.5855
 155   2.0000      -0.642591       -17.4858
 156   2.0000      -0.641876       -17.4663
 157   2.0000      -0.636836       -17.3292
 158   2.0000      -0.628555       -17.1038
 159   2.0000      -0.620623       -16.8880
 160   2.0000      -0.619017       -16.8443
 161   2.0000      -0.611364       -16.6361
 162   2.0000      -0.607536       -16.5319
 163   2.0000      -0.603280       -16.4161
 164   2.0000      -0.596571       -16.2335
 165   2.0000      -0.592245       -16.1158
 166   2.0000      -0.591741       -16.1021
 167   2.0000      -0.591376       -16.0922
 168   2.0000      -0.590319       -16.0634
 169   2.0000      -0.587898       -15.9975
 170   2.0000      -0.585181       -15.9236
 171   2.0000      -0.581868       -15.8334
 172   2.0000      -0.575858       -15.6699
 173   2.0000      -0.565820       -15.3968
 174   2.0000      -0.560863       -15.2619
 175   2.0000      -0.558603       -15.2004
 176   2.0000      -0.556051       -15.1309
 177   2.0000      -0.552744       -15.0409
 178   2.0000      -0.552171       -15.0253
 179   2.0000      -0.551055       -14.9950
 180   2.0000      -0.549425       -14.9506
 181   2.0000      -0.546984       -14.8842
 182   2.0000      -0.544165       -14.8075
 183   2.0000      -0.541648       -14.7390
 184   2.0000      -0.538889       -14.6639
 185   2.0000      -0.537134       -14.6161
 186   2.0000      -0.536184       -14.5903
 187   2.0000      -0.534199       -14.5363
 188   2.0000      -0.531530       -14.4637
 189   2.0000      -0.528340       -14.3769
 190   2.0000      -0.526943       -14.3388
 191   2.0000      -0.526239       -14.3197
 192   2.0000      -0.523152       -14.2357
 193   2.0000      -0.521416       -14.1884
 194   2.0000      -0.514983       -14.0134
 195   2.0000      -0.513043       -13.9606
 196   2.0000      -0.509075       -13.8526
 197   2.0000      -0.505713       -13.7612
 198   2.0000      -0.502803       -13.6820
 199   2.0000      -0.501485       -13.6461
 200   2.0000      -0.496858       -13.5202
 201   2.0000      -0.496509       -13.5107
 202   2.0000      -0.495673       -13.4880
 203   2.0000      -0.495067       -13.4715
 204   2.0000      -0.494178       -13.4473
 205   2.0000      -0.492219       -13.3940
 206   2.0000      -0.490732       -13.3535
 207   2.0000      -0.487346       -13.2614
 208   2.0000      -0.486601       -13.2411
 209   2.0000      -0.483190       -13.1483
 210   2.0000      -0.480971       -13.0879
 211   2.0000      -0.477944       -13.0055
 212   2.0000      -0.474312       -12.9067
 213   2.0000      -0.472445       -12.8559
 214   2.0000      -0.469919       -12.7871
 215   2.0000      -0.462656       -12.5895
 216   2.0000      -0.462362       -12.5815
 217   2.0000      -0.460643       -12.5347
 218   2.0000      -0.457439       -12.4475
 219   2.0000      -0.457047       -12.4369
 220   2.0000      -0.456306       -12.4167
 221   2.0000      -0.455881       -12.4051
 222   2.0000      -0.455216       -12.3871
 223   2.0000      -0.452775       -12.3206
 224   2.0000      -0.451534       -12.2869
 225   2.0000      -0.450627       -12.2622
 226   2.0000      -0.447184       -12.1685
 227   2.0000      -0.447008       -12.1637
 228   2.0000      -0.441858       -12.0236
 229   2.0000      -0.440668       -11.9912
 230   2.0000      -0.438595       -11.9348
 231   2.0000      -0.436975       -11.8907
 232   2.0000      -0.431302       -11.7363
 233   2.0000      -0.429143       -11.6776
 234   2.0000      -0.427276       -11.6268
 235   2.0000      -0.426555       -11.6071
 236   2.0000      -0.424108       -11.5406
 237   2.0000      -0.423306       -11.5187
 238   2.0000      -0.422306       -11.4915
 239   2.0000      -0.421791       -11.4775
 240   2.0000      -0.416607       -11.3364
 241   2.0000      -0.413953       -11.2642
 242   2.0000      -0.413294       -11.2463
 243   2.0000      -0.411191       -11.1891
 244   2.0000      -0.407171       -11.0797
 245   2.0000      -0.404842       -11.0163
 246   2.0000      -0.403274       -10.9736
 247   2.0000      -0.397043       -10.8041
 248   2.0000      -0.396970       -10.8021
 249   2.0000      -0.390719       -10.6320
 250   2.0000      -0.377384       -10.2692
 251   2.0000      -0.367464        -9.9992
 252   2.0000      -0.364758        -9.9256
 253   2.0000      -0.352315        -9.5870
 254   2.0000      -0.348141        -9.4734
 255   2.0000      -0.343625        -9.3505
 256   2.0000      -0.343118        -9.3367
 257   2.0000      -0.342327        -9.3152
 258   2.0000      -0.336484        -9.1562
 259   2.0000      -0.320148        -8.7117
 260   2.0000      -0.316981        -8.6255
 261   2.0000      -0.314547        -8.5593
 262   2.0000      -0.306344        -8.3361
 263   2.0000      -0.291678        -7.9370
 264   2.0000      -0.280062        -7.6209
 265   2.0000      -0.274701        -7.4750
 266   2.0000      -0.243387        -6.6229
 267   0.0000      -0.101113        -2.7514
 268   0.0000      -0.090411        -2.4602
 269   0.0000      -0.067887        -1.8473
 270   0.0000      -0.064190        -1.7467
 271   0.0000      -0.029807        -0.8111

MULLIKEN ATOMIC CHARGES
-----------------------
   0 C :    0.139031
   1 O :   -0.174107
   2 C :   -0.015520
   3 C :   -0.103084
   4 C :    0.229208
   5 F :   -0.162521
   6 C :    0.223375
   7 F :   -0.158743
   8 C :   -0.089329
   9 C :    0.043180
  10 C :    0.279786
  11 C :   -0.332692
  12 C :   -0.152800
  13 N :    0.110177
  14 C :   -0.166169
  15 N :    0.130019
  16 C :   -0.089844
  17 C :   -0.021319
  18 C :   -0.091395
  19 S :    0.182125
  20 C :   -0.031244
  21 C :   -0.084592
  22 C :   -0.056741
  23 C :    0.034464
  24 C :    0.010058
  25 S :    0.189154
  26 C :   -0.100491
  27 C :    0.034543
  28 N :   -0.185267
  29 C :    0.089285
  30 C :   -0.005444
  31 C :    0.053050
  32 C :   -0.065474
  33 C :   -0.028494
  34 N :   -0.039694
  35 N :   -0.124721
  36 C :    0.138819
  37 C :   -0.022258
  38 N :   -0.041263
  39 C :   -0.028714
  40 C :   -0.069871
  41 C :    0.058978
  42 N :   -0.195126
  43 C :    0.070358
  44 C :    0.001183
  45 C :    0.052190
  46 C :   -0.090486
  47 S :    0.173114
  48 C :   -0.131503
  49 C :   -0.039464
  50 S :    0.147853
  51 C :   -0.129455
  52 C :   -0.012922
  53 C :    0.032180
  54 C :   -0.011137
  55 C :   -0.000956
  56 C :   -0.107016
  57 C :    0.260561
  58 C :   -0.321626
  59 C :   -0.164888
  60 N :    0.127970
  61 C :   -0.186537
  62 N :    0.129881
  63 C :    0.048019
  64 C :   -0.089208
  65 C :    0.225341
  66 F :   -0.159771
  67 C :    0.227871
  68 F :   -0.161824
  69 C :   -0.102141
  70 C :   -0.024982
  71 C :    0.144123
  72 O :   -0.159984
  73 H :    0.018007
  74 H :    0.023592
  75 H :   -0.017147
  76 H :    0.025873
  77 H :    0.030863
  78 H :    0.020855
  79 H :    0.036861
  80 H :    0.024298
  81 H :   -0.003121
  82 H :    0.039703
  83 H :    0.042191
  84 H :    0.038361
  85 H :    0.039312
  86 H :    0.039139
  87 H :    0.039180
  88 H :    0.037444
  89 H :    0.033486
  90 H :    0.037104
  91 H :    0.037260
  92 H :    0.042318
  93 H :    0.034313
  94 H :    0.036495
  95 H :    0.024708
  96 H :    0.072244
  97 H :    0.019535
  98 H :    0.034276
  99 H :    0.024336
 100 H :    0.031398
 101 H :    0.039346
 102 H :    0.024331
 103 H :    0.018362
Sum of atomic charges:   -0.0000000

LOEWDIN ATOMIC CHARGES
----------------------
   0 C :    0.083931
   1 O :   -0.168036
   2 C :   -0.046181
   3 C :   -0.012585
   4 C :    0.066278
   5 F :   -0.039604
   6 C :    0.068333
   7 F :   -0.037549
   8 C :   -0.023149
   9 C :   -0.014577
  10 C :    0.083035
  11 C :   -0.149108
  12 C :   -0.009344
  13 N :   -0.065083
  14 C :   -0.014832
  15 N :   -0.058826
  16 C :   -0.124478
  17 C :    0.054405
  18 C :   -0.187337
  19 S :    0.462203
  20 C :   -0.188779
  21 C :   -0.192157
  22 C :   -0.002995
  23 C :   -0.035152
  24 C :   -0.048936
  25 S :    0.404263
  26 C :   -0.168370
  27 C :   -0.040362
  28 N :    0.021755
  29 C :    0.036922
  30 C :   -0.066076
  31 C :    0.010835
  32 C :   -0.064382
  33 C :   -0.061128
  34 N :   -0.091326
  35 N :    0.134730
  36 C :    0.037523
  37 C :   -0.062382
  38 N :   -0.092517
  39 C :   -0.059146
  40 C :   -0.069243
  41 C :    0.015340
  42 N :    0.027538
  43 C :    0.036476
  44 C :   -0.072141
  45 C :   -0.039843
  46 C :   -0.172138
  47 S :    0.423628
  48 C :   -0.188836
  49 C :   -0.186656
  50 S :    0.431839
  51 C :   -0.178724
  52 C :    0.005118
  53 C :   -0.038739
  54 C :   -0.066278
  55 C :    0.044759
  56 C :   -0.118596
  57 C :    0.078472
  58 C :   -0.142707
  59 C :   -0.014778
  60 N :   -0.056907
  61 C :   -0.021459
  62 N :   -0.058695
  63 C :   -0.017339
  64 C :   -0.023344
  65 C :    0.067723
  66 F :   -0.038597
  67 C :    0.066753
  68 F :   -0.038816
  69 C :   -0.014145
  70 C :   -0.045125
  71 C :    0.083515
  72 O :   -0.148647
  73 H :    0.053602
  74 H :    0.053314
  75 H :    0.048077
  76 H :    0.038821
  77 H :    0.034661
  78 H :    0.022067
  79 H :    0.035427
  80 H :    0.029863
  81 H :    0.024787
  82 H :    0.028140
  83 H :    0.031071
  84 H :    0.038146
  85 H :    0.034217
  86 H :    0.037495
  87 H :    0.037514
  88 H :    0.033783
  89 H :    0.035664
  90 H :    0.033680
  91 H :    0.032090
  92 H :    0.030960
  93 H :    0.026450
  94 H :    0.038919
  95 H :    0.030545
  96 H :    0.050871
  97 H :    0.038550
  98 H :    0.019364
  99 H :    0.034419
 100 H :    0.027058
 101 H :    0.044156
 102 H :    0.053311
 103 H :    0.053751

  Mayer bond orders larger than 0.100000
B(  0-C ,  1-O ) :   2.1804 B(  0-C ,  2-C ) :   0.9632 B(  0-C , 16-C ) :   0.9672
B(  2-C ,  3-C ) :   1.3179 B(  2-C ,  9-C ) :   1.3576 B(  3-C ,  4-C ) :   1.3238
B(  3-C ,  8-C ) :   0.1033 B(  3-C , 73-H ) :   1.0119 B(  4-C ,  5-F ) :   1.1370
B(  4-C ,  6-C ) :   1.2802 B(  6-C ,  7-F ) :   1.1488 B(  6-C ,  8-C ) :   1.3492
B(  8-C ,  9-C ) :   1.3078 B(  8-C , 74-H ) :   0.9847 B(  9-C , 10-C ) :   1.0003
B( 10-C , 11-C ) :   1.6135 B( 10-C , 16-C ) :   1.1096 B( 11-C , 12-C ) :   1.1388
B( 11-C , 14-C ) :   1.1277 B( 12-C , 13-N ) :   2.9502 B( 14-C , 15-N ) :   2.9694
B( 16-C , 17-C ) :   1.4828 B( 17-C , 18-C ) :   1.3114 B( 17-C , 75-H ) :   0.9220
B( 18-C , 19-S ) :   1.0326 B( 18-C , 22-C ) :   1.3693 B( 19-S , 20-C ) :   1.0476
B( 20-C , 21-C ) :   1.3969 B( 20-C , 27-C ) :   1.2841 B( 21-C , 22-C ) :   1.4014
B( 21-C , 25-S ) :   1.0258 B( 22-C , 23-C ) :   1.0693 B( 23-C , 24-C ) :   1.0987
B( 23-C , 76-H ) :   0.9231 B( 23-C , 77-H ) :   0.9113 B( 24-C , 78-H ) :   0.9711
B( 24-C , 79-H ) :   0.9671 B( 24-C , 80-H ) :   0.9675 B( 25-S , 26-C ) :   1.0125
B( 26-C , 27-C ) :   1.4262 B( 26-C , 32-C ) :   1.3499 B( 27-C , 28-N ) :   1.1465
B( 28-N , 29-C ) :   0.9547 B( 28-N , 31-C ) :   1.1448 B( 29-C , 30-C ) :   1.1070
B( 29-C , 81-H ) :   0.9447 B( 29-C , 82-H ) :   0.9347 B( 30-C , 83-H ) :   0.9601
B( 30-C , 84-H ) :   0.9627 B( 30-C , 85-H ) :   0.9581 B( 31-C , 32-C ) :   1.4006
B( 31-C , 41-C ) :   1.1494 B( 32-C , 33-C ) :   1.0759 B( 33-C , 34-N ) :   1.5511
B( 33-C , 39-C ) :   1.2330 B( 34-N , 35-N ) :   1.2079 B( 34-N , 38-N ) :   0.1499
B( 35-N , 36-C ) :   0.9241 B( 35-N , 38-N ) :   1.2060 B( 36-C , 37-C ) :   1.1125
B( 36-C , 86-H ) :   0.9476 B( 36-C , 87-H ) :   0.9474 B( 37-C , 88-H ) :   0.9686
B( 37-C , 89-H ) :   0.9678 B( 37-C , 90-H ) :   0.9686 B( 38-N , 39-C ) :   1.5535
B( 39-C , 40-C ) :   1.0836 B( 40-C , 41-C ) :   1.3846 B( 40-C , 46-C ) :   1.3470
B( 41-C , 42-N ) :   1.1546 B( 42-N , 43-C ) :   0.9379 B( 42-N , 45-C ) :   1.1463
B( 43-C , 44-C ) :   1.0967 B( 43-C , 91-H ) :   0.9413 B( 43-C , 92-H ) :   0.9525
B( 44-C , 93-H ) :   0.9510 B( 44-C , 94-H ) :   0.9621 B( 44-C , 95-H ) :   0.9617
B( 45-C , 46-C ) :   1.4136 B( 45-C , 49-C ) :   1.2757 B( 46-C , 47-S ) :   1.0116
B( 47-S , 48-C ) :   1.0336 B( 48-C , 49-C ) :   1.4104 B( 48-C , 52-C ) :   1.3573
B( 49-C , 50-S ) :   1.0862 B( 50-S , 51-C ) :   1.0429 B( 51-C , 52-C ) :   1.4143
B( 51-C , 55-C ) :   1.2451 B( 52-C , 53-C ) :   1.0883 B( 53-C , 54-C ) :   1.0993
B( 53-C , 96-H ) :   0.8870 B( 53-C , 97-H ) :   0.9137 B( 54-C , 98-H ) :   0.9556
B( 54-C , 99-H ) :   0.9581 B( 54-C ,100-H ) :   0.9724 B( 55-C , 56-C ) :   1.5337
B( 55-C ,101-H ) :   0.9193 B( 56-C , 57-C ) :   1.0993 B( 56-C , 71-C ) :   0.9747
B( 57-C , 58-C ) :   1.6287 B( 57-C , 63-C ) :   1.0084 B( 58-C , 59-C ) :   1.1251
B( 58-C , 61-C ) :   1.1257 B( 59-C , 60-N ) :   2.9696 B( 61-C , 62-N ) :   2.9837
B( 63-C , 64-C ) :   1.3045 B( 63-C , 70-C ) :   1.3531 B( 64-C , 65-C ) :   1.3508
B( 64-C , 69-C ) :   0.1032 B( 64-C ,102-H ) :   0.9839 B( 65-C , 66-F ) :   1.1487
B( 65-C , 67-C ) :   1.2807 B( 67-C , 68-F ) :   1.1362 B( 67-C , 69-C ) :   1.3253
B( 69-C , 70-C ) :   1.3244 B( 69-C ,103-H ) :   1.0110 B( 70-C , 71-C ) :   0.9386
B( 71-C , 72-O ) :   2.1833

-----------------------------------------------------------------------------
         ABSORPTION SPECTRUM VIA TRANSITION ELECTRIC DIPOLE MOMENTS
-----------------------------------------------------------------------------
State   Energy  Wavelength   fosc         T2         TX        TY        TZ
        (cm-1)    (nm)                  (au**2)     (au)      (au)      (au)
-----------------------------------------------------------------------------
   0   16631.6    601.3   2.332874763  46.17789  -6.77204   0.51867  -0.21986
   1   20140.2    496.5   0.575941243   9.41436  -0.19353   2.17302  -2.15752
   2   23560.9    424.4   0.061219094   0.85540  -0.07913  -0.83452   0.39079
   3   24347.7    410.7   0.125380466   1.69530   0.80192  -0.56213   0.85805
   4   24958.7    400.7   0.029418650   0.38804  -0.39665   0.47743  -0.05264
   5   25124.7    398.0   0.173009362   2.26696  -1.28946  -0.71922   0.29489
   6   26240.7    381.1   0.183257653   2.29912  -0.14524  -1.03586   1.09773
   7   28458.7    351.4   0.038847796   0.44939   0.54566  -0.32643  -0.21234
   8   29387.1    340.3   0.015489741   0.17353  -0.31441  -0.10920  -0.25049
   9   29439.0    339.7   0.010383485   0.11612  -0.20296   0.20956  -0.17610
  10   30633.6    326.4   0.189090375   2.03211   1.37502   0.25659   0.27495
  11   31013.2    322.4   0.022611098   0.24002  -0.12177  -0.41292   0.23386
  12   31066.0    321.9   0.097598298   1.03427   0.29433  -0.32942   0.91604
  13   31293.6    319.6   0.074917277   0.78814  -0.23883  -0.69334   0.50038
  14   31868.0    313.8   0.087625724   0.90522   0.77395   0.35462  -0.42480
  15   32298.1    309.6   0.069821334   0.71168  -0.77732  -0.29830   0.13589
  16   32435.7    308.3   0.044890273   0.45562   0.50739  -0.31998   0.30950
  17   32882.5    304.1   0.007884738   0.07894   0.21986  -0.11766   0.12945
  18   33098.8    302.1   0.015242700   0.15161  -0.03494  -0.35825   0.14848
  19   33427.0    299.2   0.131702936   1.29710  -0.73130  -0.79414   0.36283
  20   33775.6    296.1   0.043124125   0.42033  -0.49662   0.15231  -0.38795
  21   34024.5    293.9   0.002902515   0.02808   0.08403   0.11222   0.09181
  22   34427.6    290.5   0.178405638   1.70599   0.97936  -0.38740   0.77250
  23   34917.5    286.4   0.050305230   0.47429  -0.04995  -0.39922   0.55895
  24   35795.2    279.4   0.045976672   0.42285   0.55823   0.21030   0.25884
  25   36358.6    275.0   0.344473913   3.11907   0.23604  -0.61585   1.63832
  26   36855.8    271.3   0.385311742   3.44177  -1.40503  -1.16651   0.32697
  27   36963.4    270.5   0.121541148   1.08250   0.46642  -0.62412   0.68951
  28   37330.8    267.9   0.036670826   0.32339   0.12670  -0.21918  -0.50921
  29   37676.2    265.4   0.099965081   0.87349  -0.12769  -0.45458   0.80656
  30   37783.1    264.7   0.028811688   0.25104  -0.06236   0.06342   0.49308
  31   38092.2    262.5   0.335695681   2.90125   0.38811  -0.85479   1.42125
  32   38316.6    261.0   0.374434857   3.21710   1.69438   0.25342  -0.53098
  33   38564.2    259.3   0.047386211   0.40452  -0.47617  -0.12905   0.40141
  34   38946.1    256.8   0.012404794   0.10486  -0.00196   0.31054   0.09177
  35   39610.1    252.5   0.289878815   2.40927  -0.08562  -1.18215   1.00223

FINAL SINGLE POINT ENERGY     -4707.367906795349

DIPOLE MOMENT
-------------
                                X             Y             Z
Electronic contribution:     18.44370      51.57081     -26.56458
Nuclear contribution   :    -17.72724     -53.05108      28.32428
                        -----------------------------------------
Total Dipole Moment    :      0.71646      -1.48027       1.75970
                        -----------------------------------------
Magnitude (a.u.)       :      2.40854
Magnitude (Debye)      :      6.12202

Rotational constants in cm-1:     0.001428     0.000259     0.000223
Rotational constants in MHz :    42.811404     7.765148     6.677639

                             ****ORCA TERMINATED NORMALLY****
TOTAL RUN TIME: 0 days 1 hours 4 minutes 41 seconds 347 msec
