                         Program Version 4.2.0 -  RELEASE  -
|  1> # ORCA input file
|  2> # Y11.out
|  3> ! CAM-B3LYP def2-SVP def2/J RIJCOSX Grid4 TightSCF
|  4> %maxcore 5000
|  5> %tddft
|  6>     Mode sTDDFT
|  7>     Ethresh 5.0
|  8>     maxcore 5000
|  9> end
| 10> * xyz 0 1
| 11>    C        2.91351         2.30544        -2.28313
| 12>    O        1.90047         1.66990        -2.46205
| 13>    C        3.49562         3.35185        -3.15901
| 14>    C        3.05832         3.78489        -4.39473
| 15>    C        3.80379         4.76272        -5.03499
| 16>    F        3.41933         5.20659        -6.23793
| 17>    C        4.95245         5.28758        -4.44215
| 18>    F        5.65840         6.22089        -5.09081
| 19>    C        5.38633         4.86262        -3.19498
| 20>    C        4.64804         3.88310        -2.55257
| 21>    C        4.81589         3.25726        -1.24164
| 22>    C        5.52285         3.78725        -0.19214
| 23>    C        5.37040         3.33412         1.13501
| 24>    N        5.21781         3.02287         2.22955
| 25>    C        6.41227         4.87219        -0.30527
| 26>    N        7.17907         5.72558        -0.34813
| 27>    C        3.87961         2.16220        -1.16917
| 28>    C        3.83223         1.05395        -0.36922
| 29>    C        4.84995         0.47212         0.40514
| 30>    S        6.55303         0.84744         0.12937
| 31>    C        7.02167        -0.28675         1.33638
| 32>    C        5.90824        -0.93290         1.89548
| 33>    C        4.68369        -0.52207         1.36995
| 34>    C        3.36390        -1.00809         1.86370
| 35>    C        2.75986        -0.00150         2.84674
| 36>    S        6.33618        -2.11375         3.11424
| 37>    C        8.00768        -1.73141         2.86953
| 38>    C        8.21520        -0.72985         1.89984
| 39>    N        9.54757        -0.47264         1.78204
| 40>    C       10.07703         0.50039         0.86104
| 41>    C       10.00136         1.91450         1.43247
| 42>    C       10.21274        -1.29423         2.66384
| 43>    C        9.26391        -2.11132         3.34183
| 44>    C        9.70348        -3.06589         4.30044
| 45>    N        9.02041        -3.88731         5.09414
| 46>    N        9.94001        -4.58805         5.70836
| 47>    C        9.60371        -5.62781         6.63777
| 48>    C        9.17042        -6.88925         5.89794
| 49>    N       11.18191        -4.31188         5.38577
| 50>    C       11.08129        -3.33036         4.49721
| 51>    C       12.09895        -2.63181         3.73326
| 52>    C       11.58563        -1.46432         2.92253
| 53>    N       12.67587        -0.70504         3.11604
| 54>    C       13.23034         0.51682         2.61061
| 55>    C       13.28551         1.56816         3.71711
| 56>    C       13.30533        -1.57294         4.03485
| 57>    C       13.24286        -3.37249         3.11441
| 58>    S       14.21312        -4.63084         2.30090
| 59>    C       15.35819        -3.25173         2.81842
| 60>    C       14.25781        -2.50218         3.34559
| 61>    S       19.16331        -3.84764         1.95760
| 62>    C       17.57768        -4.14633         2.32383
| 63>    C       16.69667        -3.12107         2.81100
| 64>    C       17.27242        -1.80970         3.27632
| 65>    C       17.42824        -0.83452         2.10875
| 66>    C       17.15708        -5.51631         2.13604
| 67>    C       16.42642        -6.23932         3.01954
| 68>    C       15.89994        -7.58675         2.83579
| 69>    C       16.26906        -8.48947         1.88066
| 70>    C       15.71445        -9.78377         1.76340
| 71>    N       15.30298       -10.84526         1.62447
| 72>    C       17.26780        -8.27806         0.90306
| 73>    N       18.06088        -8.18636         0.07943
| 74>    C       14.88876        -7.79620         3.86976
| 75>    C       13.98108        -8.82837         4.05917
| 76>    C       13.10300        -8.73184         5.12711
| 77>    F       12.20736        -9.70752         5.32273
| 78>    C       13.12011        -7.63995         5.99652
| 79>    F       12.25156        -7.59682         7.01551
| 80>    C       14.02015        -6.60424         5.81588
| 81>    C       14.89300        -6.70024         4.75001
| 82>    C       15.93207        -5.73453         4.33689
| 83>    O       16.34111        -4.78852         4.96694
| 84>    H        2.16951         3.38077        -4.85236
| 85>    H        6.27977         5.29416        -2.77347
| 86>    H        2.90263         0.49518        -0.42184
| 87>    H        3.51084        -1.96566         2.36690
| 88>    H        2.67841        -1.15605         1.02685
| 89>    H        3.42357         0.14100         3.69567
| 90>    H        1.80210        -0.36468         3.20926
| 91>    H        2.61197         0.96150         2.36407
| 92>    H        9.48213         0.44891        -0.05639
| 93>    H       11.10374         0.22007         0.61441
| 94>    H       10.53219         1.97980         2.37861
| 95>    H        8.96424         2.19304         1.60267
| 96>    H       10.43628         2.62304         0.73352
| 97>    H        8.78984        -5.26364         7.26813
| 98>    H       10.48890        -5.82012         7.24424
| 99>    H        8.29023        -6.68508         5.29374
|100>    H        8.93682        -7.67166         6.61334
|101>    H        9.96746        -7.24153         5.24807
|102>    H       12.64214         0.87955         1.76870
|103>    H       14.24939         0.30430         2.26530
|104>    H       12.28795         1.78422         4.09236
|105>    H       13.72334         2.48511         3.33385
|106>    H       13.89084         1.20476         4.54321
|107>    H       18.24669        -1.99435         3.72848
|108>    H       16.61044        -1.38303         4.03080
|109>    H       18.13224        -1.22421         1.37827
|110>    H       17.80043         0.12005         2.47148
|111>    H       16.47277        -0.67252         1.61290
|112>    H       17.53922        -5.99452         1.24347
|113>    H       13.92466        -9.68957         3.41384
|114>    H       14.02553        -5.75009         6.47348
|115> *
|116>
|117>                          ****END OF INPUT****

CARTESIAN COORDINATES (ANGSTROEM)
---------------------------------
  C      2.913510    2.305440   -2.283130
  O      1.900470    1.669900   -2.462050
  C      3.495620    3.351850   -3.159010
  C      3.058320    3.784890   -4.394730
  C      3.803790    4.762720   -5.034990
  F      3.419330    5.206590   -6.237930
  C      4.952450    5.287580   -4.442150
  F      5.658400    6.220890   -5.090810
  C      5.386330    4.862620   -3.194980
  C      4.648040    3.883100   -2.552570
  C      4.815890    3.257260   -1.241640
  C      5.522850    3.787250   -0.192140
  C      5.370400    3.334120    1.135010
  N      5.217810    3.022870    2.229550
  C      6.412270    4.872190   -0.305270
  N      7.179070    5.725580   -0.348130
  C      3.879610    2.162200   -1.169170
  C      3.832230    1.053950   -0.369220
  C      4.849950    0.472120    0.405140
  S      6.553030    0.847440    0.129370
  C      7.021670   -0.286750    1.336380
  C      5.908240   -0.932900    1.895480
  C      4.683690   -0.522070    1.369950
  C      3.363900   -1.008090    1.863700
  C      2.759860   -0.001500    2.846740
  S      6.336180   -2.113750    3.114240
  C      8.007680   -1.731410    2.869530
  C      8.215200   -0.729850    1.899840
  N      9.547570   -0.472640    1.782040
  C     10.077030    0.500390    0.861040
  C     10.001360    1.914500    1.432470
  C     10.212740   -1.294230    2.663840
  C      9.263910   -2.111320    3.341830
  C      9.703480   -3.065890    4.300440
  N      9.020410   -3.887310    5.094140
  N      9.940010   -4.588050    5.708360
  C      9.603710   -5.627810    6.637770
  C      9.170420   -6.889250    5.897940
  N     11.181910   -4.311880    5.385770
  C     11.081290   -3.330360    4.497210
  C     12.098950   -2.631810    3.733260
  C     11.585630   -1.464320    2.922530
  N     12.675870   -0.705040    3.116040
  C     13.230340    0.516820    2.610610
  C     13.285510    1.568160    3.717110
  C     13.305330   -1.572940    4.034850
  C     13.242860   -3.372490    3.114410
  S     14.213120   -4.630840    2.300900
  C     15.358190   -3.251730    2.818420
  C     14.257810   -2.502180    3.345590
  S     19.163310   -3.847640    1.957600
  C     17.577680   -4.146330    2.323830
  C     16.696670   -3.121070    2.811000
  C     17.272420   -1.809700    3.276320
  C     17.428240   -0.834520    2.108750
  C     17.157080   -5.516310    2.136040
  C     16.426420   -6.239320    3.019540
  C     15.899940   -7.586750    2.835790
  C     16.269060   -8.489470    1.880660
  C     15.714450   -9.783770    1.763400
  N     15.302980  -10.845260    1.624470
  C     17.267800   -8.278060    0.903060
  N     18.060880   -8.186360    0.079430
  C     14.888760   -7.796200    3.869760
  C     13.981080   -8.828370    4.059170
  C     13.103000   -8.731840    5.127110
  F     12.207360   -9.707520    5.322730
  C     13.120110   -7.639950    5.996520
  F     12.251560   -7.596820    7.015510
  C     14.020150   -6.604240    5.815880
  C     14.893000   -6.700240    4.750010
  C     15.932070   -5.734530    4.336890
  O     16.341110   -4.788520    4.966940
  H      2.169510    3.380770   -4.852360
  H      6.279770    5.294160   -2.773470
  H      2.902630    0.495180   -0.421840
  H      3.510840   -1.965660    2.366900
  H      2.678410   -1.156050    1.026850
  H      3.423570    0.141000    3.695670
  H      1.802100   -0.364680    3.209260
  H      2.611970    0.961500    2.364070
  H      9.482130    0.448910   -0.056390
  H     11.103740    0.220070    0.614410
  H     10.532190    1.979800    2.378610
  H      8.964240    2.193040    1.602670
  H     10.436280    2.623040    0.733520
  H      8.789840   -5.263640    7.268130
  H     10.488900   -5.820120    7.244240
  H      8.290230   -6.685080    5.293740
  H      8.936820   -7.671660    6.613340
  H      9.967460   -7.241530    5.248070
  H     12.642140    0.879550    1.768700
  H     14.249390    0.304300    2.265300
  H     12.287950    1.784220    4.092360
  H     13.723340    2.485110    3.333850
  H     13.890840    1.204760    4.543210
  H     18.246690   -1.994350    3.728480
  H     16.610440   -1.383030    4.030800
  H     18.132240   -1.224210    1.378270
  H     17.800430    0.120050    2.471480
  H     16.472770   -0.672520    1.612900
  H     17.539220   -5.994520    1.243470
  H     13.924660   -9.689570    3.413840
  H     14.025530   -5.750090    6.473480

 Total Charge           Charge          ....    0
 Multiplicity           Mult            ....    1
 Number of Electrons    NEL             ....  534
 Basis Dimension        Dim             .... 1193

ORBITAL ENERGIES
----------------

  NO   OCC          E(Eh)            E(eV)
   0   2.0000     -88.979599     -2421.2580
   1   2.0000     -88.972665     -2421.0693
   2   2.0000     -88.960402     -2420.7356
   3   2.0000     -88.910391     -2419.3747
   4   2.0000     -24.812962      -675.1950
   5   2.0000     -24.806569      -675.0211
   6   2.0000     -24.803664      -674.9420
   7   2.0000     -24.803536      -674.9385
   8   2.0000     -19.226355      -523.1757
   9   2.0000     -19.220091      -523.0053
  10   2.0000     -14.528436      -395.3388
  11   2.0000     -14.499745      -394.5581
  12   2.0000     -14.494759      -394.4224
  13   2.0000     -14.449049      -393.1786
  14   2.0000     -14.446351      -393.1052
  15   2.0000     -14.425988      -392.5511
  16   2.0000     -14.424977      -392.5236
  17   2.0000     -14.422133      -392.4462
  18   2.0000     -14.418139      -392.3375
  19   2.0000     -10.392109      -282.7837
  20   2.0000     -10.391164      -282.7580
  21   2.0000     -10.389547      -282.7139
  22   2.0000     -10.388648      -282.6895
  23   2.0000     -10.379425      -282.4385
  24   2.0000     -10.372461      -282.2490
  25   2.0000     -10.357582      -281.8441
  26   2.0000     -10.354050      -281.7480
  27   2.0000     -10.348179      -281.5883
  28   2.0000     -10.347800      -281.5780
  29   2.0000     -10.347571      -281.5717
  30   2.0000     -10.346817      -281.5512
  31   2.0000     -10.344797      -281.4962
  32   2.0000     -10.341102      -281.3957
  33   2.0000     -10.340288      -281.3736
  34   2.0000     -10.336635      -281.2741
  35   2.0000     -10.332377      -281.1583
  36   2.0000     -10.331827      -281.1433
  37   2.0000     -10.327636      -281.0293
  38   2.0000     -10.326574      -281.0004
  39   2.0000     -10.326177      -280.9896
  40   2.0000     -10.324873      -280.9541
  41   2.0000     -10.322241      -280.8825
  42   2.0000     -10.322203      -280.8814
  43   2.0000     -10.321645      -280.8662
  44   2.0000     -10.321247      -280.8554
  45   2.0000     -10.320987      -280.8483
  46   2.0000     -10.320206      -280.8271
  47   2.0000     -10.319548      -280.8092
  48   2.0000     -10.318645      -280.7846
  49   2.0000     -10.318024      -280.7677
  50   2.0000     -10.317630      -280.7570
  51   2.0000     -10.316546      -280.7275
  52   2.0000     -10.315573      -280.7010
  53   2.0000     -10.313958      -280.6571
  54   2.0000     -10.312147      -280.6078
  55   2.0000     -10.311861      -280.6000
  56   2.0000     -10.311221      -280.5826
  57   2.0000     -10.310792      -280.5709
  58   2.0000     -10.310695      -280.5683
  59   2.0000     -10.308060      -280.4966
  60   2.0000     -10.307994      -280.4948
  61   2.0000     -10.305660      -280.4313
  62   2.0000     -10.302174      -280.3364
  63   2.0000     -10.300664      -280.2953
  64   2.0000     -10.298083      -280.2251
  65   2.0000     -10.292143      -280.0634
  66   2.0000     -10.288771      -279.9717
  67   2.0000     -10.284801      -279.8637
  68   2.0000     -10.283271      -279.8220
  69   2.0000     -10.272692      -279.5342
  70   2.0000     -10.270140      -279.4647
  71   2.0000     -10.268024      -279.4071
  72   2.0000     -10.260410      -279.2000
  73   2.0000      -8.073634      -219.6947
  74   2.0000      -8.066833      -219.5097
  75   2.0000      -8.052498      -219.1196
  76   2.0000      -8.006182      -217.8593
  77   2.0000      -6.043304      -164.4467
  78   2.0000      -6.039241      -164.3361
  79   2.0000      -6.036699      -164.2669
  80   2.0000      -6.035087      -164.2231
  81   2.0000      -6.032770      -164.1600
  82   2.0000      -6.027729      -164.0228
  83   2.0000      -6.023209      -163.8998
  84   2.0000      -6.019286      -163.7931
  85   2.0000      -6.011941      -163.5932
  86   2.0000      -5.975212      -162.5938
  87   2.0000      -5.974618      -162.5776
  88   2.0000      -5.965304      -162.3242
  89   2.0000      -1.332775       -36.2666
  90   2.0000      -1.327265       -36.1167
  91   2.0000      -1.316742       -35.8304
  92   2.0000      -1.312024       -35.7020
  93   2.0000      -1.216001       -33.0891
  94   2.0000      -1.143726       -31.1224
  95   2.0000      -1.135661       -30.9029
  96   2.0000      -1.131900       -30.8006
  97   2.0000      -1.117120       -30.3984
  98   2.0000      -1.030269       -28.0350
  99   2.0000      -1.028315       -27.9819
 100   2.0000      -1.020749       -27.7760
 101   2.0000      -1.011181       -27.5156
 102   2.0000      -1.007779       -27.4231
 103   2.0000      -1.006448       -27.3868
 104   2.0000      -1.003629       -27.3101
 105   2.0000      -0.998660       -27.1749
 106   2.0000      -0.991482       -26.9796
 107   2.0000      -0.980664       -26.6852
 108   2.0000      -0.971010       -26.4225
 109   2.0000      -0.967620       -26.3303
 110   2.0000      -0.957108       -26.0442
 111   2.0000      -0.954184       -25.9647
 112   2.0000      -0.936608       -25.4864
 113   2.0000      -0.924238       -25.1498
 114   2.0000      -0.912553       -24.8318
 115   2.0000      -0.908781       -24.7292
 116   2.0000      -0.907139       -24.6845
 117   2.0000      -0.891148       -24.2494
 118   2.0000      -0.886714       -24.1287
 119   2.0000      -0.882786       -24.0218
 120   2.0000      -0.879974       -23.9453
 121   2.0000      -0.878026       -23.8923
 122   2.0000      -0.869460       -23.6592
 123   2.0000      -0.852078       -23.1862
 124   2.0000      -0.846456       -23.0332
 125   2.0000      -0.842714       -22.9314
 126   2.0000      -0.828199       -22.5364
 127   2.0000      -0.815024       -22.1779
 128   2.0000      -0.811509       -22.0823
 129   2.0000      -0.808396       -21.9976
 130   2.0000      -0.796044       -21.6615
 131   2.0000      -0.786066       -21.3900
 132   2.0000      -0.780502       -21.2386
 133   2.0000      -0.775465       -21.1015
 134   2.0000      -0.774184       -21.0666
 135   2.0000      -0.767279       -20.8787
 136   2.0000      -0.753792       -20.5117
 137   2.0000      -0.739264       -20.1164
 138   2.0000      -0.736054       -20.0290
 139   2.0000      -0.732622       -19.9357
 140   2.0000      -0.724702       -19.7201
 141   2.0000      -0.719732       -19.5849
 142   2.0000      -0.713996       -19.4288
 143   2.0000      -0.711803       -19.3691
 144   2.0000      -0.705987       -19.2109
 145   2.0000      -0.703408       -19.1407
 146   2.0000      -0.696933       -18.9645
 147   2.0000      -0.691155       -18.8073
 148   2.0000      -0.685531       -18.6543
 149   2.0000      -0.674356       -18.3502
 150   2.0000      -0.668765       -18.1980
 151   2.0000      -0.662034       -18.0149
 152   2.0000      -0.658244       -17.9117
 153   2.0000      -0.653663       -17.7871
 154   2.0000      -0.650141       -17.6912
 155   2.0000      -0.645335       -17.5604
 156   2.0000      -0.641443       -17.4546
 157   2.0000      -0.637295       -17.3417
 158   2.0000      -0.634385       -17.2625
 159   2.0000      -0.627035       -17.0625
 160   2.0000      -0.622248       -16.9322
 161   2.0000      -0.614595       -16.7240
 162   2.0000      -0.611598       -16.6424
 163   2.0000      -0.609490       -16.5851
 164   2.0000      -0.603891       -16.4327
 165   2.0000      -0.601296       -16.3621
 166   2.0000      -0.600115       -16.3300
 167   2.0000      -0.597880       -16.2691
 168   2.0000      -0.594367       -16.1735
 169   2.0000      -0.592286       -16.1169
 170   2.0000      -0.589363       -16.0374
 171   2.0000      -0.579974       -15.7819
 172   2.0000      -0.578765       -15.7490
 173   2.0000      -0.572261       -15.5720
 174   2.0000      -0.565381       -15.3848
 175   2.0000      -0.562240       -15.2993
 176   2.0000      -0.559386       -15.2217
 177   2.0000      -0.558268       -15.1913
 178   2.0000      -0.556696       -15.1485
 179   2.0000      -0.555621       -15.1192
 180   2.0000      -0.552590       -15.0367
 181   2.0000      -0.552282       -15.0284
 182   2.0000      -0.547249       -14.8914
 183   2.0000      -0.544584       -14.8189
 184   2.0000      -0.542271       -14.7559
 185   2.0000      -0.540327       -14.7030
 186   2.0000      -0.539524       -14.6812
 187   2.0000      -0.537389       -14.6231
 188   2.0000      -0.536018       -14.5858
 189   2.0000      -0.533133       -14.5073
 190   2.0000      -0.531939       -14.4748
 191   2.0000      -0.529126       -14.3983
 192   2.0000      -0.527913       -14.3652
 193   2.0000      -0.521759       -14.1978
 194   2.0000      -0.520160       -14.1543
 195   2.0000      -0.517138       -14.0720
 196   2.0000      -0.512794       -13.9538
 197   2.0000      -0.508925       -13.8485
 198   2.0000      -0.506410       -13.7801
 199   2.0000      -0.501998       -13.6600
 200   2.0000      -0.501770       -13.6539
 201   2.0000      -0.501312       -13.6414
 202   2.0000      -0.498392       -13.5619
 203   2.0000      -0.497244       -13.5307
 204   2.0000      -0.495041       -13.4708
 205   2.0000      -0.493558       -13.4304
 206   2.0000      -0.487531       -13.2664
 207   2.0000      -0.484805       -13.1922
 208   2.0000      -0.483117       -13.1463
 209   2.0000      -0.479924       -13.0594
 210   2.0000      -0.476962       -12.9788
 211   2.0000      -0.476163       -12.9571
 212   2.0000      -0.471403       -12.8275
 213   2.0000      -0.469416       -12.7735
 214   2.0000      -0.466384       -12.6910
 215   2.0000      -0.465122       -12.6566
 216   2.0000      -0.464228       -12.6323
 217   2.0000      -0.463421       -12.6103
 218   2.0000      -0.460347       -12.5267
 219   2.0000      -0.460092       -12.5197
 220   2.0000      -0.457074       -12.4376
 221   2.0000      -0.456472       -12.4212
 222   2.0000      -0.455374       -12.3914
 223   2.0000      -0.454317       -12.3626
 224   2.0000      -0.452990       -12.3265
 225   2.0000      -0.451630       -12.2895
 226   2.0000      -0.450070       -12.2470
 227   2.0000      -0.447962       -12.1897
 228   2.0000      -0.445722       -12.1287
 229   2.0000      -0.441606       -12.0167
 230   2.0000      -0.438447       -11.9308
 231   2.0000      -0.436014       -11.8646
 232   2.0000      -0.435412       -11.8482
 233   2.0000      -0.434332       -11.8188
 234   2.0000      -0.433744       -11.8028
 235   2.0000      -0.430958       -11.7270
 236   2.0000      -0.430264       -11.7081
 237   2.0000      -0.428017       -11.6469
 238   2.0000      -0.426246       -11.5987
 239   2.0000      -0.424535       -11.5522
 240   2.0000      -0.419970       -11.4280
 241   2.0000      -0.416357       -11.3297
 242   2.0000      -0.413652       -11.2560
 243   2.0000      -0.408366       -11.1122
 244   2.0000      -0.404149       -10.9975
 245   2.0000      -0.398368       -10.8401
 246   2.0000      -0.393794       -10.7157
 247   2.0000      -0.390293       -10.6204
 248   2.0000      -0.385351       -10.4859
 249   2.0000      -0.379151       -10.3172
 250   2.0000      -0.372173       -10.1273
 251   2.0000      -0.356797        -9.7089
 252   2.0000      -0.354936        -9.6583
 253   2.0000      -0.352083        -9.5807
 254   2.0000      -0.349726        -9.5165
 255   2.0000      -0.346308        -9.4235
 256   2.0000      -0.340671        -9.2701
 257   2.0000      -0.338150        -9.2015
 258   2.0000      -0.322251        -8.7689
 259   2.0000      -0.319880        -8.7044
 260   2.0000      -0.315447        -8.5837
 261   2.0000      -0.308005        -8.3812
 262   2.0000      -0.296938        -8.0801
 263   2.0000      -0.293131        -7.9765
 264   2.0000      -0.284936        -7.7535
 265   2.0000      -0.275013        -7.4835
 266   2.0000      -0.240606        -6.5472
 267   0.0000      -0.104909        -2.8547
 268   0.0000      -0.101281        -2.7560
 269   0.0000      -0.074580        -2.0294
 270   0.0000      -0.067126        -1.8266
 271   0.0000      -0.053489        -1.4555

MULLIKEN ATOMIC CHARGES
-----------------------
   0 C :    0.140176
   1 O :   -0.142290
   2 C :    0.004278
   3 C :   -0.099499
   4 C :    0.232633
   5 F :   -0.168990
   6 C :    0.236872
   7 F :   -0.167134
   8 C :   -0.090560
   9 C :    0.028630
  10 C :    0.246172
  11 C :   -0.328700
  12 C :   -0.203842
  13 N :    0.164617
  14 C :   -0.180418
  15 N :    0.153139
  16 C :   -0.143163
  17 C :    0.024252
  18 C :   -0.137694
  19 S :    0.144624
  20 C :   -0.030543
  21 C :   -0.099351
  22 C :   -0.020509
  23 C :    0.058829
  24 C :    0.028278
  25 S :    0.189746
  26 C :   -0.103729
  27 C :    0.030694
  28 N :   -0.143139
  29 C :    0.079128
  30 C :    0.008338
  31 C :    0.096142
  32 C :   -0.052641
  33 C :   -0.021040
  34 N :   -0.025055
  35 N :   -0.114806
  36 C :    0.142701
  37 C :   -0.007121
  38 N :   -0.020031
  39 C :    0.013853
  40 C :   -0.295258
  41 C :   -0.021462
  42 N :   -0.122026
  43 C :    0.108475
  44 C :   -0.004059
  45 C :    0.025179
  46 C :    0.037799
  47 S :    0.042378
  48 C :   -0.156363
  49 C :    0.046602
  50 S :   -0.072930
  51 C :   -0.114192
  52 C :    0.012143
  53 C :    0.086023
  54 C :    0.022219
  55 C :    0.027145
  56 C :   -0.106093
  57 C :    0.309417
  58 C :   -0.326756
  59 C :   -0.193844
  60 N :    0.167483
  61 C :   -0.197110
  62 N :    0.176218
  63 C :    0.047539
  64 C :   -0.094937
  65 C :    0.240169
  66 F :   -0.168304
  67 C :    0.231669
  68 F :   -0.172637
  69 C :   -0.078702
  70 C :    0.028657
  71 C :    0.135901
  72 O :   -0.125570
  73 H :    0.012151
  74 H :    0.014581
  75 H :    0.018796
  76 H :    0.012323
  77 H :    0.024909
  78 H :    0.028268
  79 H :    0.023263
  80 H :    0.027121
  81 H :    0.035893
  82 H :    0.032439
  83 H :    0.019427
  84 H :    0.038034
  85 H :    0.037130
  86 H :    0.033999
  87 H :    0.033450
  88 H :    0.032107
  89 H :    0.030689
  90 H :    0.018232
  91 H :    0.022503
  92 H :    0.033401
  93 H :    0.033753
  94 H :    0.029999
  95 H :    0.043575
  96 H :    0.017607
  97 H :    0.020212
  98 H :    0.016455
  99 H :    0.016469
 100 H :    0.000750
 101 H :    0.042056
 102 H :    0.016650
 103 H :    0.016132
Sum of atomic charges:   -0.0000000

LOEWDIN ATOMIC CHARGES
----------------------
   0 C :    0.082344
   1 O :   -0.144025
   2 C :   -0.045796
   3 C :   -0.005004
   4 C :    0.068805
   5 F :   -0.046112
   6 C :    0.073512
   7 F :   -0.044640
   8 C :   -0.022428
   9 C :   -0.012328
  10 C :    0.060328
  11 C :   -0.150867
  12 C :   -0.036379
  13 N :   -0.053714
  14 C :   -0.023059
  15 N :   -0.054695
  16 C :   -0.116475
  17 C :    0.053785
  18 C :   -0.187005
  19 S :    0.446303
  20 C :   -0.184161
  21 C :   -0.193417
  22 C :   -0.003872
  23 C :   -0.028122
  24 C :   -0.040617
  25 S :    0.423385
  26 C :   -0.171346
  27 C :   -0.037951
  28 N :    0.057728
  29 C :    0.040107
  30 C :   -0.060955
  31 C :   -0.007672
  32 C :   -0.067255
  33 C :   -0.062778
  34 N :   -0.082390
  35 N :    0.135516
  36 C :    0.034973
  37 C :   -0.056591
  38 N :   -0.071720
  39 C :   -0.062898
  40 C :   -0.043441
  41 C :   -0.005616
  42 N :    0.098702
  43 C :    0.035086
  44 C :   -0.051203
  45 C :   -0.083538
  46 C :   -0.122810
  47 S :    0.320213
  48 C :   -0.060525
  49 C :   -0.118327
  50 S :    0.105807
  51 C :   -0.122964
  52 C :   -0.053942
  53 C :   -0.019249
  54 C :   -0.051156
  55 C :    0.022171
  56 C :   -0.077008
  57 C :    0.073081
  58 C :   -0.120114
  59 C :   -0.018721
  60 N :   -0.038906
  61 C :   -0.022802
  62 N :   -0.031183
  63 C :   -0.016756
  64 C :   -0.018246
  65 C :    0.070939
  66 F :   -0.045940
  67 C :    0.072401
  68 F :   -0.042196
  69 C :    0.004263
  70 C :   -0.039266
  71 C :    0.067012
  72 O :   -0.122080
  73 H :    0.052314
  74 H :    0.050283
  75 H :    0.048785
  76 H :    0.030187
  77 H :    0.035941
  78 H :    0.031669
  79 H :    0.027943
  80 H :    0.028593
  81 H :    0.030880
  82 H :    0.026848
  83 H :    0.026783
  84 H :    0.032110
  85 H :    0.036679
  86 H :    0.035301
  87 H :    0.031168
  88 H :    0.030091
  89 H :    0.033926
  90 H :    0.025147
  91 H :    0.026752
  92 H :    0.036435
  93 H :    0.028547
  94 H :    0.033547
  95 H :    0.035299
  96 H :    0.028611
  97 H :    0.032895
  98 H :    0.020670
  99 H :    0.025525
 100 H :    0.014019
 101 H :    0.050919
 102 H :    0.051273
 103 H :    0.054657

  Mayer bond orders larger than 0.100000
B(  0-C ,  1-O ) :   2.2627 B(  0-C ,  2-C ) :   0.9276 B(  0-C , 16-C ) :   0.9578
B(  2-C ,  3-C ) :   1.3259 B(  2-C ,  9-C ) :   1.3457 B(  3-C ,  4-C ) :   1.3182
B(  3-C ,  8-C ) :   0.1048 B(  3-C , 73-H ) :   1.0199 B(  4-C ,  5-F ) :   1.1312
B(  4-C ,  6-C ) :   1.2940 B(  6-C ,  7-F ) :   1.1397 B(  6-C ,  8-C ) :   1.3306
B(  8-C ,  9-C ) :   1.3217 B(  8-C , 74-H ) :   0.9964 B(  9-C , 10-C ) :   1.0195
B( 10-C , 11-C ) :   1.6337 B( 10-C , 16-C ) :   1.0584 B( 11-C , 12-C ) :   1.1607
B( 11-C , 14-C ) :   1.1333 B( 12-C , 13-N ) :   3.0002 B( 14-C , 15-N ) :   2.9936
B( 16-C , 17-C ) :   1.5855 B( 17-C , 18-C ) :   1.2094 B( 17-C , 75-H ) :   0.9372
B( 18-C , 19-S ) :   1.0457 B( 18-C , 22-C ) :   1.4169 B( 19-S , 20-C ) :   1.0661
B( 20-C , 21-C ) :   1.4248 B( 20-C , 27-C ) :   1.3042 B( 21-C , 22-C ) :   1.3860
B( 21-C , 25-S ) :   1.0260 B( 22-C , 23-C ) :   1.0884 B( 23-C , 24-C ) :   1.1006
B( 23-C , 76-H ) :   0.9214 B( 23-C , 77-H ) :   0.9074 B( 24-C , 78-H ) :   0.9671
B( 24-C , 79-H ) :   0.9668 B( 24-C , 80-H ) :   0.9692 B( 25-S , 26-C ) :   1.0156
B( 26-C , 27-C ) :   1.3810 B( 26-C , 32-C ) :   1.3922 B( 27-C , 28-N ) :   1.1744
B( 27-C , 31-C ) :   0.1045 B( 28-N , 29-C ) :   0.9532 B( 28-N , 31-C ) :   1.1726
B( 29-C , 30-C ) :   1.1019 B( 29-C , 81-H ) :   0.9430 B( 29-C , 82-H ) :   0.9463
B( 30-C , 83-H ) :   0.9654 B( 30-C , 84-H ) :   0.9583 B( 30-C , 85-H ) :   0.9646
B( 31-C , 32-C ) :   1.3998 B( 31-C , 41-C ) :   1.1375 B( 32-C , 33-C ) :   1.0272
B( 33-C , 34-N ) :   1.6026 B( 33-C , 39-C ) :   1.2916 B( 34-N , 35-N ) :   1.2007
B( 34-N , 38-N ) :   0.1265 B( 35-N , 36-C ) :   0.9346 B( 35-N , 38-N ) :   1.2058
B( 36-C , 37-C ) :   1.1126 B( 36-C , 86-H ) :   0.9457 B( 36-C , 87-H ) :   0.9417
B( 37-C , 88-H ) :   0.9681 B( 37-C , 89-H ) :   0.9682 B( 37-C , 90-H ) :   0.9673
B( 38-N , 39-C ) :   1.6080 B( 39-C , 40-C ) :   0.9775 B( 40-C , 41-C ) :   0.9709
B( 40-C , 45-C ) :   0.9593 B( 40-C , 46-C ) :   0.9952 B( 41-C , 42-N ) :   1.3621
B( 41-C , 45-C ) :   0.1704 B( 42-N , 43-C ) :   0.9410 B( 42-N , 45-C ) :   1.1306
B( 43-C , 44-C ) :   1.1050 B( 43-C , 91-H ) :   0.9466 B( 43-C , 92-H ) :   0.9335
B( 44-C , 93-H ) :   0.9655 B( 44-C , 94-H ) :   0.9654 B( 44-C , 95-H ) :   0.9628
B( 45-C , 49-C ) :   1.0080 B( 46-C , 47-S ) :   0.9026 B( 46-C , 49-C ) :   1.6078
B( 47-S , 48-C ) :   0.9586 B( 48-C , 49-C ) :   1.0945 B( 48-C , 50-S ) :   0.1021
B( 48-C , 52-C ) :   1.7007 B( 50-S , 51-C ) :   1.7029 B( 51-C , 52-C ) :   1.0889
B( 51-C , 55-C ) :   1.0415 B( 52-C , 53-C ) :   1.0719 B( 53-C , 54-C ) :   1.1014
B( 53-C , 96-H ) :   0.9050 B( 53-C , 97-H ) :   0.9231 B( 54-C , 98-H ) :   0.9586
B( 54-C , 99-H ) :   0.9673 B( 54-C ,100-H ) :   0.9657 B( 55-C , 56-C ) :   1.7112
B( 55-C ,101-H ) :   0.9275 B( 56-C , 57-C ) :   1.0243 B( 56-C , 71-C ) :   0.9044
B( 57-C , 58-C ) :   1.6786 B( 57-C , 63-C ) :   1.0235 B( 58-C , 59-C ) :   1.1307
B( 58-C , 61-C ) :   1.1411 B( 59-C , 60-N ) :   2.9864 B( 61-C , 62-N ) :   2.9844
B( 63-C , 64-C ) :   1.3061 B( 63-C , 70-C ) :   1.3361 B( 64-C , 65-C ) :   1.3462
B( 64-C , 69-C ) :   0.1066 B( 64-C ,102-H ) :   0.9921 B( 65-C , 66-F ) :   1.1410
B( 65-C , 67-C ) :   1.2910 B( 67-C , 68-F ) :   1.0911 B( 67-C , 69-C ) :   1.3239
B( 69-C , 70-C ) :   1.3256 B( 69-C ,103-H ) :   1.0178 B( 70-C , 71-C ) :   0.9284
B( 71-C , 72-O ) :   2.2490

-----------------------------------------------------------------------------
         ABSORPTION SPECTRUM VIA TRANSITION ELECTRIC DIPOLE MOMENTS
-----------------------------------------------------------------------------
State   Energy  Wavelength   fosc         T2         TX        TY        TZ
        (cm-1)    (nm)                  (au**2)     (au)      (au)      (au)
-----------------------------------------------------------------------------
   0   14200.9    704.2   0.003031339   0.07027  -0.24815  -0.03045  -0.08814
   1   15705.3    636.7   1.027212066  21.53227   3.41287  -2.51738   1.88346
   2   17393.0    574.9   0.015833736   0.29970   0.26697   0.47085  -0.08202
   3   20182.6    495.5   0.028801597   0.46980  -0.64672  -0.04195   0.22314
   4   20842.0    479.8   0.040070679   0.63294  -0.77920   0.16056  -0.00405
   5   22060.1    453.3   0.138487345   2.06670  -1.30729  -0.58507   0.12403
   6   23258.2    430.0   0.080703960   1.14233  -0.02924   0.87410  -0.61435
   7   23479.7    425.9   0.095681784   1.34157  -0.78693   0.84292  -0.10860
   8   23862.8    419.1   0.032997230   0.45523  -0.54079   0.29708   0.27298
   9   24431.6    409.3   0.318822976   4.29608  -1.56352   0.77479  -1.11856
  10   25320.5    394.9   0.009547319   0.12413   0.09366   0.08417   0.32905
  11   25976.5    385.0   0.056429210   0.71515  -0.59973   0.49946   0.32562
  12   27131.1    368.6   0.013048070   0.15833   0.28557   0.27683   0.01198
  13   27352.9    365.6   0.216820915   2.60959   1.19754   1.08379  -0.02972
  14   27978.1    357.4   0.044341604   0.52176  -0.23654   0.52419   0.43707
  15   28117.9    355.6   0.101127649   1.18403  -0.94935   0.21633   0.48576
  16   28798.1    347.2   0.008484425   0.09699   0.27390   0.14572  -0.02709
  17   29379.1    340.4   0.042750821   0.47905   0.18881  -0.24930  -0.61746
  18   29444.0    339.6   0.078447196   0.87711  -0.29749  -0.78459   0.41597
  19   29552.1    338.4   0.141089681   1.57175  -0.64974   0.47421  -0.96162
  20   30248.0    330.6   0.001148068   0.01250  -0.10483   0.02289   0.03134
  21   30915.9    323.5   0.112526212   1.19825  -0.51690  -0.95545  -0.13487
  22   31267.4    319.8   0.046536470   0.48998  -0.01874   0.21744  -0.66509
  23   31788.9    314.6   0.041802432   0.43291   0.55626   0.00564   0.35137
  24   31895.7    313.5   0.047208252   0.48726   0.25349  -0.00019   0.65039
  25   32190.7    310.6   0.124132628   1.26949  -0.62541   0.12019  -0.92947
  26   32661.0    306.2   0.068684200   0.69231  -0.25853   0.37890  -0.69420
  27   32890.1    304.0   0.043395267   0.43436   0.11898  -0.52675   0.37781
  28   33078.9    302.3   0.077978345   0.77607   0.42106   0.68556  -0.35885
  29   33181.5    301.4   0.030679648   0.30439  -0.13246   0.01890  -0.53524
  30   33615.4    297.5   0.063385886   0.62077  -0.12438  -0.64164   0.44000
  31   33806.5    295.8   0.024190233   0.23557   0.01713   0.33211  -0.35352
  32   33984.7    294.2   0.037767466   0.36586   0.00778  -0.42666  -0.42867
  33   34082.4    293.4   0.031053643   0.29996  -0.43064   0.32555  -0.09233
  34   34464.4    290.2   0.198927692   1.90020   1.14241  -0.66047   0.39859
  35   34695.8    288.2   0.151279695   1.43542  -0.42529  -1.10569  -0.17889
  36   35343.1    282.9   0.120420471   1.12168  -0.22681  -0.81176  -0.64131
  37   35426.6    282.3   0.019893406   0.18487   0.18485  -0.36495   0.13231
  38   35944.3    278.2   0.302324513   2.76897  -1.56205   0.47834   0.31650
  39   36140.5    276.7   0.380790606   3.46870  -0.43825  -0.33808   1.77830
  40   36213.3    276.1   0.068926724   0.62661  -0.77470  -0.06546  -0.14886
  41   36382.1    274.9   0.076071812   0.68835   0.16166   0.06653   0.81104
  42   36691.2    272.5   0.036208131   0.32488   0.12356  -0.53975  -0.13522
  43   36873.0    271.2   0.003274406   0.02923  -0.14038  -0.08590   0.04637
  44   37016.4    270.2   0.068530051   0.60948   0.07138   0.03598   0.77659
  45   37389.6    267.5   0.041980578   0.36964   0.55362   0.21646   0.12761
  46   37799.2    264.6   0.182395654   1.58857   0.37920   0.31731   1.15935
  47   38106.8    262.4   0.087023427   0.75181  -0.67332  -0.46364   0.28894
  48   38369.0    260.6   0.039709004   0.34071  -0.48902  -0.20591  -0.24325
  49   38827.7    257.5   0.058042760   0.49213  -0.38288  -0.35666  -0.46726
  50   38882.3    257.2   0.001903072   0.01611   0.08793   0.09149  -0.00307
  51   38891.0    257.1   0.144109076   1.21988  -0.73161   0.00409   0.82742
  52   39036.8    256.2   0.098105078   0.82736  -0.67718   0.13600   0.59186
  53   39404.1    253.8   0.145113951   1.21239   1.08961   0.10753   0.11651
  54   39659.6    252.1   0.016369934   0.13589   0.18076   0.16307  -0.27680
  55   39963.8    250.2   0.008231737   0.06781   0.08471  -0.19574   0.14940
  56   40133.3    249.2   0.004390109   0.03601  -0.11606  -0.13369   0.06833
  57   40267.2    248.3   0.013910833   0.11373   0.23326  -0.17370   0.17073

FINAL SINGLE POINT ENERGY     -4707.056004962707

DIPOLE MOMENT
-------------
                                X             Y             Z
Electronic contribution:     -9.50816     -18.04999     -28.24865
Nuclear contribution   :      8.04970      19.04710      28.89578
                        -----------------------------------------
Total Dipole Moment    :     -1.45847       0.99710       0.64713
                        -----------------------------------------
Magnitude (a.u.)       :      1.88152
Magnitude (Debye)      :      4.78244

Rotational constants in cm-1:     0.001577     0.000361     0.000329
Rotational constants in MHz :    47.277269    10.809043     9.864132

                             ****ORCA TERMINATED NORMALLY****
TOTAL RUN TIME: 0 days 1 hours 14 minutes 54 seconds 919 msec
