                         Program Version 4.2.0 -  RELEASE  -
|  1> # ORCA input file
|  2> # Y14.out
|  3> ! CAM-B3LYP def2-SVP def2/J RIJCOSX Grid4 TightSCF
|  4> %maxcore 5000
|  5> %tddft
|  6>     Mode sTDDFT
|  7>     Ethresh 5.0
|  8>     maxcore 5000
|  9> end
| 10> * xyz 0 1
| 11>    C       -1.57745        -2.83812        -0.68476
| 12>    O       -1.87636        -4.01850        -0.61336
| 13>    C       -0.21997        -2.30162        -0.90861
| 14>    C        0.96123        -2.99671        -1.06554
| 15>    C        2.10823        -2.24082        -1.25700
| 16>    C        2.08707        -0.85499        -1.29194
| 17>    C        0.89073        -0.17043        -1.13462
| 18>    C       -0.27472        -0.89742        -0.94172
| 19>    C       -1.66357        -0.47800        -0.74741
| 20>    C       -2.09972         0.82262        -0.74596
| 21>    C       -1.25780         1.94015        -0.92730
| 22>    N       -0.63328         2.89347        -1.06635
| 23>    C       -3.43299         1.24849        -0.57258
| 24>    N       -4.49029         1.67940        -0.44093
| 25>    C       -2.45869        -1.67696        -0.57354
| 26>    C       -3.81258        -1.70089        -0.32743
| 27>    C       -4.68796        -2.76920        -0.12707
| 28>    S       -4.22869        -4.47085        -0.18391
| 29>    C       -5.84725        -4.93791         0.17408
| 30>    C       -6.68815        -3.82180         0.33878
| 31>    C       -6.05598        -2.60045         0.15928
| 32>    C       -6.75623        -1.29276         0.33120
| 33>    C       -6.57000        -0.76036         1.75491
| 34>    S       -8.33435        -4.23962         0.77287
| 35>    C       -7.87465        -5.90849         0.75528
| 36>    C       -6.54224        -6.13316         0.38802
| 37>    N       -6.25903        -7.47141         0.44285
| 38>    C       -4.87213        -7.87814         0.40058
| 39>    C       -4.23258        -8.12582        -0.99050
| 40>    C       -7.39685        -8.13064         0.88890
| 41>    C       -8.41359        -7.14673         1.10723
| 42>    C       -9.64928        -7.46794         1.70667
| 43>    N      -10.72606        -6.74526         2.02489
| 44>    N      -11.51494        -7.59933         2.62469
| 45>    C      -12.81008        -7.22295         3.11039
| 46>    C      -12.85291        -7.28867         4.63231
| 47>    N      -11.07097        -8.82381         2.74196
| 48>    C       -9.87238        -8.78874         2.15992
| 49>    C       -8.93429        -9.79045         1.83821
| 50>    C       -7.71365        -9.49767         1.14772
| 51>    N       -7.13182       -10.70000         0.80425
| 52>    C       -5.99490       -10.98539        -0.03291
| 53>    C       -4.67549       -11.37498         0.68108
| 54>    C       -7.96104       -11.72011         1.21124
| 55>    C       -9.05329       -11.17409         1.89683
| 56>    S      -10.22750       -12.31144         2.43741
| 57>    C       -9.39015       -13.58602         1.41687
| 58>    C       -8.07511       -13.09304         0.93424
| 59>    S       -7.10759       -14.08360         0.02503
| 60>    C      -10.16032       -14.41440         0.37726
| 61>    C       -9.79894       -15.01304         1.49290
| 62>    C       -9.88143       -16.13159         2.42321
| 63>    C      -10.77054       -17.24464         1.87943
| 64>    C      -10.36494       -14.26961        -1.00104
| 65>    C      -10.56364       -13.06828        -1.60616
| 66>    C      -10.98518       -11.81500        -1.01023
| 67>    C      -11.92901       -11.70019        -0.02842
| 68>    C      -12.47614       -10.47055         0.38854
| 69>    N      -12.96362        -9.48888         0.72728
| 70>    C      -12.52966       -12.83541         0.56139
| 71>    N      -13.04596       -13.75391         1.01481
| 72>    C      -10.44768       -10.74463        -1.83726
| 73>    C      -10.36220        -9.37911        -1.61522
| 74>    C       -9.80206        -8.58263        -2.60119
| 75>    C       -9.35138        -9.15631        -3.78233
| 76>    C       -9.41230       -10.52077        -4.02590
| 77>    C       -9.96099       -11.30757        -3.03283
| 78>    C      -10.12501       -12.78435        -2.99816
| 79>    O       -9.89662       -13.57856        -3.87639
| 80>    F       -8.82989        -8.35387        -4.72463
| 81>    F        3.28414        -2.87186        -1.41299
| 82>    C       -4.86881       -12.08537         2.02610
| 83>    C       -5.12617       -11.13275         3.18957
| 84>    C       -3.87802       -12.25845        -0.27880
| 85>    C       -4.92454        -7.39617        -2.14773
| 86>    C       -6.19683        -8.08054        -2.63768
| 87>    C       -2.75927        -7.72205        -0.90927
| 88>    H        0.99158        -4.07422        -1.03949
| 89>    H        3.01080        -0.31902        -1.44255
| 90>    H        0.88904         0.90640        -1.16357
| 91>    H       -4.29567        -0.73564        -0.26447
| 92>    H       -7.82095        -1.44884         0.14667
| 93>    H       -6.38998        -0.55371        -0.38269
| 94>    H       -6.97152        -1.46640         2.47813
| 95>    H       -7.09066         0.18647         1.86415
| 96>    H       -5.51634        -0.60114         1.97220
| 97>    H       -4.75902        -8.75626         1.03474
| 98>    H       -4.31041        -7.06121         0.86648
| 99>    H       -4.25448        -9.19480        -1.22015
|100>    H      -13.53835        -7.91490         2.67985
|101>    H      -12.99774        -6.21080         2.74948
|102>    H      -12.60450        -8.29370         4.96348
|103>    H      -13.84888        -7.03718         4.98466
|104>    H      -12.14132        -6.58907         5.06499
|105>    H       -5.83814       -10.13253        -0.68928
|106>    H       -6.28548       -11.84017        -0.65191
|107>    H       -4.07628       -10.48003         0.87299
|108>    H      -10.26340       -15.76149         3.38052
|109>    H       -8.86507       -16.49933         2.60318
|110>    H      -11.77011       -16.86312         1.68800
|111>    H      -10.83612       -18.05530         2.59989
|112>    H      -10.36500       -17.63584         0.95013
|113>    H      -10.15980       -15.13293        -1.62388
|114>    H      -10.71077        -8.93785        -0.69504
|115>    H       -9.71651        -7.51581        -2.46630
|116>    H       -9.04900       -10.94358        -4.94888
|117>    H       -3.95523       -12.64324         2.24216
|118>    H       -5.67540       -12.81227         1.95251
|119>    H       -4.30080       -10.43047         3.29704
|120>    H       -5.21169       -11.69542         4.11618
|121>    H       -6.04370       -10.56475         3.05947
|122>    H       -4.38496       -13.20845        -0.42573
|123>    H       -2.88656       -12.45386         0.12145
|124>    H       -3.76488       -11.77297        -1.24585
|125>    H       -4.22065        -7.35409        -2.98099
|126>    H       -5.14503        -6.36885        -1.86430
|127>    H       -5.98269        -9.09361        -2.97568
|128>    H       -6.61070        -7.52849        -3.47780
|129>    H       -6.95661        -8.13110        -1.86074
|130>    H       -2.65550        -6.64645        -0.79061
|131>    H       -2.24005        -8.01808        -1.81717
|132>    H       -2.27530        -8.21373        -0.06802
|133> *
|134>
|135>                          ****END OF INPUT****

CARTESIAN COORDINATES (ANGSTROEM)
---------------------------------
  C     -1.577450   -2.838120   -0.684760
  O     -1.876360   -4.018500   -0.613360
  C     -0.219970   -2.301620   -0.908610
  C      0.961230   -2.996710   -1.065540
  C      2.108230   -2.240820   -1.257000
  C      2.087070   -0.854990   -1.291940
  C      0.890730   -0.170430   -1.134620
  C     -0.274720   -0.897420   -0.941720
  C     -1.663570   -0.478000   -0.747410
  C     -2.099720    0.822620   -0.745960
  C     -1.257800    1.940150   -0.927300
  N     -0.633280    2.893470   -1.066350
  C     -3.432990    1.248490   -0.572580
  N     -4.490290    1.679400   -0.440930
  C     -2.458690   -1.676960   -0.573540
  C     -3.812580   -1.700890   -0.327430
  C     -4.687960   -2.769200   -0.127070
  S     -4.228690   -4.470850   -0.183910
  C     -5.847250   -4.937910    0.174080
  C     -6.688150   -3.821800    0.338780
  C     -6.055980   -2.600450    0.159280
  C     -6.756230   -1.292760    0.331200
  C     -6.570000   -0.760360    1.754910
  S     -8.334350   -4.239620    0.772870
  C     -7.874650   -5.908490    0.755280
  C     -6.542240   -6.133160    0.388020
  N     -6.259030   -7.471410    0.442850
  C     -4.872130   -7.878140    0.400580
  C     -4.232580   -8.125820   -0.990500
  C     -7.396850   -8.130640    0.888900
  C     -8.413590   -7.146730    1.107230
  C     -9.649280   -7.467940    1.706670
  N    -10.726060   -6.745260    2.024890
  N    -11.514940   -7.599330    2.624690
  C    -12.810080   -7.222950    3.110390
  C    -12.852910   -7.288670    4.632310
  N    -11.070970   -8.823810    2.741960
  C     -9.872380   -8.788740    2.159920
  C     -8.934290   -9.790450    1.838210
  C     -7.713650   -9.497670    1.147720
  N     -7.131820  -10.700000    0.804250
  C     -5.994900  -10.985390   -0.032910
  C     -4.675490  -11.374980    0.681080
  C     -7.961040  -11.720110    1.211240
  C     -9.053290  -11.174090    1.896830
  S    -10.227500  -12.311440    2.437410
  C     -9.390150  -13.586020    1.416870
  C     -8.075110  -13.093040    0.934240
  S     -7.107590  -14.083600    0.025030
  C    -10.160320  -14.414400    0.377260
  C     -9.798940  -15.013040    1.492900
  C     -9.881430  -16.131590    2.423210
  C    -10.770540  -17.244640    1.879430
  C    -10.364940  -14.269610   -1.001040
  C    -10.563640  -13.068280   -1.606160
  C    -10.985180  -11.815000   -1.010230
  C    -11.929010  -11.700190   -0.028420
  C    -12.476140  -10.470550    0.388540
  N    -12.963620   -9.488880    0.727280
  C    -12.529660  -12.835410    0.561390
  N    -13.045960  -13.753910    1.014810
  C    -10.447680  -10.744630   -1.837260
  C    -10.362200   -9.379110   -1.615220
  C     -9.802060   -8.582630   -2.601190
  C     -9.351380   -9.156310   -3.782330
  C     -9.412300  -10.520770   -4.025900
  C     -9.960990  -11.307570   -3.032830
  C    -10.125010  -12.784350   -2.998160
  O     -9.896620  -13.578560   -3.876390
  F     -8.829890   -8.353870   -4.724630
  F      3.284140   -2.871860   -1.412990
  C     -4.868810  -12.085370    2.026100
  C     -5.126170  -11.132750    3.189570
  C     -3.878020  -12.258450   -0.278800
  C     -4.924540   -7.396170   -2.147730
  C     -6.196830   -8.080540   -2.637680
  C     -2.759270   -7.722050   -0.909270
  H      0.991580   -4.074220   -1.039490
  H      3.010800   -0.319020   -1.442550
  H      0.889040    0.906400   -1.163570
  H     -4.295670   -0.735640   -0.264470
  H     -7.820950   -1.448840    0.146670
  H     -6.389980   -0.553710   -0.382690
  H     -6.971520   -1.466400    2.478130
  H     -7.090660    0.186470    1.864150
  H     -5.516340   -0.601140    1.972200
  H     -4.759020   -8.756260    1.034740
  H     -4.310410   -7.061210    0.866480
  H     -4.254480   -9.194800   -1.220150
  H    -13.538350   -7.914900    2.679850
  H    -12.997740   -6.210800    2.749480
  H    -12.604500   -8.293700    4.963480
  H    -13.848880   -7.037180    4.984660
  H    -12.141320   -6.589070    5.064990
  H     -5.838140  -10.132530   -0.689280
  H     -6.285480  -11.840170   -0.651910
  H     -4.076280  -10.480030    0.872990
  H    -10.263400  -15.761490    3.380520
  H     -8.865070  -16.499330    2.603180
  H    -11.770110  -16.863120    1.688000
  H    -10.836120  -18.055300    2.599890
  H    -10.365000  -17.635840    0.950130
  H    -10.159800  -15.132930   -1.623880
  H    -10.710770   -8.937850   -0.695040
  H     -9.716510   -7.515810   -2.466300
  H     -9.049000  -10.943580   -4.948880
  H     -3.955230  -12.643240    2.242160
  H     -5.675400  -12.812270    1.952510
  H     -4.300800  -10.430470    3.297040
  H     -5.211690  -11.695420    4.116180
  H     -6.043700  -10.564750    3.059470
  H     -4.384960  -13.208450   -0.425730
  H     -2.886560  -12.453860    0.121450
  H     -3.764880  -11.772970   -1.245850
  H     -4.220650   -7.354090   -2.980990
  H     -5.145030   -6.368850   -1.864300
  H     -5.982690   -9.093610   -2.975680
  H     -6.610700   -7.528490   -3.477800
  H     -6.956610   -8.131100   -1.860740
  H     -2.655500   -6.646450   -0.790610
  H     -2.240050   -8.018080   -1.817170
  H     -2.275300   -8.213730   -0.068020

 Total Charge           Charge          ....    0
 Multiplicity           Mult            ....    1
 Number of Electrons    NEL             ....  566
 Basis Dimension        Dim             .... 1319

ORBITAL ENERGIES
----------------

  NO   OCC          E(Eh)            E(eV)
   0   2.0000     -88.969545     -2420.9844
   1   2.0000     -88.966234     -2420.8943
   2   2.0000     -88.944865     -2420.3128
   3   2.0000     -88.881324     -2418.5838
   4   2.0000     -24.797550      -674.7756
   5   2.0000     -24.794007      -674.6792
   6   2.0000     -19.226802      -523.1879
   7   2.0000     -19.224146      -523.1156
   8   2.0000     -14.523904      -395.2155
   9   2.0000     -14.484509      -394.1435
  10   2.0000     -14.483212      -394.1082
  11   2.0000     -14.438479      -392.8910
  12   2.0000     -14.435598      -392.8126
  13   2.0000     -14.422636      -392.4599
  14   2.0000     -14.420703      -392.4073
  15   2.0000     -14.416951      -392.3052
  16   2.0000     -14.413920      -392.2227
  17   2.0000     -10.381694      -282.5002
  18   2.0000     -10.379990      -282.4539
  19   2.0000     -10.376616      -282.3621
  20   2.0000     -10.374614      -282.3076
  21   2.0000     -10.351005      -281.6652
  22   2.0000     -10.345095      -281.5043
  23   2.0000     -10.343431      -281.4591
  24   2.0000     -10.341698      -281.4119
  25   2.0000     -10.341659      -281.4109
  26   2.0000     -10.340644      -281.3832
  27   2.0000     -10.336425      -281.2684
  28   2.0000     -10.334324      -281.2113
  29   2.0000     -10.327930      -281.0373
  30   2.0000     -10.327910      -281.0367
  31   2.0000     -10.324181      -280.9353
  32   2.0000     -10.324152      -280.9345
  33   2.0000     -10.324118      -280.9335
  34   2.0000     -10.324056      -280.9319
  35   2.0000     -10.323131      -280.9067
  36   2.0000     -10.319845      -280.8173
  37   2.0000     -10.319425      -280.8058
  38   2.0000     -10.319328      -280.8032
  39   2.0000     -10.317555      -280.7549
  40   2.0000     -10.316629      -280.7297
  41   2.0000     -10.314147      -280.6622
  42   2.0000     -10.312095      -280.6064
  43   2.0000     -10.311325      -280.5854
  44   2.0000     -10.309850      -280.5453
  45   2.0000     -10.309696      -280.5411
  46   2.0000     -10.308514      -280.5089
  47   2.0000     -10.307600      -280.4840
  48   2.0000     -10.307539      -280.4824
  49   2.0000     -10.307511      -280.4816
  50   2.0000     -10.307256      -280.4747
  51   2.0000     -10.305923      -280.4384
  52   2.0000     -10.305660      -280.4313
  53   2.0000     -10.304936      -280.4116
  54   2.0000     -10.304756      -280.4067
  55   2.0000     -10.303847      -280.3819
  56   2.0000     -10.302740      -280.3518
  57   2.0000     -10.301987      -280.3313
  58   2.0000     -10.300727      -280.2970
  59   2.0000     -10.299515      -280.2640
  60   2.0000     -10.299110      -280.2530
  61   2.0000     -10.297113      -280.1987
  62   2.0000     -10.296235      -280.1748
  63   2.0000     -10.295218      -280.1471
  64   2.0000     -10.290904      -280.0297
  65   2.0000     -10.284630      -279.8590
  66   2.0000     -10.280299      -279.7412
  67   2.0000     -10.273429      -279.5542
  68   2.0000     -10.266916      -279.3770
  69   2.0000     -10.265165      -279.3293
  70   2.0000     -10.263463      -279.2830
  71   2.0000     -10.261490      -279.2293
  72   2.0000     -10.258029      -279.1352
  73   2.0000     -10.256298      -279.0881
  74   2.0000     -10.254165      -279.0300
  75   2.0000     -10.251263      -278.9510
  76   2.0000     -10.251088      -278.9463
  77   2.0000      -8.061769      -219.3719
  78   2.0000      -8.060443      -219.3358
  79   2.0000      -8.039457      -218.7647
  80   2.0000      -7.976772      -217.0590
  81   2.0000      -6.031594      -164.1280
  82   2.0000      -6.030340      -164.0939
  83   2.0000      -6.026941      -164.0014
  84   2.0000      -6.026380      -163.9861
  85   2.0000      -6.023412      -163.9054
  86   2.0000      -6.021297      -163.8478
  87   2.0000      -6.009511      -163.5271
  88   2.0000      -6.005766      -163.4252
  89   2.0000      -5.999591      -163.2572
  90   2.0000      -5.946309      -161.8073
  91   2.0000      -5.943744      -161.7375
  92   2.0000      -5.936982      -161.5535
  93   2.0000      -1.312435       -35.7132
  94   2.0000      -1.309356       -35.6294
  95   2.0000      -1.208730       -32.8912
  96   2.0000      -1.141537       -31.0628
  97   2.0000      -1.139542       -31.0085
  98   2.0000      -1.112291       -30.2670
  99   2.0000      -1.100346       -29.9419
 100   2.0000      -1.029448       -28.0127
 101   2.0000      -1.021578       -27.7986
 102   2.0000      -1.018305       -27.7095
 103   2.0000      -1.014202       -27.5978
 104   2.0000      -1.003743       -27.3132
 105   2.0000      -1.002602       -27.2822
 106   2.0000      -0.997828       -27.1523
 107   2.0000      -0.995075       -27.0774
 108   2.0000      -0.984255       -26.7829
 109   2.0000      -0.977662       -26.6035
 110   2.0000      -0.961056       -26.1517
 111   2.0000      -0.958133       -26.0721
 112   2.0000      -0.951535       -25.8926
 113   2.0000      -0.949924       -25.8487
 114   2.0000      -0.932286       -25.3688
 115   2.0000      -0.917239       -24.9594
 116   2.0000      -0.908387       -24.7185
 117   2.0000      -0.904691       -24.6179
 118   2.0000      -0.901873       -24.5412
 119   2.0000      -0.897194       -24.4139
 120   2.0000      -0.889473       -24.2038
 121   2.0000      -0.887964       -24.1627
 122   2.0000      -0.880745       -23.9663
 123   2.0000      -0.872350       -23.7379
 124   2.0000      -0.870114       -23.6770
 125   2.0000      -0.869002       -23.6467
 126   2.0000      -0.859604       -23.3910
 127   2.0000      -0.848851       -23.0984
 128   2.0000      -0.842280       -22.9196
 129   2.0000      -0.830647       -22.6030
 130   2.0000      -0.824262       -22.4293
 131   2.0000      -0.818063       -22.2606
 132   2.0000      -0.809078       -22.0161
 133   2.0000      -0.804537       -21.8926
 134   2.0000      -0.801435       -21.8081
 135   2.0000      -0.784976       -21.3603
 136   2.0000      -0.783805       -21.3284
 137   2.0000      -0.774611       -21.0783
 138   2.0000      -0.774333       -21.0707
 139   2.0000      -0.767653       -20.8889
 140   2.0000      -0.745039       -20.2735
 141   2.0000      -0.743805       -20.2400
 142   2.0000      -0.740754       -20.1569
 143   2.0000      -0.727055       -19.7842
 144   2.0000      -0.723923       -19.6989
 145   2.0000      -0.721566       -19.6348
 146   2.0000      -0.713905       -19.4263
 147   2.0000      -0.710738       -19.3402
 148   2.0000      -0.708377       -19.2759
 149   2.0000      -0.706554       -19.2263
 150   2.0000      -0.706242       -19.2178
 151   2.0000      -0.695476       -18.9249
 152   2.0000      -0.693439       -18.8694
 153   2.0000      -0.687226       -18.7004
 154   2.0000      -0.674583       -18.3563
 155   2.0000      -0.668382       -18.1876
 156   2.0000      -0.666065       -18.1246
 157   2.0000      -0.659206       -17.9379
 158   2.0000      -0.656979       -17.8773
 159   2.0000      -0.653134       -17.7727
 160   2.0000      -0.644534       -17.5387
 161   2.0000      -0.638227       -17.3670
 162   2.0000      -0.633975       -17.2513
 163   2.0000      -0.632402       -17.2085
 164   2.0000      -0.624585       -16.9958
 165   2.0000      -0.623557       -16.9678
 166   2.0000      -0.617324       -16.7982
 167   2.0000      -0.612880       -16.6773
 168   2.0000      -0.607635       -16.5346
 169   2.0000      -0.603062       -16.4102
 170   2.0000      -0.596652       -16.2357
 171   2.0000      -0.589987       -16.0544
 172   2.0000      -0.588732       -16.0202
 173   2.0000      -0.588261       -16.0074
 174   2.0000      -0.584806       -15.9134
 175   2.0000      -0.582420       -15.8484
 176   2.0000      -0.578217       -15.7341
 177   2.0000      -0.573073       -15.5941
 178   2.0000      -0.570331       -15.5195
 179   2.0000      -0.567488       -15.4421
 180   2.0000      -0.567279       -15.4364
 181   2.0000      -0.564370       -15.3573
 182   2.0000      -0.562066       -15.2946
 183   2.0000      -0.555114       -15.1054
 184   2.0000      -0.552027       -15.0214
 185   2.0000      -0.549699       -14.9581
 186   2.0000      -0.546845       -14.8804
 187   2.0000      -0.546127       -14.8609
 188   2.0000      -0.543760       -14.7965
 189   2.0000      -0.542496       -14.7621
 190   2.0000      -0.540646       -14.7117
 191   2.0000      -0.538275       -14.6472
 192   2.0000      -0.534430       -14.5426
 193   2.0000      -0.533927       -14.5289
 194   2.0000      -0.532103       -14.4793
 195   2.0000      -0.527594       -14.3566
 196   2.0000      -0.525455       -14.2983
 197   2.0000      -0.522594       -14.2205
 198   2.0000      -0.520398       -14.1608
 199   2.0000      -0.519698       -14.1417
 200   2.0000      -0.516960       -14.0672
 201   2.0000      -0.514713       -14.0061
 202   2.0000      -0.512721       -13.9519
 203   2.0000      -0.509197       -13.8559
 204   2.0000      -0.500869       -13.6293
 205   2.0000      -0.499783       -13.5998
 206   2.0000      -0.499340       -13.5877
 207   2.0000      -0.496996       -13.5240
 208   2.0000      -0.495929       -13.4949
 209   2.0000      -0.494743       -13.4626
 210   2.0000      -0.494260       -13.4495
 211   2.0000      -0.491057       -13.3623
 212   2.0000      -0.489745       -13.3266
 213   2.0000      -0.486787       -13.2462
 214   2.0000      -0.485586       -13.2135
 215   2.0000      -0.484374       -13.1805
 216   2.0000      -0.481993       -13.1157
 217   2.0000      -0.477535       -12.9944
 218   2.0000      -0.474252       -12.9051
 219   2.0000      -0.472781       -12.8650
 220   2.0000      -0.468146       -12.7389
 221   2.0000      -0.464932       -12.6514
 222   2.0000      -0.462488       -12.5849
 223   2.0000      -0.461834       -12.5671
 224   2.0000      -0.460782       -12.5385
 225   2.0000      -0.458307       -12.4712
 226   2.0000      -0.456737       -12.4284
 227   2.0000      -0.455378       -12.3915
 228   2.0000      -0.454312       -12.3625
 229   2.0000      -0.452634       -12.3168
 230   2.0000      -0.450707       -12.2643
 231   2.0000      -0.449965       -12.2442
 232   2.0000      -0.448604       -12.2071
 233   2.0000      -0.447537       -12.1781
 234   2.0000      -0.445703       -12.1282
 235   2.0000      -0.444462       -12.0944
 236   2.0000      -0.442519       -12.0416
 237   2.0000      -0.441519       -12.0144
 238   2.0000      -0.440783       -11.9943
 239   2.0000      -0.439384       -11.9562
 240   2.0000      -0.436802       -11.8860
 241   2.0000      -0.433646       -11.8001
 242   2.0000      -0.431855       -11.7514
 243   2.0000      -0.430965       -11.7272
 244   2.0000      -0.430227       -11.7071
 245   2.0000      -0.429096       -11.6763
 246   2.0000      -0.428405       -11.6575
 247   2.0000      -0.427541       -11.6340
 248   2.0000      -0.426893       -11.6163
 249   2.0000      -0.423960       -11.5366
 250   2.0000      -0.417117       -11.3503
 251   2.0000      -0.414577       -11.2812
 252   2.0000      -0.412810       -11.2331
 253   2.0000      -0.408902       -11.1268
 254   2.0000      -0.408835       -11.1250
 255   2.0000      -0.407802       -11.0969
 256   2.0000      -0.402401       -10.9499
 257   2.0000      -0.399880       -10.8813
 258   2.0000      -0.399596       -10.8736
 259   2.0000      -0.395108       -10.7514
 260   2.0000      -0.390782       -10.6337
 261   2.0000      -0.388003       -10.5581
 262   2.0000      -0.384524       -10.4634
 263   2.0000      -0.382358       -10.4045
 264   2.0000      -0.374526       -10.1914
 265   2.0000      -0.369157       -10.0453
 266   2.0000      -0.364433        -9.9167
 267   2.0000      -0.362876        -9.8744
 268   2.0000      -0.355506        -9.6738
 269   2.0000      -0.354236        -9.6393
 270   2.0000      -0.353598        -9.6219
 271   2.0000      -0.343651        -9.3512
 272   2.0000      -0.339470        -9.2375
 273   2.0000      -0.335010        -9.1161
 274   2.0000      -0.318429        -8.6649
 275   2.0000      -0.316633        -8.6160
 276   2.0000      -0.311765        -8.4835
 277   2.0000      -0.302618        -8.2347
 278   2.0000      -0.295161        -8.0317
 279   2.0000      -0.280599        -7.6355
 280   2.0000      -0.278251        -7.5716
 281   2.0000      -0.264365        -7.1937
 282   2.0000      -0.245964        -6.6930
 283   0.0000      -0.096485        -2.6255
 284   0.0000      -0.087772        -2.3884
 285   0.0000      -0.068705        -1.8696
 286   0.0000      -0.064993        -1.7685
 287   0.0000      -0.053300        -1.4504

MULLIKEN ATOMIC CHARGES
-----------------------
   0 C :    0.157806
   1 O :   -0.177120
   2 C :   -0.012353
   3 C :   -0.098832
   4 C :    0.314091
   5 C :   -0.030394
   6 C :   -0.022187
   7 C :    0.027989
   8 C :    0.321724
   9 C :   -0.360464
  10 C :   -0.191736
  11 N :    0.152758
  12 C :   -0.180590
  13 N :    0.140046
  14 C :   -0.103568
  15 C :   -0.026443
  16 C :   -0.086184
  17 S :    0.171735
  18 C :   -0.024823
  19 C :   -0.085121
  20 C :   -0.064352
  21 C :    0.048090
  22 C :    0.033973
  23 S :    0.183351
  24 C :   -0.096266
  25 C :    0.029929
  26 N :   -0.168983
  27 C :    0.195061
  28 C :   -0.169412
  29 C :    0.048881
  30 C :   -0.086320
  31 C :   -0.050718
  32 N :   -0.029708
  33 N :   -0.096271
  34 C :    0.151812
  35 C :   -0.019941
  36 N :   -0.028543
  37 C :   -0.024196
  38 C :   -0.072929
  39 C :    0.056800
  40 N :   -0.164283
  41 C :    0.210561
  42 C :   -0.150289
  43 C :    0.048901
  44 C :   -0.083930
  45 S :    0.122408
  46 C :   -0.145079
  47 C :    0.036131
  48 S :   -0.203493
  49 C :    0.014220
  50 C :   -0.056872
  51 C :    0.087028
  52 C :   -0.008720
  53 C :    0.030996
  54 C :   -0.120900
  55 C :    0.234623
  56 C :   -0.282404
  57 C :   -0.160230
  58 N :    0.163824
  59 C :   -0.214459
  60 N :    0.170571
  61 C :    0.042100
  62 C :   -0.026422
  63 C :   -0.019754
  64 C :    0.312257
  65 C :   -0.099474
  66 C :   -0.011038
  67 C :    0.153862
  68 O :   -0.123750
  69 F :   -0.185196
  70 F :   -0.185994
  71 C :    0.023046
  72 C :    0.010086
  73 C :    0.055426
  74 C :    0.025745
  75 C :   -0.000537
  76 C :    0.043122
  77 H :    0.004217
  78 H :    0.010034
  79 H :    0.010725
  80 H :   -0.016408
  81 H :    0.013869
  82 H :    0.038273
  83 H :    0.015135
  84 H :    0.033459
  85 H :    0.014383
  86 H :    0.007063
  87 H :    0.021543
  88 H :    0.012009
  89 H :    0.047928
  90 H :    0.028533
  91 H :    0.037801
  92 H :    0.023714
  93 H :    0.022121
  94 H :   -0.029027
  95 H :    0.025347
  96 H :   -0.001586
  97 H :    0.036035
  98 H :    0.037526
  99 H :    0.041188
 100 H :    0.021974
 101 H :    0.023857
 102 H :    0.036277
 103 H :    0.010870
 104 H :    0.015651
 105 H :    0.006113
 106 H :   -0.004502
 107 H :    0.011001
 108 H :    0.004055
 109 H :    0.013036
 110 H :    0.015447
 111 H :    0.022540
 112 H :    0.007996
 113 H :   -0.000000
 114 H :    0.004214
 115 H :    0.004425
 116 H :    0.012153
 117 H :    0.019597
 118 H :    0.019780
 119 H :    0.034296
 120 H :    0.012034
 121 H :    0.006625
Sum of atomic charges:   -0.0000000

LOEWDIN ATOMIC CHARGES
----------------------
   0 C :    0.086421
   1 O :   -0.169873
   2 C :   -0.031639
   3 C :   -0.017201
   4 C :    0.101550
   5 C :   -0.029618
   6 C :    0.013977
   7 C :   -0.025345
   8 C :    0.080204
   9 C :   -0.149467
  10 C :   -0.019740
  11 N :   -0.056045
  12 C :   -0.018183
  13 N :   -0.059582
  14 C :   -0.123870
  15 C :    0.057294
  16 C :   -0.190385
  17 S :    0.495252
  18 C :   -0.193707
  19 C :   -0.193723
  20 C :   -0.010130
  21 C :   -0.031007
  22 C :   -0.041703
  23 S :    0.414587
  24 C :   -0.175631
  25 C :   -0.041433
  26 N :    0.047021
  27 C :    0.044651
  28 C :   -0.045611
  29 C :    0.002208
  30 C :   -0.064822
  31 C :   -0.073899
  32 N :   -0.087932
  33 N :    0.155541
  34 C :    0.036451
  35 C :   -0.057979
  36 N :   -0.077352
  37 C :   -0.065550
  38 C :   -0.085486
  39 C :    0.024604
  40 N :    0.061510
  41 C :    0.036141
  42 C :   -0.038940
  43 C :   -0.064234
  44 C :   -0.151911
  45 S :    0.365937
  46 C :   -0.146408
  47 C :   -0.148855
  48 S :   -0.031065
  49 C :   -0.002812
  50 C :    0.058876
  51 C :   -0.032686
  52 C :   -0.046363
  53 C :    0.057195
  54 C :   -0.060908
  55 C :    0.056929
  56 C :   -0.126049
  57 C :   -0.006854
  58 N :   -0.045825
  59 C :   -0.028733
  60 N :   -0.052473
  61 C :   -0.020371
  62 C :    0.011901
  63 C :   -0.023390
  64 C :    0.100679
  65 C :   -0.014117
  66 C :   -0.035339
  67 C :    0.086351
  68 O :   -0.125209
  69 F :   -0.055610
  70 F :   -0.059956
  71 C :   -0.035308
  72 C :   -0.062829
  73 C :   -0.047385
  74 C :   -0.034289
  75 C :   -0.066652
  76 C :   -0.048669
  77 H :    0.047680
  78 H :    0.045110
  79 H :    0.043426
  80 H :    0.047651
  81 H :    0.031755
  82 H :    0.038024
  83 H :    0.025259
  84 H :    0.032934
  85 H :    0.024152
  86 H :    0.028039
  87 H :    0.028916
  88 H :    0.018819
  89 H :    0.035746
  90 H :    0.034543
  91 H :    0.031260
  92 H :    0.031077
  93 H :    0.027084
  94 H :    0.021285
  95 H :    0.022571
  96 H :    0.012370
  97 H :    0.049446
  98 H :    0.052871
  99 H :    0.034986
 100 H :    0.029789
 101 H :    0.028767
 102 H :    0.058029
 103 H :    0.042658
 104 H :    0.046474
 105 H :    0.049071
 106 H :    0.023603
 107 H :    0.017302
 108 H :    0.017079
 109 H :    0.026774
 110 H :    0.019069
 111 H :    0.021382
 112 H :    0.022727
 113 H :    0.017092
 114 H :    0.026758
 115 H :    0.013623
 116 H :    0.020045
 117 H :    0.025753
 118 H :    0.016575
 119 H :    0.020681
 120 H :    0.025890
 121 H :    0.020729

  Mayer bond orders larger than 0.100000
B(  0-C ,  1-O ) :   2.1114 B(  0-C ,  2-C ) :   0.9634 B(  0-C , 14-C ) :   0.9850
B(  2-C ,  3-C ) :   1.3396 B(  2-C ,  7-C ) :   1.3361 B(  3-C ,  4-C ) :   1.3032
B(  3-C , 77-H ) :   1.0182 B(  4-C ,  5-C ) :   1.3634 B(  4-C , 70-F ) :   1.0886
B(  5-C ,  6-C ) :   1.3485 B(  5-C , 78-H ) :   0.9892 B(  6-C ,  7-C ) :   1.3674
B(  6-C , 79-H ) :   0.9828 B(  7-C ,  8-C ) :   0.9912 B(  8-C ,  9-C ) :   1.6141
B(  8-C , 14-C ) :   1.0959 B(  9-C , 10-C ) :   1.1455 B(  9-C , 12-C ) :   1.1497
B( 10-C , 11-N ) :   2.9731 B( 12-C , 13-N ) :   2.9586 B( 14-C , 15-C ) :   1.4706
B( 15-C , 16-C ) :   1.3133 B( 15-C , 80-H ) :   0.9274 B( 16-C , 17-S ) :   1.0437
B( 16-C , 20-C ) :   1.3579 B( 17-S , 18-C ) :   1.0385 B( 18-C , 19-C ) :   1.3916
B( 18-C , 25-C ) :   1.2727 B( 19-C , 20-C ) :   1.4256 B( 19-C , 23-S ) :   1.0208
B( 20-C , 21-C ) :   1.0776 B( 21-C , 22-C ) :   1.1039 B( 21-C , 81-H ) :   0.9217
B( 21-C , 82-H ) :   0.9042 B( 22-C , 83-H ) :   0.9665 B( 22-C , 84-H ) :   0.9668
B( 22-C , 85-H ) :   0.9692 B( 23-S , 24-C ) :   1.0113 B( 24-C , 25-C ) :   1.3999
B( 24-C , 30-C ) :   1.3686 B( 25-C , 26-N ) :   1.1576 B( 25-C , 29-C ) :   0.1033
B( 26-N , 27-C ) :   0.9546 B( 26-N , 29-C ) :   1.1575 B( 27-C , 28-C ) :   1.0237
B( 27-C , 86-H ) :   0.9338 B( 27-C , 87-H ) :   0.9278 B( 28-C , 74-C ) :   1.0658
B( 28-C , 76-C ) :   1.0754 B( 28-C , 88-H ) :   0.9195 B( 29-C , 30-C ) :   1.3863
B( 29-C , 39-C ) :   1.1515 B( 30-C , 31-C ) :   1.0611 B( 31-C , 32-N ) :   1.5549
B( 31-C , 37-C ) :   1.2534 B( 32-N , 33-N ) :   1.2275 B( 32-N , 36-N ) :   0.1408
B( 33-N , 34-C ) :   0.9313 B( 33-N , 36-N ) :   1.2183 B( 34-C , 35-C ) :   1.1078
B( 34-C , 89-H ) :   0.9378 B( 34-C , 90-H ) :   0.9453 B( 35-C , 91-H ) :   0.9702
B( 35-C , 92-H ) :   0.9688 B( 35-C , 93-H ) :   0.9674 B( 36-N , 37-C ) :   1.5325
B( 37-C , 38-C ) :   1.0602 B( 38-C , 39-C ) :   1.3323 B( 38-C , 44-C ) :   1.4069
B( 39-C , 40-N ) :   1.2225 B( 40-N , 41-C ) :   0.9504 B( 40-N , 43-C ) :   1.1231
B( 41-C , 42-C ) :   1.0340 B( 41-C , 94-H ) :   0.9266 B( 41-C , 95-H ) :   0.9008
B( 42-C , 71-C ) :   1.0628 B( 42-C , 73-C ) :   1.0744 B( 42-C , 96-H ) :   0.9200
B( 43-C , 44-C ) :   1.3421 B( 43-C , 47-C ) :   1.2310 B( 44-C , 45-S ) :   1.0119
B( 45-S , 46-C ) :   0.9357 B( 46-C , 47-C ) :   0.9539 B( 46-C , 49-C ) :   0.9011
B( 46-C , 50-C ) :   0.8882 B( 47-C , 48-S ) :   1.6005 B( 49-C , 50-C ) :   1.5204
B( 49-C , 53-C ) :   1.0647 B( 50-C , 51-C ) :   1.0991 B( 51-C , 52-C ) :   1.0938
B( 51-C , 97-H ) :   0.9163 B( 51-C , 98-H ) :   0.8955 B( 52-C , 99-H ) :   0.9741
B( 52-C ,100-H ) :   0.9633 B( 52-C ,101-H ) :   0.9749 B( 53-C , 54-C ) :   1.6819
B( 53-C ,102-H ) :   0.9701 B( 54-C , 55-C ) :   1.0361 B( 54-C , 67-C ) :   0.9339
B( 55-C , 56-C ) :   1.6944 B( 55-C , 61-C ) :   1.0084 B( 56-C , 57-C ) :   1.1412
B( 56-C , 59-C ) :   1.1243 B( 57-C , 58-N ) :   2.9619 B( 59-C , 60-N ) :   3.0081
B( 61-C , 62-C ) :   1.3678 B( 61-C , 66-C ) :   1.3313 B( 62-C , 63-C ) :   1.3534
B( 62-C ,103-H ) :   0.9925 B( 63-C , 64-C ) :   1.3567 B( 63-C ,104-H ) :   0.9861
B( 64-C , 65-C ) :   1.3205 B( 64-C , 69-F ) :   1.0694 B( 65-C , 66-C ) :   1.3368
B( 65-C ,105-H ) :   1.0177 B( 66-C , 67-C ) :   0.9173 B( 67-C , 68-O ) :   2.2961
B( 71-C , 72-C ) :   1.0937 B( 71-C ,106-H ) :   0.9411 B( 71-C ,107-H ) :   0.9318
B( 72-C ,108-H ) :   0.9648 B( 72-C ,109-H ) :   0.9632 B( 72-C ,110-H ) :   0.9714
B( 73-C ,111-H ) :   0.9569 B( 73-C ,112-H ) :   0.9609 B( 73-C ,113-H ) :   0.9641
B( 74-C , 75-C ) :   1.1068 B( 74-C ,114-H ) :   0.9406 B( 74-C ,115-H ) :   0.9295
B( 75-C ,116-H ) :   0.9557 B( 75-C ,117-H ) :   0.9578 B( 75-C ,118-H ) :   0.9648
B( 76-C ,119-H ) :   0.9595 B( 76-C ,120-H ) :   0.9601 B( 76-C ,121-H ) :   0.9633

-----------------------------------------------------------------------------
         ABSORPTION SPECTRUM VIA TRANSITION ELECTRIC DIPOLE MOMENTS
-----------------------------------------------------------------------------
State   Energy  Wavelength   fosc         T2         TX        TY        TZ
        (cm-1)    (nm)                  (au**2)     (au)      (au)      (au)
-----------------------------------------------------------------------------
   0   15752.6    634.8   0.136695972   2.85679   0.83056   1.45632   0.21470
   1   18535.4    539.5   1.486137357  26.39564  -3.01905  -4.11876   0.56288
   2   19837.9    504.1   0.110092629   1.82700   0.51905   1.16130  -0.45713
   3   21385.0    467.6   0.031525140   0.48532  -0.31792  -0.55913   0.26762
   4   22016.2    454.2   0.084345529   1.26123  -1.09224  -0.14126   0.21974
   5   22710.9    440.3   0.017371957   0.25182  -0.01873  -0.06699   0.49697
   6   23454.8    426.4   0.026019935   0.36522  -0.48559   0.32040   0.16359
   7   24145.6    414.2   0.046427272   0.63301  -0.77006  -0.18696   0.07119
   8   25101.0    398.4   0.028126150   0.36889   0.47916   0.08180   0.36415
   9   25891.8    386.2   0.123495418   1.57023  -0.87239  -0.83914   0.32403
  10   26833.6    372.7   0.111051702   1.36245   0.70437  -0.55130  -0.74992
  11   27419.1    364.7   0.183063720   2.19799  -0.58140   1.28744   0.44997
  12   27956.8    357.7   0.121974853   1.43634  -0.65409   0.88549  -0.47374
  13   28572.7    350.0   0.018464360   0.21274  -0.32805   0.20236   0.25333
  14   28809.7    347.1   0.201809302   2.30610  -0.80952   1.27981  -0.11342
  15   29160.3    342.9   0.013350691   0.15073  -0.16846   0.20067  -0.28649
  16   29927.2    334.1   0.016213164   0.17835  -0.10087  -0.39765   0.10025
  17   29984.4    333.5   0.042516201   0.46680  -0.06162  -0.61541   0.29031
  18   30240.2    330.7   0.049280625   0.53650   0.06002   0.57734  -0.44674
  19   30765.4    325.0   0.020504604   0.21941  -0.18250   0.42286  -0.08543
  20   30887.4    323.8   0.065217457   0.69512  -0.43154  -0.53083   0.47657
  21   31232.5    320.2   0.033285497   0.35085   0.20117  -0.55707  -0.00768
  22   31483.4    317.6   0.166834375   1.74454  -1.12039  -0.34823   0.60662
  23   31790.1    314.6   0.043094366   0.44628  -0.38276   0.48190  -0.25989
  24   32127.5    311.3   0.026080049   0.26724   0.12841  -0.11722   0.48684
  25   32431.9    308.3   0.032501411   0.32992   0.49172  -0.05203   0.29227
  26   32605.5    306.7   0.010539505   0.10642  -0.27117   0.13074  -0.12566
  27   33400.7    299.4   0.197337180   1.94504  -1.24649   0.59743   0.18544
  28   33590.7    297.7   0.020871928   0.20456   0.15333  -0.28022   0.32020
  29   33845.3    295.5   0.043049005   0.41874   0.22759  -0.07943  -0.60052
  30   34262.5    291.9   0.049807700   0.47858  -0.11166   0.54047  -0.41713
  31   35055.5    285.3   0.018652933   0.17517  -0.41218   0.07172   0.01169
  32   35222.5    283.9   0.534013783   4.99123   1.25478  -1.84391   0.12936
  33   35618.4    280.8   0.036128088   0.33392  -0.35491   0.25359   0.37902
  34   35761.6    279.6   0.030679060   0.28242  -0.27925  -0.44109   0.09942
  35   35786.9    279.4   0.317946469   2.92486   0.91948   0.24556  -1.42096
  36   35948.1    278.2   0.036697876   0.33608  -0.14345   0.12276   0.54811
  37   36330.9    275.2   0.028988181   0.26268   0.36723  -0.19055  -0.30250
  38   36533.6    273.7   0.259496531   2.33838   0.89725   0.60986  -1.07768
  39   36781.3    271.9   0.173571573   1.55355  -0.12321  -1.06105   0.64229
  40   37346.8    267.8   0.060652513   0.53465  -0.00848  -0.68448   0.25704
  41   38030.9    262.9   0.049780781   0.43092   0.47148  -0.42191  -0.17499
  42   38179.0    261.9   0.011524416   0.09937  -0.30647   0.04593   0.05780
  43   38503.0    259.7   0.028440854   0.24318   0.14423  -0.46725   0.06363
  44   38619.5    258.9   0.134138454   1.14346  -0.60640  -0.27093   0.83805
  45   39022.5    256.3   0.123630914   1.04301   0.35817  -0.95144  -0.09738
  46   39237.8    254.9   0.030893170   0.25920   0.47496   0.18164   0.02489
  47   39366.3    254.0   0.003608938   0.03018   0.08858   0.14784   0.02187
  48   39672.4    252.1   0.036525841   0.30310   0.25754  -0.48524   0.03622
  49   40115.9    249.3   0.034924648   0.28661  -0.21068   0.48156   0.10161
  50   40208.6    248.7   0.165587439   1.35576  -1.09182   0.21458   0.34300

FINAL SINGLE POINT ENERGY     -4744.539615307733

DIPOLE MOMENT
-------------
                                X             Y             Z
Electronic contribution:     -6.21276      39.19235     -24.10590
Nuclear contribution   :      6.93609     -40.66764      24.88500
                        -----------------------------------------
Total Dipole Moment    :      0.72333      -1.47529       0.77910
                        -----------------------------------------
Magnitude (a.u.)       :      1.81843
Magnitude (Debye)      :      4.62208

Rotational constants in cm-1:     0.001659     0.000422     0.000385
Rotational constants in MHz :    49.722820    12.665846    11.535841

                             ****ORCA TERMINATED NORMALLY****
TOTAL RUN TIME: 0 days 1 hours 36 minutes 36 seconds 43 msec
