                         Program Version 4.2.0 -  RELEASE  -
|  1> # ORCA input file
|  2> # Y14.out: Geometry 33
|  3> ! CAM-B3LYP def2-SVP def2/J RIJCOSX Grid4 TightSCF
|  4> %maxcore 5000
|  5> %tddft
|  6>     Mode sTDDFT
|  7>     Ethresh 5.0
|  8>     maxcore 5000
|  9> end
| 10> * xyz 0 1
| 11>    C        0.07812        -2.84523        -1.00073
| 12>    O       -0.56363        -3.85769        -1.22758
| 13>    C        1.38276        -2.49451        -1.62240
| 14>    C        2.12213        -3.25056        -2.52124
| 15>    C        3.33128        -2.70508        -2.95162
| 16>    C        3.78017        -1.45624        -2.51274
| 17>    C        3.02096        -0.71008        -1.60707
| 18>    C        1.80550        -1.23773        -1.14603
| 19>    C        0.79889        -0.73226        -0.17850
| 20>    C        0.88930         0.48523         0.48011
| 21>    C        1.94407         1.42115         0.24694
| 22>    N        2.78039         2.20796         0.06610
| 23>    C       -0.06363         0.94412         1.44153
| 24>    N       -0.82014         1.33971         2.23168
| 25>    C       -0.26062        -1.73911        -0.07902
| 26>    C       -1.38018        -1.66747         0.73314
| 27>    C       -2.50063        -2.49819         0.95498
| 28>    S       -2.85244        -4.04066         0.12953
| 29>    C       -4.31234        -4.21328         1.03787
| 30>    C       -4.51208        -3.14573         1.93927
| 31>    C       -3.50999        -2.16532         1.90319
| 32>    C       -3.53199        -0.96437         2.80951
| 33>    C       -3.24191        -1.33473         4.27277
| 34>    S       -5.98352        -3.31577         2.90743
| 35>    C       -6.31432        -4.82657         2.09351
| 36>    C       -5.35061        -5.16393         1.13246
| 37>    N       -5.70635        -6.33791         0.49451
| 38>    C       -5.12083        -6.64501        -0.80831
| 39>    C       -6.04890        -6.43438        -2.01688
| 40>    C       -6.90962        -6.78179         1.06056
| 41>    C       -7.30969        -5.82338         2.05406
| 42>    C       -8.57264        -5.95103         2.69815
| 43>    N       -9.18257        -5.17305         3.60441
| 44>    N      -10.35693        -5.76987         3.77858
| 45>    C      -11.39502        -5.16722         4.60294
| 46>    C      -12.32883        -4.28478         3.78008
| 47>    N      -10.58612        -6.86063         3.05639
| 48>    C       -9.45307        -7.01018         2.35182
| 49>    C       -9.03592        -8.01430         1.42874
| 50>    C       -7.74308        -7.92373         0.80693
| 51>    N       -7.55921        -9.07121         0.02090
| 52>    C       -6.31514        -9.67833        -0.44393
| 53>    C       -5.34338       -10.14282         0.65542
| 54>    C       -8.70172        -9.84201         0.12915
| 55>    C       -9.62419        -9.21681         0.98037
| 56>    S      -11.08889       -10.14113         1.20905
| 57>    C      -10.45181       -11.39272         0.13553
| 58>    C       -9.17647       -11.07402        -0.37506
| 59>    S       -8.64020       -12.26963        -1.49901
| 60>    C      -10.12409       -13.22101        -1.26026
| 61>    C      -10.99934       -12.60571        -0.34343
| 62>    C      -12.39473       -13.05434        -0.00478
| 63>    C      -12.61286       -13.32704         1.49097
| 64>    C      -10.29040       -14.32870        -2.14188
| 65>    C      -11.04420       -15.47960        -2.10681
| 66>    C      -11.71079       -16.23985        -1.06054
| 67>    C      -11.36624       -16.25981         0.27947
| 68>    C      -12.06790       -17.05043         1.23953
| 69>    N      -12.65954       -17.67166         2.02378
| 70>    C      -10.22393       -15.56312         0.77533
| 71>    N       -9.28614       -15.01712         1.19128
| 72>    C      -12.64590       -17.18335        -1.72055
| 73>    C      -13.63219       -18.04202        -1.21557
| 74>    C      -14.32418       -18.87185        -2.10319
| 75>    C      -14.01906       -18.85638        -3.46910
| 76>    C      -13.04406       -18.01100        -3.99912
| 77>    C      -12.38348       -17.17833        -3.10742
| 78>    C      -11.33527       -16.16472        -3.41241
| 79>    O      -10.85264       -15.91878        -4.49821
| 80>    F      -14.68573       -19.67434        -4.28728
| 81>    F        4.09185        -3.39544        -3.80503
| 82>    C       -5.95523       -11.20484         1.59872
| 83>    C       -6.70404       -10.65452         2.81469
| 84>    C       -4.07457       -10.66585        -0.03114
| 85>    C       -6.56152        -4.98295        -2.17040
| 86>    C       -7.78484        -4.59639        -1.33764
| 87>    C       -5.28575        -6.86438        -3.27589
| 88>    H        1.77582        -4.22240        -2.87450
| 89>    H        4.73005        -1.07804        -2.89382
| 90>    H        3.39590         0.25450        -1.27494
| 91>    H       -1.43351        -0.77807         1.35540
| 92>    H       -4.53652        -0.51153         2.74212
| 93>    H       -2.82688        -0.18949         2.48270
| 94>    H       -3.95482        -2.08432         4.64714
| 95>    H       -3.31472        -0.44267         4.91230
| 96>    H       -2.22991        -1.75605         4.37734
| 97>    H       -4.70734        -7.65994        -0.80146
| 98>    H       -4.25085        -5.98459        -0.91942
| 99>    H       -6.92604        -7.09446        -1.89384
|100>    H      -10.87108        -4.58793         5.37480
|101>    H      -11.94014        -5.99057         5.08516
|102>    H      -11.75632        -3.50116         3.26175
|103>    H      -13.06868        -3.80004         4.43534
|104>    H      -12.86518        -4.88364         3.02881
|105>    H       -5.81363        -9.00165        -1.13973
|106>    H       -6.60397       -10.54919        -1.04825
|107>    H       -5.06508        -9.25845         1.25649
|108>    H      -12.66080       -13.93707        -0.59730
|109>    H      -13.08483       -12.25303        -0.32506
|110>    H      -13.63667       -13.68796         1.67180
|111>    H      -12.46379       -12.41480         2.08747
|112>    H      -11.91269       -14.07740         1.87690
|113>    H       -9.76520       -14.22493        -3.10205
|114>    H      -13.87988       -18.07433        -0.15577
|115>    H      -15.10394       -19.54690        -1.74606
|116>    H      -12.80578       -18.00598        -5.06417
|117>    H       -5.13865       -11.85036         1.96323
|118>    H       -6.61532       -11.87188         1.01704
|119>    H       -6.02672       -10.07248         3.46087
|120>    H       -7.11875       -11.47659         3.41834
|121>    H       -7.54151        -9.99987         2.54022
|122>    H       -4.29688       -11.54759        -0.65501
|123>    H       -3.32337       -10.96707         0.71372
|124>    H       -3.61404        -9.90425        -0.68187
|125>    H       -6.81968        -4.83970        -3.23371
|126>    H       -5.72912        -4.28445        -1.97232
|127>    H       -8.59622        -5.33225        -1.46461
|128>    H       -8.17352        -3.61891        -1.66401
|129>    H       -7.57092        -4.51891        -0.26381
|130>    H       -4.43519        -6.18920        -3.46322
|131>    H       -5.94011        -6.83055        -4.15947
|132>    H       -4.88373        -7.88753        -3.19336
|133> *
|134>
|135>                          ****END OF INPUT****

CARTESIAN COORDINATES (ANGSTROEM)
---------------------------------
  C      0.078120   -2.845230   -1.000730
  O     -0.563630   -3.857690   -1.227580
  C      1.382760   -2.494510   -1.622400
  C      2.122130   -3.250560   -2.521240
  C      3.331280   -2.705080   -2.951620
  C      3.780170   -1.456240   -2.512740
  C      3.020960   -0.710080   -1.607070
  C      1.805500   -1.237730   -1.146030
  C      0.798890   -0.732260   -0.178500
  C      0.889300    0.485230    0.480110
  C      1.944070    1.421150    0.246940
  N      2.780390    2.207960    0.066100
  C     -0.063630    0.944120    1.441530
  N     -0.820140    1.339710    2.231680
  C     -0.260620   -1.739110   -0.079020
  C     -1.380180   -1.667470    0.733140
  C     -2.500630   -2.498190    0.954980
  S     -2.852440   -4.040660    0.129530
  C     -4.312340   -4.213280    1.037870
  C     -4.512080   -3.145730    1.939270
  C     -3.509990   -2.165320    1.903190
  C     -3.531990   -0.964370    2.809510
  C     -3.241910   -1.334730    4.272770
  S     -5.983520   -3.315770    2.907430
  C     -6.314320   -4.826570    2.093510
  C     -5.350610   -5.163930    1.132460
  N     -5.706350   -6.337910    0.494510
  C     -5.120830   -6.645010   -0.808310
  C     -6.048900   -6.434380   -2.016880
  C     -6.909620   -6.781790    1.060560
  C     -7.309690   -5.823380    2.054060
  C     -8.572640   -5.951030    2.698150
  N     -9.182570   -5.173050    3.604410
  N    -10.356930   -5.769870    3.778580
  C    -11.395020   -5.167220    4.602940
  C    -12.328830   -4.284780    3.780080
  N    -10.586120   -6.860630    3.056390
  C     -9.453070   -7.010180    2.351820
  C     -9.035920   -8.014300    1.428740
  C     -7.743080   -7.923730    0.806930
  N     -7.559210   -9.071210    0.020900
  C     -6.315140   -9.678330   -0.443930
  C     -5.343380  -10.142820    0.655420
  C     -8.701720   -9.842010    0.129150
  C     -9.624190   -9.216810    0.980370
  S    -11.088890  -10.141130    1.209050
  C    -10.451810  -11.392720    0.135530
  C     -9.176470  -11.074020   -0.375060
  S     -8.640200  -12.269630   -1.499010
  C    -10.124090  -13.221010   -1.260260
  C    -10.999340  -12.605710   -0.343430
  C    -12.394730  -13.054340   -0.004780
  C    -12.612860  -13.327040    1.490970
  C    -10.290400  -14.328700   -2.141880
  C    -11.044200  -15.479600   -2.106810
  C    -11.710790  -16.239850   -1.060540
  C    -11.366240  -16.259810    0.279470
  C    -12.067900  -17.050430    1.239530
  N    -12.659540  -17.671660    2.023780
  C    -10.223930  -15.563120    0.775330
  N     -9.286140  -15.017120    1.191280
  C    -12.645900  -17.183350   -1.720550
  C    -13.632190  -18.042020   -1.215570
  C    -14.324180  -18.871850   -2.103190
  C    -14.019060  -18.856380   -3.469100
  C    -13.044060  -18.011000   -3.999120
  C    -12.383480  -17.178330   -3.107420
  C    -11.335270  -16.164720   -3.412410
  O    -10.852640  -15.918780   -4.498210
  F    -14.685730  -19.674340   -4.287280
  F      4.091850   -3.395440   -3.805030
  C     -5.955230  -11.204840    1.598720
  C     -6.704040  -10.654520    2.814690
  C     -4.074570  -10.665850   -0.031140
  C     -6.561520   -4.982950   -2.170400
  C     -7.784840   -4.596390   -1.337640
  C     -5.285750   -6.864380   -3.275890
  H      1.775820   -4.222400   -2.874500
  H      4.730050   -1.078040   -2.893820
  H      3.395900    0.254500   -1.274940
  H     -1.433510   -0.778070    1.355400
  H     -4.536520   -0.511530    2.742120
  H     -2.826880   -0.189490    2.482700
  H     -3.954820   -2.084320    4.647140
  H     -3.314720   -0.442670    4.912300
  H     -2.229910   -1.756050    4.377340
  H     -4.707340   -7.659940   -0.801460
  H     -4.250850   -5.984590   -0.919420
  H     -6.926040   -7.094460   -1.893840
  H    -10.871080   -4.587930    5.374800
  H    -11.940140   -5.990570    5.085160
  H    -11.756320   -3.501160    3.261750
  H    -13.068680   -3.800040    4.435340
  H    -12.865180   -4.883640    3.028810
  H     -5.813630   -9.001650   -1.139730
  H     -6.603970  -10.549190   -1.048250
  H     -5.065080   -9.258450    1.256490
  H    -12.660800  -13.937070   -0.597300
  H    -13.084830  -12.253030   -0.325060
  H    -13.636670  -13.687960    1.671800
  H    -12.463790  -12.414800    2.087470
  H    -11.912690  -14.077400    1.876900
  H     -9.765200  -14.224930   -3.102050
  H    -13.879880  -18.074330   -0.155770
  H    -15.103940  -19.546900   -1.746060
  H    -12.805780  -18.005980   -5.064170
  H     -5.138650  -11.850360    1.963230
  H     -6.615320  -11.871880    1.017040
  H     -6.026720  -10.072480    3.460870
  H     -7.118750  -11.476590    3.418340
  H     -7.541510   -9.999870    2.540220
  H     -4.296880  -11.547590   -0.655010
  H     -3.323370  -10.967070    0.713720
  H     -3.614040   -9.904250   -0.681870
  H     -6.819680   -4.839700   -3.233710
  H     -5.729120   -4.284450   -1.972320
  H     -8.596220   -5.332250   -1.464610
  H     -8.173520   -3.618910   -1.664010
  H     -7.570920   -4.518910   -0.263810
  H     -4.435190   -6.189200   -3.463220
  H     -5.940110   -6.830550   -4.159470
  H     -4.883730   -7.887530   -3.193360

 Total Charge           Charge          ....    0
 Multiplicity           Mult            ....    1
 Number of Electrons    NEL             ....  566
 Basis Dimension        Dim             .... 1319

ORBITAL ENERGIES
----------------

  NO   OCC          E(Eh)            E(eV)
   0   2.0000     -88.973396     -2421.0892
   1   2.0000     -88.969556     -2420.9847
   2   2.0000     -88.966198     -2420.8933
   3   2.0000     -88.965277     -2420.8683
   4   2.0000     -24.795798      -674.7280
   5   2.0000     -24.793371      -674.6619
   6   2.0000     -19.220385      -523.0133
   7   2.0000     -19.219498      -522.9891
   8   2.0000     -14.525422      -395.2568
   9   2.0000     -14.481369      -394.0581
  10   2.0000     -14.481302      -394.0563
  11   2.0000     -14.441817      -392.9818
  12   2.0000     -14.441604      -392.9760
  13   2.0000     -14.422368      -392.4526
  14   2.0000     -14.421362      -392.4252
  15   2.0000     -14.419360      -392.3707
  16   2.0000     -14.415389      -392.2627
  17   2.0000     -10.381701      -282.5004
  18   2.0000     -10.378418      -282.4111
  19   2.0000     -10.372027      -282.2372
  20   2.0000     -10.369314      -282.1634
  21   2.0000     -10.348875      -281.6072
  22   2.0000     -10.348293      -281.5914
  23   2.0000     -10.345994      -281.5288
  24   2.0000     -10.343607      -281.4639
  25   2.0000     -10.338727      -281.3311
  26   2.0000     -10.337837      -281.3068
  27   2.0000     -10.327466      -281.0246
  28   2.0000     -10.327260      -281.0190
  29   2.0000     -10.326350      -280.9943
  30   2.0000     -10.326162      -280.9891
  31   2.0000     -10.325465      -280.9702
  32   2.0000     -10.325104      -280.9604
  33   2.0000     -10.325016      -280.9580
  34   2.0000     -10.323570      -280.9186
  35   2.0000     -10.322478      -280.8889
  36   2.0000     -10.322445      -280.8880
  37   2.0000     -10.322413      -280.8871
  38   2.0000     -10.321684      -280.8673
  39   2.0000     -10.321363      -280.8586
  40   2.0000     -10.320231      -280.8278
  41   2.0000     -10.319780      -280.8155
  42   2.0000     -10.315702      -280.7045
  43   2.0000     -10.314251      -280.6650
  44   2.0000     -10.313614      -280.6477
  45   2.0000     -10.312715      -280.6232
  46   2.0000     -10.309754      -280.5427
  47   2.0000     -10.308697      -280.5139
  48   2.0000     -10.308664      -280.5130
  49   2.0000     -10.308318      -280.5036
  50   2.0000     -10.307362      -280.4776
  51   2.0000     -10.304282      -280.3938
  52   2.0000     -10.304173      -280.3908
  53   2.0000     -10.304097      -280.3887
  54   2.0000     -10.304064      -280.3878
  55   2.0000     -10.303664      -280.3770
  56   2.0000     -10.303219      -280.3649
  57   2.0000     -10.301891      -280.3287
  58   2.0000     -10.300716      -280.2967
  59   2.0000     -10.299704      -280.2692
  60   2.0000     -10.299619      -280.2669
  61   2.0000     -10.296728      -280.1882
  62   2.0000     -10.296353      -280.1780
  63   2.0000     -10.295207      -280.1468
  64   2.0000     -10.288676      -279.9691
  65   2.0000     -10.287321      -279.9322
  66   2.0000     -10.284227      -279.8481
  67   2.0000     -10.282925      -279.8126
  68   2.0000     -10.274573      -279.5853
  69   2.0000     -10.272939      -279.5409
  70   2.0000     -10.271459      -279.5006
  71   2.0000     -10.270016      -279.4614
  72   2.0000     -10.268584      -279.4224
  73   2.0000     -10.265777      -279.3460
  74   2.0000     -10.264311      -279.3061
  75   2.0000     -10.256784      -279.1013
  76   2.0000     -10.251866      -278.9675
  77   2.0000      -8.067481      -219.5273
  78   2.0000      -8.061903      -219.3755
  79   2.0000      -8.059477      -219.3095
  80   2.0000      -8.058615      -219.2861
  81   2.0000      -6.037194      -164.2804
  82   2.0000      -6.033076      -164.1683
  83   2.0000      -6.031729      -164.1317
  84   2.0000      -6.029474      -164.0703
  85   2.0000      -6.028945      -164.0559
  86   2.0000      -6.028629      -164.0473
  87   2.0000      -6.027321      -164.0117
  88   2.0000      -6.025434      -163.9604
  89   2.0000      -6.024609      -163.9380
  90   2.0000      -6.023467      -163.9069
  91   2.0000      -6.020394      -163.8233
  92   2.0000      -6.019475      -163.7982
  93   2.0000      -1.313686       -35.7472
  94   2.0000      -1.311244       -35.6808
  95   2.0000      -1.196476       -32.5578
  96   2.0000      -1.132255       -30.8102
  97   2.0000      -1.130455       -30.7612
  98   2.0000      -1.101566       -29.9751
  99   2.0000      -1.089880       -29.6571
 100   2.0000      -1.014411       -27.6035
 101   2.0000      -1.011569       -27.5262
 102   2.0000      -1.007189       -27.4070
 103   2.0000      -1.004802       -27.3421
 104   2.0000      -0.993585       -27.0368
 105   2.0000      -0.993168       -27.0255
 106   2.0000      -0.989756       -26.9326
 107   2.0000      -0.987544       -26.8724
 108   2.0000      -0.979754       -26.6605
 109   2.0000      -0.970673       -26.4134
 110   2.0000      -0.954089       -25.9621
 111   2.0000      -0.951624       -25.8950
 112   2.0000      -0.944556       -25.7027
 113   2.0000      -0.941950       -25.6318
 114   2.0000      -0.925753       -25.1910
 115   2.0000      -0.914173       -24.8759
 116   2.0000      -0.901832       -24.5401
 117   2.0000      -0.898338       -24.4450
 118   2.0000      -0.896768       -24.4023
 119   2.0000      -0.893778       -24.3209
 120   2.0000      -0.890878       -24.2420
 121   2.0000      -0.883097       -24.0303
 122   2.0000      -0.877293       -23.8724
 123   2.0000      -0.866071       -23.5670
 124   2.0000      -0.863704       -23.5026
 125   2.0000      -0.860572       -23.4174
 126   2.0000      -0.848479       -23.0883
 127   2.0000      -0.842128       -22.9155
 128   2.0000      -0.833054       -22.6686
 129   2.0000      -0.822339       -22.3770
 130   2.0000      -0.820385       -22.3238
 131   2.0000      -0.817954       -22.2577
 132   2.0000      -0.808456       -21.9992
 133   2.0000      -0.802987       -21.8504
 134   2.0000      -0.802181       -21.8285
 135   2.0000      -0.784635       -21.3510
 136   2.0000      -0.782004       -21.2794
 137   2.0000      -0.779609       -21.2142
 138   2.0000      -0.766148       -20.8479
 139   2.0000      -0.763739       -20.7824
 140   2.0000      -0.757312       -20.6075
 141   2.0000      -0.745465       -20.2851
 142   2.0000      -0.731452       -19.9038
 143   2.0000      -0.724246       -19.7077
 144   2.0000      -0.720673       -19.6105
 145   2.0000      -0.714829       -19.4515
 146   2.0000      -0.711859       -19.3707
 147   2.0000      -0.706934       -19.2366
 148   2.0000      -0.705424       -19.1956
 149   2.0000      -0.699038       -19.0218
 150   2.0000      -0.698243       -19.0002
 151   2.0000      -0.694737       -18.9048
 152   2.0000      -0.685727       -18.6596
 153   2.0000      -0.680598       -18.5200
 154   2.0000      -0.674780       -18.3617
 155   2.0000      -0.666752       -18.1432
 156   2.0000      -0.661505       -18.0005
 157   2.0000      -0.658994       -17.9321
 158   2.0000      -0.653002       -17.7691
 159   2.0000      -0.650778       -17.7086
 160   2.0000      -0.647216       -17.6116
 161   2.0000      -0.637769       -17.3546
 162   2.0000      -0.634314       -17.2606
 163   2.0000      -0.630503       -17.1568
 164   2.0000      -0.624259       -16.9869
 165   2.0000      -0.614336       -16.7169
 166   2.0000      -0.612939       -16.6789
 167   2.0000      -0.607831       -16.5399
 168   2.0000      -0.605165       -16.4674
 169   2.0000      -0.597305       -16.2535
 170   2.0000      -0.593470       -16.1491
 171   2.0000      -0.588690       -16.0191
 172   2.0000      -0.585620       -15.9355
 173   2.0000      -0.584001       -15.8915
 174   2.0000      -0.582240       -15.8436
 175   2.0000      -0.580563       -15.7979
 176   2.0000      -0.576126       -15.6772
 177   2.0000      -0.573607       -15.6086
 178   2.0000      -0.569439       -15.4952
 179   2.0000      -0.568220       -15.4621
 180   2.0000      -0.565972       -15.4009
 181   2.0000      -0.559676       -15.2296
 182   2.0000      -0.556178       -15.1344
 183   2.0000      -0.550011       -14.9666
 184   2.0000      -0.544437       -14.8149
 185   2.0000      -0.542907       -14.7733
 186   2.0000      -0.542616       -14.7653
 187   2.0000      -0.540513       -14.7081
 188   2.0000      -0.536516       -14.5994
 189   2.0000      -0.534212       -14.5367
 190   2.0000      -0.531518       -14.4633
 191   2.0000      -0.530144       -14.4260
 192   2.0000      -0.528785       -14.3890
 193   2.0000      -0.527462       -14.3530
 194   2.0000      -0.525707       -14.3052
 195   2.0000      -0.524021       -14.2593
 196   2.0000      -0.522941       -14.2299
 197   2.0000      -0.519877       -14.1466
 198   2.0000      -0.515356       -14.0235
 199   2.0000      -0.513752       -13.9799
 200   2.0000      -0.511393       -13.9157
 201   2.0000      -0.509168       -13.8552
 202   2.0000      -0.505894       -13.7661
 203   2.0000      -0.502153       -13.6643
 204   2.0000      -0.498893       -13.5756
 205   2.0000      -0.496652       -13.5146
 206   2.0000      -0.494713       -13.4618
 207   2.0000      -0.493336       -13.4244
 208   2.0000      -0.491656       -13.3786
 209   2.0000      -0.491134       -13.3644
 210   2.0000      -0.490323       -13.3424
 211   2.0000      -0.489534       -13.3209
 212   2.0000      -0.487133       -13.2556
 213   2.0000      -0.486064       -13.2265
 214   2.0000      -0.485007       -13.1977
 215   2.0000      -0.483491       -13.1564
 216   2.0000      -0.483148       -13.1471
 217   2.0000      -0.478840       -13.0299
 218   2.0000      -0.475382       -12.9358
 219   2.0000      -0.473452       -12.8833
 220   2.0000      -0.472509       -12.8576
 221   2.0000      -0.469689       -12.7809
 222   2.0000      -0.466034       -12.6814
 223   2.0000      -0.462936       -12.5971
 224   2.0000      -0.458876       -12.4866
 225   2.0000      -0.456944       -12.4341
 226   2.0000      -0.455373       -12.3913
 227   2.0000      -0.453758       -12.3474
 228   2.0000      -0.453293       -12.3347
 229   2.0000      -0.452783       -12.3209
 230   2.0000      -0.451962       -12.2985
 231   2.0000      -0.450821       -12.2675
 232   2.0000      -0.450163       -12.2495
 233   2.0000      -0.449116       -12.2211
 234   2.0000      -0.445997       -12.1362
 235   2.0000      -0.445485       -12.1223
 236   2.0000      -0.444780       -12.1031
 237   2.0000      -0.442929       -12.0527
 238   2.0000      -0.438487       -11.9318
 239   2.0000      -0.437557       -11.9065
 240   2.0000      -0.435298       -11.8451
 241   2.0000      -0.433275       -11.7900
 242   2.0000      -0.428940       -11.6720
 243   2.0000      -0.427193       -11.6245
 244   2.0000      -0.425092       -11.5674
 245   2.0000      -0.425015       -11.5652
 246   2.0000      -0.423389       -11.5210
 247   2.0000      -0.420905       -11.4534
 248   2.0000      -0.419636       -11.4189
 249   2.0000      -0.418148       -11.3784
 250   2.0000      -0.417246       -11.3538
 251   2.0000      -0.415775       -11.3138
 252   2.0000      -0.413283       -11.2460
 253   2.0000      -0.409219       -11.1354
 254   2.0000      -0.408369       -11.1123
 255   2.0000      -0.407202       -11.0805
 256   2.0000      -0.405966       -11.0469
 257   2.0000      -0.402852       -10.9622
 258   2.0000      -0.402266       -10.9462
 259   2.0000      -0.400330       -10.8935
 260   2.0000      -0.397920       -10.8280
 261   2.0000      -0.393695       -10.7130
 262   2.0000      -0.392726       -10.6866
 263   2.0000      -0.390973       -10.6389
 264   2.0000      -0.386449       -10.5158
 265   2.0000      -0.384029       -10.4499
 266   2.0000      -0.373859       -10.1732
 267   2.0000      -0.362169        -9.8551
 268   2.0000      -0.360105        -9.7990
 269   2.0000      -0.350816        -9.5462
 270   2.0000      -0.347592        -9.4585
 271   2.0000      -0.344811        -9.3828
 272   2.0000      -0.339690        -9.2434
 273   2.0000      -0.337523        -9.1845
 274   2.0000      -0.331373        -9.0171
 275   2.0000      -0.316679        -8.6173
 276   2.0000      -0.313165        -8.5217
 277   2.0000      -0.309833        -8.4310
 278   2.0000      -0.303833        -8.2677
 279   2.0000      -0.287900        -7.8341
 280   2.0000      -0.277368        -7.5476
 281   2.0000      -0.269979        -7.3465
 282   2.0000      -0.239476        -6.5165
 283   0.0000      -0.094823        -2.5803
 284   0.0000      -0.085216        -2.3189
 285   0.0000      -0.063724        -1.7340
 286   0.0000      -0.060825        -1.6551
 287   0.0000      -0.027151        -0.7388

MULLIKEN ATOMIC CHARGES
-----------------------
   0 C :    0.139526
   1 O :   -0.170028
   2 C :   -0.028897
   3 C :   -0.090472
   4 C :    0.299068
   5 C :   -0.039677
   6 C :   -0.016620
   7 C :    0.028530
   8 C :    0.284250
   9 C :   -0.338243
  10 C :   -0.163253
  11 N :    0.122896
  12 C :   -0.145643
  13 N :    0.105107
  14 C :   -0.086441
  15 C :   -0.014854
  16 C :   -0.093570
  17 S :    0.182350
  18 C :   -0.034839
  19 C :   -0.086484
  20 C :   -0.056213
  21 C :    0.042647
  22 C :   -0.002677
  23 S :    0.186438
  24 C :   -0.107475
  25 C :    0.032114
  26 N :   -0.184431
  27 C :    0.176541
  28 C :   -0.131543
  29 C :    0.051030
  30 C :   -0.064578
  31 C :   -0.034929
  32 N :   -0.038634
  33 N :   -0.125941
  34 C :    0.141445
  35 C :   -0.022219
  36 N :   -0.043801
  37 C :   -0.022767
  38 C :   -0.061789
  39 C :    0.044701
  40 N :   -0.185521
  41 C :    0.175174
  42 C :   -0.115100
  43 C :    0.043624
  44 C :   -0.112721
  45 S :    0.181396
  46 C :   -0.115012
  47 C :   -0.038414
  48 S :    0.147160
  49 C :   -0.147545
  50 C :   -0.005120
  51 C :    0.052826
  52 C :   -0.014011
  53 C :    0.048241
  54 C :   -0.146263
  55 C :    0.231321
  56 C :   -0.336102
  57 C :   -0.153301
  58 N :    0.129967
  59 C :   -0.182708
  60 N :    0.154028
  61 C :    0.022135
  62 C :   -0.023596
  63 C :   -0.041702
  64 C :    0.300411
  65 C :   -0.094249
  66 C :   -0.003264
  67 C :    0.134041
  68 O :   -0.147152
  69 F :   -0.177194
  70 F :   -0.179337
  71 C :    0.003597
  72 C :    0.001885
  73 C :    0.022167
  74 C :   -0.006065
  75 C :    0.016871
  76 C :    0.024567
  77 H :    0.009858
  78 H :    0.016869
  79 H :    0.015688
  80 H :   -0.028913
  81 H :    0.025292
  82 H :    0.033958
  83 H :    0.024469
  84 H :    0.036594
  85 H :    0.021323
  86 H :    0.010866
  87 H :    0.016772
  88 H :    0.012490
  89 H :    0.037933
  90 H :    0.038521
  91 H :    0.034854
  92 H :    0.032495
  93 H :    0.038163
  94 H :   -0.000543
  95 H :    0.009398
  96 H :    0.008609
  97 H :    0.012934
  98 H :    0.031688
  99 H :    0.028597
 100 H :    0.027952
 101 H :    0.035378
 102 H :    0.039122
 103 H :    0.017862
 104 H :    0.019368
 105 H :    0.015760
 106 H :    0.006449
 107 H :    0.012259
 108 H :    0.012962
 109 H :    0.025521
 110 H :    0.030563
 111 H :    0.018718
 112 H :    0.028811
 113 H :    0.010145
 114 H :    0.006534
 115 H :    0.005783
 116 H :    0.012740
 117 H :    0.015539
 118 H :    0.034660
 119 H :    0.023562
 120 H :    0.027804
 121 H :    0.008933
Sum of atomic charges:    0.0000000

LOEWDIN ATOMIC CHARGES
----------------------
   0 C :    0.084002
   1 O :   -0.165720
   2 C :   -0.033101
   3 C :   -0.022113
   4 C :    0.097260
   5 C :   -0.035357
   6 C :    0.011952
   7 C :   -0.027324
   8 C :    0.084752
   9 C :   -0.153565
  10 C :   -0.014163
  11 N :   -0.064090
  12 C :   -0.007447
  13 N :   -0.068496
  14 C :   -0.125049
  15 C :    0.054636
  16 C :   -0.187194
  17 S :    0.458749
  18 C :   -0.188012
  19 C :   -0.193290
  20 C :   -0.003826
  21 C :   -0.035767
  22 C :   -0.050490
  23 S :    0.407889
  24 C :   -0.174097
  25 C :   -0.042042
  26 N :    0.030684
  27 C :    0.045759
  28 C :   -0.045874
  29 C :    0.012355
  30 C :   -0.070470
  31 C :   -0.060045
  32 N :   -0.091745
  33 N :    0.133593
  34 C :    0.037985
  35 C :   -0.062517
  36 N :   -0.092846
  37 C :   -0.059118
  38 C :   -0.067781
  39 C :    0.007165
  40 N :    0.030694
  41 C :    0.045143
  42 C :   -0.043184
  43 C :   -0.037343
  44 C :   -0.179307
  45 S :    0.413949
  46 C :   -0.185206
  47 C :   -0.189162
  48 S :    0.427641
  49 C :   -0.179646
  50 C :   -0.014025
  51 C :   -0.034058
  52 C :   -0.054131
  53 C :    0.046210
  54 C :   -0.110405
  55 C :    0.066148
  56 C :   -0.143336
  57 C :   -0.015693
  58 N :   -0.059258
  59 C :   -0.019215
  60 N :   -0.051526
  61 C :   -0.024799
  62 C :    0.008107
  63 C :   -0.033046
  64 C :    0.096988
  65 C :   -0.019501
  66 C :   -0.036188
  67 C :    0.088666
  68 O :   -0.142638
  69 F :   -0.051838
  70 F :   -0.052992
  71 C :   -0.036492
  72 C :   -0.063133
  73 C :   -0.051513
  74 C :   -0.035401
  75 C :   -0.064606
  76 C :   -0.050631
  77 H :    0.049659
  78 H :    0.046772
  79 H :    0.044507
  80 H :    0.047998
  81 H :    0.038757
  82 H :    0.034502
  83 H :    0.020217
  84 H :    0.034272
  85 H :    0.028980
  86 H :    0.020760
  87 H :    0.024595
  88 H :    0.021120
  89 H :    0.037354
  90 H :    0.036916
  91 H :    0.033348
  92 H :    0.034984
  93 H :    0.033538
  94 H :    0.020684
  95 H :    0.022976
  96 H :    0.022527
  97 H :    0.031377
  98 H :    0.041382
  99 H :    0.032699
 100 H :    0.021764
 101 H :    0.030526
 102 H :    0.048551
 103 H :    0.044607
 104 H :    0.047428
 105 H :    0.051984
 106 H :    0.026936
 107 H :    0.022922
 108 H :    0.023383
 109 H :    0.032259
 110 H :    0.026669
 111 H :    0.027377
 112 H :    0.031672
 113 H :    0.020961
 114 H :    0.026564
 115 H :    0.022751
 116 H :    0.024757
 117 H :    0.028640
 118 H :    0.028285
 119 H :    0.029683
 120 H :    0.030961
 121 H :    0.020881

  Mayer bond orders larger than 0.100000
B(  0-C ,  1-O ) :   2.1850 B(  0-C ,  2-C ) :   0.9524 B(  0-C , 14-C ) :   0.9698
B(  2-C ,  3-C ) :   1.3417 B(  2-C ,  7-C ) :   1.3447 B(  3-C ,  4-C ) :   1.3102
B(  3-C , 77-H ) :   1.0097 B(  4-C ,  5-C ) :   1.3593 B(  4-C , 70-F ) :   1.0932
B(  5-C ,  6-C ) :   1.3617 B(  5-C , 78-H ) :   0.9836 B(  6-C ,  7-C ) :   1.3585
B(  6-C , 79-H ) :   0.9778 B(  7-C ,  8-C ) :   0.9933 B(  8-C ,  9-C ) :   1.6062
B(  8-C , 14-C ) :   1.1070 B(  9-C , 10-C ) :   1.1289 B(  9-C , 12-C ) :   1.1401
B( 10-C , 11-N ) :   2.9649 B( 12-C , 13-N ) :   2.9489 B( 14-C , 15-C ) :   1.4846
B( 15-C , 16-C ) :   1.3145 B( 15-C , 80-H ) :   0.9172 B( 16-C , 17-S ) :   1.0306
B( 16-C , 20-C ) :   1.3704 B( 17-S , 18-C ) :   1.0477 B( 18-C , 19-C ) :   1.4054
B( 18-C , 25-C ) :   1.2794 B( 19-C , 20-C ) :   1.3983 B( 19-C , 23-S ) :   1.0252
B( 20-C , 21-C ) :   1.0700 B( 21-C , 22-C ) :   1.0933 B( 21-C , 81-H ) :   0.9189
B( 21-C , 82-H ) :   0.9066 B( 22-C , 83-H ) :   0.9713 B( 22-C , 84-H ) :   0.9678
B( 22-C , 85-H ) :   0.9681 B( 23-S , 24-C ) :   1.0092 B( 24-C , 25-C ) :   1.4199
B( 24-C , 30-C ) :   1.3543 B( 25-C , 26-N ) :   1.1484 B( 26-N , 27-C ) :   0.9519
B( 26-N , 29-C ) :   1.1488 B( 27-C , 28-C ) :   1.0450 B( 27-C , 86-H ) :   0.9417
B( 27-C , 87-H ) :   0.9257 B( 28-C , 74-C ) :   1.0307 B( 28-C , 76-C ) :   1.0712
B( 28-C , 88-H ) :   0.9178 B( 29-C , 30-C ) :   1.3996 B( 29-C , 39-C ) :   1.1480
B( 30-C , 31-C ) :   1.0693 B( 31-C , 32-N ) :   1.5571 B( 31-C , 37-C ) :   1.2411
B( 32-N , 33-N ) :   1.2038 B( 32-N , 36-N ) :   0.1499 B( 33-N , 34-C ) :   0.9280
B( 33-N , 36-N ) :   1.2031 B( 34-C , 35-C ) :   1.1123 B( 34-C , 89-H ) :   0.9464
B( 34-C , 90-H ) :   0.9475 B( 35-C , 91-H ) :   0.9679 B( 35-C , 92-H ) :   0.9682
B( 35-C , 93-H ) :   0.9689 B( 36-N , 37-C ) :   1.5498 B( 37-C , 38-C ) :   1.0655
B( 38-C , 39-C ) :   1.4051 B( 38-C , 44-C ) :   1.3490 B( 39-C , 40-N ) :   1.1389
B( 40-N , 41-C ) :   0.9559 B( 40-N , 43-C ) :   1.1527 B( 41-C , 42-C ) :   1.0493
B( 41-C , 94-H ) :   0.9401 B( 41-C , 95-H ) :   0.9262 B( 42-C , 71-C ) :   1.0216
B( 42-C , 73-C ) :   1.0743 B( 42-C , 96-H ) :   0.9189 B( 43-C , 44-C ) :   1.4250
B( 43-C , 47-C ) :   1.2641 B( 44-C , 45-S ) :   1.0122 B( 45-S , 46-C ) :   1.0377
B( 46-C , 47-C ) :   1.4432 B( 46-C , 50-C ) :   1.3383 B( 47-C , 48-S ) :   1.0784
B( 48-S , 49-C ) :   1.0481 B( 49-C , 50-C ) :   1.4692 B( 49-C , 53-C ) :   1.1411
B( 50-C , 51-C ) :   1.0752 B( 51-C , 52-C ) :   1.0837 B( 51-C , 97-H ) :   0.9224
B( 51-C , 98-H ) :   0.9212 B( 52-C , 99-H ) :   0.9648 B( 52-C ,100-H ) :   0.9639
B( 52-C ,101-H ) :   0.9661 B( 53-C , 54-C ) :   1.6528 B( 53-C ,102-H ) :   0.9112
B( 54-C , 55-C ) :   1.0570 B( 54-C , 67-C ) :   0.9492 B( 55-C , 56-C ) :   1.6442
B( 55-C , 61-C ) :   1.0060 B( 56-C , 57-C ) :   1.1094 B( 56-C , 59-C ) :   1.1640
B( 57-C , 58-N ) :   2.9809 B( 59-C , 60-N ) :   2.9781 B( 61-C , 62-C ) :   1.3641
B( 61-C , 66-C ) :   1.3423 B( 62-C , 63-C ) :   1.3586 B( 62-C ,103-H ) :   0.9823
B( 63-C , 64-C ) :   1.3577 B( 63-C ,104-H ) :   0.9845 B( 64-C , 65-C ) :   1.3122
B( 64-C , 69-F ) :   1.0966 B( 65-C , 66-C ) :   1.3463 B( 65-C ,105-H ) :   1.0092
B( 66-C , 67-C ) :   0.9267 B( 67-C , 68-O ) :   2.2443 B( 71-C , 72-C ) :   1.1035
B( 71-C ,106-H ) :   0.9472 B( 71-C ,107-H ) :   0.9412 B( 72-C ,108-H ) :   0.9670
B( 72-C ,109-H ) :   0.9628 B( 72-C ,110-H ) :   0.9707 B( 73-C ,111-H ) :   0.9658
B( 73-C ,112-H ) :   0.9624 B( 73-C ,113-H ) :   0.9664 B( 74-C , 75-C ) :   1.1093
B( 74-C ,114-H ) :   0.9482 B( 74-C ,115-H ) :   0.9409 B( 75-C ,116-H ) :   0.9651
B( 75-C ,117-H ) :   0.9608 B( 75-C ,118-H ) :   0.9672 B( 76-C ,119-H ) :   0.9665
B( 76-C ,120-H ) :   0.9634 B( 76-C ,121-H ) :   0.9657

-----------------------------------------------------------------------------
         ABSORPTION SPECTRUM VIA TRANSITION ELECTRIC DIPOLE MOMENTS
-----------------------------------------------------------------------------
State   Energy  Wavelength   fosc         T2         TX        TY        TZ
        (cm-1)    (nm)                  (au**2)     (au)      (au)      (au)
-----------------------------------------------------------------------------
   0   16999.8    588.2   2.295306949  44.45020   4.12027   5.23607   0.23902
   1   20090.8    497.7   0.335066267   5.49046   2.10827  -0.21043  -1.00069
   2   23846.7    419.3   0.058754189   0.81112   0.59612  -0.28189  -0.61343
   3   24560.3    407.2   0.055478712   0.74365   0.76743   0.38284   0.09023
   4   25093.6    398.5   0.056292806   0.73853   0.52586   0.67924   0.02520
   5   25295.5    395.3   0.219845033   2.86121  -0.26810   1.06456   1.28688
   6   26866.4    372.2   0.096355905   1.18071  -0.73477   0.60973   0.51870
   7   28808.9    347.1   0.083980225   0.95968   0.42722   0.72294  -0.50449
   8   29553.8    338.4   0.022841812   0.25444  -0.44857  -0.19259  -0.12704
   9   29769.7    335.9   0.021014312   0.23239   0.02960   0.02402   0.48056
  10   30267.7    330.4   0.079421387   0.86384  -0.42130  -0.56689  -0.60414
  11   30534.6    327.5   0.001702585   0.01836  -0.12975  -0.03365   0.01975
  12   31351.1    319.0   0.178175187   1.87099  -1.15097   0.01832   0.73886
  13   31745.5    315.0   0.326510001   3.38602  -0.51687  -1.45927  -0.99468
  14   32115.1    311.4   0.025480141   0.26120   0.32384  -0.18545   0.34919
  15   32498.0    307.7   0.008210980   0.08318  -0.25457  -0.01791   0.13436
  16   32816.4    304.7   0.035818576   0.35933  -0.55848  -0.17836   0.12498
  17   32869.7    304.2   0.073250450   0.73365   0.23992   0.45281   0.68634
  18   33133.6    301.8   0.034590833   0.34369  -0.33861  -0.15718   0.45203
  19   33779.3    296.0   0.228900980   2.23086   0.40166  -0.86510  -1.14941
  20   34094.4    293.3   0.080262843   0.77501  -0.77159  -0.38794  -0.17077
  21   34381.8    290.9   0.023994949   0.22976  -0.36484   0.03569   0.30883
  22   34601.3    289.0   0.021334174   0.20298   0.34981   0.10763   0.26275
  23   35123.4    284.7   0.025936231   0.24310  -0.45154   0.08419   0.17922
  24   36117.5    276.9   0.258818644   2.35914  -0.00305   1.16581   1.00001
  25   36568.9    273.5   0.176579962   1.58966  -0.95066   0.81668  -0.13761
  26   36675.6    272.7   0.810727056   7.27734  -0.29712   1.19656   2.39944
  27   37079.4    269.7   0.254482401   2.25944  -0.58191  -0.94166  -1.01691
  28   37579.9    266.1   0.093534508   0.81939  -0.67081   0.59939   0.10070
  29   37827.7    264.4   0.078026362   0.67906   0.78018   0.24282  -0.10688
  30   37949.9    263.5   0.025846046   0.22421   0.21462   0.39732  -0.14245
  31   38496.2    259.8   0.070479251   0.60272   0.63357  -0.02682  -0.44788
  32   38763.1    258.0   0.012861981   0.10924  -0.20640   0.15981   0.20272
  33   39240.0    254.8   0.108463258   0.90997   0.55734  -0.49709  -0.59350

FINAL SINGLE POINT ENERGY     -4744.658150235578

DIPOLE MOMENT
-------------
                                X             Y             Z
Electronic contribution:     16.44161     -17.78073     -21.92945
Nuclear contribution   :    -18.07379      17.27343      21.06537
                        -----------------------------------------
Total Dipole Moment    :     -1.63218      -0.50729      -0.86407
                        -----------------------------------------
Magnitude (a.u.)       :      1.91520
Magnitude (Debye)      :      4.86804

Rotational constants in cm-1:     0.001606     0.000272     0.000244
Rotational constants in MHz :    48.157021     8.166577     7.301503

                             ****ORCA TERMINATED NORMALLY****
TOTAL RUN TIME: 0 days 1 hours 17 minutes 16 seconds 64 msec
