                         Program Version 4.2.0 -  RELEASE  -
|  1> # ORCA input file
|  2> # Y15.out
|  3> ! CAM-B3LYP def2-SVP def2/J RIJCOSX Grid4 TightSCF
|  4> %maxcore 5000
|  5> %tddft
|  6>     Mode sTDDFT
|  7>     Ethresh 5.0
|  8>     maxcore 5000
|  9> end
| 10> * xyz 0 1
| 11>    C        4.80123         3.56747         0.79132
| 12>    O        6.00162         3.68995         0.61660
| 13>    C        3.85957         4.64994         1.13971
| 14>    C        4.12006         5.99036         1.33294
| 15>    C        3.05910         6.82546         1.66139
| 16>   Cl        3.34002         8.50131         1.91118
| 17>    C        1.76723         6.30556         1.78877
| 18>   Cl        0.46413         7.34795         2.19539
| 19>    C        1.51062         4.95205         1.59252
| 20>    C        2.56523         4.11666         1.26549
| 21>    C        2.62142         2.67784         1.00425
| 22>    C        1.54517         1.82764         1.05133
| 23>    C        1.57771         0.43856         0.81068
| 24>    N        1.51848        -0.69508         0.63207
| 25>    C        0.22962         2.23448         1.35868
| 26>    N       -0.86236         2.49418         1.59907
| 27>    C        3.99995         2.34666         0.70822
| 28>    C        4.46588         1.08669         0.40603
| 29>    C        5.75357         0.62728         0.12545
| 30>    S        7.20304         1.63366         0.09494
| 31>    C        8.16619         0.25257        -0.27180
| 32>    C        7.39315        -0.92019        -0.37189
| 33>    C        6.03910        -0.72518        -0.15054
| 34>    C        5.03366        -1.82429        -0.25731
| 35>    C        4.38810        -1.83632        -1.64603
| 36>    S        8.33309        -2.35516        -0.73693
| 37>    C        9.76362        -1.37871        -0.75188
| 38>    C        9.51681        -0.01309        -0.49024
| 39>    N       10.68799         0.68073        -0.53725
| 40>    C       10.77719         2.09846        -0.29499
| 41>    C       10.56125         2.42912         1.18003
| 42>    C       11.69391        -0.20698        -0.84760
| 43>    C       11.12727        -1.51868        -0.98185
| 44>    C       11.96068        -2.64338        -1.22637
| 45>    N       11.69649        -3.94870        -1.20287
| 46>    N       12.83628        -4.51966        -1.49010
| 47>    C       13.01474        -5.94710        -1.48103
| 48>    C       11.67815        -6.66602        -1.50197
| 49>    N       13.84640        -3.70681        -1.71478
| 50>    C       13.33593        -2.49514        -1.53677
| 51>    C       13.87884        -1.16284        -1.67335
| 52>    C       13.04642        -0.04549        -1.13751
| 53>    N       14.15011         0.70298        -0.84935
| 54>    C       14.44276         2.05984        -0.48294
| 55>    C       14.39412         2.26461         1.02938
| 56>    C       15.05897        -0.33107        -1.15198
| 57>    C       14.67089        -0.79547        -2.92755
| 58>    S       14.33384         0.75598        -3.72639
| 59>    C       16.01066         0.92178        -3.18828
| 60>    C       16.00416        -0.27673        -2.35737
| 61>    S       17.48758        -1.21990        -2.01176
| 62>    C       17.13388         0.30464        -5.02709
| 63>    C       17.00397         1.32766        -4.21002
| 64>    C       17.56241         2.70188        -4.29805
| 65>    C       18.42095         2.89140        -5.54093
| 66>    C       16.75325        -0.87702        -5.39497
| 67>    C       16.26827        -2.01011        -5.62267
| 68>    C       14.98629        -5.22562        -5.15606
| 69>    C       15.21723        -6.57281        -4.99651
| 70>    C       14.18935        -7.46953        -4.67027
| 71>    N       13.36756        -8.21825        -4.37895
| 72>    C       16.50626        -7.12165        -5.13656
| 73>    N       17.54967        -7.58348        -5.25471
| 74>    C       13.75673        -4.48208        -5.05060
| 75>    C       12.46410        -4.82603        -4.67575
| 76>    C       11.53894        -3.80847        -4.51943
| 77>   Cl        9.94437        -4.18256        -3.99483
| 78>    C       11.88842        -2.46872        -4.76322
| 79>   Cl       10.73430        -1.22836        -4.47224
| 80>    C       13.14818        -2.12450        -5.21165
| 81>    C       14.08758        -3.14067        -5.34406
| 82>    C       15.50348        -3.10616        -5.55256
| 83>    O       15.99821        -4.38029        -5.43553
| 84>    H        5.12152         6.37759         1.23182
| 85>    H        0.50146         4.59021         1.70005
| 86>    H        3.72002         0.30434         0.38300
| 87>    H        4.25691        -1.72304         0.50196
| 88>    H        5.54816        -2.77369        -0.09596
| 89>    H        3.87124        -0.89924        -1.83941
| 90>    H        3.66693        -2.64602        -1.70851
| 91>    H        5.14468        -1.98117        -2.41369
| 92>    H       10.00945         2.60058        -0.89274
| 93>    H       11.75658         2.43833        -0.62921
| 94>    H       11.22336         1.83827         1.80946
| 95>    H        9.53489         2.21992         1.46835
| 96>    H       10.75659         3.48339         1.35266
| 97>    H       13.58004        -6.21552        -0.58146
| 98>    H       13.62357        -6.21172        -2.34859
| 99>    H       11.12116        -6.45766        -0.59326
|100>    H       11.84680        -7.73525        -1.58626
|101>    H       11.08037        -6.33818        -2.34678
|102>    H       13.75068         2.73718        -0.99287
|103>    H       15.45252         2.27280        -0.84649
|104>    H       13.41200         2.01851         1.42169
|105>    H       14.61775         3.30029         1.26890
|106>    H       15.12949         1.62601         1.51245
|107>    H       18.15153         2.89368        -3.39474
|108>    H       16.73107         3.41447        -4.29500
|109>    H       19.25172         2.18913        -5.53875
|110>    H       18.82118         3.90131        -5.57336
|111>    H       17.83104         2.72256        -6.43903
|112>    H       17.96920        -1.21602        -3.25338
|113>    H       12.18422        -5.84991        -4.48914
|114>    H       13.39608        -1.10080        -5.43566
|115> *
|116>
|117>                          ****END OF INPUT****

CARTESIAN COORDINATES (ANGSTROEM)
---------------------------------
  C      4.801230    3.567470    0.791320
  O      6.001620    3.689950    0.616600
  C      3.859570    4.649940    1.139710
  C      4.120060    5.990360    1.332940
  C      3.059100    6.825460    1.661390
  Cl     3.340020    8.501310    1.911180
  C      1.767230    6.305560    1.788770
  Cl     0.464130    7.347950    2.195390
  C      1.510620    4.952050    1.592520
  C      2.565230    4.116660    1.265490
  C      2.621420    2.677840    1.004250
  C      1.545170    1.827640    1.051330
  C      1.577710    0.438560    0.810680
  N      1.518480   -0.695080    0.632070
  C      0.229620    2.234480    1.358680
  N     -0.862360    2.494180    1.599070
  C      3.999950    2.346660    0.708220
  C      4.465880    1.086690    0.406030
  C      5.753570    0.627280    0.125450
  S      7.203040    1.633660    0.094940
  C      8.166190    0.252570   -0.271800
  C      7.393150   -0.920190   -0.371890
  C      6.039100   -0.725180   -0.150540
  C      5.033660   -1.824290   -0.257310
  C      4.388100   -1.836320   -1.646030
  S      8.333090   -2.355160   -0.736930
  C      9.763620   -1.378710   -0.751880
  C      9.516810   -0.013090   -0.490240
  N     10.687990    0.680730   -0.537250
  C     10.777190    2.098460   -0.294990
  C     10.561250    2.429120    1.180030
  C     11.693910   -0.206980   -0.847600
  C     11.127270   -1.518680   -0.981850
  C     11.960680   -2.643380   -1.226370
  N     11.696490   -3.948700   -1.202870
  N     12.836280   -4.519660   -1.490100
  C     13.014740   -5.947100   -1.481030
  C     11.678150   -6.666020   -1.501970
  N     13.846400   -3.706810   -1.714780
  C     13.335930   -2.495140   -1.536770
  C     13.878840   -1.162840   -1.673350
  C     13.046420   -0.045490   -1.137510
  N     14.150110    0.702980   -0.849350
  C     14.442760    2.059840   -0.482940
  C     14.394120    2.264610    1.029380
  C     15.058970   -0.331070   -1.151980
  C     14.670890   -0.795470   -2.927550
  S     14.333840    0.755980   -3.726390
  C     16.010660    0.921780   -3.188280
  C     16.004160   -0.276730   -2.357370
  S     17.487580   -1.219900   -2.011760
  C     17.133880    0.304640   -5.027090
  C     17.003970    1.327660   -4.210020
  C     17.562410    2.701880   -4.298050
  C     18.420950    2.891400   -5.540930
  C     16.753250   -0.877020   -5.394970
  C     16.268270   -2.010110   -5.622670
  C     14.986290   -5.225620   -5.156060
  C     15.217230   -6.572810   -4.996510
  C     14.189350   -7.469530   -4.670270
  N     13.367560   -8.218250   -4.378950
  C     16.506260   -7.121650   -5.136560
  N     17.549670   -7.583480   -5.254710
  C     13.756730   -4.482080   -5.050600
  C     12.464100   -4.826030   -4.675750
  C     11.538940   -3.808470   -4.519430
  Cl     9.944370   -4.182560   -3.994830
  C     11.888420   -2.468720   -4.763220
  Cl    10.734300   -1.228360   -4.472240
  C     13.148180   -2.124500   -5.211650
  C     14.087580   -3.140670   -5.344060
  C     15.503480   -3.106160   -5.552560
  O     15.998210   -4.380290   -5.435530
  H      5.121520    6.377590    1.231820
  H      0.501460    4.590210    1.700050
  H      3.720020    0.304340    0.383000
  H      4.256910   -1.723040    0.501960
  H      5.548160   -2.773690   -0.095960
  H      3.871240   -0.899240   -1.839410
  H      3.666930   -2.646020   -1.708510
  H      5.144680   -1.981170   -2.413690
  H     10.009450    2.600580   -0.892740
  H     11.756580    2.438330   -0.629210
  H     11.223360    1.838270    1.809460
  H      9.534890    2.219920    1.468350
  H     10.756590    3.483390    1.352660
  H     13.580040   -6.215520   -0.581460
  H     13.623570   -6.211720   -2.348590
  H     11.121160   -6.457660   -0.593260
  H     11.846800   -7.735250   -1.586260
  H     11.080370   -6.338180   -2.346780
  H     13.750680    2.737180   -0.992870
  H     15.452520    2.272800   -0.846490
  H     13.412000    2.018510    1.421690
  H     14.617750    3.300290    1.268900
  H     15.129490    1.626010    1.512450
  H     18.151530    2.893680   -3.394740
  H     16.731070    3.414470   -4.295000
  H     19.251720    2.189130   -5.538750
  H     18.821180    3.901310   -5.573360
  H     17.831040    2.722560   -6.439030
  H     17.969200   -1.216020   -3.253380
  H     12.184220   -5.849910   -4.489140
  H     13.396080   -1.100800   -5.435660

 Total Charge           Charge          ....    0
 Multiplicity           Mult            ....    1
 Number of Electrons    NEL             ....  566
 Basis Dimension        Dim             .... 1209

ORBITAL ENERGIES
----------------

  NO   OCC          E(Eh)            E(eV)
   0   2.0000    -101.606889     -2764.8640
   1   2.0000    -101.604851     -2764.8085
   2   2.0000    -101.602433     -2764.7428
   3   2.0000    -101.601158     -2764.7081
   4   2.0000     -88.976485     -2421.1733
   5   2.0000     -88.971323     -2421.0328
   6   2.0000     -88.959717     -2420.7170
   7   2.0000     -88.915523     -2419.5144
   8   2.0000     -19.309113      -525.4277
   9   2.0000     -19.230785      -523.2963
  10   2.0000     -14.525927      -395.2706
  11   2.0000     -14.495556      -394.4441
  12   2.0000     -14.490362      -394.3028
  13   2.0000     -14.443929      -393.0393
  14   2.0000     -14.440983      -392.9591
  15   2.0000     -14.426626      -392.5685
  16   2.0000     -14.419424      -392.3725
  17   2.0000     -14.414293      -392.2329
  18   2.0000     -14.399478      -391.8297
  19   2.0000     -10.394510      -282.8490
  20   2.0000     -10.379422      -282.4384
  21   2.0000     -10.369060      -282.1565
  22   2.0000     -10.360434      -281.9217
  23   2.0000     -10.359745      -281.9030
  24   2.0000     -10.359300      -281.8909
  25   2.0000     -10.355042      -281.7750
  26   2.0000     -10.354235      -281.7531
  27   2.0000     -10.349833      -281.6333
  28   2.0000     -10.348800      -281.6052
  29   2.0000     -10.343462      -281.4599
  30   2.0000     -10.343283      -281.4550
  31   2.0000     -10.338637      -281.3286
  32   2.0000     -10.336061      -281.2585
  33   2.0000     -10.334739      -281.2226
  34   2.0000     -10.333564      -281.1906
  35   2.0000     -10.329746      -281.0867
  36   2.0000     -10.329680      -281.0849
  37   2.0000     -10.327287      -281.0198
  38   2.0000     -10.325329      -280.9665
  39   2.0000     -10.324171      -280.9350
  40   2.0000     -10.322458      -280.8884
  41   2.0000     -10.321134      -280.8523
  42   2.0000     -10.319768      -280.8152
  43   2.0000     -10.319119      -280.7975
  44   2.0000     -10.317680      -280.7584
  45   2.0000     -10.317151      -280.7440
  46   2.0000     -10.317003      -280.7399
  47   2.0000     -10.316775      -280.7337
  48   2.0000     -10.316437      -280.7245
  49   2.0000     -10.315768      -280.7063
  50   2.0000     -10.315401      -280.6963
  51   2.0000     -10.314367      -280.6682
  52   2.0000     -10.314359      -280.6680
  53   2.0000     -10.314042      -280.6594
  54   2.0000     -10.312993      -280.6308
  55   2.0000     -10.312989      -280.6307
  56   2.0000     -10.312762      -280.6245
  57   2.0000     -10.310260      -280.5564
  58   2.0000     -10.309716      -280.5416
  59   2.0000     -10.307680      -280.4862
  60   2.0000     -10.307368      -280.4777
  61   2.0000     -10.306253      -280.4474
  62   2.0000     -10.306069      -280.4424
  63   2.0000     -10.305596      -280.4295
  64   2.0000     -10.303697      -280.3778
  65   2.0000     -10.302595      -280.3479
  66   2.0000     -10.289146      -279.9819
  67   2.0000     -10.288187      -279.9558
  68   2.0000     -10.287297      -279.9316
  69   2.0000     -10.283773      -279.8357
  70   2.0000     -10.268885      -279.4306
  71   2.0000     -10.266597      -279.3683
  72   2.0000     -10.258129      -279.1379
  73   2.0000      -9.561498      -260.1816
  74   2.0000      -9.559854      -260.1369
  75   2.0000      -9.557434      -260.0710
  76   2.0000      -9.555666      -260.0229
  77   2.0000      -8.068892      -219.5657
  78   2.0000      -8.065578      -219.4755
  79   2.0000      -8.053839      -219.1561
  80   2.0000      -8.011150      -217.9945
  81   2.0000      -7.331787      -199.5081
  82   2.0000      -7.330244      -199.4661
  83   2.0000      -7.327857      -199.4011
  84   2.0000      -7.326048      -199.3519
  85   2.0000      -7.321814      -199.2367
  86   2.0000      -7.321144      -199.2185
  87   2.0000      -7.320114      -199.1904
  88   2.0000      -7.319387      -199.1707
  89   2.0000      -7.317670      -199.1239
  90   2.0000      -7.316956      -199.1045
  91   2.0000      -7.315870      -199.0749
  92   2.0000      -7.315319      -199.0599
  93   2.0000      -6.038716      -164.3218
  94   2.0000      -6.035444      -164.2328
  95   2.0000      -6.034090      -164.1959
  96   2.0000      -6.031561      -164.1271
  97   2.0000      -6.030508      -164.0985
  98   2.0000      -6.026379      -163.9861
  99   2.0000      -6.023259      -163.9012
 100   2.0000      -6.019629      -163.8024
 101   2.0000      -6.015363      -163.6863
 102   2.0000      -5.981586      -162.7672
 103   2.0000      -5.977453      -162.6548
 104   2.0000      -5.970878      -162.4758
 105   2.0000      -1.232135       -33.5281
 106   2.0000      -1.211821       -32.9753
 107   2.0000      -1.145993       -31.1841
 108   2.0000      -1.136090       -30.9146
 109   2.0000      -1.118966       -30.4486
 110   2.0000      -1.035813       -28.1859
 111   2.0000      -1.029317       -28.0091
 112   2.0000      -1.023151       -27.8413
 113   2.0000      -1.020649       -27.7733
 114   2.0000      -1.016229       -27.6530
 115   2.0000      -1.006077       -27.3767
 116   2.0000      -1.001876       -27.2624
 117   2.0000      -0.996385       -27.1130
 118   2.0000      -0.988061       -26.8865
 119   2.0000      -0.982890       -26.7458
 120   2.0000      -0.979499       -26.6535
 121   2.0000      -0.966446       -26.2983
 122   2.0000      -0.965693       -26.2778
 123   2.0000      -0.963695       -26.2235
 124   2.0000      -0.963459       -26.2171
 125   2.0000      -0.948718       -25.8159
 126   2.0000      -0.939513       -25.5655
 127   2.0000      -0.938522       -25.5385
 128   2.0000      -0.932528       -25.3754
 129   2.0000      -0.917980       -24.9795
 130   2.0000      -0.905920       -24.6513
 131   2.0000      -0.905457       -24.6387
 132   2.0000      -0.897641       -24.4261
 133   2.0000      -0.882635       -24.0177
 134   2.0000      -0.876857       -23.8605
 135   2.0000      -0.869140       -23.6505
 136   2.0000      -0.868528       -23.6338
 137   2.0000      -0.865384       -23.5483
 138   2.0000      -0.864009       -23.5109
 139   2.0000      -0.856312       -23.3014
 140   2.0000      -0.847728       -23.0679
 141   2.0000      -0.844739       -22.9865
 142   2.0000      -0.831428       -22.6243
 143   2.0000      -0.825321       -22.4581
 144   2.0000      -0.813464       -22.1355
 145   2.0000      -0.808940       -22.0124
 146   2.0000      -0.802169       -21.8281
 147   2.0000      -0.776445       -21.1281
 148   2.0000      -0.772698       -21.0262
 149   2.0000      -0.770949       -20.9786
 150   2.0000      -0.764170       -20.7941
 151   2.0000      -0.761507       -20.7217
 152   2.0000      -0.749538       -20.3960
 153   2.0000      -0.745690       -20.2912
 154   2.0000      -0.738388       -20.0926
 155   2.0000      -0.727682       -19.8012
 156   2.0000      -0.724934       -19.7264
 157   2.0000      -0.724134       -19.7047
 158   2.0000      -0.719753       -19.5855
 159   2.0000      -0.708845       -19.2887
 160   2.0000      -0.701922       -19.1003
 161   2.0000      -0.698692       -19.0124
 162   2.0000      -0.696492       -18.9525
 163   2.0000      -0.687828       -18.7168
 164   2.0000      -0.675097       -18.3703
 165   2.0000      -0.671113       -18.2619
 166   2.0000      -0.664949       -18.0942
 167   2.0000      -0.658682       -17.9237
 168   2.0000      -0.652393       -17.7525
 169   2.0000      -0.651287       -17.7224
 170   2.0000      -0.641355       -17.4522
 171   2.0000      -0.631082       -17.1726
 172   2.0000      -0.628071       -17.0907
 173   2.0000      -0.626178       -17.0392
 174   2.0000      -0.616718       -16.7818
 175   2.0000      -0.614350       -16.7173
 176   2.0000      -0.610206       -16.6045
 177   2.0000      -0.605739       -16.4830
 178   2.0000      -0.599739       -16.3197
 179   2.0000      -0.599069       -16.3015
 180   2.0000      -0.596708       -16.2373
 181   2.0000      -0.592330       -16.1181
 182   2.0000      -0.587386       -15.9836
 183   2.0000      -0.585305       -15.9270
 184   2.0000      -0.581398       -15.8206
 185   2.0000      -0.579862       -15.7789
 186   2.0000      -0.571427       -15.5493
 187   2.0000      -0.566528       -15.4160
 188   2.0000      -0.563142       -15.3239
 189   2.0000      -0.556389       -15.1401
 190   2.0000      -0.555817       -15.1246
 191   2.0000      -0.554855       -15.0984
 192   2.0000      -0.552551       -15.0357
 193   2.0000      -0.550749       -14.9867
 194   2.0000      -0.549612       -14.9557
 195   2.0000      -0.548992       -14.9388
 196   2.0000      -0.547383       -14.8950
 197   2.0000      -0.544307       -14.8113
 198   2.0000      -0.540385       -14.7046
 199   2.0000      -0.535497       -14.5716
 200   2.0000      -0.532486       -14.4897
 201   2.0000      -0.529689       -14.4136
 202   2.0000      -0.525714       -14.3054
 203   2.0000      -0.523226       -14.2377
 204   2.0000      -0.520242       -14.1565
 205   2.0000      -0.515838       -14.0367
 206   2.0000      -0.513597       -13.9757
 207   2.0000      -0.511061       -13.9067
 208   2.0000      -0.507928       -13.8214
 209   2.0000      -0.502642       -13.6776
 210   2.0000      -0.498596       -13.5675
 211   2.0000      -0.495485       -13.4828
 212   2.0000      -0.494125       -13.4458
 213   2.0000      -0.490756       -13.3542
 214   2.0000      -0.490038       -13.3346
 215   2.0000      -0.486861       -13.2482
 216   2.0000      -0.485461       -13.2101
 217   2.0000      -0.483252       -13.1500
 218   2.0000      -0.481690       -13.1075
 219   2.0000      -0.480207       -13.0671
 220   2.0000      -0.479665       -13.0523
 221   2.0000      -0.474259       -12.9052
 222   2.0000      -0.473091       -12.8735
 223   2.0000      -0.469799       -12.7839
 224   2.0000      -0.468823       -12.7573
 225   2.0000      -0.463108       -12.6018
 226   2.0000      -0.458928       -12.4881
 227   2.0000      -0.458373       -12.4730
 228   2.0000      -0.457992       -12.4626
 229   2.0000      -0.455445       -12.3933
 230   2.0000      -0.453190       -12.3319
 231   2.0000      -0.449334       -12.2270
 232   2.0000      -0.448092       -12.1932
 233   2.0000      -0.447153       -12.1676
 234   2.0000      -0.446437       -12.1482
 235   2.0000      -0.444243       -12.0885
 236   2.0000      -0.443856       -12.0779
 237   2.0000      -0.441053       -12.0017
 238   2.0000      -0.438635       -11.9359
 239   2.0000      -0.437767       -11.9122
 240   2.0000      -0.436676       -11.8826
 241   2.0000      -0.435539       -11.8516
 242   2.0000      -0.433457       -11.7950
 243   2.0000      -0.433005       -11.7827
 244   2.0000      -0.432452       -11.7676
 245   2.0000      -0.431796       -11.7498
 246   2.0000      -0.429996       -11.7008
 247   2.0000      -0.427176       -11.6241
 248   2.0000      -0.426038       -11.5931
 249   2.0000      -0.422537       -11.4978
 250   2.0000      -0.421556       -11.4711
 251   2.0000      -0.420164       -11.4332
 252   2.0000      -0.417996       -11.3743
 253   2.0000      -0.413865       -11.2618
 254   2.0000      -0.411808       -11.2059
 255   2.0000      -0.410584       -11.1725
 256   2.0000      -0.405846       -11.0436
 257   2.0000      -0.404476       -11.0063
 258   2.0000      -0.401029       -10.9126
 259   2.0000      -0.392660       -10.6848
 260   2.0000      -0.391327       -10.6486
 261   2.0000      -0.385508       -10.4902
 262   2.0000      -0.384162       -10.4536
 263   2.0000      -0.380188       -10.3454
 264   2.0000      -0.375500       -10.2179
 265   2.0000      -0.370429       -10.0799
 266   2.0000      -0.369134       -10.0446
 267   2.0000      -0.361323        -9.8321
 268   2.0000      -0.348621        -9.4865
 269   2.0000      -0.346106        -9.4180
 270   2.0000      -0.345081        -9.3901
 271   2.0000      -0.341226        -9.2852
 272   2.0000      -0.339305        -9.2329
 273   2.0000      -0.329873        -8.9763
 274   2.0000      -0.318473        -8.6661
 275   2.0000      -0.317115        -8.6291
 276   2.0000      -0.315092        -8.5741
 277   2.0000      -0.307279        -8.3615
 278   2.0000      -0.288864        -7.8604
 279   2.0000      -0.287543        -7.8244
 280   2.0000      -0.281383        -7.6568
 281   2.0000      -0.259288        -7.0556
 282   2.0000      -0.236223        -6.4280
 283   0.0000      -0.110254        -3.0002
 284   0.0000      -0.091178        -2.4811
 285   0.0000      -0.076468        -2.0808
 286   0.0000      -0.062624        -1.7041
 287   0.0000      -0.046961        -1.2779

MULLIKEN ATOMIC CHARGES
-----------------------
   0 C :    0.161557
   1 O :   -0.181712
   2 C :   -0.009116
   3 C :   -0.034782
   4 C :    0.061461
   5 Cl:   -0.044462
   6 C :    0.047722
   7 Cl:   -0.035147
   8 C :   -0.016402
   9 C :    0.027442
  10 C :    0.320751
  11 C :   -0.352835
  12 C :   -0.181714
  13 N :    0.142720
  14 C :   -0.189921
  15 N :    0.157827
  16 C :   -0.102286
  17 C :   -0.031520
  18 C :   -0.086298
  19 S :    0.186036
  20 C :   -0.035609
  21 C :   -0.078048
  22 C :   -0.071667
  23 C :    0.051044
  24 C :    0.031345
  25 S :    0.189990
  26 C :   -0.098485
  27 C :    0.041174
  28 N :   -0.148097
  29 C :    0.111701
  30 C :   -0.011652
  31 C :    0.066116
  32 C :   -0.042420
  33 C :   -0.051100
  34 N :   -0.017574
  35 N :   -0.123740
  36 C :    0.138327
  37 C :    0.006475
  38 N :   -0.019078
  39 C :    0.045609
  40 C :   -0.167616
  41 C :    0.001116
  42 N :   -0.130311
  43 C :    0.097142
  44 C :    0.020671
  45 C :    0.006883
  46 C :   -0.114375
  47 S :    0.112817
  48 C :   -0.226122
  49 C :   -0.100501
  50 S :    0.061521
  51 C :   -0.184609
  52 C :   -0.111064
  53 C :    0.098851
  54 C :    0.018715
  55 C :    0.213996
  56 C :   -0.021205
  57 C :    0.327887
  58 C :   -0.372039
  59 C :   -0.190606
  60 N :    0.142692
  61 C :   -0.162526
  62 N :    0.167691
  63 C :   -0.010533
  64 C :   -0.041563
  65 C :    0.049980
  66 Cl:   -0.029645
  67 C :    0.051704
  68 Cl:   -0.046057
  69 C :   -0.009445
  70 C :    0.090959
  71 C :    0.116008
  72 O :   -0.188721
  73 H :   -0.004284
  74 H :    0.001803
  75 H :   -0.016132
  76 H :    0.039008
  77 H :    0.014657
  78 H :    0.014364
  79 H :    0.036798
  80 H :    0.016536
  81 H :    0.039990
  82 H :    0.001941
  83 H :    0.040273
  84 H :    0.035025
  85 H :    0.032475
  86 H :    0.040267
  87 H :    0.025845
  88 H :    0.027348
  89 H :    0.038764
  90 H :    0.011720
  91 H :    0.034200
  92 H :    0.044940
  93 H :   -0.001796
  94 H :    0.025704
  95 H :    0.038697
  96 H :    0.025875
  97 H :    0.018923
  98 H :    0.024567
  99 H :    0.016901
 100 H :    0.021204
 101 H :    0.062506
 102 H :    0.008824
 103 H :   -0.012269
Sum of atomic charges:   -0.0000000

LOEWDIN ATOMIC CHARGES
----------------------
   0 C :    0.083579
   1 O :   -0.170191
   2 C :   -0.042918
   3 C :   -0.001511
   4 C :   -0.134979
   5 Cl:    0.157419
   6 C :   -0.130831
   7 Cl:    0.162069
   8 C :   -0.011650
   9 C :   -0.012903
  10 C :    0.077181
  11 C :   -0.143995
  12 C :   -0.017813
  13 N :   -0.055223
  14 C :   -0.021031
  15 N :   -0.049323
  16 C :   -0.121124
  17 C :    0.056019
  18 C :   -0.186111
  19 S :    0.484367
  20 C :   -0.198736
  21 C :   -0.189406
  22 C :   -0.010622
  23 C :   -0.030634
  24 C :   -0.041435
  25 S :    0.418442
  26 C :   -0.171512
  27 C :   -0.029722
  28 N :    0.055828
  29 C :    0.042784
  30 C :   -0.060594
  31 C :   -0.014683
  32 C :   -0.050158
  33 C :   -0.077560
  34 N :   -0.072018
  35 N :    0.134723
  36 C :    0.036120
  37 C :   -0.057195
  38 N :   -0.071110
  39 C :   -0.051276
  40 C :   -0.074671
  41 C :    0.021544
  42 N :    0.057945
  43 C :    0.028586
  44 C :   -0.058699
  45 C :   -0.055705
  46 C :   -0.185101
  47 S :    0.375725
  48 C :   -0.200495
  49 C :   -0.191684
  50 S :    0.214602
  51 C :   -0.036336
  52 C :   -0.033178
  53 C :   -0.029577
  54 C :   -0.052013
  55 C :   -0.023961
  56 C :   -0.021924
  57 C :    0.137406
  58 C :   -0.180023
  59 C :   -0.020994
  60 N :   -0.065589
  61 C :   -0.025732
  62 N :   -0.046065
  63 C :   -0.042858
  64 C :   -0.010040
  65 C :   -0.143471
  66 Cl:    0.169078
  67 C :   -0.129192
  68 Cl:    0.159704
  69 C :   -0.014975
  70 C :   -0.001173
  71 C :    0.037794
  72 O :    0.010135
  73 H :    0.044264
  74 H :    0.044859
  75 H :    0.047888
  76 H :    0.038188
  77 H :    0.031970
  78 H :    0.024108
  79 H :    0.034077
  80 H :    0.025933
  81 H :    0.033635
  82 H :    0.026696
  83 H :    0.027764
  84 H :    0.023041
  85 H :    0.035323
  86 H :    0.036436
  87 H :    0.030186
  88 H :    0.029986
  89 H :    0.037582
  90 H :    0.018226
  91 H :    0.021958
  92 H :    0.038251
  93 H :    0.021619
  94 H :    0.032489
  95 H :    0.035741
  96 H :    0.041263
  97 H :    0.036707
  98 H :    0.029648
  99 H :    0.027632
 100 H :    0.028545
 101 H :   -0.028502
 102 H :    0.044633
 103 H :    0.028522

  Mayer bond orders larger than 0.100000
B(  0-C ,  1-O ) :   2.1315 B(  0-C ,  2-C ) :   0.9568 B(  0-C , 16-C ) :   0.9818
B(  2-C ,  3-C ) :   1.3449 B(  2-C ,  9-C ) :   1.3334 B(  3-C ,  4-C ) :   1.3359
B(  3-C , 73-H ) :   1.0176 B(  4-C ,  5-Cl) :   1.0438 B(  4-C ,  6-C ) :   1.4147
B(  6-C ,  7-Cl) :   1.0760 B(  6-C ,  8-C ) :   1.3518 B(  8-C ,  9-C ) :   1.3483
B(  8-C , 74-H ) :   0.9859 B(  9-C , 10-C ) :   0.9819 B( 10-C , 11-C ) :   1.6160
B( 10-C , 16-C ) :   1.0994 B( 11-C , 12-C ) :   1.1529 B( 11-C , 14-C ) :   1.1449
B( 12-C , 13-N ) :   2.9561 B( 14-C , 15-N ) :   2.9700 B( 16-C , 17-C ) :   1.4723
B( 17-C , 18-C ) :   1.3128 B( 17-C , 75-H ) :   0.9286 B( 18-C , 19-S ) :   1.0433
B( 18-C , 22-C ) :   1.3573 B( 19-S , 20-C ) :   1.0262 B( 20-C , 21-C ) :   1.3889
B( 20-C , 27-C ) :   1.2958 B( 21-C , 22-C ) :   1.4305 B( 21-C , 25-S ) :   1.0218
B( 22-C , 23-C ) :   1.0771 B( 23-C , 24-C ) :   1.1034 B( 23-C , 76-H ) :   0.9041
B( 23-C , 77-H ) :   0.9218 B( 24-C , 78-H ) :   0.9698 B( 24-C , 79-H ) :   0.9668
B( 24-C , 80-H ) :   0.9664 B( 25-S , 26-C ) :   1.0063 B( 26-C , 27-C ) :   1.3641
B( 26-C , 32-C ) :   1.4244 B( 27-C , 28-N ) :   1.1810 B( 27-C , 31-C ) :   0.1036
B( 28-N , 29-C ) :   0.9518 B( 28-N , 31-C ) :   1.1633 B( 29-C , 30-C ) :   1.1045
B( 29-C , 81-H ) :   0.9427 B( 29-C , 82-H ) :   0.9480 B( 30-C , 83-H ) :   0.9611
B( 30-C , 84-H ) :   0.9558 B( 30-C , 85-H ) :   0.9657 B( 31-C , 32-C ) :   1.3384
B( 31-C , 41-C ) :   1.1946 B( 32-C , 33-C ) :   1.0360 B( 33-C , 34-N ) :   1.5608
B( 33-C , 39-C ) :   1.2718 B( 34-N , 35-N ) :   1.2337 B( 34-N , 38-N ) :   0.1289
B( 35-N , 36-C ) :   0.9192 B( 35-N , 38-N ) :   1.1873 B( 36-C , 37-C ) :   1.1178
B( 36-C , 86-H ) :   0.9422 B( 36-C , 87-H ) :   0.9469 B( 37-C , 88-H ) :   0.9572
B( 37-C , 89-H ) :   0.9592 B( 37-C , 90-H ) :   0.9587 B( 38-N , 39-C ) :   1.6079
B( 39-C , 40-C ) :   0.9712 B( 40-C , 41-C ) :   1.0548 B( 40-C , 45-C ) :   1.0120
B( 40-C , 46-C ) :   0.9417 B( 41-C , 42-N ) :   1.2871 B( 42-N , 43-C ) :   0.9345
B( 42-N , 45-C ) :   1.1514 B( 43-C , 44-C ) :   1.0972 B( 43-C , 91-H ) :   0.9438
B( 43-C , 92-H ) :   0.9363 B( 44-C , 93-H ) :   0.9671 B( 44-C , 94-H ) :   0.9637
B( 44-C , 95-H ) :   0.9630 B( 45-C , 46-C ) :   0.2356 B( 45-C , 49-C ) :   0.9279
B( 46-C , 47-S ) :   1.1633 B( 46-C , 48-C ) :   0.1387 B( 46-C , 49-C ) :   0.9962
B( 47-S , 48-C ) :   1.1493 B( 48-C , 49-C ) :   1.1429 B( 48-C , 51-C ) :   0.1470
B( 48-C , 52-C ) :   0.9771 B( 49-C , 50-S ) :   1.0494 B( 50-S ,101-H ) :   0.9389
B( 51-C , 52-C ) :   1.8157 B( 51-C , 55-C ) :   1.3387 B( 51-C , 56-C ) :  -0.1385
B( 51-C , 71-C ) :   0.1684 B( 52-C , 53-C ) :   1.0016 B( 52-C , 56-C ) :   0.1376
B( 53-C , 54-C ) :   1.1412 B( 53-C , 96-H ) :   0.9105 B( 53-C , 97-H ) :   0.9191
B( 54-C , 98-H ) :   0.9622 B( 54-C , 99-H ) :   0.9625 B( 54-C ,100-H ) :   0.9647
B( 55-C , 56-C ) :   1.6314 B( 56-C , 71-C ) :   1.4388 B( 57-C , 58-C ) :   1.5801
B( 57-C , 63-C ) :   1.0273 B( 57-C , 72-O ) :   1.2216 B( 58-C , 59-C ) :   1.1874
B( 58-C , 61-C ) :   1.1155 B( 59-C , 60-N ) :   2.9475 B( 61-C , 62-N ) :   3.0474
B( 63-C , 64-C ) :   1.3004 B( 63-C , 70-C ) :   1.3041 B( 64-C , 65-C ) :   1.3900
B( 64-C ,102-H ) :   0.9905 B( 65-C , 66-Cl) :   1.0636 B( 65-C , 67-C ) :   1.3792
B( 67-C , 68-Cl) :   1.0499 B( 67-C , 69-C ) :   1.4056 B( 69-C , 70-C ) :   1.3016
B( 69-C ,103-H ) :   0.9823 B( 70-C , 71-C ) :   1.1179 B( 71-C , 72-O ) :   1.0581

-----------------------------------------------------------------------------
         ABSORPTION SPECTRUM VIA TRANSITION ELECTRIC DIPOLE MOMENTS
-----------------------------------------------------------------------------
State   Energy  Wavelength   fosc         T2         TX        TY        TZ
        (cm-1)    (nm)                  (au**2)     (au)      (au)      (au)
-----------------------------------------------------------------------------
   0   11741.5    851.7   0.709489741  19.89283   3.62031  -1.64894  -2.01672
   1   16002.7    624.9   0.138028020   2.83955  -1.50734  -0.75034  -0.06695
   2   16743.1    597.3   0.560803993  11.02684  -3.14162   0.85029   0.65884
   3   19955.7    501.1   0.102551650   1.69181   1.21042  -0.47604  -0.00853
   4   20618.7    485.0   0.131487588   2.09942  -1.41706   0.28918   0.08787
   5   21638.8    462.1   0.048810897   0.74261  -0.19370   0.65454   0.52599
   6   22222.1    450.0   0.037784957   0.55977  -0.68081   0.25437   0.17767
   7   22549.7    443.5   0.078170329   1.14124   0.96832   0.39399  -0.21992
   8   23525.1    425.1   0.184324198   2.57945  -1.52190  -0.44046   0.26321
   9   23955.7    417.4   0.463811021   6.37393  -0.11740   2.48671  -0.42002
  10   25158.3    397.5   0.148687865   1.94568  -1.13578   0.66282   0.46515
  11   25880.3    386.4   0.083259906   1.05911  -0.19118   1.00723   0.08973
  12   26539.7    376.8   0.022333005   0.27703   0.50790  -0.03014  -0.13474
  13   26756.3    373.7   0.057770645   0.71082   0.24959   0.75207  -0.28795
  14   26932.8    371.3   0.058303164   0.71267  -0.08588  -0.83872  -0.04285
  15   27499.5    363.6   0.035224951   0.42170  -0.27010   0.55146  -0.21127
  16   27922.6    358.1   0.185887792   2.19164   0.76436   1.26777   0.01282
  17   28777.0    347.5   0.031222055   0.35718  -0.02936  -0.59637   0.02579
  18   29422.5    339.9   0.027230298   0.30468  -0.15071  -0.52317  -0.09092
  19   29563.9    338.3   0.005976924   0.06656   0.10771  -0.15611  -0.17489
  20   29635.1    337.4   0.000931195   0.01034  -0.07944   0.04017  -0.04919
  21   30246.8    330.6   0.231664716   2.52148  -0.05751   1.57069   0.22605
  22   30478.1    328.1   0.012046752   0.13012   0.33813   0.12350   0.02317
  23   30710.5    325.6   0.001174294   0.01259   0.07497   0.06026   0.05776
  24   31019.2    322.4   0.175301990   1.86051  -0.32756  -1.30763   0.20810
  25   31285.7    319.6   0.014616671   0.15381  -0.36615   0.11517   0.08049
  26   31646.9    316.0   0.062763141   0.65290  -0.09178   0.78643   0.16127
  27   31866.5    313.8   0.106658904   1.10189  -0.71624  -0.76354  -0.07680
  28   32062.9    311.9   0.002713458   0.02786  -0.12750  -0.09994   0.04022
  29   32410.8    308.5   0.139612382   1.41811  -1.18697   0.02283  -0.09326
  30   32666.7    306.1   0.050831180   0.51227   0.20761  -0.63791   0.24949
  31   32974.4    303.3   0.121622728   1.21426   0.02936   1.09603  -0.11010
  32   33260.7    300.7   0.026420611   0.26151  -0.10256  -0.36269  -0.34561
  33   33853.4    295.4   0.005579708   0.05426   0.08937   0.09739   0.19181
  34   34177.3    292.6   0.282741809   2.72350  -0.19436   1.62568  -0.20708
  35   34497.1    289.9   0.040264709   0.38425  -0.46400  -0.16891  -0.37473
  36   34723.0    288.0   0.065368879   0.61977   0.57220   0.53073   0.10333
  37   35136.5    284.6   0.307424096   2.88042  -1.35425  -0.98320  -0.28238
  38   35183.0    284.2   0.168427829   1.57600   0.82153   0.94853   0.03726
  39   35660.5    280.4   0.147674241   1.36331   0.99197   0.49912  -0.36081
  40   35757.8    279.7   0.008038417   0.07401  -0.01584   0.07006  -0.26239
  41   35974.7    278.0   0.010220658   0.09353  -0.00295   0.30469  -0.02618
  42   36123.0    276.8   0.003816476   0.03478  -0.16912   0.07370  -0.02732
  43   36637.4    272.9   0.023549369   0.21161  -0.42288  -0.18065   0.01211
  44   37017.1    270.1   0.044812895   0.39854   0.01781  -0.52422  -0.35132
  45   37226.0    268.6   0.061734109   0.54595   0.40326  -0.61829   0.03244
  46   37402.5    267.4   0.306687531   2.69942  -1.56043   0.20737   0.47060
  47   37583.2    266.1   0.077187531   0.67613  -0.79640   0.09741   0.17996
  48   37756.8    264.9   0.014479512   0.12625   0.31340   0.10197  -0.13279
  49   38326.6    260.9   0.160988744   1.38284   0.77882   0.76570   0.43586
  50   38696.2    258.4   0.028268237   0.24050  -0.00512   0.43889   0.21873
  51   38984.0    256.5   0.024537416   0.20721   0.27384   0.33182   0.14873
  52   39139.0    255.5   0.050999564   0.42898   0.32605  -0.52784  -0.20987
  53   39244.1    254.8   0.004793470   0.04021  -0.00137  -0.17699  -0.09426
  54   39807.9    251.2   0.042482945   0.35133   0.30073   0.50680   0.06363
  55   39973.7    250.2   0.050051122   0.41221  -0.19624   0.59954   0.11936
  56   40202.1    248.7   0.002071682   0.01696   0.03600   0.07551   0.09983

FINAL SINGLE POINT ENERGY     -6148.266383061433

DIPOLE MOMENT
-------------
                                X             Y             Z
Electronic contribution:    -58.84493      13.94686      -3.16745
Nuclear contribution   :     59.53947      -9.36795       3.86053
                        -----------------------------------------
Total Dipole Moment    :      0.69454       4.57892       0.69308
                        -----------------------------------------
Magnitude (a.u.)       :      4.68287
Magnitude (Debye)      :     11.90290

Rotational constants in cm-1:     0.001601     0.000363     0.000315
Rotational constants in MHz :    47.996926    10.894608     9.453128

                             ****ORCA TERMINATED NORMALLY****
TOTAL RUN TIME: 0 days 1 hours 21 minutes 24 seconds 410 msec
