                         Program Version 4.2.0 -  RELEASE  -
|  1> # ORCA input file
|  2> # Y15.out
|  3> ! CAM-B3LYP def2-SVP def2/J RIJCOSX Grid4 TightSCF
|  4> %maxcore 5000
|  5> %tddft
|  6>     Mode sTDDFT
|  7>     Ethresh 5.0
|  8>     maxcore 5000
|  9> end
| 10> * xyz 0 1
| 11>   C      6.505162    4.642651   -0.802168
| 12>   O      7.243091    3.734487   -1.147937
| 13>   C      6.639290    6.067343   -1.195865
| 14>   C      7.615409    6.642251   -1.993429
| 15>   C      7.557499    8.021164   -2.223660
| 16>   Cl     8.774332    8.765951   -3.203398
| 17>   C      6.515369    8.784725   -1.654790
| 18>   Cl     6.422793   10.490648   -1.940033
| 19>   C      5.534382    8.190272   -0.848995
| 20>   C      5.596946    6.815038   -0.614116
| 21>   C      4.738013    5.901858    0.183532
| 22>   C      3.616894    6.300862    0.896792
| 23>   C      2.796740    5.411201    1.659012
| 24>   N      2.110178    4.711510    2.285551
| 25>   C      3.167788    7.657061    0.947235
| 26>   N      2.778228    8.750641    1.009382
| 27>   C      5.311710    4.562858    0.068596
| 28>   C      4.823979    3.416141    0.669929
| 29>   C      5.257166    2.077318    0.745752
| 30>   S      6.752736    1.389216    0.062830
| 31>   C      6.382848   -0.145744    0.770145
| 32>   C      5.148600   -0.135492    1.461257
| 33>   C      4.511247    1.108921    1.475923
| 34>   C      3.195118    1.362325    2.158238
| 35>   C      1.996638    1.337270    1.200609
| 36>   S      4.741350   -1.692013    2.195559
| 37>   C      6.248718   -2.337395    1.592655
| 38>   C      7.008049   -1.405016    0.869942
| 39>   N      8.196804   -1.976892    0.452209
| 40>   C      8.870299   -1.395138   -0.710558
| 41>   C      8.221806   -1.767278   -2.040101
| 42>   C      8.216524   -3.299266    0.924561
| 43>   C      6.982114   -3.541153    1.622506
| 44>   C      6.711449   -4.825541    2.176552
| 45>   N      5.650097   -5.297080    2.849931
| 46>   N      5.981384   -6.558716    3.096263
| 47>   C      5.053011   -7.480674    3.735061
| 48>   C      4.230990   -8.263545    2.717885
| 49>   N      7.156815   -6.970252    2.636788
| 50>   C      7.656131   -5.875595    2.041376
| 51>   C      8.914646   -5.631790    1.419222
| 52>   C      9.220165   -4.326933    0.892575
| 53>   N     10.557943   -4.336810    0.478076
| 54>   C     11.465634   -3.246449    0.133569
| 55>   C     11.784580   -3.170437   -1.358569
| 56>   C     11.064629   -5.600364    0.708543
| 57>   C     10.075227   -6.417272    1.277447
| 58>   S     10.638409   -8.022635    1.669091
| 59>   C     12.246279   -7.575161    1.086412
| 60>   C     12.309298   -6.253066    0.593856
| 61>   S     13.886029   -5.895068    0.000681
| 62>   C     14.484084   -7.519600    0.466727
| 63>   C     13.445360   -8.309523    1.022125
| 64>   C     13.469731   -9.765899    1.383975
| 65>   C     13.838236  -10.685289    0.216615
| 66>   C     15.843192   -7.718078    0.104955
| 67>   C     16.831129   -8.582023    0.543754
| 68>   C     18.154296   -8.750553   -0.070260
| 69>   C     18.626639   -8.198570   -1.249269
| 70>   C     19.954804   -8.419460   -1.731917
| 71>   N     21.030362   -8.578646   -2.143169
| 72>   C     17.850923   -7.353286   -2.103192
| 73>   N     17.249348   -6.662856   -2.819564
| 74>   C     18.937067   -9.663221    0.801116
| 75>   C     20.238518  -10.166124    0.709718
| 76>   C     20.696529  -11.039156    1.706400
| 77>   Cl    22.311333  -11.654895    1.592335
| 78>   C     19.869164  -11.414774    2.786960
| 79>   Cl    20.434423  -12.509149    4.001134
| 80>   C     18.575454  -10.895809    2.888501
| 81>   C     18.136602  -10.034234    1.896672
| 82>   C     16.827647   -9.341028    1.822100
| 83>   O     15.990665   -9.337625    2.707184
| 84>   H      8.410926    6.036363   -2.429230
| 85>   H      4.757928    8.826003   -0.431916
| 86>   H      3.905348    3.551823    1.233860
| 87>   H      3.212173    2.330013    2.681508
| 88>   H      3.059763    0.596987    2.938593
| 89>   H      2.087740    2.119750    0.432236
| 90>   H      1.065790    1.521104    1.757266
| 91>   H      1.916552    0.367103    0.686255
| 92>   H      9.918411   -1.685232   -0.709541
| 93>   H      8.859697   -0.304224   -0.567657
| 94>   H      8.220112   -2.858620   -2.185152
| 95>   H      8.781918   -1.306483   -2.868138
| 96>   H      7.183749   -1.406633   -2.090557
| 97>   H      4.412344   -6.869812    4.385139
| 98>   H      5.656662   -8.152478    4.361359
| 99>   H      3.637189   -7.581538    2.090006
|100>   H      3.542758   -8.946359    3.239774
|101>   H      4.887423   -8.859503    2.065801
|102>   H     12.394614   -3.410227    0.701569
|103>   H     11.045395   -2.314076    0.527371
|104>   H     12.276751   -4.093350   -1.699195
|105>   H     12.468124   -2.332365   -1.563157
|106>   H     10.877780   -3.034403   -1.964910
|107>   H     12.470951  -10.039595    1.759314
|108>   H     14.172701   -9.913756    2.215028
|109>   H     13.149926  -10.547522   -0.631339
|110>   H     13.783138  -11.737198    0.537342
|111>   H     14.858662  -10.492622   -0.147427
|112>   H     16.162175   -7.012829   -0.665592
|113>   H     20.918405   -9.906672   -0.097529
|114>   H     17.927379  -11.164793    3.723483
|115> *
|116>
|117>                          ****END OF INPUT****

CARTESIAN COORDINATES (ANGSTROEM)
---------------------------------
  C      6.505162    4.642651   -0.802168
  O      7.243091    3.734487   -1.147937
  C      6.639290    6.067343   -1.195865
  C      7.615409    6.642251   -1.993429
  C      7.557499    8.021164   -2.223660
  Cl     8.774332    8.765951   -3.203398
  C      6.515369    8.784725   -1.654790
  Cl     6.422793   10.490648   -1.940033
  C      5.534382    8.190272   -0.848995
  C      5.596946    6.815038   -0.614116
  C      4.738013    5.901858    0.183532
  C      3.616894    6.300862    0.896792
  C      2.796740    5.411201    1.659012
  N      2.110178    4.711510    2.285551
  C      3.167788    7.657061    0.947235
  N      2.778228    8.750641    1.009382
  C      5.311710    4.562858    0.068596
  C      4.823979    3.416141    0.669929
  C      5.257166    2.077318    0.745752
  S      6.752736    1.389216    0.062830
  C      6.382848   -0.145744    0.770145
  C      5.148600   -0.135492    1.461257
  C      4.511247    1.108921    1.475923
  C      3.195118    1.362325    2.158238
  C      1.996638    1.337270    1.200609
  S      4.741350   -1.692013    2.195559
  C      6.248718   -2.337395    1.592655
  C      7.008049   -1.405016    0.869942
  N      8.196804   -1.976892    0.452209
  C      8.870299   -1.395138   -0.710558
  C      8.221806   -1.767278   -2.040101
  C      8.216524   -3.299266    0.924561
  C      6.982114   -3.541153    1.622506
  C      6.711449   -4.825541    2.176552
  N      5.650097   -5.297080    2.849931
  N      5.981384   -6.558716    3.096263
  C      5.053011   -7.480674    3.735061
  C      4.230990   -8.263545    2.717885
  N      7.156815   -6.970252    2.636788
  C      7.656131   -5.875595    2.041376
  C      8.914646   -5.631790    1.419222
  C      9.220165   -4.326933    0.892575
  N     10.557943   -4.336810    0.478076
  C     11.465634   -3.246449    0.133569
  C     11.784580   -3.170437   -1.358569
  C     11.064629   -5.600364    0.708543
  C     10.075227   -6.417272    1.277447
  S     10.638409   -8.022635    1.669091
  C     12.246279   -7.575161    1.086412
  C     12.309298   -6.253066    0.593856
  S     13.886029   -5.895068    0.000681
  C     14.484084   -7.519600    0.466727
  C     13.445360   -8.309523    1.022125
  C     13.469731   -9.765899    1.383975
  C     13.838236  -10.685289    0.216615
  C     15.843192   -7.718078    0.104955
  C     16.831129   -8.582023    0.543754
  C     18.154296   -8.750553   -0.070260
  C     18.626639   -8.198570   -1.249269
  C     19.954804   -8.419460   -1.731917
  N     21.030362   -8.578646   -2.143169
  C     17.850923   -7.353286   -2.103192
  N     17.249348   -6.662856   -2.819564
  C     18.937067   -9.663221    0.801116
  C     20.238518  -10.166124    0.709718
  C     20.696529  -11.039156    1.706400
  Cl    22.311333  -11.654895    1.592335
  C     19.869164  -11.414774    2.786960
  Cl    20.434423  -12.509149    4.001134
  C     18.575454  -10.895809    2.888501
  C     18.136602  -10.034234    1.896672
  C     16.827647   -9.341028    1.822100
  O     15.990665   -9.337625    2.707184
  H      8.410926    6.036363   -2.429230
  H      4.757928    8.826003   -0.431916
  H      3.905348    3.551823    1.233860
  H      3.212173    2.330013    2.681508
  H      3.059763    0.596987    2.938593
  H      2.087740    2.119750    0.432236
  H      1.065790    1.521104    1.757266
  H      1.916552    0.367103    0.686255
  H      9.918411   -1.685232   -0.709541
  H      8.859697   -0.304224   -0.567657
  H      8.220112   -2.858620   -2.185152
  H      8.781918   -1.306483   -2.868138
  H      7.183749   -1.406633   -2.090557
  H      4.412344   -6.869812    4.385139
  H      5.656662   -8.152478    4.361359
  H      3.637189   -7.581538    2.090006
  H      3.542758   -8.946359    3.239774
  H      4.887423   -8.859503    2.065801
  H     12.394614   -3.410227    0.701569
  H     11.045395   -2.314076    0.527371
  H     12.276751   -4.093350   -1.699195
  H     12.468124   -2.332365   -1.563157
  H     10.877780   -3.034403   -1.964910
  H     12.470951  -10.039595    1.759314
  H     14.172701   -9.913756    2.215028
  H     13.149926  -10.547522   -0.631339
  H     13.783138  -11.737198    0.537342
  H     14.858662  -10.492622   -0.147427
  H     16.162175   -7.012829   -0.665592
  H     20.918405   -9.906672   -0.097529
  H     17.927379  -11.164793    3.723483

 Total Charge           Charge          ....    0
 Multiplicity           Mult            ....    1
 Number of Electrons    NEL             ....  566
 Basis Dimension        Dim             .... 1209

ORBITAL ENERGIES
----------------

  NO   OCC          E(Eh)            E(eV)
   0   2.0000    -101.600820     -2764.6989
   1   2.0000    -101.600254     -2764.6835
   2   2.0000    -101.598391     -2764.6328
   3   2.0000    -101.597577     -2764.6106
   4   2.0000     -88.978062     -2421.2162
   5   2.0000     -88.973628     -2421.0955
   6   2.0000     -88.969638     -2420.9869
   7   2.0000     -88.969089     -2420.9720
   8   2.0000     -19.222878      -523.0811
   9   2.0000     -19.222587      -523.0732
  10   2.0000     -14.529805      -395.3761
  11   2.0000     -14.488246      -394.2452
  12   2.0000     -14.484021      -394.1303
  13   2.0000     -14.446020      -393.0962
  14   2.0000     -14.445377      -393.0787
  15   2.0000     -14.426673      -392.5697
  16   2.0000     -14.425184      -392.5292
  17   2.0000     -14.422198      -392.4479
  18   2.0000     -14.419211      -392.3667
  19   2.0000     -10.374295      -282.2989
  20   2.0000     -10.372834      -282.2592
  21   2.0000     -10.359140      -281.8865
  22   2.0000     -10.358558      -281.8707
  23   2.0000     -10.358395      -281.8663
  24   2.0000     -10.357679      -281.8468
  25   2.0000     -10.352662      -281.7102
  26   2.0000     -10.352154      -281.6964
  27   2.0000     -10.350381      -281.6482
  28   2.0000     -10.348997      -281.6105
  29   2.0000     -10.345642      -281.5192
  30   2.0000     -10.344402      -281.4855
  31   2.0000     -10.341982      -281.4196
  32   2.0000     -10.335243      -281.2362
  33   2.0000     -10.333106      -281.1781
  34   2.0000     -10.331301      -281.1290
  35   2.0000     -10.331247      -281.1275
  36   2.0000     -10.330078      -281.0957
  37   2.0000     -10.328922      -281.0643
  38   2.0000     -10.327479      -281.0250
  39   2.0000     -10.327279      -281.0195
  40   2.0000     -10.327084      -281.0142
  41   2.0000     -10.326080      -280.9869
  42   2.0000     -10.325367      -280.9675
  43   2.0000     -10.324793      -280.9519
  44   2.0000     -10.323592      -280.9192
  45   2.0000     -10.321879      -280.8726
  46   2.0000     -10.319586      -280.8102
  47   2.0000     -10.319476      -280.8072
  48   2.0000     -10.318179      -280.7719
  49   2.0000     -10.317120      -280.7431
  50   2.0000     -10.316920      -280.7377
  51   2.0000     -10.314485      -280.6714
  52   2.0000     -10.313722      -280.6506
  53   2.0000     -10.313026      -280.6317
  54   2.0000     -10.312024      -280.6044
  55   2.0000     -10.311529      -280.5910
  56   2.0000     -10.311215      -280.5824
  57   2.0000     -10.310390      -280.5600
  58   2.0000     -10.307882      -280.4917
  59   2.0000     -10.307287      -280.4755
  60   2.0000     -10.305672      -280.4316
  61   2.0000     -10.302671      -280.3499
  62   2.0000     -10.301984      -280.3312
  63   2.0000     -10.301208      -280.3101
  64   2.0000     -10.300161      -280.2816
  65   2.0000     -10.299456      -280.2624
  66   2.0000     -10.291868      -280.0560
  67   2.0000     -10.286927      -279.9215
  68   2.0000     -10.285525      -279.8834
  69   2.0000     -10.277628      -279.6685
  70   2.0000     -10.277593      -279.6675
  71   2.0000     -10.269211      -279.4394
  72   2.0000     -10.268557      -279.4216
  73   2.0000      -9.555476      -260.0177
  74   2.0000      -9.554898      -260.0020
  75   2.0000      -9.553082      -259.9526
  76   2.0000      -9.552228      -259.9293
  77   2.0000      -8.072233      -219.6566
  78   2.0000      -8.066143      -219.4909
  79   2.0000      -8.063164      -219.4098
  80   2.0000      -8.062685      -219.3968
  81   2.0000      -7.325949      -199.3492
  82   2.0000      -7.325365      -199.3333
  83   2.0000      -7.323592      -199.2851
  84   2.0000      -7.322734      -199.2617
  85   2.0000      -7.315732      -199.0712
  86   2.0000      -7.315156      -199.0555
  87   2.0000      -7.315031      -199.0521
  88   2.0000      -7.314457      -199.0365
  89   2.0000      -7.313292      -199.0048
  90   2.0000      -7.312632      -198.9868
  91   2.0000      -7.312435      -198.9815
  92   2.0000      -7.311792      -198.9640
  93   2.0000      -6.041836      -164.4067
  94   2.0000      -6.037799      -164.2969
  95   2.0000      -6.035937      -164.2462
  96   2.0000      -6.033795      -164.1879
  97   2.0000      -6.033138      -164.1700
  98   2.0000      -6.032646      -164.1567
  99   2.0000      -6.031575      -164.1275
 100   2.0000      -6.029158      -164.0617
 101   2.0000      -6.028724      -164.0499
 102   2.0000      -6.027706      -164.0222
 103   2.0000      -6.024032      -163.9222
 104   2.0000      -6.023505      -163.9079
 105   2.0000      -1.201101       -32.6836
 106   2.0000      -1.134800       -30.8795
 107   2.0000      -1.133405       -30.8415
 108   2.0000      -1.106949       -30.1216
 109   2.0000      -1.094975       -29.7958
 110   2.0000      -1.024983       -27.8912
 111   2.0000      -1.023750       -27.8577
 112   2.0000      -1.013455       -27.5775
 113   2.0000      -1.011930       -27.5360
 114   2.0000      -1.011179       -27.5156
 115   2.0000      -1.008766       -27.4499
 116   2.0000      -0.993830       -27.0435
 117   2.0000      -0.993176       -27.0257
 118   2.0000      -0.985823       -26.8256
 119   2.0000      -0.984453       -26.7883
 120   2.0000      -0.983923       -26.7739
 121   2.0000      -0.975052       -26.5325
 122   2.0000      -0.958513       -26.0825
 123   2.0000      -0.957700       -26.0603
 124   2.0000      -0.955302       -25.9951
 125   2.0000      -0.952796       -25.9269
 126   2.0000      -0.931465       -25.3464
 127   2.0000      -0.929105       -25.2822
 128   2.0000      -0.925326       -25.1794
 129   2.0000      -0.909977       -24.7617
 130   2.0000      -0.897532       -24.4231
 131   2.0000      -0.897521       -24.4228
 132   2.0000      -0.895309       -24.3626
 133   2.0000      -0.892180       -24.2774
 134   2.0000      -0.877908       -23.8891
 135   2.0000      -0.868765       -23.6403
 136   2.0000      -0.865450       -23.5501
 137   2.0000      -0.857090       -23.3226
 138   2.0000      -0.856052       -23.2944
 139   2.0000      -0.849717       -23.1220
 140   2.0000      -0.846262       -23.0280
 141   2.0000      -0.831334       -22.6218
 142   2.0000      -0.826705       -22.4958
 143   2.0000      -0.817396       -22.2425
 144   2.0000      -0.806135       -21.9361
 145   2.0000      -0.801622       -21.8133
 146   2.0000      -0.796910       -21.6850
 147   2.0000      -0.780286       -21.2327
 148   2.0000      -0.769825       -20.9480
 149   2.0000      -0.763888       -20.7864
 150   2.0000      -0.761850       -20.7310
 151   2.0000      -0.759610       -20.6700
 152   2.0000      -0.752027       -20.4637
 153   2.0000      -0.734017       -19.9736
 154   2.0000      -0.731264       -19.8987
 155   2.0000      -0.723145       -19.6778
 156   2.0000      -0.717031       -19.5114
 157   2.0000      -0.714081       -19.4311
 158   2.0000      -0.704456       -19.1692
 159   2.0000      -0.697866       -18.9899
 160   2.0000      -0.695151       -18.9160
 161   2.0000      -0.692383       -18.8407
 162   2.0000      -0.691518       -18.8172
 163   2.0000      -0.682998       -18.5853
 164   2.0000      -0.672547       -18.3009
 165   2.0000      -0.664210       -18.0741
 166   2.0000      -0.652328       -17.7508
 167   2.0000      -0.649929       -17.6855
 168   2.0000      -0.648701       -17.6521
 169   2.0000      -0.645098       -17.5540
 170   2.0000      -0.630164       -17.1476
 171   2.0000      -0.623589       -16.9687
 172   2.0000      -0.618774       -16.8377
 173   2.0000      -0.617437       -16.8013
 174   2.0000      -0.613856       -16.7039
 175   2.0000      -0.604616       -16.4524
 176   2.0000      -0.602036       -16.3822
 177   2.0000      -0.599719       -16.3192
 178   2.0000      -0.588569       -16.0158
 179   2.0000      -0.586383       -15.9563
 180   2.0000      -0.583127       -15.8677
 181   2.0000      -0.580009       -15.7829
 182   2.0000      -0.576840       -15.6966
 183   2.0000      -0.570688       -15.5292
 184   2.0000      -0.568764       -15.4768
 185   2.0000      -0.562680       -15.3113
 186   2.0000      -0.556694       -15.1484
 187   2.0000      -0.554675       -15.0935
 188   2.0000      -0.553620       -15.0648
 189   2.0000      -0.549045       -14.9403
 190   2.0000      -0.547722       -14.9043
 191   2.0000      -0.545512       -14.8441
 192   2.0000      -0.544848       -14.8261
 193   2.0000      -0.541809       -14.7434
 194   2.0000      -0.540970       -14.7205
 195   2.0000      -0.539114       -14.6700
 196   2.0000      -0.535970       -14.5845
 197   2.0000      -0.533275       -14.5111
 198   2.0000      -0.532212       -14.4822
 199   2.0000      -0.530101       -14.4248
 200   2.0000      -0.528662       -14.3856
 201   2.0000      -0.525021       -14.2865
 202   2.0000      -0.522246       -14.2110
 203   2.0000      -0.521273       -14.1846
 204   2.0000      -0.516695       -14.0600
 205   2.0000      -0.508629       -13.8405
 206   2.0000      -0.507985       -13.8230
 207   2.0000      -0.506396       -13.7797
 208   2.0000      -0.505329       -13.7507
 209   2.0000      -0.504086       -13.7169
 210   2.0000      -0.502044       -13.6613
 211   2.0000      -0.501236       -13.6393
 212   2.0000      -0.494832       -13.4651
 213   2.0000      -0.491960       -13.3869
 214   2.0000      -0.491818       -13.3830
 215   2.0000      -0.487971       -13.2784
 216   2.0000      -0.487099       -13.2546
 217   2.0000      -0.482984       -13.1427
 218   2.0000      -0.481094       -13.0912
 219   2.0000      -0.480152       -13.0656
 220   2.0000      -0.477481       -12.9929
 221   2.0000      -0.476668       -12.9708
 222   2.0000      -0.472885       -12.8678
 223   2.0000      -0.471818       -12.8388
 224   2.0000      -0.466944       -12.7062
 225   2.0000      -0.466213       -12.6863
 226   2.0000      -0.464238       -12.6326
 227   2.0000      -0.462919       -12.5967
 228   2.0000      -0.460959       -12.5433
 229   2.0000      -0.460161       -12.5216
 230   2.0000      -0.456856       -12.4317
 231   2.0000      -0.455340       -12.3904
 232   2.0000      -0.454475       -12.3669
 233   2.0000      -0.452211       -12.3053
 234   2.0000      -0.449789       -12.2394
 235   2.0000      -0.448277       -12.1982
 236   2.0000      -0.446328       -12.1452
 237   2.0000      -0.441274       -12.0077
 238   2.0000      -0.439058       -11.9474
 239   2.0000      -0.438355       -11.9282
 240   2.0000      -0.435618       -11.8538
 241   2.0000      -0.434065       -11.8115
 242   2.0000      -0.430262       -11.7080
 243   2.0000      -0.428642       -11.6639
 244   2.0000      -0.428422       -11.6580
 245   2.0000      -0.427632       -11.6364
 246   2.0000      -0.425981       -11.5915
 247   2.0000      -0.425434       -11.5766
 248   2.0000      -0.424803       -11.5595
 249   2.0000      -0.423670       -11.5287
 250   2.0000      -0.423024       -11.5111
 251   2.0000      -0.420198       -11.4342
 252   2.0000      -0.415935       -11.3182
 253   2.0000      -0.414496       -11.2790
 254   2.0000      -0.413199       -11.2437
 255   2.0000      -0.408625       -11.1192
 256   2.0000      -0.406517       -11.0619
 257   2.0000      -0.406203       -11.0534
 258   2.0000      -0.405010       -11.0209
 259   2.0000      -0.402124       -10.9424
 260   2.0000      -0.401181       -10.9167
 261   2.0000      -0.396850       -10.7988
 262   2.0000      -0.392038       -10.6679
 263   2.0000      -0.386653       -10.5214
 264   2.0000      -0.383058       -10.4236
 265   2.0000      -0.382503       -10.4084
 266   2.0000      -0.377786       -10.2801
 267   2.0000      -0.363753        -9.8982
 268   2.0000      -0.362483        -9.8637
 269   2.0000      -0.348916        -9.4945
 270   2.0000      -0.344459        -9.3732
 271   2.0000      -0.341537        -9.2937
 272   2.0000      -0.339885        -9.2487
 273   2.0000      -0.336961        -9.1692
 274   2.0000      -0.335296        -9.1239
 275   2.0000      -0.316386        -8.6093
 276   2.0000      -0.315000        -8.5716
 277   2.0000      -0.312266        -8.4972
 278   2.0000      -0.306416        -8.3380
 279   2.0000      -0.291785        -7.9399
 280   2.0000      -0.279759        -7.6126
 281   2.0000      -0.274982        -7.4827
 282   2.0000      -0.242832        -6.6078
 283   0.0000      -0.102057        -2.7771
 284   0.0000      -0.091267        -2.4835
 285   0.0000      -0.069824        -1.9000
 286   0.0000      -0.066167        -1.8005
 287   0.0000      -0.031416        -0.8549

MULLIKEN ATOMIC CHARGES
-----------------------
   0 C :    0.141870
   1 O :   -0.171494
   2 C :   -0.019291
   3 C :   -0.029183
   4 C :    0.052885
   5 Cl:   -0.046760
   6 C :    0.033430
   7 Cl:   -0.038884
   8 C :   -0.010673
   9 C :    0.033519
  10 C :    0.289285
  11 C :   -0.334956
  12 C :   -0.150312
  13 N :    0.110718
  14 C :   -0.163781
  15 N :    0.127604
  16 C :   -0.083214
  17 C :   -0.034435
  18 C :   -0.086033
  19 S :    0.190582
  20 C :   -0.040953
  21 C :   -0.087942
  22 C :   -0.058535
  23 C :    0.036669
  24 C :    0.016301
  25 S :    0.188278
  26 C :   -0.099644
  27 C :    0.038547
  28 N :   -0.196214
  29 C :    0.093858
  30 C :   -0.004387
  31 C :    0.062189
  32 C :   -0.075250
  33 C :   -0.020904
  34 N :   -0.038057
  35 N :   -0.124571
  36 C :    0.141351
  37 C :   -0.024923
  38 N :   -0.040297
  39 C :   -0.029497
  40 C :   -0.066441
  41 C :    0.056845
  42 N :   -0.194733
  43 C :    0.072754
  44 C :   -0.001717
  45 C :    0.050525
  46 C :   -0.099549
  47 S :    0.186027
  48 C :   -0.143130
  49 C :   -0.036666
  50 S :    0.143554
  51 C :   -0.146599
  52 C :    0.014964
  53 C :    0.048913
  54 C :   -0.013093
  55 C :    0.010121
  56 C :   -0.086914
  57 C :    0.268636
  58 C :   -0.323988
  59 C :   -0.162960
  60 N :    0.130526
  61 C :   -0.171274
  62 N :    0.125340
  63 C :    0.040344
  64 C :   -0.015498
  65 C :    0.036780
  66 Cl:   -0.038485
  67 C :    0.055479
  68 Cl:   -0.045878
  69 C :   -0.027239
  70 C :   -0.021410
  71 C :    0.142322
  72 O :   -0.163105
  73 H :    0.006879
  74 H :    0.007802
  75 H :   -0.021762
  76 H :    0.043475
  77 H :    0.015299
  78 H :    0.019006
  79 H :    0.039680
  80 H :    0.018606
  81 H :   -0.005350
  82 H :    0.038353
  83 H :    0.039012
  84 H :    0.036214
  85 H :    0.039142
  86 H :    0.039128
  87 H :    0.039431
  88 H :    0.036145
  89 H :    0.033491
  90 H :    0.038979
  91 H :    0.036232
  92 H :    0.043070
  93 H :    0.033798
  94 H :    0.038815
  95 H :    0.031040
  96 H :    0.000091
  97 H :    0.063594
  98 H :    0.024846
  99 H :    0.026485
 100 H :    0.024338
 101 H :    0.027827
 102 H :    0.008065
 103 H :    0.006927
Sum of atomic charges:    0.0000000

LOEWDIN ATOMIC CHARGES
----------------------
   0 C :    0.084160
   1 O :   -0.167208
   2 C :   -0.044841
   3 C :   -0.004034
   4 C :   -0.129893
   5 Cl:    0.149056
   6 C :   -0.126372
   7 Cl:    0.151676
   8 C :   -0.014120
   9 C :   -0.013360
  10 C :    0.082044
  11 C :   -0.149314
  12 C :   -0.008515
  13 N :   -0.064732
  14 C :   -0.015578
  15 N :   -0.058450
  16 C :   -0.124670
  17 C :    0.054648
  18 C :   -0.187596
  19 S :    0.458092
  20 C :   -0.187460
  21 C :   -0.193866
  22 C :   -0.003378
  23 C :   -0.036595
  24 C :   -0.047503
  25 S :    0.407999
  26 C :   -0.168115
  27 C :   -0.039395
  28 N :    0.020297
  29 C :    0.037267
  30 C :   -0.065042
  31 C :    0.011711
  32 C :   -0.065490
  33 C :   -0.061279
  34 N :   -0.091113
  35 N :    0.135197
  36 C :    0.037782
  37 C :   -0.062581
  38 N :   -0.092857
  39 C :   -0.058679
  40 C :   -0.069203
  41 C :    0.014154
  42 N :    0.027530
  43 C :    0.037360
  44 C :   -0.070270
  45 C :   -0.038309
  46 C :   -0.170555
  47 S :    0.415162
  48 C :   -0.188790
  49 C :   -0.191214
  50 S :    0.426919
  51 C :   -0.174084
  52 C :    0.002340
  53 C :   -0.039246
  54 C :   -0.052192
  55 C :    0.043735
  56 C :   -0.115542
  57 C :    0.079603
  58 C :   -0.141579
  59 C :   -0.014236
  60 N :   -0.055006
  61 C :   -0.017228
  62 N :   -0.057665
  63 C :   -0.015310
  64 C :   -0.013860
  65 C :   -0.126642
  66 Cl:    0.151805
  67 C :   -0.129200
  68 Cl:    0.150469
  69 C :   -0.004230
  70 C :   -0.044411
  71 C :    0.086370
  72 O :   -0.143764
  73 H :    0.047656
  74 H :    0.046156
  75 H :    0.048558
  76 H :    0.039627
  77 H :    0.032868
  78 H :    0.025483
  79 H :    0.036432
  80 H :    0.026393
  81 H :    0.024941
  82 H :    0.029686
  83 H :    0.031537
  84 H :    0.037399
  85 H :    0.034296
  86 H :    0.037662
  87 H :    0.037384
  88 H :    0.033538
  89 H :    0.035641
  90 H :    0.033964
  91 H :    0.031761
  92 H :    0.030959
  93 H :    0.029934
  94 H :    0.039601
  95 H :    0.029881
  96 H :    0.023724
  97 H :    0.042671
  98 H :    0.028210
  99 H :    0.031425
 100 H :    0.024490
 101 H :    0.043415
 102 H :    0.046060
 103 H :    0.047846

  Mayer bond orders larger than 0.100000
B(  0-C ,  1-O ) :   2.1894 B(  0-C ,  2-C ) :   0.9447 B(  0-C , 16-C ) :   0.9694
B(  2-C ,  3-C ) :   1.3516 B(  2-C ,  9-C ) :   1.3386 B(  3-C ,  4-C ) :   1.3396
B(  3-C , 73-H ) :   1.0079 B(  4-C ,  5-Cl) :   1.0437 B(  4-C ,  6-C ) :   1.4085
B(  6-C ,  7-Cl) :   1.0728 B(  6-C ,  8-C ) :   1.3595 B(  8-C ,  9-C ) :   1.3467
B(  8-C , 74-H ) :   0.9792 B(  9-C , 10-C ) :   0.9847 B( 10-C , 11-C ) :   1.6065
B( 10-C , 16-C ) :   1.1130 B( 11-C , 12-C ) :   1.1449 B( 11-C , 14-C ) :   1.1296
B( 12-C , 13-N ) :   2.9381 B( 14-C , 15-N ) :   2.9612 B( 16-C , 17-C ) :   1.4726
B( 17-C , 18-C ) :   1.3221 B( 17-C , 75-H ) :   0.9189 B( 18-C , 19-S ) :   1.0313
B( 18-C , 22-C ) :   1.3600 B( 19-S , 20-C ) :   1.0463 B( 20-C , 21-C ) :   1.3914
B( 20-C , 27-C ) :   1.2906 B( 21-C , 22-C ) :   1.4200 B( 21-C , 25-S ) :   1.0244
B( 22-C , 23-C ) :   1.0691 B( 23-C , 24-C ) :   1.1006 B( 23-C , 76-H ) :   0.9025
B( 23-C , 77-H ) :   0.9246 B( 24-C , 78-H ) :   0.9698 B( 24-C , 79-H ) :   0.9670
B( 24-C , 80-H ) :   0.9673 B( 25-S , 26-C ) :   1.0156 B( 26-C , 27-C ) :   1.4200
B( 26-C , 32-C ) :   1.3524 B( 27-C , 28-N ) :   1.1431 B( 28-N , 29-C ) :   0.9556
B( 28-N , 31-C ) :   1.1381 B( 29-C , 30-C ) :   1.1081 B( 29-C , 81-H ) :   0.9447
B( 29-C , 82-H ) :   0.9364 B( 30-C , 83-H ) :   0.9633 B( 30-C , 84-H ) :   0.9632
B( 30-C , 85-H ) :   0.9613 B( 31-C , 32-C ) :   1.3982 B( 31-C , 41-C ) :   1.1498
B( 32-C , 33-C ) :   1.0778 B( 33-C , 34-N ) :   1.5491 B( 33-C , 39-C ) :   1.2382
B( 34-N , 35-N ) :   1.2088 B( 34-N , 38-N ) :   0.1501 B( 35-N , 36-C ) :   0.9244
B( 35-N , 38-N ) :   1.2056 B( 36-C , 37-C ) :   1.1121 B( 36-C , 86-H ) :   0.9469
B( 36-C , 87-H ) :   0.9476 B( 37-C , 88-H ) :   0.9684 B( 37-C , 89-H ) :   0.9680
B( 37-C , 90-H ) :   0.9690 B( 38-N , 39-C ) :   1.5498 B( 39-C , 40-C ) :   1.0842
B( 40-C , 41-C ) :   1.3813 B( 40-C , 46-C ) :   1.3534 B( 41-C , 42-N ) :   1.1565
B( 42-N , 43-C ) :   0.9385 B( 42-N , 45-C ) :   1.1464 B( 43-C , 44-C ) :   1.0972
B( 43-C , 91-H ) :   0.9408 B( 43-C , 92-H ) :   0.9520 B( 44-C , 93-H ) :   0.9545
B( 44-C , 94-H ) :   0.9642 B( 44-C , 95-H ) :   0.9622 B( 45-C , 46-C ) :   1.4174
B( 45-C , 49-C ) :   1.2678 B( 46-C , 47-S ) :   1.0167 B( 47-S , 48-C ) :   1.0366
B( 48-C , 49-C ) :   1.4127 B( 48-C , 52-C ) :   1.3741 B( 49-C , 50-S ) :   1.0785
B( 50-S , 51-C ) :   1.0472 B( 51-C , 52-C ) :   1.3978 B( 51-C , 55-C ) :   1.2426
B( 52-C , 53-C ) :   1.0838 B( 53-C , 54-C ) :   1.0980 B( 53-C , 96-H ) :   0.9178
B( 53-C , 97-H ) :   0.8818 B( 54-C , 98-H ) :   0.9685 B( 54-C , 99-H ) :   0.9676
B( 54-C ,100-H ) :   0.9710 B( 55-C , 56-C ) :   1.5388 B( 55-C ,101-H ) :   0.9077
B( 56-C , 57-C ) :   1.0943 B( 56-C , 71-C ) :   0.9793 B( 57-C , 58-C ) :   1.6325
B( 57-C , 63-C ) :   0.9897 B( 58-C , 59-C ) :   1.1259 B( 58-C , 61-C ) :   1.1304
B( 59-C , 60-N ) :   2.9641 B( 61-C , 62-N ) :   2.9613 B( 63-C , 64-C ) :   1.3386
B( 63-C , 70-C ) :   1.3372 B( 64-C , 65-C ) :   1.3640 B( 64-C ,102-H ) :   0.9803
B( 65-C , 66-Cl) :   1.0731 B( 65-C , 67-C ) :   1.4031 B( 67-C , 68-Cl) :   1.0463
B( 67-C , 69-C ) :   1.3414 B( 69-C , 70-C ) :   1.3499 B( 69-C ,103-H ) :   1.0086
B( 70-C , 71-C ) :   0.9341 B( 71-C , 72-O ) :   2.1557

-----------------------------------------------------------------------------
         ABSORPTION SPECTRUM VIA TRANSITION ELECTRIC DIPOLE MOMENTS
-----------------------------------------------------------------------------
State   Energy  Wavelength   fosc         T2         TX        TY        TZ
        (cm-1)    (nm)                  (au**2)     (au)      (au)      (au)
-----------------------------------------------------------------------------
   0   16400.9    609.7   2.429034191  48.75744   4.64303  -5.21533   0.00992
   1   19945.1    501.4   0.535996578   8.84709  -1.88828  -2.12704   0.87016
   2   23489.7    425.7   0.043735792   0.61296   0.55883   0.43181  -0.33795
   3   23967.6    417.2   0.145464286   1.99805  -0.04038  -1.19178   0.75900
   4   24635.5    405.9   0.073302438   0.97956  -0.93443  -0.32170  -0.05402
   5   24956.7    400.7   0.107803234   1.42207   1.00937  -0.60603  -0.18962
   6   26081.8    383.4   0.156264185   1.97241   1.03755   0.85274  -0.41079
   7   28314.0    353.2   0.034877830   0.40553  -0.40257   0.47359   0.13849
   8   29355.4    340.7   0.006367678   0.07141   0.18475   0.00467   0.19302
   9   29395.5    340.2   0.026750052   0.29958  -0.01614   0.41834  -0.35258
  10   30140.4    331.8   0.175325329   1.91501  -0.75861   0.84166  -0.79443
  11   30480.6    328.1   0.166501067   1.79833   0.95994   0.60032  -0.71865
  12   30595.9    326.8   0.061186988   0.65837   0.56479   0.15932  -0.56036
  13   30845.5    324.2   0.000691108   0.00738  -0.07449  -0.02546   0.03433
  14   31657.5    315.9   0.131365961   1.36610   0.94661  -0.48269  -0.48686
  15   32132.9    311.2   0.012772627   0.13086   0.19315   0.28767  -0.10391
  16   32306.2    309.5   0.043951522   0.44788   0.47905  -0.46682  -0.02191
  17   32639.0    306.4   0.006715843   0.06774  -0.07835  -0.23919   0.06625
  18   32684.6    306.0   0.026322199   0.26513   0.10118   0.48924  -0.12465
  19   33071.4    302.4   0.102143599   1.01680  -0.96401  -0.06966   0.28745
  20   33360.1    299.8   0.043142807   0.42575  -0.53262   0.23996  -0.29067
  21   33843.9    295.5   0.087706324   0.85315   0.28700  -0.62619   0.61536
  22   34156.6    292.8   0.218245439   2.10352  -0.11760   1.10142  -0.93624
  23   34434.8    290.4   0.066878070   0.63938  -0.78816   0.12790   0.04270
  24   34825.7    287.1   0.072194337   0.68246  -0.70906  -0.21451   0.36563
  25   35107.8    284.8   0.442143021   4.14605  -0.67204  -0.82857   1.73433
  26   35954.3    278.1   0.195962491   1.79431   0.90033  -0.88882   0.44013
  27   36303.3    275.5   0.048839782   0.44290  -0.02037   0.52489   0.40862
  28   36369.8    275.0   0.330295583   2.98976  -1.31802  -0.04515   1.11828
  29   36830.6    271.5   0.064696931   0.57830   0.36689   0.46275  -0.47911
  30   37298.6    268.1   0.283036746   2.49819  -0.79065  -1.09961   0.81482
  31   37497.0    266.7   0.094163358   0.82673  -0.62916   0.58474   0.29826
  32   37631.7    265.7   0.090474842   0.79150  -0.71968   0.01344   0.52285
  33   38485.9    259.8   0.028873772   0.24699  -0.18473  -0.40410   0.22264
  34   38530.4    259.5   0.039532548   0.33777  -0.32871  -0.39372   0.27332
  35   39191.0    255.2   0.152011549   1.27693   0.70504   0.65175  -0.59588
  36   39840.6    251.0   0.072926973   0.60261  -0.73397   0.23855   0.08364
  37   40046.9    249.7   0.026096570   0.21453   0.11257   0.44352  -0.07177

FINAL SINGLE POINT ENERGY     -6148.683316168564

DIPOLE MOMENT
-------------
                                X             Y             Z
Electronic contribution:     65.65004      37.36350      -0.67381
Nuclear contribution   :    -66.61035     -39.44911       1.12020
                        -----------------------------------------
Total Dipole Moment    :     -0.96031      -2.08561       0.44640
                        -----------------------------------------
Magnitude (a.u.)       :      2.33907
Magnitude (Debye)      :      5.94544

Rotational constants in cm-1:     0.001235     0.000215     0.000188
Rotational constants in MHz :    37.030043     6.437480     5.639240

                             ****ORCA TERMINATED NORMALLY****
TOTAL RUN TIME: 0 days 1 hours 6 minutes 13 seconds 635 msec
