                         Program Version 4.2.0 -  RELEASE  -
|  1> # ORCA input file
|  2> # Y16.out
|  3> ! CAM-B3LYP def2-SVP def2/J RIJCOSX Grid4 TightSCF
|  4> %maxcore 5000
|  5> %tddft
|  6>     Mode sTDDFT
|  7>     Ethresh 5.0
|  8>     maxcore 5000
|  9> end
| 10> * xyz 0 1
| 11>    C       -0.53189        -0.50916        -0.80644
| 12>    O       -0.75401         0.52403        -1.39625
| 13>    C        0.76986        -1.17339        -0.58637
| 14>    C        2.02025        -0.81278        -1.04912
| 15>    C        3.10014        -1.62039        -0.71972
| 16>    C        2.92051        -2.76078         0.05026
| 17>    C        1.66699        -3.12449         0.52495
| 18>    C        0.58445        -2.32188         0.20626
| 19>    C       -0.82423        -2.40427         0.58647
| 20>    C       -1.31657        -3.06851         1.67958
| 21>    C       -2.61238        -2.84307         2.18933
| 22>    N       -3.63972        -2.63542         2.65759
| 23>    C       -0.56494        -3.96708         2.46099
| 24>    N       -0.00508        -4.72887         3.11210
| 25>    C       -1.53679        -1.42138        -0.19807
| 26>    C       -2.85410        -1.27992        -0.51414
| 27>    C       -3.90069        -2.22407        -0.43756
| 28>    S       -3.57441        -3.95792        -0.38263
| 29>    C       -5.26122        -4.30503        -0.44385
| 30>    C       -6.01792        -3.12708        -0.50996
| 31>    C       -5.26127        -1.95229        -0.51451
| 32>    C       -5.86697        -0.59015        -0.59852
| 33>    C       -6.11658        -0.20277        -2.05871
| 34>    S       -7.74031        -3.41492        -0.58488
| 35>    C       -7.43177        -5.11500        -0.52544
| 36>    C       -6.07258        -5.44226        -0.43919
| 37>    N       -5.91420        -6.80131        -0.37842
| 38>    C       -4.63732        -7.34631        -0.78965
| 39>    C       -4.58508        -7.52456        -2.30587
| 40>    C       -7.18184        -7.37117        -0.44003
| 41>    C       -8.13941        -6.32179        -0.56152
| 42>    C       -9.50684        -6.60050        -0.76817
| 43>    N      -10.57034        -5.81781        -0.95279
| 44>    N      -11.55258        -6.65920        -1.16171
| 45>    C      -12.89950        -6.20928        -1.36273
| 46>    C      -13.54333        -5.83759        -0.03033
| 47>    N      -11.24917        -7.93243        -1.13185
| 48>    C       -9.93825        -7.94717        -0.88291
| 49>    C       -9.01790        -8.99023        -0.65654
| 50>    C       -7.64425        -8.71237        -0.35497
| 51>    N       -7.03959        -9.89594         0.00223
| 52>    C       -5.76864       -10.13206         0.64701
| 53>    C       -4.75328       -10.76604        -0.30291
| 54>    C       -7.96556       -10.90238        -0.10450
| 55>    C       -9.18202       -10.36817        -0.52322
| 56>    S      -10.43006       -11.56369        -0.67089
| 57>    C       -9.31317       -12.78896        -0.12545
| 58>    C       -8.01636       -12.28767         0.18728
| 59>    S       -6.81203       -13.26510         0.83079
| 60>    C      -10.65934       -14.07658         0.96991
| 61>    C       -9.73248       -14.17349         0.05341
| 62>    C       -9.09827       -15.36038        -0.58187
| 63>    C       -8.72965       -16.42296         0.44900
| 64>    C      -11.45274       -13.63092         1.94423
| 65>    C      -12.83108       -13.40128         1.91609
| 66>    C      -13.79647       -13.61599         0.89176
| 67>    C      -13.68759       -14.46632        -0.18665
| 68>    C      -14.64929       -14.56937        -1.20931
| 69>    N      -15.38395       -14.68027        -2.08561
| 70>    C      -12.67120       -15.42442        -0.34718
| 71>    N      -11.95341       -16.30442        -0.52792
| 72>    C      -14.99027       -12.84143         1.25382
| 73>    C      -16.17904       -12.62400         0.58100
| 74>    C      -17.16084       -11.85870         1.20139
| 75>    C      -16.96956       -11.32107         2.46442
| 76>    C      -15.77676       -11.52928         3.14583
| 77>    C      -14.79920       -12.28554         2.53259
| 78>    C      -13.45035       -12.64328         3.02083
| 79>    O      -12.93070       -12.34824         4.07716
| 80>    H        2.14042         0.07716        -1.64754
| 81>    H        4.08922        -1.36068        -1.06581
| 82>    H        3.77205        -3.38017         0.28898
| 83>    H        1.54857        -4.01759         1.11760
| 84>    H       -3.10947        -0.33379        -0.98140
| 85>    H       -5.21623         0.14350        -0.12315
| 86>    H       -6.81905        -0.60312        -0.06420
| 87>    H       -5.18268        -0.17884        -2.61583
| 88>    H       -6.57474         0.78121        -2.10794
| 89>    H       -6.78362        -0.92003        -2.53120
| 90>    H       -4.43200        -8.28926        -0.29632
| 91>    H       -3.87418        -6.62949        -0.47503
| 92>    H       -3.61878        -7.92592        -2.59824
| 93>    H       -4.73001        -6.56961        -2.80596
| 94>    H       -5.36592        -8.20676        -2.63678
| 95>    H      -13.44146        -7.02605        -1.84219
| 96>    H      -12.86844        -5.33904        -2.02216
| 97>    H      -13.57411        -6.70272         0.62774
| 98>    H      -14.55776        -5.48638        -0.19508
| 99>    H      -12.97056        -5.04871         0.45085
|100>    H       -5.94698       -10.83165         1.47080
|101>    H       -5.41725        -9.19554         1.08200
|102>    H       -4.69783       -10.23295        -1.24831
|103>    H       -5.04280       -11.79326        -0.50922
|104>    H       -3.77066       -10.77828         0.16042
|105>    H       -8.21648       -15.04061        -1.13872
|106>    H       -9.82548       -15.78613        -1.28046
|107>    H       -8.02164       -16.02225         1.17055
|108>    H       -8.27668       -17.27697        -0.04669
|109>    H       -9.62160       -16.75581         0.97257
|110>    H      -10.98931       -13.38592         2.89979
|111>    H      -16.35362       -13.02832        -0.40282
|112>    H      -18.09238       -11.68401         0.68404
|113>    H      -17.75345       -10.73578         2.92120
|114>    H      -15.60789       -11.11873         4.12953
|115> *
|116>
|117>                          ****END OF INPUT****

CARTESIAN COORDINATES (ANGSTROEM)
---------------------------------
  C     -0.531890   -0.509160   -0.806440
  O     -0.754010    0.524030   -1.396250
  C      0.769860   -1.173390   -0.586370
  C      2.020250   -0.812780   -1.049120
  C      3.100140   -1.620390   -0.719720
  C      2.920510   -2.760780    0.050260
  C      1.666990   -3.124490    0.524950
  C      0.584450   -2.321880    0.206260
  C     -0.824230   -2.404270    0.586470
  C     -1.316570   -3.068510    1.679580
  C     -2.612380   -2.843070    2.189330
  N     -3.639720   -2.635420    2.657590
  C     -0.564940   -3.967080    2.460990
  N     -0.005080   -4.728870    3.112100
  C     -1.536790   -1.421380   -0.198070
  C     -2.854100   -1.279920   -0.514140
  C     -3.900690   -2.224070   -0.437560
  S     -3.574410   -3.957920   -0.382630
  C     -5.261220   -4.305030   -0.443850
  C     -6.017920   -3.127080   -0.509960
  C     -5.261270   -1.952290   -0.514510
  C     -5.866970   -0.590150   -0.598520
  C     -6.116580   -0.202770   -2.058710
  S     -7.740310   -3.414920   -0.584880
  C     -7.431770   -5.115000   -0.525440
  C     -6.072580   -5.442260   -0.439190
  N     -5.914200   -6.801310   -0.378420
  C     -4.637320   -7.346310   -0.789650
  C     -4.585080   -7.524560   -2.305870
  C     -7.181840   -7.371170   -0.440030
  C     -8.139410   -6.321790   -0.561520
  C     -9.506840   -6.600500   -0.768170
  N    -10.570340   -5.817810   -0.952790
  N    -11.552580   -6.659200   -1.161710
  C    -12.899500   -6.209280   -1.362730
  C    -13.543330   -5.837590   -0.030330
  N    -11.249170   -7.932430   -1.131850
  C     -9.938250   -7.947170   -0.882910
  C     -9.017900   -8.990230   -0.656540
  C     -7.644250   -8.712370   -0.354970
  N     -7.039590   -9.895940    0.002230
  C     -5.768640  -10.132060    0.647010
  C     -4.753280  -10.766040   -0.302910
  C     -7.965560  -10.902380   -0.104500
  C     -9.182020  -10.368170   -0.523220
  S    -10.430060  -11.563690   -0.670890
  C     -9.313170  -12.788960   -0.125450
  C     -8.016360  -12.287670    0.187280
  S     -6.812030  -13.265100    0.830790
  C    -10.659340  -14.076580    0.969910
  C     -9.732480  -14.173490    0.053410
  C     -9.098270  -15.360380   -0.581870
  C     -8.729650  -16.422960    0.449000
  C    -11.452740  -13.630920    1.944230
  C    -12.831080  -13.401280    1.916090
  C    -13.796470  -13.615990    0.891760
  C    -13.687590  -14.466320   -0.186650
  C    -14.649290  -14.569370   -1.209310
  N    -15.383950  -14.680270   -2.085610
  C    -12.671200  -15.424420   -0.347180
  N    -11.953410  -16.304420   -0.527920
  C    -14.990270  -12.841430    1.253820
  C    -16.179040  -12.624000    0.581000
  C    -17.160840  -11.858700    1.201390
  C    -16.969560  -11.321070    2.464420
  C    -15.776760  -11.529280    3.145830
  C    -14.799200  -12.285540    2.532590
  C    -13.450350  -12.643280    3.020830
  O    -12.930700  -12.348240    4.077160
  H      2.140420    0.077160   -1.647540
  H      4.089220   -1.360680   -1.065810
  H      3.772050   -3.380170    0.288980
  H      1.548570   -4.017590    1.117600
  H     -3.109470   -0.333790   -0.981400
  H     -5.216230    0.143500   -0.123150
  H     -6.819050   -0.603120   -0.064200
  H     -5.182680   -0.178840   -2.615830
  H     -6.574740    0.781210   -2.107940
  H     -6.783620   -0.920030   -2.531200
  H     -4.432000   -8.289260   -0.296320
  H     -3.874180   -6.629490   -0.475030
  H     -3.618780   -7.925920   -2.598240
  H     -4.730010   -6.569610   -2.805960
  H     -5.365920   -8.206760   -2.636780
  H    -13.441460   -7.026050   -1.842190
  H    -12.868440   -5.339040   -2.022160
  H    -13.574110   -6.702720    0.627740
  H    -14.557760   -5.486380   -0.195080
  H    -12.970560   -5.048710    0.450850
  H     -5.946980  -10.831650    1.470800
  H     -5.417250   -9.195540    1.082000
  H     -4.697830  -10.232950   -1.248310
  H     -5.042800  -11.793260   -0.509220
  H     -3.770660  -10.778280    0.160420
  H     -8.216480  -15.040610   -1.138720
  H     -9.825480  -15.786130   -1.280460
  H     -8.021640  -16.022250    1.170550
  H     -8.276680  -17.276970   -0.046690
  H     -9.621600  -16.755810    0.972570
  H    -10.989310  -13.385920    2.899790
  H    -16.353620  -13.028320   -0.402820
  H    -18.092380  -11.684010    0.684040
  H    -17.753450  -10.735780    2.921200
  H    -15.607890  -11.118730    4.129530

 Total Charge           Charge          ....    0
 Multiplicity           Mult            ....    1
 Number of Electrons    NEL             ....  502
 Basis Dimension        Dim             .... 1157

ORBITAL ENERGIES
----------------

  NO   OCC          E(Eh)            E(eV)
   0   2.0000     -88.974713     -2421.1250
   1   2.0000     -88.974329     -2421.1146
   2   2.0000     -88.969732     -2420.9895
   3   2.0000     -88.900574     -2419.1076
   4   2.0000     -19.214450      -522.8518
   5   2.0000     -19.207864      -522.6726
   6   2.0000     -14.532388      -395.4464
   7   2.0000     -14.488443      -394.2506
   8   2.0000     -14.484856      -394.1530
   9   2.0000     -14.445484      -393.0816
  10   2.0000     -14.445037      -393.0694
  11   2.0000     -14.415743      -392.2723
  12   2.0000     -14.411504      -392.1570
  13   2.0000     -14.408771      -392.0826
  14   2.0000     -14.406093      -392.0097
  15   2.0000     -10.365511      -282.0599
  16   2.0000     -10.356788      -281.8225
  17   2.0000     -10.355089      -281.7763
  18   2.0000     -10.347040      -281.5573
  19   2.0000     -10.342578      -281.4358
  20   2.0000     -10.340635      -281.3830
  21   2.0000     -10.340364      -281.3756
  22   2.0000     -10.339891      -281.3627
  23   2.0000     -10.333582      -281.1911
  24   2.0000     -10.332858      -281.1714
  25   2.0000     -10.330208      -281.0993
  26   2.0000     -10.327829      -281.0345
  27   2.0000     -10.325758      -280.9781
  28   2.0000     -10.323916      -280.9280
  29   2.0000     -10.321940      -280.8743
  30   2.0000     -10.320939      -280.8470
  31   2.0000     -10.320438      -280.8334
  32   2.0000     -10.319405      -280.8053
  33   2.0000     -10.318326      -280.7759
  34   2.0000     -10.317308      -280.7482
  35   2.0000     -10.317104      -280.7427
  36   2.0000     -10.314561      -280.6735
  37   2.0000     -10.314149      -280.6623
  38   2.0000     -10.313902      -280.6555
  39   2.0000     -10.313366      -280.6410
  40   2.0000     -10.312159      -280.6081
  41   2.0000     -10.310785      -280.5707
  42   2.0000     -10.309560      -280.5374
  43   2.0000     -10.309208      -280.5278
  44   2.0000     -10.306879      -280.4644
  45   2.0000     -10.306595      -280.4567
  46   2.0000     -10.306437      -280.4524
  47   2.0000     -10.300341      -280.2865
  48   2.0000     -10.300105      -280.2801
  49   2.0000     -10.297920      -280.2207
  50   2.0000     -10.295534      -280.1557
  51   2.0000     -10.295317      -280.1498
  52   2.0000     -10.295049      -280.1425
  53   2.0000     -10.294405      -280.1250
  54   2.0000     -10.294194      -280.1193
  55   2.0000     -10.292970      -280.0860
  56   2.0000     -10.292062      -280.0613
  57   2.0000     -10.287780      -279.9447
  58   2.0000     -10.287388      -279.9341
  59   2.0000     -10.286970      -279.9227
  60   2.0000     -10.286328      -279.9052
  61   2.0000     -10.286074      -279.8983
  62   2.0000     -10.283317      -279.8233
  63   2.0000     -10.281754      -279.7807
  64   2.0000     -10.272187      -279.5204
  65   2.0000     -10.270661      -279.4789
  66   2.0000     -10.270512      -279.4748
  67   2.0000     -10.262800      -279.2650
  68   2.0000     -10.239971      -278.6438
  69   2.0000      -8.069483      -219.5818
  70   2.0000      -8.068336      -219.5506
  71   2.0000      -8.063941      -219.4310
  72   2.0000      -7.995398      -217.5658
  73   2.0000      -6.039354      -164.3392
  74   2.0000      -6.038058      -164.3039
  75   2.0000      -6.035159      -164.2250
  76   2.0000      -6.033933      -164.1917
  77   2.0000      -6.033764      -164.1871
  78   2.0000      -6.030396      -164.0954
  79   2.0000      -6.029814      -164.0796
  80   2.0000      -6.029750      -164.0778
  81   2.0000      -6.024943      -163.9470
  82   2.0000      -5.964852      -162.3119
  83   2.0000      -5.963092      -162.2640
  84   2.0000      -5.954956      -162.0426
  85   2.0000      -1.216144       -33.0930
  86   2.0000      -1.129140       -30.7255
  87   2.0000      -1.120734       -30.4967
  88   2.0000      -1.117201       -30.4006
  89   2.0000      -1.104966       -30.0677
  90   2.0000      -1.021406       -27.7939
  91   2.0000      -1.014275       -27.5998
  92   2.0000      -1.011800       -27.5325
  93   2.0000      -1.006304       -27.3829
  94   2.0000      -0.995706       -27.0945
  95   2.0000      -0.991939       -26.9920
  96   2.0000      -0.991320       -26.9752
  97   2.0000      -0.989552       -26.9271
  98   2.0000      -0.985855       -26.8265
  99   2.0000      -0.982894       -26.7459
 100   2.0000      -0.961834       -26.1728
 101   2.0000      -0.948482       -25.8095
 102   2.0000      -0.946658       -25.7599
 103   2.0000      -0.939251       -25.5583
 104   2.0000      -0.932925       -25.3862
 105   2.0000      -0.915445       -24.9105
 106   2.0000      -0.903298       -24.5800
 107   2.0000      -0.900681       -24.5088
 108   2.0000      -0.893367       -24.3097
 109   2.0000      -0.882931       -24.0258
 110   2.0000      -0.879980       -23.9455
 111   2.0000      -0.877886       -23.8885
 112   2.0000      -0.873934       -23.7810
 113   2.0000      -0.859795       -23.3962
 114   2.0000      -0.855678       -23.2842
 115   2.0000      -0.851360       -23.1667
 116   2.0000      -0.843877       -22.9631
 117   2.0000      -0.835371       -22.7316
 118   2.0000      -0.828176       -22.5358
 119   2.0000      -0.820985       -22.3401
 120   2.0000      -0.808475       -21.9997
 121   2.0000      -0.803973       -21.8772
 122   2.0000      -0.791423       -21.5357
 123   2.0000      -0.776783       -21.1373
 124   2.0000      -0.773894       -21.0587
 125   2.0000      -0.764860       -20.8129
 126   2.0000      -0.760057       -20.6822
 127   2.0000      -0.758791       -20.6478
 128   2.0000      -0.750237       -20.4150
 129   2.0000      -0.731507       -19.9053
 130   2.0000      -0.726958       -19.7815
 131   2.0000      -0.722609       -19.6632
 132   2.0000      -0.716046       -19.4846
 133   2.0000      -0.712674       -19.3929
 134   2.0000      -0.704001       -19.1568
 135   2.0000      -0.703448       -19.1418
 136   2.0000      -0.696861       -18.9626
 137   2.0000      -0.690233       -18.7822
 138   2.0000      -0.681290       -18.5388
 139   2.0000      -0.677826       -18.4446
 140   2.0000      -0.671359       -18.2686
 141   2.0000      -0.666019       -18.1233
 142   2.0000      -0.655275       -17.8309
 143   2.0000      -0.650836       -17.7101
 144   2.0000      -0.647266       -17.6130
 145   2.0000      -0.636953       -17.3324
 146   2.0000      -0.634035       -17.2530
 147   2.0000      -0.625520       -17.0213
 148   2.0000      -0.622541       -16.9402
 149   2.0000      -0.610545       -16.6138
 150   2.0000      -0.608707       -16.5638
 151   2.0000      -0.608141       -16.5484
 152   2.0000      -0.601361       -16.3639
 153   2.0000      -0.592640       -16.1266
 154   2.0000      -0.587217       -15.9790
 155   2.0000      -0.581599       -15.8261
 156   2.0000      -0.579141       -15.7592
 157   2.0000      -0.577636       -15.7183
 158   2.0000      -0.570792       -15.5320
 159   2.0000      -0.569023       -15.4839
 160   2.0000      -0.567229       -15.4351
 161   2.0000      -0.560488       -15.2517
 162   2.0000      -0.554826       -15.0976
 163   2.0000      -0.550781       -14.9875
 164   2.0000      -0.548832       -14.9345
 165   2.0000      -0.547163       -14.8891
 166   2.0000      -0.543574       -14.7914
 167   2.0000      -0.541701       -14.7404
 168   2.0000      -0.537221       -14.6185
 169   2.0000      -0.534129       -14.5344
 170   2.0000      -0.532860       -14.4999
 171   2.0000      -0.531232       -14.4556
 172   2.0000      -0.529735       -14.4148
 173   2.0000      -0.528993       -14.3946
 174   2.0000      -0.527648       -14.3580
 175   2.0000      -0.526685       -14.3318
 176   2.0000      -0.524162       -14.2632
 177   2.0000      -0.520471       -14.1627
 178   2.0000      -0.519302       -14.1309
 179   2.0000      -0.517600       -14.0846
 180   2.0000      -0.511385       -13.9155
 181   2.0000      -0.509090       -13.8530
 182   2.0000      -0.506077       -13.7711
 183   2.0000      -0.502089       -13.6625
 184   2.0000      -0.498692       -13.5701
 185   2.0000      -0.496615       -13.5136
 186   2.0000      -0.494331       -13.4514
 187   2.0000      -0.493899       -13.4397
 188   2.0000      -0.488973       -13.3056
 189   2.0000      -0.486338       -13.2339
 190   2.0000      -0.482660       -13.1338
 191   2.0000      -0.481007       -13.0889
 192   2.0000      -0.477292       -12.9878
 193   2.0000      -0.469563       -12.7774
 194   2.0000      -0.468792       -12.7565
 195   2.0000      -0.465935       -12.6787
 196   2.0000      -0.465485       -12.6665
 197   2.0000      -0.461725       -12.5642
 198   2.0000      -0.460767       -12.5381
 199   2.0000      -0.458492       -12.4762
 200   2.0000      -0.455914       -12.4061
 201   2.0000      -0.454667       -12.3721
 202   2.0000      -0.453828       -12.3493
 203   2.0000      -0.452399       -12.3104
 204   2.0000      -0.449090       -12.2204
 205   2.0000      -0.448467       -12.2034
 206   2.0000      -0.446391       -12.1469
 207   2.0000      -0.445645       -12.1266
 208   2.0000      -0.444322       -12.0906
 209   2.0000      -0.442483       -12.0406
 210   2.0000      -0.441626       -12.0173
 211   2.0000      -0.440674       -11.9914
 212   2.0000      -0.438764       -11.9394
 213   2.0000      -0.436280       -11.8718
 214   2.0000      -0.434318       -11.8184
 215   2.0000      -0.433482       -11.7957
 216   2.0000      -0.428991       -11.6734
 217   2.0000      -0.427494       -11.6327
 218   2.0000      -0.425525       -11.5791
 219   2.0000      -0.422955       -11.5092
 220   2.0000      -0.422373       -11.4934
 221   2.0000      -0.420850       -11.4519
 222   2.0000      -0.418668       -11.3925
 223   2.0000      -0.417785       -11.3685
 224   2.0000      -0.411659       -11.2018
 225   2.0000      -0.407867       -11.0986
 226   2.0000      -0.407040       -11.0761
 227   2.0000      -0.404595       -11.0096
 228   2.0000      -0.402418       -10.9503
 229   2.0000      -0.400923       -10.9097
 230   2.0000      -0.395646       -10.7661
 231   2.0000      -0.391794       -10.6612
 232   2.0000      -0.378435       -10.2977
 233   2.0000      -0.374503       -10.1907
 234   2.0000      -0.368831       -10.0364
 235   2.0000      -0.364313        -9.9135
 236   2.0000      -0.352210        -9.5841
 237   2.0000      -0.343892        -9.3578
 238   2.0000      -0.340729        -9.2717
 239   2.0000      -0.337419        -9.1816
 240   2.0000      -0.335593        -9.1319
 241   2.0000      -0.331550        -9.0219
 242   2.0000      -0.324223        -8.8225
 243   2.0000      -0.315318        -8.5803
 244   2.0000      -0.309041        -8.4094
 245   2.0000      -0.302299        -8.2260
 246   2.0000      -0.293072        -7.9749
 247   2.0000      -0.292109        -7.9487
 248   2.0000      -0.279204        -7.5975
 249   2.0000      -0.249067        -6.7775
 250   2.0000      -0.246073        -6.6960
 251   0.0000      -0.136277        -3.7083
 252   0.0000      -0.091619        -2.4931
 253   0.0000      -0.059828        -1.6280
 254   0.0000      -0.058182        -1.5832
 255   0.0000      -0.031941        -0.8692

MULLIKEN ATOMIC CHARGES
-----------------------
   0 C :    0.137018
   1 O :   -0.147277
   2 C :   -0.002525
   3 C :   -0.026985
   4 C :    0.043421
   5 C :    0.040490
   6 C :   -0.029818
   7 C :    0.014498
   8 C :    0.242755
   9 C :   -0.317805
  10 C :   -0.209077
  11 N :    0.172369
  12 C :   -0.177865
  13 N :    0.151391
  14 C :   -0.134091
  15 C :    0.012792
  16 C :   -0.128619
  17 S :    0.142970
  18 C :   -0.033848
  19 C :   -0.094633
  20 C :   -0.025270
  21 C :    0.063626
  22 C :    0.021633
  23 S :    0.191122
  24 C :   -0.099747
  25 C :    0.030907
  26 N :   -0.165117
  27 C :    0.100822
  28 C :    0.001332
  29 C :    0.047996
  30 C :   -0.074265
  31 C :   -0.028439
  32 N :   -0.033554
  33 N :   -0.106779
  34 C :    0.141604
  35 C :   -0.012071
  36 N :   -0.028533
  37 C :   -0.025487
  38 C :   -0.083989
  39 C :    0.053601
  40 N :   -0.161192
  41 C :    0.087056
  42 C :    0.018675
  43 C :    0.063178
  44 C :   -0.094752
  45 S :    0.232771
  46 C :   -0.192469
  47 C :    0.014269
  48 S :   -0.134293
  49 C :    0.177799
  50 C :   -0.167270
  51 C :    0.153404
  52 C :    0.004913
  53 C :   -0.066608
  54 C :   -0.145948
  55 C :    0.296431
  56 C :   -0.345474
  57 C :   -0.193465
  58 N :    0.146895
  59 C :   -0.173518
  60 N :    0.132427
  61 C :    0.026303
  62 C :   -0.038606
  63 C :    0.042148
  64 C :    0.038932
  65 C :   -0.029564
  66 C :   -0.012365
  67 C :    0.137739
  68 O :   -0.149370
  69 H :   -0.002204
  70 H :    0.000054
  71 H :    0.001482
  72 H :    0.003346
  73 H :    0.020868
  74 H :    0.023029
  75 H :    0.021566
  76 H :    0.019632
  77 H :    0.026873
  78 H :    0.018424
  79 H :    0.010237
  80 H :    0.029310
  81 H :    0.031252
  82 H :    0.031459
  83 H :    0.038147
  84 H :    0.038098
  85 H :    0.036643
  86 H :    0.031477
  87 H :    0.027471
  88 H :    0.036154
  89 H :    0.040988
  90 H :    0.033075
  91 H :    0.009118
  92 H :    0.028803
  93 H :    0.025111
  94 H :   -0.005071
  95 H :    0.044104
  96 H :    0.013747
  97 H :    0.010670
  98 H :    0.024484
  99 H :    0.053297
 100 H :   -0.000292
 101 H :   -0.003474
 102 H :   -0.003643
 103 H :   -0.006841
Sum of atomic charges:    0.0000000

LOEWDIN ATOMIC CHARGES
----------------------
   0 C :    0.083173
   1 O :   -0.145832
   2 C :   -0.045436
   3 C :    0.013436
   4 C :   -0.004382
   5 C :    0.000988
   6 C :   -0.003252
   7 C :   -0.010662
   8 C :    0.059966
   9 C :   -0.144084
  10 C :   -0.036352
  11 N :   -0.049691
  12 C :   -0.020663
  13 N :   -0.053840
  14 C :   -0.106477
  15 C :    0.050132
  16 C :   -0.184283
  17 S :    0.443017
  18 C :   -0.188808
  19 C :   -0.189807
  20 C :   -0.010242
  21 C :   -0.027444
  22 C :   -0.045525
  23 S :    0.426470
  24 C :   -0.178423
  25 C :   -0.031775
  26 N :    0.036362
  27 C :    0.041425
  28 C :   -0.059544
  29 C :    0.000862
  30 C :   -0.058084
  31 C :   -0.061521
  32 N :   -0.088325
  33 N :    0.144616
  34 C :    0.036245
  35 C :   -0.056472
  36 N :   -0.086319
  37 C :   -0.062850
  38 C :   -0.068888
  39 C :    0.025713
  40 N :    0.057535
  41 C :    0.036542
  42 C :   -0.068540
  43 C :   -0.054312
  44 C :   -0.166757
  45 S :    0.450357
  46 C :   -0.089731
  47 C :   -0.185073
  48 S :    0.032260
  49 C :    0.062351
  50 C :   -0.032927
  51 C :   -0.030426
  52 C :   -0.046443
  53 C :   -0.000685
  54 C :   -0.084725
  55 C :    0.062701
  56 C :   -0.148737
  57 C :   -0.019714
  58 N :   -0.060136
  59 C :   -0.009535
  60 N :   -0.057671
  61 C :   -0.008108
  62 C :   -0.005288
  63 C :   -0.002184
  64 C :   -0.008888
  65 C :    0.010350
  66 C :   -0.044726
  67 C :    0.077016
  68 O :   -0.148392
  69 H :    0.039834
  70 H :    0.034265
  71 H :    0.035968
  72 H :    0.039005
  73 H :    0.047877
  74 H :    0.035445
  75 H :    0.035363
  76 H :    0.026177
  77 H :    0.029646
  78 H :    0.025022
  79 H :    0.026852
  80 H :    0.025858
  81 H :    0.033736
  82 H :    0.031599
  83 H :    0.029197
  84 H :    0.037448
  85 H :    0.035889
  86 H :    0.031415
  87 H :    0.032188
  88 H :    0.031786
  89 H :    0.028491
  90 H :    0.025486
  91 H :    0.021081
  92 H :    0.020912
  93 H :    0.032980
  94 H :    0.024898
  95 H :    0.042826
  96 H :    0.016419
  97 H :    0.025591
  98 H :    0.025026
  99 H :    0.068394
 100 H :    0.038713
 101 H :    0.034158
 102 H :    0.032563
 103 H :    0.038356

  Mayer bond orders larger than 0.100000
B(  0-C ,  1-O ) :   2.2555 B(  0-C ,  2-C ) :   0.9270 B(  0-C , 14-C ) :   0.9467
B(  2-C ,  3-C ) :   1.3948 B(  2-C ,  7-C ) :   1.3317 B(  3-C ,  4-C ) :   1.3495
B(  3-C , 69-H ) :   1.0056 B(  4-C ,  5-C ) :   1.3849 B(  4-C , 70-H ) :   0.9899
B(  5-C ,  6-C ) :   1.3676 B(  5-C , 71-H ) :   0.9852 B(  6-C ,  7-C ) :   1.3868
B(  6-C , 72-H ) :   0.9865 B(  7-C ,  8-C ) :   1.0047 B(  8-C ,  9-C ) :   1.6525
B(  8-C , 14-C ) :   1.0399 B(  9-C , 10-C ) :   1.1493 B(  9-C , 12-C ) :   1.1349
B( 10-C , 11-N ) :   3.0281 B( 12-C , 13-N ) :   2.9946 B( 14-C , 15-C ) :   1.6308
B( 15-C , 16-C ) :   1.1649 B( 15-C , 73-H ) :   0.9370 B( 16-C , 17-S ) :   1.0487
B( 16-C , 20-C ) :   1.4618 B( 17-S , 18-C ) :   1.0674 B( 18-C , 19-C ) :   1.4414
B( 18-C , 25-C ) :   1.2913 B( 19-C , 20-C ) :   1.3541 B( 19-C , 23-S ) :   1.0335
B( 20-C , 21-C ) :   1.0800 B( 21-C , 22-C ) :   1.0984 B( 21-C , 74-H ) :   0.9154
B( 21-C , 75-H ) :   0.9225 B( 22-C , 76-H ) :   0.9694 B( 22-C , 77-H ) :   0.9671
B( 22-C , 78-H ) :   0.9679 B( 23-S , 24-C ) :   1.0189 B( 24-C , 25-C ) :   1.4102
B( 24-C , 30-C ) :   1.3611 B( 25-C , 26-N ) :   1.1590 B( 25-C , 29-C ) :   0.1011
B( 26-N , 27-C ) :   0.9603 B( 26-N , 29-C ) :   1.1447 B( 27-C , 28-C ) :   1.1062
B( 27-C , 79-H ) :   0.9418 B( 27-C , 80-H ) :   0.9386 B( 28-C , 81-H ) :   0.9660
B( 28-C , 82-H ) :   0.9619 B( 28-C , 83-H ) :   0.9623 B( 29-C , 30-C ) :   1.3990
B( 29-C , 39-C ) :   1.1509 B( 30-C , 31-C ) :   1.0764 B( 31-C , 32-N ) :   1.5617
B( 31-C , 37-C ) :   1.2455 B( 32-N , 33-N ) :   1.2096 B( 32-N , 36-N ) :   0.1424
B( 33-N , 34-C ) :   0.9353 B( 33-N , 36-N ) :   1.2171 B( 34-C , 35-C ) :   1.1139
B( 34-C , 84-H ) :   0.9451 B( 34-C , 85-H ) :   0.9467 B( 35-C , 86-H ) :   0.9676
B( 35-C , 87-H ) :   0.9682 B( 35-C , 88-H ) :   0.9692 B( 36-N , 37-C ) :   1.5635
B( 37-C , 38-C ) :   1.0827 B( 38-C , 39-C ) :   1.3306 B( 38-C , 44-C ) :   1.4236
B( 39-C , 40-N ) :   1.2235 B( 40-N , 41-C ) :   0.9349 B( 40-N , 43-C ) :   1.1381
B( 41-C , 42-C ) :   1.0995 B( 41-C , 89-H ) :   0.9233 B( 41-C , 90-H ) :   0.9528
B( 42-C , 91-H ) :   0.9630 B( 42-C , 92-H ) :   0.9427 B( 42-C , 93-H ) :   0.9625
B( 43-C , 44-C ) :   1.3907 B( 43-C , 47-C ) :   1.2003 B( 44-C , 45-S ) :   0.9571
B( 45-S , 46-C ) :   1.1368 B( 46-C , 47-C ) :   1.1211 B( 46-C , 49-C ) :   0.3095
B( 46-C , 50-C ) :   1.0970 B( 47-C , 48-S ) :   1.5085 B( 49-C , 50-C ) :   1.6250
B( 49-C , 53-C ) :   1.2651 B( 50-C , 51-C ) :   1.0329 B( 51-C , 52-C ) :   1.1005
B( 51-C , 94-H ) :   0.9146 B( 51-C , 95-H ) :   0.8945 B( 52-C , 96-H ) :   0.9671
B( 52-C , 97-H ) :   0.9646 B( 52-C , 98-H ) :   0.9655 B( 53-C , 54-C ) :   1.3958
B( 53-C , 99-H ) :   0.9491 B( 54-C , 55-C ) :   1.1374 B( 54-C , 67-C ) :   0.9717
B( 55-C , 56-C ) :   1.5665 B( 55-C , 61-C ) :   0.9913 B( 56-C , 57-C ) :   1.1439
B( 56-C , 59-C ) :   1.1791 B( 57-C , 58-N ) :   2.9746 B( 59-C , 60-N ) :   2.9037
B( 61-C , 62-C ) :   1.3995 B( 61-C , 66-C ) :   1.3316 B( 62-C , 63-C ) :   1.3578
B( 62-C ,100-H ) :   0.9832 B( 63-C , 64-C ) :   1.3949 B( 63-C ,101-H ) :   0.9848
B( 64-C , 65-C ) :   1.3351 B( 64-C ,102-H ) :   0.9898 B( 65-C , 66-C ) :   1.4066
B( 65-C ,103-H ) :   1.0052 B( 66-C , 67-C ) :   0.9243 B( 67-C , 68-O ) :   2.2439

-----------------------------------------------------------------------------
         ABSORPTION SPECTRUM VIA TRANSITION ELECTRIC DIPOLE MOMENTS
-----------------------------------------------------------------------------
State   Energy  Wavelength   fosc         T2         TX        TY        TZ
        (cm-1)    (nm)                  (au**2)     (au)      (au)      (au)
-----------------------------------------------------------------------------
   0    7555.7   1323.5   0.290489089  12.65700  -2.99279  -1.84782   0.53457
   1   10455.9    956.4   0.274541926   8.64416  -1.33606  -2.59368   0.36323
   2   11112.9    899.9   0.015636601   0.46323   0.33247   0.59100  -0.05840
   3   16299.2    613.5   0.103157355   2.08357  -0.36159  -1.39573   0.06898
   4   18496.5    540.6   0.499904244   8.89758   2.46853   1.59775   0.50113
   5   19071.2    524.3   0.171643377   2.96295   1.46607   0.67313   0.60040
   6   20689.0    483.3   0.028936174   0.46044   0.47958  -0.46285  -0.12735
   7   22203.1    450.4   0.043599558   0.64646   0.72340   0.33034   0.11846
   8   22620.0    442.1   0.056930646   0.82857  -0.73950   0.00385  -0.53076
   9   23056.2    433.7   0.070743163   1.01012  -0.42225   0.66877   0.62014
  10   23964.5    417.3   0.024235285   0.33293   0.51706  -0.15482   0.20399
  11   24636.0    405.9   0.076218105   1.01851   0.34190   0.61309  -0.72507
  12   25091.6    398.5   0.002335811   0.03065   0.03456  -0.14700  -0.08856
  13   26280.9    380.5   0.341989421   4.28399   1.19016   1.67162  -0.27055
  14   27461.6    364.1   0.038644141   0.46327   0.60143  -0.31499   0.04833
  15   27635.0    361.9   0.004874566   0.05807   0.18356  -0.15573  -0.01111
  16   28717.0    348.2   0.193179271   2.21461  -0.33428  -1.19660   0.81915
  17   29701.2    336.7   0.031241953   0.34629   0.58761  -0.03166  -0.00036
  18   29809.2    335.5   0.095201261   1.05140  -0.83045   0.48066  -0.36156
  19   30241.5    330.7   0.025115793   0.27341   0.43771  -0.11868   0.26027
  20   30876.1    323.9   0.009969188   0.10630   0.12850  -0.24615   0.17086
  21   30982.0    322.8   0.028005506   0.29758  -0.49554   0.20429  -0.10143
  22   31128.2    321.3   0.012828067   0.13567  -0.03165   0.36185   0.06107
  23   31516.5    317.3   0.136062922   1.42127   0.93485   0.73971   0.01271
  24   32121.7    311.3   0.069932303   0.71673   0.31429   0.63846  -0.45862
  25   32283.1    309.8   0.015092527   0.15391   0.24387   0.29858  -0.07270
  26   32419.3    308.5   0.334712425   3.39895  -0.48977   1.75113  -0.30430
  27   32702.8    305.8   0.036289623   0.36532  -0.55545   0.16180   0.17498
  28   32748.3    305.4   0.206161042   2.07250   1.21876  -0.67262  -0.36702
  29   33110.0    302.0   0.012452468   0.12381  -0.12218   0.30370  -0.12904
  30   33851.6    295.4   0.004370839   0.04251  -0.07208  -0.11558   0.15477
  31   34374.6    290.9   0.043794809   0.41943   0.37584   0.51232  -0.12533
  32   34814.3    287.2   0.034769071   0.32878  -0.41132   0.32295  -0.23516
  33   35286.2    283.4   0.058616835   0.54688   0.69280   0.09192  -0.24179
  34   35492.0    281.8   0.049238208   0.45672   0.19101   0.49696   0.41624
  35   36195.8    276.3   0.057538913   0.52333   0.18617   0.46111   0.52541
  36   36343.2    275.2   0.036444498   0.33013   0.38395   0.02375  -0.42678
  37   36500.6    274.0   0.027009267   0.24361   0.42265  -0.25119   0.04338
  38   36645.1    272.9   0.319527721   2.87057   1.48635   0.07078  -0.81013
  39   37064.0    269.8   0.012628955   0.11217  -0.22726  -0.19138   0.15459
  40   37094.4    269.6   0.003582282   0.03179  -0.04710  -0.16677   0.04196
  41   37238.0    268.5   0.394960093   3.49175   1.16183  -1.27930  -0.71083
  42   37649.5    265.6   0.072774961   0.63635   0.16887  -0.28216  -0.72679
  43   38051.1    262.8   0.220832406   1.91061  -1.20132  -0.36326   0.57921
  44   38427.2    260.2   0.036560422   0.31322  -0.53101   0.07884  -0.15820
  45   38514.3    259.6   0.057034524   0.48752   0.67353  -0.12066   0.13900
  46   38784.6    257.8   0.038367930   0.32568  -0.45057   0.28415  -0.20473
  47   38858.7    257.3   0.122138694   1.03476  -0.71539   0.09847   0.71644
  48   39071.8    255.9   0.051549126   0.43434   0.49755   0.37120   0.22136
  49   39152.3    255.4   0.123784879   1.04084  -0.36085  -0.86088   0.41172
  50   39239.4    254.8   0.043884536   0.36818   0.01790  -0.37490   0.47678
  51   39363.5    254.0   0.007007008   0.05860  -0.19187  -0.01469   0.14688
  52   39693.1    251.9   0.022079422   0.18313  -0.05185   0.00354   0.42476
  53   39987.1    250.1   0.058126373   0.47855   0.66808   0.03577   0.17590
  54   40320.8    248.0   0.058600928   0.47847   0.47500  -0.31447   0.39237

FINAL SINGLE POINT ENERGY     -4310.676843456335

DIPOLE MOMENT
-------------
                                X             Y             Z
Electronic contribution:     -3.83612      -0.83037      11.55612
Nuclear contribution   :      4.80031       3.44657     -13.18724
                        -----------------------------------------
Total Dipole Moment    :      0.96418       2.61620      -1.63111
                        -----------------------------------------
Magnitude (a.u.)       :      3.23028
Magnitude (Debye)      :      8.21071

Rotational constants in cm-1:     0.002076     0.000383     0.000345
Rotational constants in MHz :    62.245435    11.483157    10.346391

                             ****ORCA TERMINATED NORMALLY****
TOTAL RUN TIME: 0 days 1 hours 15 minutes 52 seconds 32 msec
