                         Program Version 4.2.0 -  RELEASE  -
|  1> # ORCA input file
|  2> # Y16.out: Geometry 139
|  3> ! CAM-B3LYP def2-SVP def2/J RIJCOSX Grid4 TightSCF
|  4> %maxcore 5000
|  5> %tddft
|  6>     Mode sTDDFT
|  7>     Ethresh 5.0
|  8>     maxcore 5000
|  9> end
| 10> * xyz 0 1
| 11>    C       -3.86936         2.67291        -6.89513
| 12>    O       -4.85091         3.14394        -6.34363
| 13>    C       -2.82319         3.44305        -7.61425
| 14>    C       -2.72849         4.82073        -7.76741
| 15>    C       -1.63324         5.33169        -8.47302
| 16>    C       -0.67240         4.46261        -9.00690
| 17>    C       -0.77157         3.07401        -8.85087
| 18>    C       -1.86284         2.55505        -8.14016
| 19>    C       -2.25241         1.16514        -7.78119
| 20>    C       -1.55243         0.03148        -8.16621
| 21>    C       -1.94996        -1.30419        -7.84793
| 22>    N       -2.23705        -2.40557        -7.60772
| 23>    C       -0.34068         0.08687        -8.92310
| 24>    N        0.65191         0.10444        -9.52772
| 25>    C       -3.47320         1.24644        -6.97690
| 26>    C       -4.09937         0.19059        -6.33786
| 27>    C       -5.21880         0.06446        -5.48343
| 28>    S       -6.32064         1.36361        -4.96260
| 29>    C       -7.21694         0.24478        -3.98746
| 30>    C       -6.68812        -1.06558        -4.07090
| 31>    C       -5.56873        -1.18795        -4.90526
| 32>    C       -4.88385        -2.49780        -5.19475
| 33>    C       -5.36256        -3.14934        -6.50231
| 34>    S       -7.56163        -2.23650        -3.07577
| 35>    C       -8.63861        -0.96251        -2.56045
| 36>    C       -8.32892         0.29359        -3.11525
| 37>    N       -9.26731         1.22961        -2.70241
| 38>    C       -9.53905         2.42826        -3.50136
| 39>    C       -8.53268         3.55415        -3.30674
| 40>    C      -10.18003         0.56957        -1.87305
| 41>    C       -9.81157        -0.81283        -1.78732
| 42>    C      -10.67569        -1.72006        -1.10540
| 43>    N      -10.60074        -3.04739        -0.92440
| 44>    N      -11.72834        -3.33567        -0.28616
| 45>    C      -12.11932        -4.71524        -0.02847
| 46>    C      -12.72870        -5.36318        -1.26896
| 47>    N      -12.55283        -2.32562        -0.04005
| 48>    C      -11.90458        -1.26462        -0.54657
| 49>    C      -12.24059         0.12107        -0.57587
| 50>    C      -11.35032         1.04335        -1.20316
| 51>    N      -11.86029         2.34899        -1.06860
| 52>    C      -10.99302         3.50958        -0.79731
| 53>    C      -11.33871         4.77081        -1.57169
| 54>    C      -13.08692         2.23154        -0.41515
| 55>    C      -13.32919         0.88585        -0.09030
| 56>    S      -14.83246         0.62697         0.75338
| 57>    C      -15.15839         2.35967         0.66848
| 58>    C      -14.14641         3.07614        -0.01078
| 59>    S      -14.61747         4.72376        -0.22471
| 60>    C      -16.15640         4.45122         0.63028
| 61>    C      -16.28137         3.11460         1.06715
| 62>    C      -17.48169         2.48595         1.71731
| 63>    C      -18.67111         2.31324         0.76199
| 64>    C      -17.08816         5.52120         0.52777
| 65>    C      -18.13744         5.91807         1.33188
| 66>    C      -19.15882         6.89181         0.94931
| 67>    C      -19.50459         7.25458        -0.34074
| 68>    C      -20.51682         8.22142        -0.63311
| 69>    N      -21.33226         9.00772        -0.89359
| 70>    C      -18.90802         6.66759        -1.50278
| 71>    N      -18.44296         6.20443        -2.46240
| 72>    C      -19.82001         7.36064         2.18921
| 73>    C      -20.82226         8.31260         2.41380
| 74>    C      -21.22846         8.55564         3.73178
| 75>    C      -20.65898         7.86714         4.81224
| 76>    C      -19.66599         6.90492         4.59260
| 77>    C      -19.26551         6.66506         3.28362
| 78>    C      -18.23173         5.70471         2.80367
| 79>    O      -17.55815         4.97095         3.50407
| 80>    H       -3.49479         5.46753        -7.33538
| 81>    H       -1.52074         6.40957        -8.61287
| 82>    H        0.17774         4.87464        -9.55570
| 83>    H       -0.00328         2.43436        -9.27718
| 84>    H       -3.62261        -0.77560        -6.48656
| 85>    H       -5.07067        -3.18165        -4.35095
| 86>    H       -3.79234        -2.36191        -5.24286
| 87>    H       -6.43725        -3.38370        -6.45966
| 88>    H       -4.80601        -4.07854        -6.69090
| 89>    H       -5.18941        -2.48203        -7.35838
| 90>    H      -10.55819         2.75394        -3.26667
| 91>    H       -9.55047         2.12181        -4.56116
| 92>    H       -8.79321         4.39731        -3.96329
| 93>    H       -7.51367         3.23609        -3.56779
| 94>    H       -8.51331         3.91826        -2.26973
| 95>    H      -12.83602        -4.68118         0.80251
| 96>    H      -11.21825        -5.24964         0.30371
| 97>    H      -13.59296        -4.77954        -1.61981
| 98>    H      -13.07178        -6.38241        -1.03510
| 99>    H      -11.98853        -5.41655        -2.08095
|100>    H       -9.96497         3.19626        -1.00616
|101>    H      -11.03518         3.71599         0.28605
|102>    H      -10.62323         5.56554        -1.31091
|103>    H      -12.34103         5.14166        -1.31909
|104>    H      -11.29955         4.61397        -2.65915
|105>    H      -17.76705         3.08772         2.59018
|106>    H      -17.17730         1.50073         2.10676
|107>    H      -19.02342         3.28209         0.37815
|108>    H      -19.51163         1.82811         1.28201
|109>    H      -18.39879         1.68839        -0.10238
|110>    H      -16.92158         6.14185        -0.35646
|111>    H      -21.27889         8.86671         1.59711
|112>    H      -22.00516         9.30041         3.92029
|113>    H      -21.00068         8.08630         5.82663
|114>    H      -19.20527         6.34570         5.40957
|115> *
|116>
|117>                          ****END OF INPUT****

CARTESIAN COORDINATES (ANGSTROEM)
---------------------------------
  C     -3.869360    2.672910   -6.895130
  O     -4.850910    3.143940   -6.343630
  C     -2.823190    3.443050   -7.614250
  C     -2.728490    4.820730   -7.767410
  C     -1.633240    5.331690   -8.473020
  C     -0.672400    4.462610   -9.006900
  C     -0.771570    3.074010   -8.850870
  C     -1.862840    2.555050   -8.140160
  C     -2.252410    1.165140   -7.781190
  C     -1.552430    0.031480   -8.166210
  C     -1.949960   -1.304190   -7.847930
  N     -2.237050   -2.405570   -7.607720
  C     -0.340680    0.086870   -8.923100
  N      0.651910    0.104440   -9.527720
  C     -3.473200    1.246440   -6.976900
  C     -4.099370    0.190590   -6.337860
  C     -5.218800    0.064460   -5.483430
  S     -6.320640    1.363610   -4.962600
  C     -7.216940    0.244780   -3.987460
  C     -6.688120   -1.065580   -4.070900
  C     -5.568730   -1.187950   -4.905260
  C     -4.883850   -2.497800   -5.194750
  C     -5.362560   -3.149340   -6.502310
  S     -7.561630   -2.236500   -3.075770
  C     -8.638610   -0.962510   -2.560450
  C     -8.328920    0.293590   -3.115250
  N     -9.267310    1.229610   -2.702410
  C     -9.539050    2.428260   -3.501360
  C     -8.532680    3.554150   -3.306740
  C    -10.180030    0.569570   -1.873050
  C     -9.811570   -0.812830   -1.787320
  C    -10.675690   -1.720060   -1.105400
  N    -10.600740   -3.047390   -0.924400
  N    -11.728340   -3.335670   -0.286160
  C    -12.119320   -4.715240   -0.028470
  C    -12.728700   -5.363180   -1.268960
  N    -12.552830   -2.325620   -0.040050
  C    -11.904580   -1.264620   -0.546570
  C    -12.240590    0.121070   -0.575870
  C    -11.350320    1.043350   -1.203160
  N    -11.860290    2.348990   -1.068600
  C    -10.993020    3.509580   -0.797310
  C    -11.338710    4.770810   -1.571690
  C    -13.086920    2.231540   -0.415150
  C    -13.329190    0.885850   -0.090300
  S    -14.832460    0.626970    0.753380
  C    -15.158390    2.359670    0.668480
  C    -14.146410    3.076140   -0.010780
  S    -14.617470    4.723760   -0.224710
  C    -16.156400    4.451220    0.630280
  C    -16.281370    3.114600    1.067150
  C    -17.481690    2.485950    1.717310
  C    -18.671110    2.313240    0.761990
  C    -17.088160    5.521200    0.527770
  C    -18.137440    5.918070    1.331880
  C    -19.158820    6.891810    0.949310
  C    -19.504590    7.254580   -0.340740
  C    -20.516820    8.221420   -0.633110
  N    -21.332260    9.007720   -0.893590
  C    -18.908020    6.667590   -1.502780
  N    -18.442960    6.204430   -2.462400
  C    -19.820010    7.360640    2.189210
  C    -20.822260    8.312600    2.413800
  C    -21.228460    8.555640    3.731780
  C    -20.658980    7.867140    4.812240
  C    -19.665990    6.904920    4.592600
  C    -19.265510    6.665060    3.283620
  C    -18.231730    5.704710    2.803670
  O    -17.558150    4.970950    3.504070
  H     -3.494790    5.467530   -7.335380
  H     -1.520740    6.409570   -8.612870
  H      0.177740    4.874640   -9.555700
  H     -0.003280    2.434360   -9.277180
  H     -3.622610   -0.775600   -6.486560
  H     -5.070670   -3.181650   -4.350950
  H     -3.792340   -2.361910   -5.242860
  H     -6.437250   -3.383700   -6.459660
  H     -4.806010   -4.078540   -6.690900
  H     -5.189410   -2.482030   -7.358380
  H    -10.558190    2.753940   -3.266670
  H     -9.550470    2.121810   -4.561160
  H     -8.793210    4.397310   -3.963290
  H     -7.513670    3.236090   -3.567790
  H     -8.513310    3.918260   -2.269730
  H    -12.836020   -4.681180    0.802510
  H    -11.218250   -5.249640    0.303710
  H    -13.592960   -4.779540   -1.619810
  H    -13.071780   -6.382410   -1.035100
  H    -11.988530   -5.416550   -2.080950
  H     -9.964970    3.196260   -1.006160
  H    -11.035180    3.715990    0.286050
  H    -10.623230    5.565540   -1.310910
  H    -12.341030    5.141660   -1.319090
  H    -11.299550    4.613970   -2.659150
  H    -17.767050    3.087720    2.590180
  H    -17.177300    1.500730    2.106760
  H    -19.023420    3.282090    0.378150
  H    -19.511630    1.828110    1.282010
  H    -18.398790    1.688390   -0.102380
  H    -16.921580    6.141850   -0.356460
  H    -21.278890    8.866710    1.597110
  H    -22.005160    9.300410    3.920290
  H    -21.000680    8.086300    5.826630
  H    -19.205270    6.345700    5.409570

 Total Charge           Charge          ....    0
 Multiplicity           Mult            ....    1
 Number of Electrons    NEL             ....  502
 Basis Dimension        Dim             .... 1157

ORBITAL ENERGIES
----------------

  NO   OCC          E(Eh)            E(eV)
   0   2.0000     -88.970755     -2421.0173
   1   2.0000     -88.968299     -2420.9505
   2   2.0000     -88.966172     -2420.8926
   3   2.0000     -88.964310     -2420.8419
   4   2.0000     -19.215463      -522.8793
   5   2.0000     -19.215114      -522.8698
   6   2.0000     -14.526590      -395.2886
   7   2.0000     -14.478879      -393.9903
   8   2.0000     -14.475458      -393.8972
   9   2.0000     -14.442844      -393.0098
  10   2.0000     -14.441800      -392.9814
  11   2.0000     -14.420779      -392.4093
  12   2.0000     -14.416359      -392.2891
  13   2.0000     -14.416293      -392.2873
  14   2.0000     -14.413516      -392.2117
  15   2.0000     -10.367546      -282.1153
  16   2.0000     -10.364961      -282.0449
  17   2.0000     -10.345380      -281.5121
  18   2.0000     -10.343222      -281.4534
  19   2.0000     -10.342243      -281.4268
  20   2.0000     -10.342149      -281.4242
  21   2.0000     -10.336383      -281.2673
  22   2.0000     -10.334947      -281.2282
  23   2.0000     -10.331639      -281.1382
  24   2.0000     -10.330548      -281.1085
  25   2.0000     -10.327122      -281.0153
  26   2.0000     -10.325693      -280.9764
  27   2.0000     -10.325492      -280.9709
  28   2.0000     -10.325292      -280.9655
  29   2.0000     -10.324369      -280.9404
  30   2.0000     -10.322526      -280.8902
  31   2.0000     -10.322173      -280.8806
  32   2.0000     -10.320567      -280.8369
  33   2.0000     -10.320480      -280.8346
  34   2.0000     -10.320361      -280.8313
  35   2.0000     -10.318486      -280.7803
  36   2.0000     -10.318346      -280.7765
  37   2.0000     -10.316838      -280.7354
  38   2.0000     -10.312525      -280.6181
  39   2.0000     -10.311877      -280.6004
  40   2.0000     -10.311607      -280.5931
  41   2.0000     -10.311573      -280.5922
  42   2.0000     -10.310255      -280.5563
  43   2.0000     -10.309874      -280.5459
  44   2.0000     -10.306509      -280.4544
  45   2.0000     -10.305804      -280.4352
  46   2.0000     -10.305459      -280.4258
  47   2.0000     -10.305336      -280.4224
  48   2.0000     -10.297862      -280.2191
  49   2.0000     -10.297721      -280.2152
  50   2.0000     -10.296364      -280.1783
  51   2.0000     -10.296068      -280.1702
  52   2.0000     -10.295647      -280.1588
  53   2.0000     -10.295481      -280.1543
  54   2.0000     -10.295189      -280.1463
  55   2.0000     -10.294901      -280.1385
  56   2.0000     -10.294237      -280.1204
  57   2.0000     -10.294159      -280.1183
  58   2.0000     -10.293756      -280.1073
  59   2.0000     -10.293400      -280.0977
  60   2.0000     -10.291510      -280.0462
  61   2.0000     -10.289196      -279.9833
  62   2.0000     -10.284725      -279.8616
  63   2.0000     -10.283525      -279.8289
  64   2.0000     -10.281521      -279.7744
  65   2.0000     -10.274448      -279.5819
  66   2.0000     -10.274264      -279.5769
  67   2.0000     -10.263647      -279.2880
  68   2.0000     -10.262082      -279.2455
  69   2.0000      -8.064963      -219.4588
  70   2.0000      -8.060560      -219.3390
  71   2.0000      -8.059930      -219.3218
  72   2.0000      -8.057995      -219.2692
  73   2.0000      -6.034674      -164.2118
  74   2.0000      -6.030586      -164.1006
  75   2.0000      -6.030383      -164.0951
  76   2.0000      -6.029808      -164.0794
  77   2.0000      -6.027973      -164.0295
  78   2.0000      -6.026352      -163.9854
  79   2.0000      -6.025955      -163.9746
  80   2.0000      -6.025866      -163.9721
  81   2.0000      -6.023990      -163.9211
  82   2.0000      -6.022165      -163.8714
  83   2.0000      -6.020898      -163.8370
  84   2.0000      -6.018836      -163.7808
  85   2.0000      -1.197911       -32.5968
  86   2.0000      -1.126128       -30.6435
  87   2.0000      -1.125790       -30.6343
  88   2.0000      -1.099490       -29.9186
  89   2.0000      -1.085661       -29.5423
  90   2.0000      -1.009172       -27.4610
  91   2.0000      -1.008870       -27.4527
  92   2.0000      -1.005966       -27.3737
  93   2.0000      -1.003024       -27.2937
  94   2.0000      -0.989144       -26.9160
  95   2.0000      -0.986800       -26.8522
  96   2.0000      -0.986067       -26.8323
  97   2.0000      -0.983891       -26.7730
  98   2.0000      -0.980796       -26.6888
  99   2.0000      -0.970104       -26.3979
 100   2.0000      -0.951032       -25.8789
 101   2.0000      -0.949081       -25.8258
 102   2.0000      -0.938068       -25.5261
 103   2.0000      -0.936229       -25.4761
 104   2.0000      -0.921530       -25.0761
 105   2.0000      -0.902748       -24.5650
 106   2.0000      -0.892208       -24.2782
 107   2.0000      -0.890924       -24.2433
 108   2.0000      -0.889794       -24.2125
 109   2.0000      -0.889010       -24.1912
 110   2.0000      -0.875696       -23.8289
 111   2.0000      -0.870311       -23.6824
 112   2.0000      -0.867937       -23.6178
 113   2.0000      -0.851868       -23.1805
 114   2.0000      -0.850279       -23.1373
 115   2.0000      -0.844880       -22.9904
 116   2.0000      -0.843012       -22.9395
 117   2.0000      -0.825885       -22.4735
 118   2.0000      -0.823738       -22.4150
 119   2.0000      -0.816377       -22.2147
 120   2.0000      -0.804458       -21.8904
 121   2.0000      -0.796930       -21.6856
 122   2.0000      -0.792579       -21.5672
 123   2.0000      -0.778832       -21.1931
 124   2.0000      -0.761790       -20.7294
 125   2.0000      -0.758611       -20.6429
 126   2.0000      -0.756208       -20.5775
 127   2.0000      -0.754010       -20.5177
 128   2.0000      -0.742662       -20.2089
 129   2.0000      -0.725922       -19.7533
 130   2.0000      -0.722585       -19.6625
 131   2.0000      -0.715920       -19.4812
 132   2.0000      -0.711239       -19.3538
 133   2.0000      -0.710676       -19.3385
 134   2.0000      -0.695329       -18.9209
 135   2.0000      -0.693378       -18.8678
 136   2.0000      -0.689300       -18.7568
 137   2.0000      -0.685732       -18.6597
 138   2.0000      -0.679418       -18.4879
 139   2.0000      -0.675038       -18.3687
 140   2.0000      -0.666432       -18.1345
 141   2.0000      -0.655250       -17.8302
 142   2.0000      -0.644168       -17.5287
 143   2.0000      -0.643236       -17.5033
 144   2.0000      -0.640920       -17.4403
 145   2.0000      -0.638246       -17.3676
 146   2.0000      -0.627144       -17.0654
 147   2.0000      -0.620194       -16.8764
 148   2.0000      -0.612907       -16.6780
 149   2.0000      -0.605451       -16.4752
 150   2.0000      -0.603981       -16.4352
 151   2.0000      -0.602180       -16.3861
 152   2.0000      -0.598091       -16.2749
 153   2.0000      -0.591484       -16.0951
 154   2.0000      -0.582386       -15.8475
 155   2.0000      -0.581276       -15.8173
 156   2.0000      -0.572598       -15.5812
 157   2.0000      -0.568254       -15.4630
 158   2.0000      -0.567809       -15.4509
 159   2.0000      -0.563069       -15.3219
 160   2.0000      -0.561111       -15.2686
 161   2.0000      -0.557434       -15.1685
 162   2.0000      -0.548683       -14.9304
 163   2.0000      -0.543553       -14.7908
 164   2.0000      -0.541737       -14.7414
 165   2.0000      -0.540955       -14.7201
 166   2.0000      -0.537243       -14.6191
 167   2.0000      -0.536963       -14.6115
 168   2.0000      -0.532198       -14.4819
 169   2.0000      -0.529658       -14.4127
 170   2.0000      -0.529041       -14.3959
 171   2.0000      -0.527454       -14.3528
 172   2.0000      -0.526975       -14.3397
 173   2.0000      -0.523939       -14.2571
 174   2.0000      -0.522720       -14.2239
 175   2.0000      -0.519935       -14.1481
 176   2.0000      -0.518310       -14.1039
 177   2.0000      -0.518244       -14.1021
 178   2.0000      -0.516509       -14.0549
 179   2.0000      -0.514193       -13.9919
 180   2.0000      -0.510207       -13.8834
 181   2.0000      -0.501911       -13.6577
 182   2.0000      -0.500670       -13.6239
 183   2.0000      -0.497790       -13.5456
 184   2.0000      -0.497160       -13.5284
 185   2.0000      -0.493667       -13.4334
 186   2.0000      -0.487868       -13.2756
 187   2.0000      -0.486754       -13.2452
 188   2.0000      -0.486193       -13.2300
 189   2.0000      -0.482344       -13.1253
 190   2.0000      -0.479935       -13.0597
 191   2.0000      -0.473692       -12.8898
 192   2.0000      -0.472867       -12.8674
 193   2.0000      -0.470153       -12.7935
 194   2.0000      -0.467021       -12.7083
 195   2.0000      -0.466204       -12.6861
 196   2.0000      -0.462229       -12.5779
 197   2.0000      -0.458547       -12.4777
 198   2.0000      -0.457072       -12.4376
 199   2.0000      -0.456018       -12.4089
 200   2.0000      -0.454730       -12.3738
 201   2.0000      -0.454637       -12.3713
 202   2.0000      -0.453793       -12.3483
 203   2.0000      -0.451501       -12.2860
 204   2.0000      -0.449778       -12.2391
 205   2.0000      -0.448859       -12.2141
 206   2.0000      -0.447563       -12.1788
 207   2.0000      -0.446862       -12.1597
 208   2.0000      -0.445303       -12.1173
 209   2.0000      -0.443501       -12.0683
 210   2.0000      -0.443357       -12.0644
 211   2.0000      -0.441352       -12.0098
 212   2.0000      -0.440437       -11.9849
 213   2.0000      -0.438934       -11.9440
 214   2.0000      -0.437188       -11.8965
 215   2.0000      -0.428911       -11.6713
 216   2.0000      -0.424761       -11.5583
 217   2.0000      -0.421381       -11.4664
 218   2.0000      -0.421038       -11.4570
 219   2.0000      -0.420608       -11.4453
 220   2.0000      -0.420317       -11.4374
 221   2.0000      -0.419110       -11.4046
 222   2.0000      -0.415355       -11.3024
 223   2.0000      -0.414496       -11.2790
 224   2.0000      -0.412915       -11.2360
 225   2.0000      -0.406155       -11.0520
 226   2.0000      -0.404972       -11.0199
 227   2.0000      -0.402988       -10.9659
 228   2.0000      -0.400587       -10.9005
 229   2.0000      -0.399752       -10.8778
 230   2.0000      -0.397977       -10.8295
 231   2.0000      -0.393314       -10.7026
 232   2.0000      -0.391751       -10.6601
 233   2.0000      -0.386926       -10.5288
 234   2.0000      -0.374518       -10.1912
 235   2.0000      -0.363074        -9.8797
 236   2.0000      -0.360285        -9.8039
 237   2.0000      -0.343825        -9.3560
 238   2.0000      -0.338534        -9.2120
 239   2.0000      -0.337228        -9.1764
 240   2.0000      -0.336091        -9.1455
 241   2.0000      -0.333722        -9.0810
 242   2.0000      -0.332625        -9.0512
 243   2.0000      -0.319430        -8.6921
 244   2.0000      -0.314170        -8.5490
 245   2.0000      -0.309887        -8.4325
 246   2.0000      -0.301091        -8.1931
 247   2.0000      -0.288155        -7.8411
 248   2.0000      -0.274230        -7.4622
 249   2.0000      -0.272476        -7.4144
 250   2.0000      -0.238373        -6.4865
 251   0.0000      -0.094682        -2.5764
 252   0.0000      -0.083841        -2.2814
 253   0.0000      -0.061344        -1.6693
 254   0.0000      -0.057193        -1.5563
 255   0.0000      -0.025484        -0.6935

MULLIKEN ATOMIC CHARGES
-----------------------
   0 C :    0.137481
   1 O :   -0.172302
   2 C :   -0.027611
   3 C :   -0.025518
   4 C :    0.031644
   5 C :    0.028357
   6 C :   -0.030327
   7 C :    0.024953
   8 C :    0.280183
   9 C :   -0.335623
  10 C :   -0.156673
  11 N :    0.110977
  12 C :   -0.161223
  13 N :    0.122273
  14 C :   -0.084658
  15 C :   -0.028440
  16 C :   -0.090961
  17 S :    0.188626
  18 C :   -0.043113
  19 C :   -0.089835
  20 C :   -0.056960
  21 C :    0.035592
  22 C :    0.021989
  23 S :    0.185610
  24 C :   -0.114401
  25 C :    0.052326
  26 N :   -0.200577
  27 C :    0.080315
  28 C :   -0.003937
  29 C :    0.044077
  30 C :   -0.040291
  31 C :   -0.036197
  32 N :   -0.041710
  33 N :   -0.124016
  34 C :    0.140458
  35 C :   -0.023719
  36 N :   -0.037213
  37 C :   -0.038785
  38 C :   -0.030818
  39 C :    0.039813
  40 N :   -0.214607
  41 C :    0.086293
  42 C :    0.002796
  43 C :    0.062579
  44 C :   -0.120538
  45 S :    0.188953
  46 C :   -0.133250
  47 C :   -0.043367
  48 S :    0.127390
  49 C :   -0.119374
  50 C :    0.002332
  51 C :    0.045657
  52 C :   -0.001582
  53 C :   -0.000749
  54 C :   -0.106580
  55 C :    0.251505
  56 C :   -0.312008
  57 C :   -0.163366
  58 N :    0.121808
  59 C :   -0.195216
  60 N :    0.139223
  61 C :    0.033753
  62 C :   -0.030200
  63 C :    0.026561
  64 C :    0.033288
  65 C :   -0.024214
  66 C :   -0.036017
  67 C :    0.152956
  68 O :   -0.159516
  69 H :    0.002250
  70 H :    0.008178
  71 H :    0.008375
  72 H :    0.009993
  73 H :   -0.017216
  74 H :    0.014981
  75 H :    0.039000
  76 H :    0.017275
  77 H :    0.039257
  78 H :    0.019535
  79 H :    0.030276
  80 H :    0.040623
  81 H :    0.035634
  82 H :    0.040654
  83 H :    0.021922
  84 H :    0.038414
  85 H :    0.039239
  86 H :    0.034962
  87 H :    0.032280
  88 H :    0.040962
  89 H :    0.026127
  90 H :    0.037543
  91 H :    0.033486
  92 H :    0.027893
  93 H :    0.030179
  94 H :    0.046581
  95 H :    0.002797
  96 H :    0.027349
  97 H :    0.025835
  98 H :    0.022884
  99 H :    0.045046
 100 H :    0.010845
 101 H :    0.009966
 102 H :    0.008027
 103 H :    0.004572
Sum of atomic charges:   -0.0000000

LOEWDIN ATOMIC CHARGES
----------------------
   0 C :    0.084122
   1 O :   -0.168101
   2 C :   -0.044989
   3 C :    0.006956
   4 C :   -0.006257
   5 C :   -0.004752
   6 C :   -0.001846
   7 C :   -0.014395
   8 C :    0.083674
   9 C :   -0.151275
  10 C :   -0.010834
  11 N :   -0.066198
  12 C :   -0.012972
  13 N :   -0.063934
  14 C :   -0.121152
  15 C :    0.052599
  16 C :   -0.189264
  17 S :    0.464731
  18 C :   -0.189174
  19 C :   -0.194689
  20 C :   -0.006842
  21 C :   -0.035606
  22 C :   -0.047602
  23 S :    0.406772
  24 C :   -0.168807
  25 C :   -0.037570
  26 N :    0.018227
  27 C :    0.039772
  28 C :   -0.066838
  29 C :    0.014353
  30 C :   -0.069199
  31 C :   -0.057213
  32 N :   -0.092901
  33 N :    0.134854
  34 C :    0.038212
  35 C :   -0.062347
  36 N :   -0.091033
  37 C :   -0.061004
  38 C :   -0.064254
  39 C :    0.011431
  40 N :   -0.000818
  41 C :    0.043203
  42 C :   -0.067182
  43 C :   -0.036031
  44 C :   -0.169793
  45 S :    0.417978
  46 C :   -0.191923
  47 C :   -0.189276
  48 S :    0.428403
  49 C :   -0.177632
  50 C :    0.000408
  51 C :   -0.037841
  52 C :   -0.051592
  53 C :    0.048588
  54 C :   -0.112390
  55 C :    0.077833
  56 C :   -0.142694
  57 C :   -0.013764
  58 N :   -0.060054
  59 C :   -0.023426
  60 N :   -0.058462
  61 C :   -0.015930
  62 C :   -0.001938
  63 C :   -0.004723
  64 C :   -0.005439
  65 C :    0.007388
  66 C :   -0.044039
  67 C :    0.086362
  68 O :   -0.147857
  69 H :    0.040812
  70 H :    0.036345
  71 H :    0.038069
  72 H :    0.041391
  73 H :    0.048378
  74 H :    0.032337
  75 H :    0.038282
  76 H :    0.025481
  77 H :    0.035989
  78 H :    0.025803
  79 H :    0.028524
  80 H :    0.033944
  81 H :    0.038718
  82 H :    0.022735
  83 H :    0.025745
  84 H :    0.037301
  85 H :    0.036937
  86 H :    0.033541
  87 H :    0.034910
  88 H :    0.034200
  89 H :    0.027197
  90 H :    0.032602
  91 H :    0.038857
  92 H :    0.016826
  93 H :    0.028784
  94 H :    0.039138
  95 H :    0.027241
  96 H :    0.026211
  97 H :    0.030170
  98 H :    0.027871
  99 H :    0.045621
 100 H :    0.041555
 101 H :    0.038324
 102 H :    0.036468
 103 H :    0.041683

  Mayer bond orders larger than 0.100000
B(  0-C ,  1-O ) :   2.1867 B(  0-C ,  2-C ) :   0.9515 B(  0-C , 14-C ) :   0.9622
B(  2-C ,  3-C ) :   1.3966 B(  2-C ,  7-C ) :   1.3385 B(  3-C ,  4-C ) :   1.3450
B(  3-C , 69-H ) :   0.9977 B(  4-C ,  5-C ) :   1.3840 B(  4-C , 70-H ) :   0.9857
B(  5-C ,  6-C ) :   1.3796 B(  5-C , 71-H ) :   0.9804 B(  6-C ,  7-C ) :   1.3777
B(  6-C , 72-H ) :   0.9776 B(  7-C ,  8-C ) :   0.9864 B(  8-C ,  9-C ) :   1.6097
B(  8-C , 14-C ) :   1.1027 B(  9-C , 10-C ) :   1.1406 B(  9-C , 12-C ) :   1.1287
B( 10-C , 11-N ) :   2.9463 B( 12-C , 13-N ) :   2.9641 B( 14-C , 15-C ) :   1.4978
B( 15-C , 16-C ) :   1.3049 B( 15-C , 73-H ) :   0.9198 B( 16-C , 17-S ) :   1.0381
B( 16-C , 20-C ) :   1.3696 B( 17-S , 18-C ) :   1.0453 B( 18-C , 19-C ) :   1.3958
B( 18-C , 25-C ) :   1.2893 B( 19-C , 20-C ) :   1.4109 B( 19-C , 23-S ) :   1.0268
B( 20-C , 21-C ) :   1.0712 B( 21-C , 22-C ) :   1.1024 B( 21-C , 74-H ) :   0.9250
B( 21-C , 75-H ) :   0.9055 B( 22-C , 76-H ) :   0.9668 B( 22-C , 77-H ) :   0.9663
B( 22-C , 78-H ) :   0.9687 B( 23-S , 24-C ) :   1.0188 B( 24-C , 25-C ) :   1.4233
B( 24-C , 30-C ) :   1.3345 B( 25-C , 26-N ) :   1.1363 B( 26-N , 27-C ) :   0.9264
B( 26-N , 29-C ) :   1.1564 B( 27-C , 28-C ) :   1.1085 B( 27-C , 79-H ) :   0.9441
B( 27-C , 80-H ) :   0.9459 B( 28-C , 81-H ) :   0.9603 B( 28-C , 82-H ) :   0.9547
B( 28-C , 83-H ) :   0.9601 B( 29-C , 30-C ) :   1.3931 B( 29-C , 39-C ) :   1.1676
B( 30-C , 31-C ) :   1.0794 B( 31-C , 32-N ) :   1.5509 B( 31-C , 37-C ) :   1.2299
B( 32-N , 33-N ) :   1.2025 B( 32-N , 36-N ) :   0.1499 B( 33-N , 34-C ) :   0.9268
B( 33-N , 36-N ) :   1.2092 B( 34-C , 35-C ) :   1.1113 B( 34-C , 84-H ) :   0.9467
B( 34-C , 85-H ) :   0.9477 B( 35-C , 86-H ) :   0.9680 B( 35-C , 87-H ) :   0.9681
B( 35-C , 88-H ) :   0.9690 B( 36-N , 37-C ) :   1.5495 B( 37-C , 38-C ) :   1.0724
B( 38-C , 39-C ) :   1.4239 B( 38-C , 44-C ) :   1.3039 B( 39-C , 40-N ) :   1.1256
B( 40-N , 41-C ) :   0.9203 B( 40-N , 43-C ) :   1.1282 B( 41-C , 42-C ) :   1.1099
B( 41-C , 89-H ) :   0.9472 B( 41-C , 90-H ) :   0.9447 B( 42-C , 91-H ) :   0.9579
B( 42-C , 92-H ) :   0.9562 B( 42-C , 93-H ) :   0.9612 B( 43-C , 44-C ) :   1.4423
B( 43-C , 47-C ) :   1.2861 B( 44-C , 45-S ) :   1.0296 B( 45-S , 46-C ) :   1.0369
B( 46-C , 47-C ) :   1.4190 B( 46-C , 50-C ) :   1.3650 B( 47-C , 48-S ) :   1.0831
B( 48-S , 49-C ) :   1.0428 B( 49-C , 50-C ) :   1.4399 B( 49-C , 53-C ) :   1.2057
B( 50-C , 51-C ) :   1.0744 B( 51-C , 52-C ) :   1.0939 B( 51-C , 94-H ) :   0.8990
B( 51-C , 95-H ) :   0.9184 B( 52-C , 96-H ) :   0.9718 B( 52-C , 97-H ) :   0.9681
B( 52-C , 98-H ) :   0.9679 B( 53-C , 54-C ) :   1.5724 B( 53-C , 99-H ) :   0.9284
B( 54-C , 55-C ) :   1.0747 B( 54-C , 67-C ) :   0.9663 B( 55-C , 56-C ) :   1.6427
B( 55-C , 61-C ) :   0.9974 B( 56-C , 57-C ) :   1.1231 B( 56-C , 59-C ) :   1.1254
B( 57-C , 58-N ) :   2.9699 B( 59-C , 60-N ) :   2.9955 B( 61-C , 62-C ) :   1.3768
B( 61-C , 66-C ) :   1.3321 B( 62-C , 63-C ) :   1.3774 B( 62-C ,100-H ) :   0.9795
B( 63-C , 64-C ) :   1.3831 B( 63-C ,101-H ) :   0.9818 B( 64-C , 65-C ) :   1.3463
B( 64-C ,102-H ) :   0.9863 B( 65-C , 66-C ) :   1.4003 B( 65-C ,103-H ) :   0.9978
B( 66-C , 67-C ) :   0.9403 B( 67-C , 68-O ) :   2.1652

-----------------------------------------------------------------------------
         ABSORPTION SPECTRUM VIA TRANSITION ELECTRIC DIPOLE MOMENTS
-----------------------------------------------------------------------------
State   Energy  Wavelength   fosc         T2         TX        TY        TZ
        (cm-1)    (nm)                  (au**2)     (au)      (au)      (au)
-----------------------------------------------------------------------------
   0   16868.6    592.8   2.367558699  46.20588  -5.79089   1.89647   3.01245
   1   20369.9    490.9   0.533298208   8.61901   0.43910   2.42520  -1.59519
   2   24309.5    411.4   0.070160995   0.95016   0.05326  -0.97329   0.00451
   3   24817.1    402.9   0.095350276   1.26487   0.60609   0.34145  -0.88371
   4   25369.0    394.2   0.119416410   1.54966  -0.08352  -1.24078  -0.05615
   5   25715.8    388.9   0.082849398   1.06063  -0.92329   0.25085   0.38112
   6   26312.0    380.1   0.112868707   1.41220   0.07321   0.93114  -0.73472
   7   28423.8    351.8   0.025473236   0.29504   0.46722   0.27066  -0.05907
   8   29718.8    336.5   0.032152121   0.35617  -0.40983   0.27105   0.33873
   9   30125.6    331.9   0.005918377   0.06468  -0.19908   0.15329   0.03930
  10   30297.2    330.1   0.040067618   0.43538  -0.22374   0.62074  -0.00042
  11   30410.9    328.8   0.075247688   0.81459  -0.68181   0.57965   0.11716
  12   31542.8    317.0   0.054254086   0.56625   0.28098  -0.13967   0.68395
  13   31592.4    316.5   0.124901647   1.30155  -0.83051   0.16474   0.76464
  14   31904.6    313.4   0.137616326   1.42001   0.02600  -1.18757  -0.09495
  15   32030.8    312.2   0.010230797   0.10515  -0.08874  -0.31107  -0.02263
  16   32130.5    311.2   0.075902526   0.77770   0.55249  -0.52306  -0.44594
  17   33367.2    299.7   0.023116224   0.22807   0.25565   0.40150  -0.03890
  18   33720.1    296.6   0.018755372   0.18311   0.04858  -0.39789  -0.14977
  19   33882.0    295.1   0.149770047   1.45523  -0.20139   1.00366   0.63823
  20   34241.2    292.0   0.015482280   0.14885   0.22612   0.07202  -0.30420
  21   34439.9    290.4   0.003911716   0.03739   0.05047  -0.18240   0.03970
  22   34703.7    288.2   0.198932531   1.88715   0.57632   0.57732  -1.10531
  23   35089.5    285.0   0.056682634   0.53180   0.05783  -0.72687   0.01095
  24   35509.2    281.6   0.064143775   0.59469  -0.14426  -0.75699  -0.02914
  25   35733.1    279.9   0.150373526   1.38540  -0.26847  -0.61164   0.96913
  26   36864.9    271.3   0.089662571   0.80071  -0.00555   0.88417   0.13758
  27   37441.3    267.1   0.054318280   0.47761   0.51924   0.10501  -0.44381
  28   37681.8    265.4   0.186400724   1.62851  -0.04093  -0.47432  -1.18400
  29   37930.9    263.6   0.238322377   2.06846  -0.14004  -1.42803  -0.09781
  30   38334.1    260.9   0.495655271   4.25667   0.28030  -1.31965   1.56097
  31   38531.7    259.5   0.142115606   1.21423   0.45845  -0.69141  -0.72525
  32   38815.6    257.6   0.193560080   1.64167   0.88964  -0.79808  -0.46182
  33   39003.7    256.4   0.064708775   0.54618  -0.09450   0.72440   0.11177
  34   39127.0    255.6   0.003878059   0.03263  -0.16145   0.06936   0.04187
  35   39842.5    251.0   0.129412462   1.06931   0.15197   1.00718  -0.17836

FINAL SINGLE POINT ENERGY     -4310.817259506381

DIPOLE MOMENT
-------------
                                X             Y             Z
Electronic contribution:      6.61638       9.00427      -2.59773
Nuclear contribution   :     -7.02668      -8.52039       4.93897
                        -----------------------------------------
Total Dipole Moment    :     -0.41031       0.48388       2.34123
                        -----------------------------------------
Magnitude (a.u.)       :      2.42567
Magnitude (Debye)      :      6.16556

Rotational constants in cm-1:     0.001769     0.000307     0.000269
Rotational constants in MHz :    53.020371     9.211679     8.078137

                             ****ORCA TERMINATED NORMALLY****
TOTAL RUN TIME: 0 days 0 hours 54 minutes 39 seconds 984 msec
