                         Program Version 4.2.0 -  RELEASE  -
|  1> # ORCA input file
|  2> # Y2.out: Geometry 28
|  3> ! CAM-B3LYP def2-SVP def2/J RIJCOSX Grid4 TightSCF
|  4> %maxcore 5000
|  5> %tddft
|  6>     Mode sTDDFT
|  7>     Ethresh 5.0
|  8>     maxcore 5000
|  9> end
| 10> * xyz 0 1
| 11>    C        4.82402         1.98656        -0.92646
| 12>    O        5.93157         2.44528        -1.11345
| 13>    C        3.50424         2.60185        -1.20098
| 14>    C        3.03899         3.77639        -1.72452
| 15>    S        1.30401         3.78766        -1.71473
| 16>    C        1.20542         2.21048        -0.99684
| 17>    C        2.46596         1.69954        -0.78609
| 18>    C        3.07311         0.49685        -0.18881
| 19>    C        2.37557        -0.42636         0.57687
| 20>    C        0.94906        -0.38913         0.63306
| 21>    N       -0.21277        -0.34731         0.64076
| 22>    C        3.01685        -1.36752         1.43036
| 23>    N        3.54610        -2.11701         2.14453
| 24>    C        4.50856         0.60184        -0.40176
| 25>    C        5.57251        -0.27015        -0.33522
| 26>    C        5.69257        -1.68066        -0.29603
| 27>    S        7.32394        -2.32501        -0.02106
| 28>    C        6.77173        -3.94168        -0.27235
| 29>    C        5.38497        -3.97412        -0.56491
| 30>    C        4.78187        -2.70962        -0.57000
| 31>    S        4.78321        -5.60825        -0.85365
| 32>    C        6.39462        -6.23078        -0.58361
| 33>    C        7.33423        -5.23362        -0.28771
| 34>    N        8.57418        -5.79974        -0.06737
| 35>    C        9.62517        -4.98029         0.52995
| 36>    C       10.38743        -4.12056        -0.47647
| 37>    C        8.45533        -7.18761        -0.24949
| 38>    C        7.07350        -7.46516        -0.54987
| 39>    C        6.62692        -8.80727        -0.71827
| 40>    N        5.40019        -9.31456        -0.91895
| 41>    N        5.61568       -10.62511        -0.96163
| 42>    C        4.51178       -11.57607        -1.00298
| 43>    C        4.06414       -11.98959         0.39837
| 44>    N        6.87003       -11.03008        -0.79492
| 45>    C        7.54799        -9.88213        -0.63965
| 46>    C        8.93421        -9.62480        -0.43260
| 47>    C        9.40374        -8.27451        -0.23285
| 48>    N       10.79970        -8.33221        -0.11955
| 49>    C       11.80712        -7.30630         0.11551
| 50>    C       12.19492        -7.17422         1.58861
| 51>    C       11.18943        -9.65150        -0.22772
| 52>    C       10.06374       -10.46589        -0.42224
| 53>    S       10.46042       -12.15522        -0.64094
| 54>    C       12.17279       -11.75094        -0.46631
| 55>    C       12.40399       -10.37043        -0.24653
| 56>    S       14.09321        -9.99782        -0.09481
| 57>    C       14.51200       -11.70908        -0.34114
| 58>    C       13.35317       -12.49382        -0.51560
| 59>    C       15.79669       -12.30486        -0.40306
| 60>    C       17.08566       -11.82324        -0.28716
| 61>    C       18.31204       -12.62505        -0.38435
| 62>    C       18.46598       -13.96805        -0.68470
| 63>    C       19.76562       -14.55910        -0.72984
| 64>    N       20.82803       -15.02932        -0.76438
| 65>    C       17.39238       -14.85792        -0.99069
| 66>    N       16.53854       -15.60410        -1.24841
| 67>    C       19.43620       -11.71295        -0.12291
| 68>    C       20.80839       -11.77911        -0.02666
| 69>    S       21.46799       -10.20685         0.30083
| 70>    C       19.90529        -9.45292         0.31391
| 71>    C       18.93350       -10.38528         0.07847
| 72>    C       17.45720       -10.40278        -0.01948
| 73>    O       16.69822        -9.45517         0.09585
| 74>    H        3.60569         4.62486        -2.10415
| 75>    H        0.23592         1.77103        -0.77453
| 76>    H        6.52634         0.26576        -0.43834
| 77>    H        3.73900        -2.52298        -0.81725
| 78>    H       10.29075        -5.62653         1.10558
| 79>    H        9.13728        -4.32868         1.27261
| 80>    H       11.15107        -3.52325         0.04603
| 81>    H        9.71249        -3.42399        -0.99588
| 82>    H       10.88487        -4.72861        -1.24660
| 83>    H        4.86403       -12.44151        -1.58100
| 84>    H        3.70126       -11.08404        -1.55717
| 85>    H        4.89705       -12.45529         0.94656
| 86>    H        3.24009       -12.71665         0.33577
| 87>    H        3.71131       -11.11593         0.96696
| 88>    H       11.45845        -6.36579        -0.31311
| 89>    H       12.69158        -7.58469        -0.47761
| 90>    H       11.31589        -6.98464         2.22341
| 91>    H       12.91133        -6.35063         1.73053
| 92>    H       12.67079        -8.09849         1.94771
| 93>    H       13.41523       -13.56895        -0.69066
| 94>    H       15.71096       -13.37685        -0.58849
| 95>    H       21.46940       -12.63604        -0.13228
| 96>    H       19.79391        -8.38630         0.50150
| 97> *
| 98>
| 99>                          ****END OF INPUT****

CARTESIAN COORDINATES (ANGSTROEM)
---------------------------------
  C      4.824020    1.986560   -0.926460
  O      5.931570    2.445280   -1.113450
  C      3.504240    2.601850   -1.200980
  C      3.038990    3.776390   -1.724520
  S      1.304010    3.787660   -1.714730
  C      1.205420    2.210480   -0.996840
  C      2.465960    1.699540   -0.786090
  C      3.073110    0.496850   -0.188810
  C      2.375570   -0.426360    0.576870
  C      0.949060   -0.389130    0.633060
  N     -0.212770   -0.347310    0.640760
  C      3.016850   -1.367520    1.430360
  N      3.546100   -2.117010    2.144530
  C      4.508560    0.601840   -0.401760
  C      5.572510   -0.270150   -0.335220
  C      5.692570   -1.680660   -0.296030
  S      7.323940   -2.325010   -0.021060
  C      6.771730   -3.941680   -0.272350
  C      5.384970   -3.974120   -0.564910
  C      4.781870   -2.709620   -0.570000
  S      4.783210   -5.608250   -0.853650
  C      6.394620   -6.230780   -0.583610
  C      7.334230   -5.233620   -0.287710
  N      8.574180   -5.799740   -0.067370
  C      9.625170   -4.980290    0.529950
  C     10.387430   -4.120560   -0.476470
  C      8.455330   -7.187610   -0.249490
  C      7.073500   -7.465160   -0.549870
  C      6.626920   -8.807270   -0.718270
  N      5.400190   -9.314560   -0.918950
  N      5.615680  -10.625110   -0.961630
  C      4.511780  -11.576070   -1.002980
  C      4.064140  -11.989590    0.398370
  N      6.870030  -11.030080   -0.794920
  C      7.547990   -9.882130   -0.639650
  C      8.934210   -9.624800   -0.432600
  C      9.403740   -8.274510   -0.232850
  N     10.799700   -8.332210   -0.119550
  C     11.807120   -7.306300    0.115510
  C     12.194920   -7.174220    1.588610
  C     11.189430   -9.651500   -0.227720
  C     10.063740  -10.465890   -0.422240
  S     10.460420  -12.155220   -0.640940
  C     12.172790  -11.750940   -0.466310
  C     12.403990  -10.370430   -0.246530
  S     14.093210   -9.997820   -0.094810
  C     14.512000  -11.709080   -0.341140
  C     13.353170  -12.493820   -0.515600
  C     15.796690  -12.304860   -0.403060
  C     17.085660  -11.823240   -0.287160
  C     18.312040  -12.625050   -0.384350
  C     18.465980  -13.968050   -0.684700
  C     19.765620  -14.559100   -0.729840
  N     20.828030  -15.029320   -0.764380
  C     17.392380  -14.857920   -0.990690
  N     16.538540  -15.604100   -1.248410
  C     19.436200  -11.712950   -0.122910
  C     20.808390  -11.779110   -0.026660
  S     21.467990  -10.206850    0.300830
  C     19.905290   -9.452920    0.313910
  C     18.933500  -10.385280    0.078470
  C     17.457200  -10.402780   -0.019480
  O     16.698220   -9.455170    0.095850
  H      3.605690    4.624860   -2.104150
  H      0.235920    1.771030   -0.774530
  H      6.526340    0.265760   -0.438340
  H      3.739000   -2.522980   -0.817250
  H     10.290750   -5.626530    1.105580
  H      9.137280   -4.328680    1.272610
  H     11.151070   -3.523250    0.046030
  H      9.712490   -3.423990   -0.995880
  H     10.884870   -4.728610   -1.246600
  H      4.864030  -12.441510   -1.581000
  H      3.701260  -11.084040   -1.557170
  H      4.897050  -12.455290    0.946560
  H      3.240090  -12.716650    0.335770
  H      3.711310  -11.115930    0.966960
  H     11.458450   -6.365790   -0.313110
  H     12.691580   -7.584690   -0.477610
  H     11.315890   -6.984640    2.223410
  H     12.911330   -6.350630    1.730530
  H     12.670790   -8.098490    1.947710
  H     13.415230  -13.568950   -0.690660
  H     15.710960  -13.376850   -0.588490
  H     21.469400  -12.636040   -0.132280
  H     19.793910   -8.386300    0.501500

 Total Charge           Charge          ....    0
 Multiplicity           Mult            ....    1
 Number of Electrons    NEL             ....  474
 Basis Dimension        Dim             .... 1021

ORBITAL ENERGIES
----------------

  NO   OCC          E(Eh)            E(eV)
   0   2.0000     -88.982713     -2421.3427
   1   2.0000     -88.981625     -2421.3131
   2   2.0000     -88.978215     -2421.2203
   3   2.0000     -88.974775     -2421.1267
   4   2.0000     -88.966317     -2420.8966
   5   2.0000     -88.964943     -2420.8592
   6   2.0000     -19.218917      -522.9733
   7   2.0000     -19.213867      -522.8359
   8   2.0000     -14.524718      -395.2377
   9   2.0000     -14.484784      -394.1510
  10   2.0000     -14.484541      -394.1444
  11   2.0000     -14.441172      -392.9643
  12   2.0000     -14.440850      -392.9555
  13   2.0000     -14.419342      -392.3702
  14   2.0000     -14.417743      -392.3267
  15   2.0000     -14.416740      -392.2994
  16   2.0000     -14.415657      -392.2700
  17   2.0000     -10.373447      -282.2758
  18   2.0000     -10.370087      -282.1844
  19   2.0000     -10.346925      -281.5541
  20   2.0000     -10.346456      -281.5414
  21   2.0000     -10.344520      -281.4887
  22   2.0000     -10.343515      -281.4613
  23   2.0000     -10.343237      -281.4538
  24   2.0000     -10.342925      -281.4453
  25   2.0000     -10.338452      -281.3236
  26   2.0000     -10.336682      -281.2754
  27   2.0000     -10.330277      -281.1011
  28   2.0000     -10.326063      -280.9865
  29   2.0000     -10.325911      -280.9823
  30   2.0000     -10.325176      -280.9623
  31   2.0000     -10.324914      -280.9552
  32   2.0000     -10.324662      -280.9483
  33   2.0000     -10.324643      -280.9478
  34   2.0000     -10.324430      -280.9420
  35   2.0000     -10.324318      -280.9390
  36   2.0000     -10.323857      -280.9264
  37   2.0000     -10.323525      -280.9174
  38   2.0000     -10.323499      -280.9167
  39   2.0000     -10.322367      -280.8859
  40   2.0000     -10.321576      -280.8644
  41   2.0000     -10.320611      -280.8381
  42   2.0000     -10.319834      -280.8169
  43   2.0000     -10.318625      -280.7841
  44   2.0000     -10.318181      -280.7720
  45   2.0000     -10.315505      -280.6992
  46   2.0000     -10.313353      -280.6406
  47   2.0000     -10.311193      -280.5818
  48   2.0000     -10.309035      -280.5231
  49   2.0000     -10.308617      -280.5117
  50   2.0000     -10.305504      -280.4270
  51   2.0000     -10.305165      -280.4178
  52   2.0000     -10.303057      -280.3604
  53   2.0000     -10.302586      -280.3476
  54   2.0000     -10.300594      -280.2934
  55   2.0000     -10.299796      -280.2717
  56   2.0000     -10.296736      -280.1884
  57   2.0000     -10.296176      -280.1732
  58   2.0000     -10.292568      -280.0750
  59   2.0000     -10.292560      -280.0748
  60   2.0000     -10.291323      -280.0411
  61   2.0000     -10.289007      -279.9781
  62   2.0000     -10.272946      -279.5411
  63   2.0000      -8.077968      -219.8127
  64   2.0000      -8.076937      -219.7846
  65   2.0000      -8.072457      -219.6627
  66   2.0000      -8.067079      -219.5164
  67   2.0000      -8.060071      -219.3257
  68   2.0000      -8.058750      -219.2897
  69   2.0000      -6.047276      -164.5548
  70   2.0000      -6.046227      -164.5262
  71   2.0000      -6.042576      -164.4269
  72   2.0000      -6.042031      -164.4120
  73   2.0000      -6.041551      -164.3990
  74   2.0000      -6.040659      -164.3747
  75   2.0000      -6.039633      -164.3468
  76   2.0000      -6.037963      -164.3013
  77   2.0000      -6.036881      -164.2719
  78   2.0000      -6.034127      -164.1969
  79   2.0000      -6.032446      -164.1512
  80   2.0000      -6.030085      -164.0870
  81   2.0000      -6.028802      -164.0520
  82   2.0000      -6.028743      -164.0504
  83   2.0000      -6.026103      -163.9786
  84   2.0000      -6.024823      -163.9438
  85   2.0000      -6.020798      -163.8343
  86   2.0000      -6.019383      -163.7957
  87   2.0000      -1.195563       -32.5329
  88   2.0000      -1.130216       -30.7547
  89   2.0000      -1.126771       -30.6610
  90   2.0000      -1.103694       -30.0330
  91   2.0000      -1.092680       -29.7333
  92   2.0000      -1.015056       -27.6211
  93   2.0000      -1.014935       -27.6178
  94   2.0000      -1.009242       -27.4629
  95   2.0000      -1.005328       -27.3564
  96   2.0000      -0.999468       -27.1969
  97   2.0000      -0.997894       -27.1541
  98   2.0000      -0.987406       -26.8687
  99   2.0000      -0.986751       -26.8509
 100   2.0000      -0.978954       -26.6387
 101   2.0000      -0.971171       -26.4269
 102   2.0000      -0.957775       -26.0624
 103   2.0000      -0.957085       -26.0436
 104   2.0000      -0.948052       -25.7978
 105   2.0000      -0.945742       -25.7350
 106   2.0000      -0.924333       -25.1524
 107   2.0000      -0.907100       -24.6835
 108   2.0000      -0.894486       -24.3402
 109   2.0000      -0.892392       -24.2832
 110   2.0000      -0.880847       -23.9691
 111   2.0000      -0.877510       -23.8783
 112   2.0000      -0.876146       -23.8411
 113   2.0000      -0.862004       -23.4563
 114   2.0000      -0.856056       -23.2945
 115   2.0000      -0.844048       -22.9677
 116   2.0000      -0.835576       -22.7372
 117   2.0000      -0.834903       -22.7189
 118   2.0000      -0.829547       -22.5731
 119   2.0000      -0.822717       -22.3873
 120   2.0000      -0.808809       -22.0088
 121   2.0000      -0.803469       -21.8635
 122   2.0000      -0.798825       -21.7371
 123   2.0000      -0.777563       -21.1586
 124   2.0000      -0.765758       -20.8373
 125   2.0000      -0.760223       -20.6867
 126   2.0000      -0.753894       -20.5145
 127   2.0000      -0.747606       -20.3434
 128   2.0000      -0.741135       -20.1673
 129   2.0000      -0.728054       -19.8113
 130   2.0000      -0.716909       -19.5081
 131   2.0000      -0.710884       -19.3441
 132   2.0000      -0.695419       -18.9233
 133   2.0000      -0.695305       -18.9202
 134   2.0000      -0.684866       -18.6361
 135   2.0000      -0.677844       -18.4451
 136   2.0000      -0.666219       -18.1287
 137   2.0000      -0.663423       -18.0527
 138   2.0000      -0.660891       -17.9838
 139   2.0000      -0.654753       -17.8167
 140   2.0000      -0.648057       -17.6345
 141   2.0000      -0.646180       -17.5835
 142   2.0000      -0.637542       -17.3484
 143   2.0000      -0.632842       -17.2205
 144   2.0000      -0.631229       -17.1766
 145   2.0000      -0.628179       -17.0936
 146   2.0000      -0.617487       -16.8027
 147   2.0000      -0.613534       -16.6951
 148   2.0000      -0.602909       -16.4060
 149   2.0000      -0.596036       -16.2190
 150   2.0000      -0.594474       -16.1765
 151   2.0000      -0.592047       -16.1104
 152   2.0000      -0.590379       -16.0650
 153   2.0000      -0.582597       -15.8533
 154   2.0000      -0.570704       -15.5297
 155   2.0000      -0.566867       -15.4252
 156   2.0000      -0.562186       -15.2978
 157   2.0000      -0.557924       -15.1819
 158   2.0000      -0.550102       -14.9690
 159   2.0000      -0.546428       -14.8691
 160   2.0000      -0.539057       -14.6685
 161   2.0000      -0.538436       -14.6516
 162   2.0000      -0.534634       -14.5481
 163   2.0000      -0.533094       -14.5062
 164   2.0000      -0.530102       -14.4248
 165   2.0000      -0.528935       -14.3931
 166   2.0000      -0.524838       -14.2816
 167   2.0000      -0.524302       -14.2670
 168   2.0000      -0.520520       -14.1641
 169   2.0000      -0.520013       -14.1503
 170   2.0000      -0.517055       -14.0698
 171   2.0000      -0.511831       -13.9276
 172   2.0000      -0.507634       -13.8134
 173   2.0000      -0.506450       -13.7812
 174   2.0000      -0.504374       -13.7247
 175   2.0000      -0.500247       -13.6124
 176   2.0000      -0.496142       -13.5007
 177   2.0000      -0.494869       -13.4661
 178   2.0000      -0.491703       -13.3799
 179   2.0000      -0.489681       -13.3249
 180   2.0000      -0.486744       -13.2450
 181   2.0000      -0.485938       -13.2230
 182   2.0000      -0.483199       -13.1485
 183   2.0000      -0.477794       -13.0014
 184   2.0000      -0.477629       -12.9969
 185   2.0000      -0.475144       -12.9293
 186   2.0000      -0.473242       -12.8776
 187   2.0000      -0.470886       -12.8135
 188   2.0000      -0.469525       -12.7764
 189   2.0000      -0.466922       -12.7056
 190   2.0000      -0.465866       -12.6769
 191   2.0000      -0.464190       -12.6312
 192   2.0000      -0.461609       -12.5610
 193   2.0000      -0.457111       -12.4386
 194   2.0000      -0.455363       -12.3911
 195   2.0000      -0.449144       -12.2218
 196   2.0000      -0.448873       -12.2145
 197   2.0000      -0.447291       -12.1714
 198   2.0000      -0.445698       -12.1281
 199   2.0000      -0.445111       -12.1121
 200   2.0000      -0.444124       -12.0852
 201   2.0000      -0.438543       -11.9334
 202   2.0000      -0.437006       -11.8915
 203   2.0000      -0.436459       -11.8767
 204   2.0000      -0.434184       -11.8147
 205   2.0000      -0.431752       -11.7486
 206   2.0000      -0.424368       -11.5476
 207   2.0000      -0.423260       -11.5175
 208   2.0000      -0.422628       -11.5003
 209   2.0000      -0.421755       -11.4765
 210   2.0000      -0.421048       -11.4573
 211   2.0000      -0.417948       -11.3729
 212   2.0000      -0.412664       -11.2291
 213   2.0000      -0.408812       -11.1243
 214   2.0000      -0.406219       -11.0538
 215   2.0000      -0.404945       -11.0191
 216   2.0000      -0.402512       -10.9529
 217   2.0000      -0.395818       -10.7708
 218   2.0000      -0.392611       -10.6835
 219   2.0000      -0.388419       -10.5694
 220   2.0000      -0.373054       -10.1513
 221   2.0000      -0.367374        -9.9968
 222   2.0000      -0.365579        -9.9479
 223   2.0000      -0.350572        -9.5396
 224   2.0000      -0.340355        -9.2615
 225   2.0000      -0.338058        -9.1990
 226   2.0000      -0.337567        -9.1857
 227   2.0000      -0.333997        -9.0885
 228   2.0000      -0.332392        -9.0449
 229   2.0000      -0.320075        -8.7097
 230   2.0000      -0.316489        -8.6121
 231   2.0000      -0.310814        -8.4577
 232   2.0000      -0.303308        -8.2534
 233   2.0000      -0.289531        -7.8785
 234   2.0000      -0.278609        -7.5813
 235   2.0000      -0.270561        -7.3624
 236   2.0000      -0.238965        -6.5026
 237   0.0000      -0.098570        -2.6822
 238   0.0000      -0.087439        -2.3793
 239   0.0000      -0.049140        -1.3372
 240   0.0000      -0.045591        -1.2406
 241   0.0000      -0.027368        -0.7447

MULLIKEN ATOMIC CHARGES
-----------------------
   0 C :    0.154003
   1 O :   -0.153285
   2 C :    0.034401
   3 C :   -0.137589
   4 S :    0.149577
   5 C :   -0.138171
   6 C :    0.011618
   7 C :    0.262231
   8 C :   -0.317677
   9 C :   -0.160633
  10 N :    0.116786
  11 C :   -0.191312
  12 N :    0.147717
  13 C :   -0.167308
  14 C :    0.081635
  15 C :   -0.110037
  16 S :    0.151680
  17 C :   -0.050879
  18 C :   -0.075741
  19 C :    0.034260
  20 S :    0.203207
  21 C :   -0.106577
  22 C :    0.052580
  23 N :   -0.199635
  24 C :    0.087212
  25 C :   -0.003794
  26 C :    0.062315
  27 C :   -0.079748
  28 C :   -0.025370
  29 N :   -0.041545
  30 N :   -0.124009
  31 C :    0.141334
  32 C :   -0.026030
  33 N :   -0.041700
  34 C :   -0.023284
  35 C :   -0.077557
  36 C :    0.067029
  37 N :   -0.192122
  38 C :    0.088768
  39 C :   -0.001386
  40 C :    0.046202
  41 C :   -0.105904
  42 S :    0.194965
  43 C :   -0.024089
  44 C :   -0.061750
  45 S :    0.198820
  46 C :   -0.062178
  47 C :   -0.046251
  48 C :   -0.025857
  49 C :   -0.103194
  50 C :    0.284219
  51 C :   -0.322039
  52 C :   -0.167712
  53 N :    0.120452
  54 C :   -0.162448
  55 N :    0.113849
  56 C :    0.022801
  57 C :   -0.137592
  58 S :    0.150422
  59 C :   -0.138422
  60 C :    0.014397
  61 C :    0.171487
  62 O :   -0.172728
  63 H :    0.051393
  64 H :    0.061572
  65 H :    0.031993
  66 H :    0.015524
  67 H :    0.006072
  68 H :    0.037719
  69 H :    0.037598
  70 H :    0.030503
  71 H :    0.043005
  72 H :    0.037697
  73 H :    0.038669
  74 H :    0.038796
  75 H :    0.033924
  76 H :    0.037273
  77 H :    0.001882
  78 H :    0.037173
  79 H :    0.044186
  80 H :    0.037577
  81 H :    0.035973
  82 H :    0.026590
  83 H :    0.014681
  84 H :    0.063648
  85 H :    0.048142
Sum of atomic charges:    0.0000000

LOEWDIN ATOMIC CHARGES
----------------------
   0 C :    0.088408
   1 O :   -0.149579
   2 C :   -0.094298
   3 C :   -0.144856
   4 S :    0.474850
   5 C :   -0.157042
   6 C :   -0.061654
   7 C :    0.070474
   8 C :   -0.151603
   9 C :   -0.012352
  10 N :   -0.064815
  11 C :   -0.021537
  12 N :   -0.050363
  13 C :   -0.106705
  14 C :    0.042783
  15 C :   -0.178120
  16 S :    0.433717
  17 C :   -0.190608
  18 C :   -0.184656
  19 C :   -0.007935
  20 S :    0.419053
  21 C :   -0.170412
  22 C :   -0.037955
  23 N :    0.024186
  24 C :    0.034800
  25 C :   -0.068747
  26 C :    0.012649
  27 C :   -0.067121
  28 C :   -0.060657
  29 N :   -0.091775
  30 N :    0.133855
  31 C :    0.038444
  32 C :   -0.062930
  33 N :   -0.092880
  34 C :   -0.059528
  35 C :   -0.069478
  36 C :    0.013838
  37 N :    0.031465
  38 C :    0.033937
  39 C :   -0.067404
  40 C :   -0.040386
  41 C :   -0.170036
  42 S :    0.409274
  43 C :   -0.193210
  44 C :   -0.191969
  45 S :    0.462302
  46 C :   -0.182322
  47 C :   -0.015070
  48 C :    0.053365
  49 C :   -0.115745
  50 C :    0.081329
  51 C :   -0.150322
  52 C :   -0.010417
  53 N :   -0.066089
  54 C :   -0.016638
  55 N :   -0.064731
  56 C :   -0.063271
  57 C :   -0.153072
  58 S :    0.475282
  59 C :   -0.146836
  60 C :   -0.092947
  61 C :    0.085665
  62 O :   -0.169626
  63 H :    0.041857
  64 H :    0.040464
  65 H :    0.046859
  66 H :    0.043976
  67 H :    0.030051
  68 H :    0.032966
  69 H :    0.038515
  70 H :    0.025386
  71 H :    0.028564
  72 H :    0.036819
  73 H :    0.037342
  74 H :    0.033980
  75 H :    0.035381
  76 H :    0.033888
  77 H :    0.027805
  78 H :    0.031464
  79 H :    0.028648
  80 H :    0.037980
  81 H :    0.033213
  82 H :    0.047953
  83 H :    0.053148
  84 H :    0.041091
  85 H :    0.040669

  Mayer bond orders larger than 0.100000
B(  0-C ,  1-O ) :   2.2285 B(  0-C ,  2-C ) :   0.9351 B(  0-C , 13-C ) :   0.9433
B(  2-C ,  3-C ) :   1.5489 B(  2-C ,  6-C ) :   1.2264 B(  3-C ,  4-S ) :   1.1832
B(  3-C , 63-H ) :   0.9681 B(  4-S ,  5-C ) :   1.1756 B(  5-C ,  6-C ) :   1.5382
B(  5-C , 64-H ) :   0.9536 B(  6-C ,  7-C ) :   1.0133 B(  7-C ,  8-C ) :   1.6205
B(  7-C , 13-C ) :   1.0684 B(  8-C ,  9-C ) :   1.1148 B(  8-C , 11-C ) :   1.1545
B(  9-C , 10-N ) :   2.9836 B( 11-C , 12-N ) :   2.9891 B( 13-C , 14-C ) :   1.6424
B( 14-C , 15-C ) :   1.1788 B( 14-C , 65-H ) :   0.9066 B( 15-C , 16-S ) :   1.0572
B( 15-C , 19-C ) :   1.4234 B( 16-S , 17-C ) :   1.0794 B( 17-C , 18-C ) :   1.3906
B( 17-C , 22-C ) :   1.2781 B( 18-C , 19-C ) :   1.3582 B( 18-C , 20-S ) :   1.0391
B( 19-C , 66-H ) :   0.9826 B( 20-S , 21-C ) :   1.0185 B( 21-C , 22-C ) :   1.4160
B( 21-C , 27-C ) :   1.3739 B( 22-C , 23-N ) :   1.1461 B( 23-N , 24-C ) :   0.9400
B( 23-N , 26-C ) :   1.1469 B( 24-C , 25-C ) :   1.0988 B( 24-C , 67-H ) :   0.9473
B( 24-C , 68-H ) :   0.9409 B( 25-C , 69-H ) :   0.9652 B( 25-C , 70-H ) :   0.9516
B( 25-C , 71-H ) :   0.9543 B( 26-C , 27-C ) :   1.3922 B( 26-C , 36-C ) :   1.1397
B( 27-C , 28-C ) :   1.0830 B( 28-C , 29-N ) :   1.5497 B( 28-C , 34-C ) :   1.2350
B( 29-N , 30-N ) :   1.2064 B( 29-N , 33-N ) :   0.1496 B( 30-N , 31-C ) :   0.9283
B( 30-N , 33-N ) :   1.2033 B( 31-C , 32-C ) :   1.1105 B( 31-C , 72-H ) :   0.9473
B( 31-C , 73-H ) :   0.9471 B( 32-C , 74-H ) :   0.9689 B( 32-C , 75-H ) :   0.9681
B( 32-C , 76-H ) :   0.9685 B( 33-N , 34-C ) :   1.5509 B( 34-C , 35-C ) :   1.0803
B( 35-C , 36-C ) :   1.3793 B( 35-C , 41-C ) :   1.3823 B( 36-C , 37-N ) :   1.1572
B( 37-N , 38-C ) :   0.9498 B( 37-N , 40-C ) :   1.1457 B( 38-C , 39-C ) :   1.0960
B( 38-C , 77-H ) :   0.9450 B( 38-C , 78-H ) :   0.9375 B( 39-C , 79-H ) :   0.9555
B( 39-C , 80-H ) :   0.9666 B( 39-C , 81-H ) :   0.9531 B( 40-C , 41-C ) :   1.4088
B( 40-C , 44-C ) :   1.2927 B( 41-C , 42-S ) :   1.0128 B( 42-S , 43-C ) :   1.0323
B( 43-C , 44-C ) :   1.3699 B( 43-C , 47-C ) :   1.3337 B( 44-C , 45-S ) :   1.0412
B( 45-S , 46-C ) :   1.0485 B( 46-C , 47-C ) :   1.3697 B( 46-C , 48-C ) :   1.2817
B( 47-C , 82-H ) :   1.0023 B( 48-C , 49-C ) :   1.5029 B( 48-C , 83-H ) :   0.9312
B( 49-C , 50-C ) :   1.0993 B( 49-C , 61-C ) :   0.9604 B( 50-C , 51-C ) :   1.6223
B( 50-C , 56-C ) :   0.9976 B( 51-C , 52-C ) :   1.1342 B( 51-C , 54-C ) :   1.1290
B( 52-C , 53-N ) :   2.9786 B( 54-C , 55-N ) :   2.9538 B( 56-C , 57-C ) :   1.5337
B( 56-C , 60-C ) :   1.2300 B( 57-C , 58-S ) :   1.1780 B( 57-C , 84-H ) :   0.9524
B( 58-S , 59-C ) :   1.1826 B( 59-C , 60-C ) :   1.5433 B( 59-C , 85-H ) :   0.9674
B( 60-C , 61-C ) :   0.9565 B( 61-C , 62-O ) :   2.1809

-----------------------------------------------------------------------------
         ABSORPTION SPECTRUM VIA TRANSITION ELECTRIC DIPOLE MOMENTS
-----------------------------------------------------------------------------
State   Energy  Wavelength   fosc         T2         TX        TY        TZ
        (cm-1)    (nm)                  (au**2)     (au)      (au)      (au)
-----------------------------------------------------------------------------
   0   16313.7    613.0   2.432335371  49.08479   5.26701  -4.61777  -0.13992
   1   19800.9    505.0   0.275755301   4.58473  -1.96788  -0.81810  -0.20706
   2   23249.7    430.1   0.068316476   0.96735   0.75484   0.60334   0.18318
   3   24690.8    405.0   0.064543899   0.86059   0.70493  -0.60171  -0.03994
   4   26365.2    379.3   0.012751493   0.15922  -0.31497  -0.12470  -0.21087
   5   27362.4    365.5   0.054718984   0.65835  -0.13443  -0.76332   0.24004
   6   27991.9    357.2   0.127348275   1.49774  -0.49332  -1.11561  -0.09898
   7   28626.5    349.3   0.084030108   0.96637   0.85508  -0.10208  -0.47412
   8   29239.8    342.0   0.047355953   0.53318  -0.02068   0.69088  -0.23545
   9   29669.9    337.0   0.016665004   0.18491   0.24429  -0.34950   0.05558
  10   29971.9    333.6   0.012252036   0.13458   0.04956   0.36335   0.00992
  11   30095.1    332.3   0.165657304   1.81214  -0.17422   1.30670  -0.27263
  12   31282.9    319.7   0.254011855   2.67314  -0.66779   1.41461  -0.47547
  13   31521.6    317.2   0.340556942   3.55678  -1.50057  -1.13564  -0.12401
  14   32048.2    312.0   0.109716647   1.12705   0.85598  -0.58523  -0.22773
  15   33808.7    295.8   0.049337452   0.48042   0.38435   0.57680  -0.00215
  16   34207.4    292.3   0.013844384   0.13324  -0.04078   0.27211  -0.23986
  17   34414.7    290.6   0.011626966   0.11122  -0.17493   0.24435  -0.14463
  18   34706.9    288.1   0.008484766   0.08048   0.07239   0.27019   0.04734
  19   35359.6    282.8   0.061953162   0.57681   0.09282   0.62597  -0.41995
  20   35508.8    281.6   0.075311517   0.69823   0.75083   0.34140   0.13389
  21   35662.2    280.4   0.013883387   0.12816  -0.33674  -0.10966  -0.05238
  22   35760.6    279.6   0.014776691   0.13603   0.25695   0.26425   0.01351
  23   36102.1    277.0   0.009596791   0.08751  -0.05467  -0.29063  -0.00744
  24   36315.6    275.4   0.084490735   0.76593  -0.19939  -0.83248   0.18209
  25   36415.5    274.6   0.154632516   1.39794   1.06533   0.35682   0.36837
  26   37016.7    270.1   0.054656913   0.48610  -0.46869   0.50957  -0.08223
  27   37748.3    264.9   0.205970632   1.79632  -0.69023  -1.10608  -0.31064
  28   37979.0    263.3   0.376640396   3.26482   0.51659   1.64465  -0.54136
  29   38669.6    258.6   0.139721714   1.18952   0.99009   0.45279   0.06490
  30   39093.0    255.8   0.509698172   4.29229  -0.15592  -2.03236   0.37081
  31   39191.3    255.2   0.169281998   1.42199   0.17864   0.80277   0.86350
  32   39519.8    253.0   0.018103648   0.15081   0.32441   0.11969   0.17675
  33   39993.3    250.0   0.027985351   0.23037   0.35688   0.23852   0.21474

FINAL SINGLE POINT ENERGY     -4795.247449887895

DIPOLE MOMENT
-------------
                                X             Y             Z
Electronic contribution:      5.51936       6.56902      -6.87732
Nuclear contribution   :     -5.24028      -4.47981       6.58182
                        -----------------------------------------
Total Dipole Moment    :      0.27909       2.08922      -0.29551
                        -----------------------------------------
Magnitude (a.u.)       :      2.12839
Magnitude (Debye)      :      5.40993

Rotational constants in cm-1:     0.002161     0.000311     0.000276
Rotational constants in MHz :    64.784682     9.310306     8.260349

                             ****ORCA TERMINATED NORMALLY****
TOTAL RUN TIME: 0 days 0 hours 45 minutes 3 seconds 813 msec
