                         Program Version 4.2.0 -  RELEASE  -
|  1> # ORCA input file
|  2> # Y2.out
|  3> ! CAM-B3LYP def2-SVP def2/J RIJCOSX Grid4 TightSCF
|  4> %maxcore 5000
|  5> %tddft
|  6>     Mode sTDDFT
|  7>     Ethresh 5.0
|  8>     maxcore 5000
|  9> end
| 10> * xyz 0 1
| 11>    C        4.48978         1.94151        -0.72963
| 12>    O        5.42205         2.62976        -1.07605
| 13>    C        3.06089         2.28321        -0.67749
| 14>    C        2.27182         3.34007        -0.99445
| 15>    S        0.61747         2.99500        -0.64613
| 16>    C        0.99212         1.41719        -0.05621
| 17>    C        2.32774         1.17535        -0.13773
| 18>    C        3.25754         0.11769         0.21433
| 19>    C        2.96746        -0.90630         1.08128
| 20>    C        1.65805        -1.11452         1.55719
| 21>    N        0.59053        -1.30372         1.93416
| 22>    C        3.92564        -1.76931         1.64160
| 23>    N        4.68217        -2.46816         2.14916
| 24>    C        4.55050         0.51233        -0.30160
| 25>    C        5.70758        -0.18270        -0.50877
| 26>    C        5.90786        -1.57483        -0.57834
| 27>    S        7.54361        -2.19985        -0.41220
| 28>    C        6.99016        -3.81111        -0.65983
| 29>    C        5.60365        -3.83893        -0.90029
| 30>    C        5.00220        -2.58958        -0.84450
| 31>    S        4.97882        -5.44590        -1.17726
| 32>    C        6.57533        -6.07516        -0.94480
| 33>    C        7.54027        -5.09438        -0.68535
| 34>    N        8.75788        -5.68086        -0.47960
| 35>    C        9.85090        -4.85763        -0.01737
| 36>    C       10.50215        -4.08025        -1.16170
| 37>    C        8.60574        -7.05272        -0.61170
| 38>    C        7.22603        -7.31034        -0.88640
| 39>    C        6.72608        -8.62435        -0.98067
| 40>    N        5.50803        -9.11465        -1.21624
| 41>    N        5.66792       -10.41210        -1.13494
| 42>    C        4.56892       -11.31838        -1.30395
| 43>    C        3.62931       -11.25160        -0.10455
| 44>    N        6.87694       -10.83803        -0.86644
| 45>    C        7.59723        -9.71960        -0.75974
| 46>    C        8.96875        -9.48139        -0.53981
| 47>    C        9.50337        -8.15305        -0.51997
| 48>    N       10.87955        -8.25699        -0.40571
| 49>    C       11.94877        -7.29353        -0.53033
| 50>    C       12.59477        -6.97590         0.81864
| 51>    C       11.20320        -9.58310        -0.32042
| 52>    C       10.04180       -10.36283        -0.39144
| 53>    S       10.33785       -12.06859        -0.31718
| 54>    C       12.05341       -11.73221        -0.20803
| 55>    C       12.36263       -10.35541        -0.22676
| 56>    S       14.06133       -10.07172        -0.13746
| 57>    C       14.36180       -11.80450        -0.06438
| 58>    C       13.17108       -12.53574        -0.11286
| 59>    C       15.61191       -12.42655         0.02896
| 60>    C       16.87705       -11.89252         0.07214
| 61>    C       18.10217       -12.66637         0.16299
| 62>    C       18.25960       -14.02602         0.25232
| 63>    C       19.54223       -14.60579         0.33538
| 64>    N       20.57948       -15.09277         0.40179
| 65>    C       17.22976       -14.98506         0.27728
| 66>    N       16.44091       -15.82030         0.30291
| 67>    C       19.20069       -11.71835         0.14935
| 68>    C       20.56028       -11.73828         0.19244
| 69>    S       21.20100       -10.13704         0.12997
| 70>    C       19.62925        -9.43048         0.04427
| 71>    C       18.67078       -10.39032         0.06417
| 72>    C       17.20642       -10.45924         0.01957
| 73>    O       16.42847        -9.52280        -0.04726
| 74>    H        2.54814         4.29094        -1.40371
| 75>    H        0.20295         0.78362         0.29614
| 76>    H        6.57591         0.43497        -0.71893
| 77>    H        3.95883        -2.41648        -1.03533
| 78>    H       10.56996        -5.47272         0.51450
| 79>    H        9.43692        -4.13952         0.69900
| 80>    H       11.38266        -3.55846        -0.79778
| 81>    H        9.80722        -3.34502        -1.55851
| 82>    H       10.79385        -4.73845        -1.97769
| 83>    H        4.99731       -12.31585        -1.41368
| 84>    H        4.03363       -11.03893        -2.21508
| 85>    H        4.15168       -11.54494         0.80278
| 86>    H        2.78790       -11.92134        -0.25653
| 87>    H        3.25686       -10.23745         0.01573
| 88>    H       11.57624        -6.40060        -1.02344
| 89>    H       12.71158        -7.73693        -1.17949
| 90>    H       11.85188        -6.70526         1.56642
| 91>    H       13.29809        -6.15605         0.70467
| 92>    H       13.13908        -7.84186         1.18465
| 93>    H       13.15345       -13.61009        -0.08042
| 94>    H       15.54313       -13.50735         0.06785
| 95>    H       21.23168       -12.57087         0.25564
| 96>    H       19.51990        -8.36621        -0.01419
| 97> *
| 98>
| 99>                          ****END OF INPUT****

CARTESIAN COORDINATES (ANGSTROEM)
---------------------------------
  C      4.489780    1.941510   -0.729630
  O      5.422050    2.629760   -1.076050
  C      3.060890    2.283210   -0.677490
  C      2.271820    3.340070   -0.994450
  S      0.617470    2.995000   -0.646130
  C      0.992120    1.417190   -0.056210
  C      2.327740    1.175350   -0.137730
  C      3.257540    0.117690    0.214330
  C      2.967460   -0.906300    1.081280
  C      1.658050   -1.114520    1.557190
  N      0.590530   -1.303720    1.934160
  C      3.925640   -1.769310    1.641600
  N      4.682170   -2.468160    2.149160
  C      4.550500    0.512330   -0.301600
  C      5.707580   -0.182700   -0.508770
  C      5.907860   -1.574830   -0.578340
  S      7.543610   -2.199850   -0.412200
  C      6.990160   -3.811110   -0.659830
  C      5.603650   -3.838930   -0.900290
  C      5.002200   -2.589580   -0.844500
  S      4.978820   -5.445900   -1.177260
  C      6.575330   -6.075160   -0.944800
  C      7.540270   -5.094380   -0.685350
  N      8.757880   -5.680860   -0.479600
  C      9.850900   -4.857630   -0.017370
  C     10.502150   -4.080250   -1.161700
  C      8.605740   -7.052720   -0.611700
  C      7.226030   -7.310340   -0.886400
  C      6.726080   -8.624350   -0.980670
  N      5.508030   -9.114650   -1.216240
  N      5.667920  -10.412100   -1.134940
  C      4.568920  -11.318380   -1.303950
  C      3.629310  -11.251600   -0.104550
  N      6.876940  -10.838030   -0.866440
  C      7.597230   -9.719600   -0.759740
  C      8.968750   -9.481390   -0.539810
  C      9.503370   -8.153050   -0.519970
  N     10.879550   -8.256990   -0.405710
  C     11.948770   -7.293530   -0.530330
  C     12.594770   -6.975900    0.818640
  C     11.203200   -9.583100   -0.320420
  C     10.041800  -10.362830   -0.391440
  S     10.337850  -12.068590   -0.317180
  C     12.053410  -11.732210   -0.208030
  C     12.362630  -10.355410   -0.226760
  S     14.061330  -10.071720   -0.137460
  C     14.361800  -11.804500   -0.064380
  C     13.171080  -12.535740   -0.112860
  C     15.611910  -12.426550    0.028960
  C     16.877050  -11.892520    0.072140
  C     18.102170  -12.666370    0.162990
  C     18.259600  -14.026020    0.252320
  C     19.542230  -14.605790    0.335380
  N     20.579480  -15.092770    0.401790
  C     17.229760  -14.985060    0.277280
  N     16.440910  -15.820300    0.302910
  C     19.200690  -11.718350    0.149350
  C     20.560280  -11.738280    0.192440
  S     21.201000  -10.137040    0.129970
  C     19.629250   -9.430480    0.044270
  C     18.670780  -10.390320    0.064170
  C     17.206420  -10.459240    0.019570
  O     16.428470   -9.522800   -0.047260
  H      2.548140    4.290940   -1.403710
  H      0.202950    0.783620    0.296140
  H      6.575910    0.434970   -0.718930
  H      3.958830   -2.416480   -1.035330
  H     10.569960   -5.472720    0.514500
  H      9.436920   -4.139520    0.699000
  H     11.382660   -3.558460   -0.797780
  H      9.807220   -3.345020   -1.558510
  H     10.793850   -4.738450   -1.977690
  H      4.997310  -12.315850   -1.413680
  H      4.033630  -11.038930   -2.215080
  H      4.151680  -11.544940    0.802780
  H      2.787900  -11.921340   -0.256530
  H      3.256860  -10.237450    0.015730
  H     11.576240   -6.400600   -1.023440
  H     12.711580   -7.736930   -1.179490
  H     11.851880   -6.705260    1.566420
  H     13.298090   -6.156050    0.704670
  H     13.139080   -7.841860    1.184650
  H     13.153450  -13.610090   -0.080420
  H     15.543130  -13.507350    0.067850
  H     21.231680  -12.570870    0.255640
  H     19.519900   -8.366210   -0.014190

 Total Charge           Charge          ....    0
 Multiplicity           Mult            ....    1
 Number of Electrons    NEL             ....  474
 Basis Dimension        Dim             .... 1021

ORBITAL ENERGIES
----------------

  NO   OCC          E(Eh)            E(eV)
   0   2.0000     -88.981318     -2421.3047
   1   2.0000     -88.980980     -2421.2956
   2   2.0000     -88.976250     -2421.1668
   3   2.0000     -88.969238     -2420.9761
   4   2.0000     -88.963381     -2420.8167
   5   2.0000     -88.961337     -2420.7611
   6   2.0000     -19.219170      -522.9802
   7   2.0000     -19.211079      -522.7600
   8   2.0000     -14.524515      -395.2322
   9   2.0000     -14.482069      -394.0771
  10   2.0000     -14.481054      -394.0495
  11   2.0000     -14.436722      -392.8432
  12   2.0000     -14.436142      -392.8274
  13   2.0000     -14.413535      -392.2122
  14   2.0000     -14.412751      -392.1909
  15   2.0000     -14.412636      -392.1878
  16   2.0000     -14.409225      -392.0949
  17   2.0000     -10.371972      -282.2357
  18   2.0000     -10.366823      -282.0956
  19   2.0000     -10.341924      -281.4181
  20   2.0000     -10.339596      -281.3547
  21   2.0000     -10.338439      -281.3232
  22   2.0000     -10.337499      -281.2976
  23   2.0000     -10.336898      -281.2813
  24   2.0000     -10.335058      -281.2312
  25   2.0000     -10.334796      -281.2241
  26   2.0000     -10.332776      -281.1691
  27   2.0000     -10.324749      -280.9507
  28   2.0000     -10.321515      -280.8627
  29   2.0000     -10.321311      -280.8572
  30   2.0000     -10.321069      -280.8506
  31   2.0000     -10.321043      -280.8499
  32   2.0000     -10.320706      -280.8407
  33   2.0000     -10.319242      -280.8009
  34   2.0000     -10.319192      -280.7995
  35   2.0000     -10.318718      -280.7866
  36   2.0000     -10.318356      -280.7767
  37   2.0000     -10.317069      -280.7417
  38   2.0000     -10.316745      -280.7329
  39   2.0000     -10.315952      -280.7113
  40   2.0000     -10.315716      -280.7049
  41   2.0000     -10.315523      -280.6997
  42   2.0000     -10.314091      -280.6607
  43   2.0000     -10.312494      -280.6172
  44   2.0000     -10.311777      -280.5977
  45   2.0000     -10.309130      -280.5257
  46   2.0000     -10.305748      -280.4337
  47   2.0000     -10.304189      -280.3913
  48   2.0000     -10.303130      -280.3624
  49   2.0000     -10.302766      -280.3525
  50   2.0000     -10.301728      -280.3243
  51   2.0000     -10.300497      -280.2908
  52   2.0000     -10.297554      -280.2107
  53   2.0000     -10.296642      -280.1859
  54   2.0000     -10.295339      -280.1504
  55   2.0000     -10.294474      -280.1269
  56   2.0000     -10.289631      -279.9951
  57   2.0000     -10.289613      -279.9946
  58   2.0000     -10.289566      -279.9933
  59   2.0000     -10.289185      -279.9830
  60   2.0000     -10.285415      -279.8804
  61   2.0000     -10.280869      -279.7567
  62   2.0000     -10.266320      -279.3608
  63   2.0000      -8.077035      -219.7873
  64   2.0000      -8.076903      -219.7837
  65   2.0000      -8.070827      -219.6184
  66   2.0000      -8.061598      -219.3672
  67   2.0000      -8.057837      -219.2649
  68   2.0000      -8.055823      -219.2101
  69   2.0000      -6.046277      -164.5276
  70   2.0000      -6.046171      -164.5247
  71   2.0000      -6.041588      -164.4000
  72   2.0000      -6.041451      -164.3962
  73   2.0000      -6.040381      -164.3671
  74   2.0000      -6.039776      -164.3507
  75   2.0000      -6.039545      -164.3444
  76   2.0000      -6.036284      -164.2556
  77   2.0000      -6.032511      -164.1530
  78   2.0000      -6.031437      -164.1237
  79   2.0000      -6.027728      -164.0228
  80   2.0000      -6.026735      -163.9958
  81   2.0000      -6.025747      -163.9689
  82   2.0000      -6.023760      -163.9148
  83   2.0000      -6.023293      -163.9021
  84   2.0000      -6.021784      -163.8611
  85   2.0000      -6.018676      -163.7765
  86   2.0000      -6.016569      -163.7192
  87   2.0000      -1.207772       -32.8651
  88   2.0000      -1.134986       -30.8845
  89   2.0000      -1.127134       -30.6709
  90   2.0000      -1.111399       -30.2427
  91   2.0000      -1.099969       -29.9317
  92   2.0000      -1.022289       -27.8179
  93   2.0000      -1.020867       -27.7792
  94   2.0000      -1.014181       -27.5973
  95   2.0000      -1.009633       -27.4735
  96   2.0000      -1.004075       -27.3223
  97   2.0000      -1.003817       -27.3153
  98   2.0000      -0.991144       -26.9704
  99   2.0000      -0.990042       -26.9404
 100   2.0000      -0.983218       -26.7547
 101   2.0000      -0.976625       -26.5753
 102   2.0000      -0.963789       -26.2260
 103   2.0000      -0.962763       -26.1981
 104   2.0000      -0.952651       -25.9230
 105   2.0000      -0.950236       -25.8572
 106   2.0000      -0.929912       -25.3042
 107   2.0000      -0.911322       -24.7983
 108   2.0000      -0.899627       -24.4801
 109   2.0000      -0.897501       -24.4222
 110   2.0000      -0.883052       -24.0291
 111   2.0000      -0.881100       -23.9760
 112   2.0000      -0.879442       -23.9308
 113   2.0000      -0.865137       -23.5416
 114   2.0000      -0.859202       -23.3801
 115   2.0000      -0.845791       -23.0151
 116   2.0000      -0.839913       -22.8552
 117   2.0000      -0.839800       -22.8521
 118   2.0000      -0.831702       -22.6318
 119   2.0000      -0.823715       -22.4144
 120   2.0000      -0.810421       -22.0527
 121   2.0000      -0.804733       -21.8979
 122   2.0000      -0.800425       -21.7807
 123   2.0000      -0.780710       -21.2442
 124   2.0000      -0.768901       -20.9229
 125   2.0000      -0.762347       -20.7445
 126   2.0000      -0.757361       -20.6088
 127   2.0000      -0.753540       -20.5049
 128   2.0000      -0.745070       -20.2744
 129   2.0000      -0.729593       -19.8532
 130   2.0000      -0.718376       -19.5480
 131   2.0000      -0.713813       -19.4238
 132   2.0000      -0.699068       -19.0226
 133   2.0000      -0.697172       -18.9710
 134   2.0000      -0.688590       -18.7375
 135   2.0000      -0.680127       -18.5072
 136   2.0000      -0.668644       -18.1947
 137   2.0000      -0.667765       -18.1708
 138   2.0000      -0.663979       -18.0678
 139   2.0000      -0.657748       -17.8982
 140   2.0000      -0.650582       -17.7032
 141   2.0000      -0.647105       -17.6086
 142   2.0000      -0.639853       -17.4113
 143   2.0000      -0.634859       -17.2754
 144   2.0000      -0.633504       -17.2385
 145   2.0000      -0.631623       -17.1873
 146   2.0000      -0.621526       -16.9126
 147   2.0000      -0.616872       -16.7859
 148   2.0000      -0.606275       -16.4976
 149   2.0000      -0.600497       -16.3404
 150   2.0000      -0.597697       -16.2642
 151   2.0000      -0.595553       -16.2058
 152   2.0000      -0.592396       -16.1199
 153   2.0000      -0.585734       -15.9386
 154   2.0000      -0.573960       -15.6183
 155   2.0000      -0.569912       -15.5081
 156   2.0000      -0.567647       -15.4465
 157   2.0000      -0.560687       -15.2571
 158   2.0000      -0.551530       -15.0079
 159   2.0000      -0.547405       -14.8956
 160   2.0000      -0.542420       -14.7600
 161   2.0000      -0.540197       -14.6995
 162   2.0000      -0.538932       -14.6651
 163   2.0000      -0.537530       -14.6269
 164   2.0000      -0.534776       -14.5520
 165   2.0000      -0.531481       -14.4623
 166   2.0000      -0.528545       -14.3825
 167   2.0000      -0.527459       -14.3529
 168   2.0000      -0.522665       -14.2224
 169   2.0000      -0.521526       -14.1915
 170   2.0000      -0.519107       -14.1256
 171   2.0000      -0.513195       -13.9647
 172   2.0000      -0.510653       -13.8956
 173   2.0000      -0.509021       -13.8512
 174   2.0000      -0.505661       -13.7597
 175   2.0000      -0.501844       -13.6559
 176   2.0000      -0.496901       -13.5214
 177   2.0000      -0.495060       -13.4713
 178   2.0000      -0.493849       -13.4383
 179   2.0000      -0.493710       -13.4345
 180   2.0000      -0.487701       -13.2710
 181   2.0000      -0.486998       -13.2519
 182   2.0000      -0.482355       -13.1255
 183   2.0000      -0.479710       -13.0536
 184   2.0000      -0.478241       -13.0136
 185   2.0000      -0.476192       -12.9578
 186   2.0000      -0.474435       -12.9100
 187   2.0000      -0.471414       -12.8278
 188   2.0000      -0.470117       -12.7925
 189   2.0000      -0.469535       -12.7767
 190   2.0000      -0.467192       -12.7129
 191   2.0000      -0.464538       -12.6407
 192   2.0000      -0.463011       -12.5992
 193   2.0000      -0.458270       -12.4702
 194   2.0000      -0.456308       -12.4168
 195   2.0000      -0.448238       -12.1972
 196   2.0000      -0.446840       -12.1591
 197   2.0000      -0.446541       -12.1510
 198   2.0000      -0.446203       -12.1418
 199   2.0000      -0.443975       -12.0812
 200   2.0000      -0.443369       -12.0647
 201   2.0000      -0.439171       -11.9504
 202   2.0000      -0.438031       -11.9194
 203   2.0000      -0.437679       -11.9098
 204   2.0000      -0.434574       -11.8253
 205   2.0000      -0.433787       -11.8040
 206   2.0000      -0.426346       -11.6015
 207   2.0000      -0.426070       -11.5939
 208   2.0000      -0.424143       -11.5415
 209   2.0000      -0.423504       -11.5241
 210   2.0000      -0.422242       -11.4898
 211   2.0000      -0.419352       -11.4111
 212   2.0000      -0.410586       -11.1726
 213   2.0000      -0.409381       -11.1398
 214   2.0000      -0.406442       -11.0599
 215   2.0000      -0.403418       -10.9776
 216   2.0000      -0.402997       -10.9661
 217   2.0000      -0.395247       -10.7552
 218   2.0000      -0.388977       -10.5846
 219   2.0000      -0.386923       -10.5287
 220   2.0000      -0.370232       -10.0745
 221   2.0000      -0.366483        -9.9725
 222   2.0000      -0.365794        -9.9538
 223   2.0000      -0.350774        -9.5450
 224   2.0000      -0.339969        -9.2510
 225   2.0000      -0.336284        -9.1508
 226   2.0000      -0.335578        -9.1315
 227   2.0000      -0.334776        -9.1097
 228   2.0000      -0.333796        -9.0831
 229   2.0000      -0.320369        -8.7177
 230   2.0000      -0.315017        -8.5720
 231   2.0000      -0.310864        -8.4590
 232   2.0000      -0.302878        -8.2417
 233   2.0000      -0.287488        -7.8229
 234   2.0000      -0.276264        -7.5175
 235   2.0000      -0.267482        -7.2785
 236   2.0000      -0.235486        -6.4079
 237   0.0000      -0.096874        -2.6361
 238   0.0000      -0.085659        -2.3309
 239   0.0000      -0.048100        -1.3089
 240   0.0000      -0.044546        -1.2122
 241   0.0000      -0.024929        -0.6784

MULLIKEN ATOMIC CHARGES
-----------------------
   0 C :    0.149097
   1 O :   -0.145464
   2 C :    0.047823
   3 C :   -0.139932
   4 S :    0.152149
   5 C :   -0.131572
   6 C :    0.008135
   7 C :    0.269609
   8 C :   -0.333635
   9 C :   -0.180296
  10 N :    0.148597
  11 C :   -0.204107
  12 N :    0.171491
  13 C :   -0.162523
  14 C :    0.086508
  15 C :   -0.107541
  16 S :    0.156628
  17 C :   -0.051410
  18 C :   -0.056460
  19 C :    0.013604
  20 S :    0.199087
  21 C :   -0.100953
  22 C :    0.037360
  23 N :   -0.169482
  24 C :    0.091449
  25 C :    0.006106
  26 C :    0.051108
  27 C :   -0.087182
  28 C :   -0.025435
  29 N :   -0.041221
  30 N :   -0.107085
  31 C :    0.147064
  32 C :   -0.014834
  33 N :   -0.030356
  34 C :   -0.033897
  35 C :   -0.090656
  36 C :    0.058930
  37 N :   -0.163353
  38 C :    0.088859
  39 C :    0.005315
  40 C :    0.034047
  41 C :   -0.100524
  42 S :    0.191203
  43 C :   -0.012831
  44 C :   -0.047539
  45 S :    0.184213
  46 C :   -0.046382
  47 C :   -0.049493
  48 C :   -0.019465
  49 C :   -0.119182
  50 C :    0.308670
  51 C :   -0.344363
  52 C :   -0.198306
  53 N :    0.146112
  54 C :   -0.182614
  55 N :    0.144750
  56 C :    0.026035
  57 C :   -0.134890
  58 S :    0.151371
  59 C :   -0.141963
  60 C :    0.037981
  61 C :    0.180547
  62 O :   -0.186081
  63 H :    0.038823
  64 H :    0.049440
  65 H :    0.022360
  66 H :    0.005028
  67 H :    0.006247
  68 H :    0.037353
  69 H :    0.030620
  70 H :    0.025419
  71 H :    0.038991
  72 H :    0.035590
  73 H :    0.034233
  74 H :    0.028098
  75 H :    0.025657
  76 H :    0.038675
  77 H :    0.004404
  78 H :    0.037752
  79 H :    0.038144
  80 H :    0.031242
  81 H :    0.033078
  82 H :    0.010690
  83 H :    0.008233
  84 H :    0.051047
  85 H :    0.036058
Sum of atomic charges:   -0.0000000

LOEWDIN ATOMIC CHARGES
----------------------
   0 C :    0.080867
   1 O :   -0.147165
   2 C :   -0.091729
   3 C :   -0.141007
   4 S :    0.481096
   5 C :   -0.154998
   6 C :   -0.061841
   7 C :    0.066192
   8 C :   -0.149145
   9 C :   -0.018229
  10 N :   -0.058540
  11 C :   -0.020716
  12 N :   -0.044993
  13 C :   -0.102776
  14 C :    0.048671
  15 C :   -0.184428
  16 S :    0.440420
  17 C :   -0.191086
  18 C :   -0.186498
  19 C :   -0.015372
  20 S :    0.428588
  21 C :   -0.173100
  22 C :   -0.040104
  23 N :    0.038891
  24 C :    0.036914
  25 C :   -0.063627
  26 C :    0.008646
  27 C :   -0.069690
  28 C :   -0.060671
  29 N :   -0.092833
  30 N :    0.143402
  31 C :    0.036365
  32 C :   -0.056705
  33 N :   -0.089806
  34 C :   -0.063769
  35 C :   -0.071449
  36 C :    0.011299
  37 N :    0.040189
  38 C :    0.036287
  39 C :   -0.063903
  40 C :   -0.045259
  41 C :   -0.169898
  42 S :    0.417246
  43 C :   -0.194557
  44 C :   -0.196679
  45 S :    0.486629
  46 C :   -0.185078
  47 C :   -0.016287
  48 C :    0.055770
  49 C :   -0.118777
  50 C :    0.078236
  51 C :   -0.151468
  52 C :   -0.015388
  53 N :   -0.061955
  54 C :   -0.022976
  55 N :   -0.058759
  56 C :   -0.062477
  57 C :   -0.149842
  58 S :    0.479891
  59 C :   -0.143055
  60 C :   -0.089943
  61 C :    0.083624
  62 O :   -0.174928
  63 H :    0.035358
  64 H :    0.035261
  65 H :    0.045284
  66 H :    0.039342
  67 H :    0.028415
  68 H :    0.031732
  69 H :    0.034282
  70 H :    0.022097
  71 H :    0.026985
  72 H :    0.036547
  73 H :    0.034644
  74 H :    0.030288
  75 H :    0.031410
  76 H :    0.032117
  77 H :    0.026609
  78 H :    0.031768
  79 H :    0.026182
  80 H :    0.034655
  81 H :    0.024686
  82 H :    0.043205
  83 H :    0.051591
  84 H :    0.035689
  85 H :    0.034135

  Mayer bond orders larger than 0.100000
B(  0-C ,  1-O ) :   2.2607 B(  0-C ,  2-C ) :   0.9274 B(  0-C , 13-C ) :   0.9471
B(  2-C ,  3-C ) :   1.5485 B(  2-C ,  6-C ) :   1.2234 B(  3-C ,  4-S ) :   1.1883
B(  3-C , 63-H ) :   0.9710 B(  4-S ,  5-C ) :   1.1731 B(  5-C ,  6-C ) :   1.5463
B(  5-C , 64-H ) :   0.9572 B(  6-C ,  7-C ) :   1.0057 B(  7-C ,  8-C ) :   1.6409
B(  7-C , 13-C ) :   1.0604 B(  8-C ,  9-C ) :   1.1331 B(  8-C , 11-C ) :   1.1628
B(  9-C , 10-N ) :   2.9991 B( 11-C , 12-N ) :   3.0040 B( 13-C , 14-C ) :   1.6392
B( 14-C , 15-C ) :   1.1578 B( 14-C , 65-H ) :   0.9278 B( 15-C , 16-S ) :   1.0558
B( 15-C , 19-C ) :   1.4311 B( 16-S , 17-C ) :   1.0719 B( 17-C , 18-C ) :   1.3987
B( 17-C , 22-C ) :   1.2881 B( 18-C , 19-C ) :   1.3595 B( 18-C , 20-S ) :   1.0396
B( 19-C , 66-H ) :   0.9882 B( 20-S , 21-C ) :   1.0179 B( 21-C , 22-C ) :   1.4101
B( 21-C , 27-C ) :   1.3779 B( 22-C , 23-N ) :   1.1520 B( 22-C , 26-C ) :   0.1057
B( 23-N , 24-C ) :   0.9483 B( 23-N , 26-C ) :   1.1630 B( 24-C , 25-C ) :   1.1004
B( 24-C , 67-H ) :   0.9467 B( 24-C , 68-H ) :   0.9401 B( 25-C , 69-H ) :   0.9663
B( 25-C , 70-H ) :   0.9524 B( 25-C , 71-H ) :   0.9567 B( 26-C , 27-C ) :   1.3825
B( 26-C , 36-C ) :   1.1451 B( 27-C , 28-C ) :   1.0844 B( 27-C , 35-C ) :   0.1040
B( 28-C , 29-N ) :   1.5544 B( 28-C , 34-C ) :   1.2388 B( 29-N , 30-N ) :   1.2074
B( 29-N , 33-N ) :   0.1471 B( 30-N , 31-C ) :   0.9356 B( 30-N , 33-N ) :   1.2177
B( 31-C , 32-C ) :   1.1130 B( 31-C , 72-H ) :   0.9450 B( 31-C , 73-H ) :   0.9474
B( 32-C , 74-H ) :   0.9675 B( 32-C , 75-H ) :   0.9679 B( 32-C , 76-H ) :   0.9696
B( 33-N , 34-C ) :   1.5605 B( 34-C , 35-C ) :   1.0849 B( 35-C , 36-C ) :   1.3800
B( 35-C , 41-C ) :   1.3850 B( 36-C , 37-N ) :   1.1700 B( 36-C , 40-C ) :   0.1056
B( 37-N , 38-C ) :   0.9502 B( 37-N , 40-C ) :   1.1484 B( 38-C , 39-C ) :   1.0999
B( 38-C , 77-H ) :   0.9467 B( 38-C , 78-H ) :   0.9396 B( 39-C , 79-H ) :   0.9564
B( 39-C , 80-H ) :   0.9659 B( 39-C , 81-H ) :   0.9509 B( 40-C , 41-C ) :   1.4001
B( 40-C , 44-C ) :   1.2991 B( 41-C , 42-S ) :   1.0139 B( 42-S , 43-C ) :   1.0268
B( 43-C , 44-C ) :   1.3534 B( 43-C , 47-C ) :   1.3487 B( 44-C , 45-S ) :   1.0281
B( 45-S , 46-C ) :   1.0504 B( 46-C , 47-C ) :   1.3440 B( 46-C , 48-C ) :   1.2943
B( 47-C , 82-H ) :   1.0118 B( 48-C , 49-C ) :   1.4730 B( 48-C , 83-H ) :   0.9405
B( 49-C , 50-C ) :   1.1005 B( 49-C , 61-C ) :   0.9790 B( 50-C , 51-C ) :   1.6250
B( 50-C , 56-C ) :   0.9890 B( 51-C , 52-C ) :   1.1536 B( 51-C , 54-C ) :   1.1399
B( 52-C , 53-N ) :   2.9881 B( 54-C , 55-N ) :   2.9600 B( 56-C , 57-C ) :   1.5421
B( 56-C , 60-C ) :   1.2239 B( 57-C , 58-S ) :   1.1732 B( 57-C , 84-H ) :   0.9564
B( 58-S , 59-C ) :   1.1843 B( 59-C , 60-C ) :   1.5380 B( 59-C , 85-H ) :   0.9721
B( 60-C , 61-C ) :   0.9703 B( 61-C , 62-O ) :   2.1216

-----------------------------------------------------------------------------
         ABSORPTION SPECTRUM VIA TRANSITION ELECTRIC DIPOLE MOMENTS
-----------------------------------------------------------------------------
State   Energy  Wavelength   fosc         T2         TX        TY        TZ
        (cm-1)    (nm)                  (au**2)     (au)      (au)      (au)
-----------------------------------------------------------------------------
   0   15818.6    632.2   2.165804549  45.07395   5.01313  -4.46125  -0.19925
   1   19244.8    519.6   0.368335084   6.30094   2.40073   0.13566   0.72044
   2   22841.6    437.8   0.060519713   0.87226  -0.75530  -0.54625  -0.05815
   3   24300.3    411.5   0.061166771   0.82867  -0.64320   0.64387  -0.01979
   4   26051.4    383.9   0.037584345   0.47495   0.38933  -0.12409   0.55496
   5   26764.6    373.6   0.004678293   0.05754  -0.13879   0.18260  -0.07028
   6   27397.8    365.0   0.260732045   3.13296  -0.35806  -1.73109   0.08981
   7   28395.9    352.2   0.067161440   0.77865   0.74632   0.09565  -0.46098
   8   28960.1    345.3   0.041286888   0.46934   0.03504  -0.65112   0.21012
   9   29425.5    339.8   0.030070615   0.33643  -0.41900   0.36830  -0.15883
  10   29573.9    338.1   0.002287614   0.02547   0.12721  -0.05197  -0.08114
  11   29748.0    336.2   0.130647799   1.44584  -0.32137   1.14712  -0.16331
  12   31390.6    318.6   0.380003676   3.98532   1.07079  -1.63056   0.42425
  13   31718.6    315.3   0.263560011   2.73553   1.13727   1.19846  -0.07632
  14   31997.4    312.5   0.070860589   0.72906  -0.79074   0.29547   0.12839
  15   33839.5    295.5   0.031878046   0.31013   0.41141   0.35781  -0.11332
  16   34270.9    291.8   0.011744611   0.11282  -0.21020  -0.25504   0.05995
  17   34570.4    289.3   0.033016882   0.31442  -0.16285   0.49585  -0.20501
  18   34924.6    286.3   0.012333412   0.11626   0.25430   0.20243  -0.10303
  19   35115.6    284.8   0.001429947   0.01341  -0.10164  -0.04600   0.03096
  20   35350.5    282.9   0.090407348   0.84194   0.87697   0.26968   0.01187
  21   35777.9    279.5   0.043670456   0.40184  -0.57868  -0.21409  -0.14535
  22   35974.0    278.0   0.027720501   0.25368  -0.19491   0.40439  -0.22839
  23   36112.4    276.9   0.100406576   0.91534   0.84128  -0.32744   0.31681
  24   36244.1    275.9   0.242532576   2.20297  -0.78026  -1.25869   0.09929
  25   37097.8    269.6   0.020183388   0.17911  -0.01678   0.42021   0.04748
  26   37353.4    267.7   0.061554699   0.54251  -0.09196  -0.49667   0.53607
  27   37546.9    266.3   0.095836623   0.84030  -0.77198  -0.48412   0.09991
  28   38004.1    263.1   0.317296193   2.74859   0.36809   1.60571  -0.18651
  29   38598.6    259.1   0.160772383   1.37125   1.13345  -0.02564   0.29303
  30   39083.8    255.9   0.549409581   4.62780  -0.27600  -2.13203   0.07784
  31   39477.4    253.3   0.021740148   0.18130   0.37528   0.20077   0.01224
  32   39879.6    250.8   0.304195154   2.51118   0.50014  -1.32066   0.71896
  33   40307.9    248.1   0.026347442   0.21519   0.38619   0.14884   0.20951

FINAL SINGLE POINT ENERGY     -4795.233587807502

DIPOLE MOMENT
-------------
                                X             Y             Z
Electronic contribution:      5.42005       3.67698       0.60135
Nuclear contribution   :     -5.64307      -1.21269      -2.01926
                        -----------------------------------------
Total Dipole Moment    :     -0.22302       2.46429      -1.41791
                        -----------------------------------------
Magnitude (a.u.)       :      2.85183
Magnitude (Debye)      :      7.24878

Rotational constants in cm-1:     0.002349     0.000322     0.000288
Rotational constants in MHz :    70.428933     9.652594     8.620909

                             ****ORCA TERMINATED NORMALLY****
TOTAL RUN TIME: 0 days 0 hours 48 minutes 31 seconds 45 msec
