                         Program Version 4.2.0 -  RELEASE  -
|  1> # ORCA input file
|  2> # Y5.out
|  3> ! CAM-B3LYP def2-SVP def2/J RIJCOSX Grid4 TightSCF
|  4> %maxcore 5000
|  5> %tddft
|  6>     Mode sTDDFT
|  7>     Ethresh 5.0
|  8>     maxcore 5000
|  9> end
| 10> * xyz 0 1
| 11>    C       -2.26755        -0.67117        -0.92230
| 12>    O       -2.36677         0.21267        -1.74273
| 13>    C       -1.05402        -1.12817        -0.21215
| 14>    C        0.25526        -0.71948        -0.37373
| 15>    C        1.23371        -1.33134         0.39820
| 16>    C        0.89908        -2.32770         1.30426
| 17>    C       -0.41690        -2.73669         1.47788
| 18>    C       -1.39987        -2.13036         0.71410
| 19>    C       -2.84916        -2.31324         0.68382
| 20>    C       -3.61346        -2.82844         1.69803
| 21>    C       -5.01659        -2.68941         1.73604
| 22>    N       -6.15300        -2.54425         1.81247
| 23>    C       -3.08627        -3.46046         2.84047
| 24>    N       -2.71041        -4.00600         3.77806
| 25>    C       -3.34602        -1.58535        -0.46082
| 26>    C       -4.49525        -1.69241        -1.18425
| 27>    C       -5.41757        -2.75662        -1.24857
| 28>    S       -4.99126        -4.38335        -0.71423
| 29>    C       -6.50057        -4.99280        -1.27866
| 30>    C       -7.27718        -3.97663        -1.85268
| 31>    C       -6.67259        -2.71649        -1.84685
| 32>    C       -7.33883        -1.47331        -2.32985
| 33>    C       -7.88817        -0.67132        -1.14808
| 34>    S       -8.80175        -4.54709        -2.49164
| 35>    C       -8.38202        -6.14585        -1.98883
| 36>    C       -7.14460        -6.23135        -1.33830
| 37>    N       -6.90043        -7.52278        -0.95134
| 38>    C       -5.52989        -7.91900        -0.70307
| 39>    C       -4.85966        -8.40579        -1.98552
| 40>    C       -7.97454        -8.29251        -1.37788
| 41>    C       -8.89647        -7.44797        -2.06024
| 42>    C      -10.02008        -7.96243        -2.74894
| 43>    N      -10.92381        -7.31027        -3.46365
| 44>    S      -11.93343        -8.38905        -4.11834
| 45>    N      -11.25049        -9.73033        -3.53151
| 46>    C      -10.21811        -9.37965        -2.78288
| 47>    C       -9.39578       -10.19561        -1.97278
| 48>    C       -8.31357        -9.66137        -1.20859
| 49>    N       -7.85065       -10.64486        -0.36892
| 50>    C       -6.98938       -10.52683         0.78486
| 51>    C       -5.61646       -11.15215         0.54571
| 52>    C       -8.59743       -11.77946        -0.58214
| 53>    C       -9.54367       -11.52748        -1.58380
| 54>    S      -10.63460       -12.81975        -1.89267
| 55>    C       -9.92241       -13.72038        -0.45541
| 56>    C       -8.71194       -13.02774         0.04699
| 57>    S       -7.84528       -13.63990         1.31844
| 58>    C      -10.79381       -14.31161         0.66189
| 59>    C      -10.27266       -15.14628        -0.21386
| 60>    C      -10.15937       -16.46887        -0.81558
| 61>    C      -10.81897       -17.53749         0.05031
| 62>    C      -11.08412       -13.85601         1.95671
| 63>    C      -11.15011       -12.53374         2.26618
| 64>    C      -11.35123       -11.41543         1.36658
| 65>    C      -12.24038       -11.40695         0.32863
| 66>    C      -12.54330       -10.25686        -0.42615
| 67>    N      -12.81793        -9.32834        -1.04213
| 68>    C      -13.00456       -12.55023         0.00390
| 69>    N      -13.64688       -13.47060        -0.23383
| 70>    C      -10.62133       -10.28510         1.92203
| 71>    C      -10.29388        -9.05602         1.37338
| 72>    C       -9.51927        -8.18702         2.12823
| 73>    C       -9.09426        -8.52523         3.40575
| 74>    C       -9.43534        -9.74758         3.97067
| 75>    C      -10.19612       -10.62313         3.22141
| 76>    C      -10.65398       -11.99330         3.56341
| 77>    O      -10.57947       -12.56420         4.62206
| 78>    H        0.49728         0.05578        -1.08429
| 79>    H        2.26542        -1.03165         0.29185
| 80>    H        1.67632        -2.79732         1.88846
| 81>    H       -0.65573        -3.51721         2.18284
| 82>    H       -4.66403        -0.88627        -1.89256
| 83>    H       -8.15787        -1.75126        -2.99534
| 84>    H       -6.63090        -0.85838        -2.88881
| 85>    H       -8.61407        -1.26318        -0.59726
| 86>    H       -8.37292         0.23414        -1.50337
| 87>    H       -7.08588        -0.39673        -0.46686
| 88>    H       -5.47345        -8.68538         0.06312
| 89>    H       -5.01095        -7.03263        -0.32892
| 90>    H       -5.38446        -9.27077        -2.38615
| 91>    H       -3.82911        -8.68199        -1.78086
| 92>    H       -4.86577        -7.62143        -2.73867
| 93>    H       -7.47053       -11.06429         1.60921
| 94>    H       -6.93436        -9.47467         1.06896
| 95>    H       -5.71614       -12.23359         0.50550
| 96>    H       -4.94979       -10.90328         1.36695
| 97>    H       -5.17694       -10.81480        -0.38916
| 98>    H       -9.09696       -16.68682        -0.96566
| 99>    H      -10.62342       -16.43801        -1.80780
|100>    H      -10.34459       -17.57903         1.02859
|101>    H      -10.72555       -18.51096        -0.42333
|102>    H      -11.87496       -17.31360         0.18592
|103>    H      -11.02261       -14.58018         2.76117
|104>    H      -10.61806        -8.78110         0.38187
|105>    H       -9.24207        -7.22940         1.70983
|106>    H       -8.49531        -7.82665         3.96726
|107>    H       -9.11602       -10.01957         4.96442
|108> *
|109>
|110>                          ****END OF INPUT****

CARTESIAN COORDINATES (ANGSTROEM)
---------------------------------
  C     -2.267550   -0.671170   -0.922300
  O     -2.366770    0.212670   -1.742730
  C     -1.054020   -1.128170   -0.212150
  C      0.255260   -0.719480   -0.373730
  C      1.233710   -1.331340    0.398200
  C      0.899080   -2.327700    1.304260
  C     -0.416900   -2.736690    1.477880
  C     -1.399870   -2.130360    0.714100
  C     -2.849160   -2.313240    0.683820
  C     -3.613460   -2.828440    1.698030
  C     -5.016590   -2.689410    1.736040
  N     -6.153000   -2.544250    1.812470
  C     -3.086270   -3.460460    2.840470
  N     -2.710410   -4.006000    3.778060
  C     -3.346020   -1.585350   -0.460820
  C     -4.495250   -1.692410   -1.184250
  C     -5.417570   -2.756620   -1.248570
  S     -4.991260   -4.383350   -0.714230
  C     -6.500570   -4.992800   -1.278660
  C     -7.277180   -3.976630   -1.852680
  C     -6.672590   -2.716490   -1.846850
  C     -7.338830   -1.473310   -2.329850
  C     -7.888170   -0.671320   -1.148080
  S     -8.801750   -4.547090   -2.491640
  C     -8.382020   -6.145850   -1.988830
  C     -7.144600   -6.231350   -1.338300
  N     -6.900430   -7.522780   -0.951340
  C     -5.529890   -7.919000   -0.703070
  C     -4.859660   -8.405790   -1.985520
  C     -7.974540   -8.292510   -1.377880
  C     -8.896470   -7.447970   -2.060240
  C    -10.020080   -7.962430   -2.748940
  N    -10.923810   -7.310270   -3.463650
  S    -11.933430   -8.389050   -4.118340
  N    -11.250490   -9.730330   -3.531510
  C    -10.218110   -9.379650   -2.782880
  C     -9.395780  -10.195610   -1.972780
  C     -8.313570   -9.661370   -1.208590
  N     -7.850650  -10.644860   -0.368920
  C     -6.989380  -10.526830    0.784860
  C     -5.616460  -11.152150    0.545710
  C     -8.597430  -11.779460   -0.582140
  C     -9.543670  -11.527480   -1.583800
  S    -10.634600  -12.819750   -1.892670
  C     -9.922410  -13.720380   -0.455410
  C     -8.711940  -13.027740    0.046990
  S     -7.845280  -13.639900    1.318440
  C    -10.793810  -14.311610    0.661890
  C    -10.272660  -15.146280   -0.213860
  C    -10.159370  -16.468870   -0.815580
  C    -10.818970  -17.537490    0.050310
  C    -11.084120  -13.856010    1.956710
  C    -11.150110  -12.533740    2.266180
  C    -11.351230  -11.415430    1.366580
  C    -12.240380  -11.406950    0.328630
  C    -12.543300  -10.256860   -0.426150
  N    -12.817930   -9.328340   -1.042130
  C    -13.004560  -12.550230    0.003900
  N    -13.646880  -13.470600   -0.233830
  C    -10.621330  -10.285100    1.922030
  C    -10.293880   -9.056020    1.373380
  C     -9.519270   -8.187020    2.128230
  C     -9.094260   -8.525230    3.405750
  C     -9.435340   -9.747580    3.970670
  C    -10.196120  -10.623130    3.221410
  C    -10.653980  -11.993300    3.563410
  O    -10.579470  -12.564200    4.622060
  H      0.497280    0.055780   -1.084290
  H      2.265420   -1.031650    0.291850
  H      1.676320   -2.797320    1.888460
  H     -0.655730   -3.517210    2.182840
  H     -4.664030   -0.886270   -1.892560
  H     -8.157870   -1.751260   -2.995340
  H     -6.630900   -0.858380   -2.888810
  H     -8.614070   -1.263180   -0.597260
  H     -8.372920    0.234140   -1.503370
  H     -7.085880   -0.396730   -0.466860
  H     -5.473450   -8.685380    0.063120
  H     -5.010950   -7.032630   -0.328920
  H     -5.384460   -9.270770   -2.386150
  H     -3.829110   -8.681990   -1.780860
  H     -4.865770   -7.621430   -2.738670
  H     -7.470530  -11.064290    1.609210
  H     -6.934360   -9.474670    1.068960
  H     -5.716140  -12.233590    0.505500
  H     -4.949790  -10.903280    1.366950
  H     -5.176940  -10.814800   -0.389160
  H     -9.096960  -16.686820   -0.965660
  H    -10.623420  -16.438010   -1.807800
  H    -10.344590  -17.579030    1.028590
  H    -10.725550  -18.510960   -0.423330
  H    -11.874960  -17.313600    0.185920
  H    -11.022610  -14.580180    2.761170
  H    -10.618060   -8.781100    0.381870
  H     -9.242070   -7.229400    1.709830
  H     -8.495310   -7.826650    3.967260
  H     -9.116020  -10.019570    4.964420

 Total Charge           Charge          ....    0
 Multiplicity           Mult            ....    1
 Number of Electrons    NEL             ....  494
 Basis Dimension        Dim             .... 1108

ORBITAL ENERGIES
----------------

  NO   OCC          E(Eh)            E(eV)
   0   2.0000     -89.003719     -2421.9143
   1   2.0000     -88.975138     -2421.1366
   2   2.0000     -88.969382     -2420.9800
   3   2.0000     -88.946878     -2420.3676
   4   2.0000     -88.880957     -2418.5738
   5   2.0000     -19.217744      -522.9414
   6   2.0000     -19.214465      -522.8522
   7   2.0000     -14.488833      -394.2612
   8   2.0000     -14.486750      -394.2045
   9   2.0000     -14.428284      -392.6136
  10   2.0000     -14.425320      -392.5329
  11   2.0000     -14.418576      -392.3494
  12   2.0000     -14.416747      -392.2996
  13   2.0000     -14.413816      -392.2199
  14   2.0000     -14.410521      -392.1302
  15   2.0000     -10.370881      -282.2060
  16   2.0000     -10.365689      -282.0647
  17   2.0000     -10.347599      -281.5725
  18   2.0000     -10.347163      -281.5606
  19   2.0000     -10.343132      -281.4509
  20   2.0000     -10.342315      -281.4287
  21   2.0000     -10.341350      -281.4024
  22   2.0000     -10.337484      -281.2972
  23   2.0000     -10.335839      -281.2525
  24   2.0000     -10.335387      -281.2402
  25   2.0000     -10.333681      -281.1938
  26   2.0000     -10.329625      -281.0834
  27   2.0000     -10.328937      -281.0647
  28   2.0000     -10.326650      -281.0024
  29   2.0000     -10.324644      -280.9478
  30   2.0000     -10.321141      -280.8525
  31   2.0000     -10.320227      -280.8276
  32   2.0000     -10.319855      -280.8175
  33   2.0000     -10.319529      -280.8087
  34   2.0000     -10.319338      -280.8035
  35   2.0000     -10.317674      -280.7582
  36   2.0000     -10.316906      -280.7373
  37   2.0000     -10.316473      -280.7255
  38   2.0000     -10.316293      -280.7206
  39   2.0000     -10.315028      -280.6862
  40   2.0000     -10.313983      -280.6577
  41   2.0000     -10.312836      -280.6265
  42   2.0000     -10.312375      -280.6140
  43   2.0000     -10.311418      -280.5879
  44   2.0000     -10.310417      -280.5607
  45   2.0000     -10.308393      -280.5056
  46   2.0000     -10.306960      -280.4666
  47   2.0000     -10.303853      -280.3821
  48   2.0000     -10.299669      -280.2682
  49   2.0000     -10.297246      -280.2023
  50   2.0000     -10.297172      -280.2003
  51   2.0000     -10.296963      -280.1946
  52   2.0000     -10.296675      -280.1868
  53   2.0000     -10.296321      -280.1771
  54   2.0000     -10.295757      -280.1618
  55   2.0000     -10.295721      -280.1608
  56   2.0000     -10.295633      -280.1584
  57   2.0000     -10.295053      -280.1426
  58   2.0000     -10.294831      -280.1366
  59   2.0000     -10.293802      -280.1086
  60   2.0000     -10.292553      -280.0746
  61   2.0000     -10.291227      -280.0385
  62   2.0000     -10.287354      -279.9331
  63   2.0000     -10.282864      -279.8110
  64   2.0000     -10.269581      -279.4495
  65   2.0000     -10.266562      -279.3674
  66   2.0000     -10.263206      -279.2760
  67   2.0000      -8.095708      -220.2954
  68   2.0000      -8.069025      -219.5693
  69   2.0000      -8.063399      -219.4162
  70   2.0000      -8.041339      -218.8160
  71   2.0000      -7.976647      -217.0556
  72   2.0000      -6.067208      -165.0971
  73   2.0000      -6.059511      -164.8877
  74   2.0000      -6.057391      -164.8300
  75   2.0000      -6.038722      -164.3220
  76   2.0000      -6.034650      -164.2112
  77   2.0000      -6.033220      -164.1723
  78   2.0000      -6.030497      -164.0982
  79   2.0000      -6.029255      -164.0644
  80   2.0000      -6.024462      -163.9339
  81   2.0000      -6.011383      -163.5780
  82   2.0000      -6.007506      -163.4725
  83   2.0000      -6.001627      -163.3126
  84   2.0000      -5.946259      -161.8059
  85   2.0000      -5.943525      -161.7315
  86   2.0000      -5.936794      -161.5484
  87   2.0000      -1.133648       -30.8481
  88   2.0000      -1.129182       -30.7266
  89   2.0000      -1.119187       -30.4546
  90   2.0000      -1.108793       -30.1718
  91   2.0000      -1.104694       -30.0603
  92   2.0000      -1.028163       -27.9777
  93   2.0000      -1.022128       -27.8135
  94   2.0000      -1.015316       -27.6282
  95   2.0000      -1.014889       -27.6165
  96   2.0000      -0.997867       -27.1533
  97   2.0000      -0.996480       -27.1156
  98   2.0000      -0.993582       -27.0368
  99   2.0000      -0.992129       -26.9972
 100   2.0000      -0.971683       -26.4408
 101   2.0000      -0.967010       -26.3137
 102   2.0000      -0.956200       -26.0195
 103   2.0000      -0.951178       -25.8829
 104   2.0000      -0.948977       -25.8230
 105   2.0000      -0.944671       -25.7058
 106   2.0000      -0.911899       -24.8140
 107   2.0000      -0.904215       -24.6049
 108   2.0000      -0.902784       -24.5660
 109   2.0000      -0.900744       -24.5105
 110   2.0000      -0.888659       -24.1817
 111   2.0000      -0.885545       -24.0969
 112   2.0000      -0.879418       -23.9302
 113   2.0000      -0.870890       -23.6981
 114   2.0000      -0.867251       -23.5991
 115   2.0000      -0.861427       -23.4406
 116   2.0000      -0.860326       -23.4107
 117   2.0000      -0.855300       -23.2739
 118   2.0000      -0.839886       -22.8544
 119   2.0000      -0.828128       -22.5345
 120   2.0000      -0.818542       -22.2737
 121   2.0000      -0.805691       -21.9240
 122   2.0000      -0.800908       -21.7938
 123   2.0000      -0.795987       -21.6599
 124   2.0000      -0.773720       -21.0540
 125   2.0000      -0.766259       -20.8510
 126   2.0000      -0.763657       -20.7802
 127   2.0000      -0.756147       -20.5758
 128   2.0000      -0.745990       -20.2994
 129   2.0000      -0.742215       -20.1967
 130   2.0000      -0.738953       -20.1079
 131   2.0000      -0.723596       -19.6900
 132   2.0000      -0.716921       -19.5084
 133   2.0000      -0.715976       -19.4827
 134   2.0000      -0.708023       -19.2663
 135   2.0000      -0.702970       -19.1288
 136   2.0000      -0.698543       -19.0083
 137   2.0000      -0.696378       -18.9494
 138   2.0000      -0.681818       -18.5532
 139   2.0000      -0.681258       -18.5380
 140   2.0000      -0.671835       -18.2816
 141   2.0000      -0.662621       -18.0308
 142   2.0000      -0.650967       -17.7137
 143   2.0000      -0.648325       -17.6418
 144   2.0000      -0.641509       -17.4564
 145   2.0000      -0.638292       -17.3688
 146   2.0000      -0.628242       -17.0953
 147   2.0000      -0.622700       -16.9445
 148   2.0000      -0.618597       -16.8329
 149   2.0000      -0.613241       -16.6871
 150   2.0000      -0.607518       -16.5314
 151   2.0000      -0.602279       -16.3888
 152   2.0000      -0.598507       -16.2862
 153   2.0000      -0.595080       -16.1930
 154   2.0000      -0.589132       -16.0311
 155   2.0000      -0.581341       -15.8191
 156   2.0000      -0.576845       -15.6968
 157   2.0000      -0.572463       -15.5775
 158   2.0000      -0.571343       -15.5470
 159   2.0000      -0.564132       -15.3508
 160   2.0000      -0.559464       -15.2238
 161   2.0000      -0.556838       -15.1523
 162   2.0000      -0.551487       -15.0067
 163   2.0000      -0.549131       -14.9426
 164   2.0000      -0.547578       -14.9003
 165   2.0000      -0.544465       -14.8156
 166   2.0000      -0.539435       -14.6788
 167   2.0000      -0.536465       -14.5980
 168   2.0000      -0.536023       -14.5859
 169   2.0000      -0.535124       -14.5615
 170   2.0000      -0.533523       -14.5179
 171   2.0000      -0.532885       -14.5005
 172   2.0000      -0.531945       -14.4750
 173   2.0000      -0.530115       -14.4252
 174   2.0000      -0.528148       -14.3716
 175   2.0000      -0.524074       -14.2608
 176   2.0000      -0.522653       -14.2221
 177   2.0000      -0.519428       -14.1343
 178   2.0000      -0.514241       -13.9932
 179   2.0000      -0.511039       -13.9061
 180   2.0000      -0.506687       -13.7876
 181   2.0000      -0.503820       -13.7096
 182   2.0000      -0.502475       -13.6730
 183   2.0000      -0.500132       -13.6093
 184   2.0000      -0.496092       -13.4994
 185   2.0000      -0.493029       -13.4160
 186   2.0000      -0.486591       -13.2408
 187   2.0000      -0.480473       -13.0743
 188   2.0000      -0.478664       -13.0251
 189   2.0000      -0.476045       -12.9538
 190   2.0000      -0.472481       -12.8569
 191   2.0000      -0.469412       -12.7734
 192   2.0000      -0.467415       -12.7190
 193   2.0000      -0.463687       -12.6176
 194   2.0000      -0.462134       -12.5753
 195   2.0000      -0.461844       -12.5674
 196   2.0000      -0.458647       -12.4804
 197   2.0000      -0.458024       -12.4635
 198   2.0000      -0.456368       -12.4184
 199   2.0000      -0.455150       -12.3853
 200   2.0000      -0.453189       -12.3319
 201   2.0000      -0.452444       -12.3116
 202   2.0000      -0.449785       -12.2393
 203   2.0000      -0.448780       -12.2119
 204   2.0000      -0.447987       -12.1903
 205   2.0000      -0.447048       -12.1648
 206   2.0000      -0.446186       -12.1413
 207   2.0000      -0.442790       -12.0489
 208   2.0000      -0.441741       -12.0204
 209   2.0000      -0.439941       -11.9714
 210   2.0000      -0.437649       -11.9090
 211   2.0000      -0.434891       -11.8340
 212   2.0000      -0.434287       -11.8175
 213   2.0000      -0.432328       -11.7643
 214   2.0000      -0.429331       -11.6827
 215   2.0000      -0.428031       -11.6473
 216   2.0000      -0.423896       -11.5348
 217   2.0000      -0.422572       -11.4988
 218   2.0000      -0.421518       -11.4701
 219   2.0000      -0.421027       -11.4567
 220   2.0000      -0.419120       -11.4048
 221   2.0000      -0.415492       -11.3061
 222   2.0000      -0.409320       -11.1382
 223   2.0000      -0.408899       -11.1267
 224   2.0000      -0.403714       -10.9856
 225   2.0000      -0.394525       -10.7356
 226   2.0000      -0.392259       -10.6739
 227   2.0000      -0.389410       -10.5964
 228   2.0000      -0.376149       -10.2355
 229   2.0000      -0.371371       -10.1055
 230   2.0000      -0.364886        -9.9291
 231   2.0000      -0.359648        -9.7865
 232   2.0000      -0.356846        -9.7103
 233   2.0000      -0.345208        -9.3936
 234   2.0000      -0.344375        -9.3709
 235   2.0000      -0.339936        -9.2501
 236   2.0000      -0.338547        -9.2123
 237   2.0000      -0.336863        -9.1665
 238   2.0000      -0.321554        -8.7499
 239   2.0000      -0.318224        -8.6593
 240   2.0000      -0.311249        -8.4695
 241   2.0000      -0.302850        -8.2410
 242   2.0000      -0.297459        -8.0943
 243   2.0000      -0.282887        -7.6978
 244   2.0000      -0.280092        -7.6217
 245   2.0000      -0.269248        -7.3266
 246   2.0000      -0.247864        -6.7447
 247   0.0000      -0.095863        -2.6086
 248   0.0000      -0.086267        -2.3474
 249   0.0000      -0.063807        -1.7363
 250   0.0000      -0.058528        -1.5926
 251   0.0000      -0.053314        -1.4507

MULLIKEN ATOMIC CHARGES
-----------------------
   0 C :    0.143200
   1 O :   -0.146116
   2 C :   -0.005241
   3 C :   -0.027629
   4 C :    0.042010
   5 C :    0.041902
   6 C :   -0.031572
   7 C :    0.015400
   8 C :    0.243686
   9 C :   -0.325124
  10 C :   -0.199029
  11 N :    0.162910
  12 C :   -0.180044
  13 N :    0.154644
  14 C :   -0.144413
  15 C :    0.022840
  16 C :   -0.130058
  17 S :    0.140562
  18 C :   -0.042974
  19 C :   -0.101289
  20 C :   -0.021020
  21 C :    0.057613
  22 C :    0.027253
  23 S :    0.202387
  24 C :   -0.100998
  25 C :    0.033684
  26 N :   -0.162086
  27 C :    0.093752
  28 C :    0.002458
  29 C :    0.045945
  30 C :   -0.064876
  31 C :    0.005571
  32 N :   -0.262421
  33 S :    0.489463
  34 N :   -0.252827
  35 C :   -0.007525
  36 C :   -0.043760
  37 C :    0.044089
  38 N :   -0.161322
  39 C :    0.078016
  40 C :    0.024154
  41 C :    0.078331
  42 C :   -0.088319
  43 S :    0.141987
  44 C :   -0.150730
  45 C :    0.022566
  46 S :   -0.212092
  47 C :   -0.010189
  48 C :   -0.042657
  49 C :    0.088081
  50 C :   -0.008373
  51 C :    0.045486
  52 C :   -0.122545
  53 C :    0.228940
  54 C :   -0.288461
  55 C :   -0.160556
  56 N :    0.153563
  57 C :   -0.203124
  58 N :    0.165311
  59 C :    0.031905
  60 C :   -0.014788
  61 C :    0.031567
  62 C :    0.035154
  63 C :   -0.032606
  64 C :   -0.016008
  65 C :    0.158439
  66 O :   -0.125215
  67 H :   -0.001507
  68 H :    0.000602
  69 H :    0.001355
  70 H :    0.003288
  71 H :    0.018388
  72 H :    0.012435
  73 H :    0.024079
  74 H :    0.027215
  75 H :    0.022636
  76 H :    0.027401
  77 H :    0.015617
  78 H :    0.030375
  79 H :    0.039151
  80 H :    0.033047
  81 H :    0.032666
  82 H :    0.044840
  83 H :    0.028282
  84 H :    0.033171
  85 H :    0.021649
  86 H :    0.005642
  87 H :    0.034698
  88 H :    0.043296
  89 H :    0.028551
  90 H :    0.022143
  91 H :    0.036646
  92 H :    0.033171
  93 H :   -0.000616
  94 H :    0.008694
  95 H :    0.005717
  96 H :    0.000488
Sum of atomic charges:   -0.0000000

LOEWDIN ATOMIC CHARGES
----------------------
   0 C :    0.083558
   1 O :   -0.145097
   2 C :   -0.044791
   3 C :    0.013391
   4 C :   -0.004325
   5 C :    0.000798
   6 C :   -0.003455
   7 C :   -0.011112
   8 C :    0.061285
   9 C :   -0.147448
  10 C :   -0.033428
  11 N :   -0.054177
  12 C :   -0.021488
  13 N :   -0.055158
  14 C :   -0.109118
  15 C :    0.050186
  16 C :   -0.184610
  17 S :    0.442077
  18 C :   -0.190314
  19 C :   -0.193087
  20 C :   -0.008719
  21 C :   -0.028340
  22 C :   -0.041162
  23 S :    0.435748
  24 C :   -0.174864
  25 C :   -0.036934
  26 N :    0.040203
  27 C :    0.041131
  28 C :   -0.058904
  29 C :   -0.000321
  30 C :   -0.065116
  31 C :   -0.060989
  32 N :   -0.282703
  33 S :    0.626075
  34 N :   -0.276640
  35 C :   -0.056469
  36 C :   -0.092411
  37 C :    0.027072
  38 N :    0.063704
  39 C :    0.034260
  40 C :   -0.068710
  41 C :   -0.063401
  42 C :   -0.146939
  43 S :    0.378482
  44 C :   -0.150836
  45 C :   -0.152170
  46 S :   -0.035539
  47 C :    0.000002
  48 C :    0.059883
  49 C :   -0.032308
  50 C :   -0.046822
  51 C :    0.054265
  52 C :   -0.056312
  53 C :    0.054554
  54 C :   -0.125076
  55 C :   -0.010817
  56 N :   -0.050313
  57 C :   -0.030948
  58 N :   -0.051900
  59 C :   -0.010743
  60 C :   -0.003051
  61 C :   -0.001516
  62 C :   -0.006258
  63 C :    0.013667
  64 C :   -0.044261
  65 C :    0.086364
  66 O :   -0.127340
  67 H :    0.040025
  68 H :    0.034427
  69 H :    0.035875
  70 H :    0.038922
  71 H :    0.048536
  72 H :    0.029693
  73 H :    0.035541
  74 H :    0.031386
  75 H :    0.027603
  76 H :    0.028595
  77 H :    0.028073
  78 H :    0.025774
  79 H :    0.029473
  80 H :    0.034583
  81 H :    0.032435
  82 H :    0.026267
  83 H :    0.020861
  84 H :    0.022110
  85 H :    0.031737
  86 H :    0.019444
  87 H :    0.051747
  88 H :    0.052895
  89 H :    0.030551
  90 H :    0.030130
  91 H :    0.033501
  92 H :    0.055937
  93 H :    0.038207
  94 H :    0.038350
  95 H :    0.036111
  96 H :    0.040940

  Mayer bond orders larger than 0.100000
B(  0-C ,  1-O ) :   2.2553 B(  0-C ,  2-C ) :   0.9248 B(  0-C , 14-C ) :   0.9473
B(  2-C ,  3-C ) :   1.3984 B(  2-C ,  7-C ) :   1.3306 B(  3-C ,  4-C ) :   1.3470
B(  3-C , 67-H ) :   1.0062 B(  4-C ,  5-C ) :   1.3850 B(  4-C , 68-H ) :   0.9905
B(  5-C ,  6-C ) :   1.3676 B(  5-C , 69-H ) :   0.9856 B(  6-C ,  7-C ) :   1.3860
B(  6-C , 70-H ) :   0.9879 B(  7-C ,  8-C ) :   1.0034 B(  8-C ,  9-C ) :   1.6492
B(  8-C , 14-C ) :   1.0440 B(  9-C , 10-C ) :   1.1548 B(  9-C , 12-C ) :   1.1353
B( 10-C , 11-N ) :   3.0060 B( 12-C , 13-N ) :   2.9979 B( 14-C , 15-C ) :   1.6219
B( 15-C , 16-C ) :   1.1822 B( 15-C , 71-H ) :   0.9353 B( 16-C , 17-S ) :   1.0472
B( 16-C , 20-C ) :   1.4440 B( 17-S , 18-C ) :   1.0708 B( 18-C , 19-C ) :   1.4414
B( 18-C , 25-C ) :   1.2902 B( 19-C , 20-C ) :   1.3658 B( 19-C , 23-S ) :   1.0306
B( 20-C , 21-C ) :   1.0851 B( 21-C , 22-C ) :   1.1043 B( 21-C , 72-H ) :   0.9223
B( 21-C , 73-H ) :   0.9075 B( 22-C , 74-H ) :   0.9668 B( 22-C , 75-H ) :   0.9661
B( 22-C , 76-H ) :   0.9692 B( 23-S , 24-C ) :   1.0263 B( 24-C , 25-C ) :   1.4078
B( 24-C , 30-C ) :   1.3521 B( 25-C , 26-N ) :   1.1548 B( 25-C , 29-C ) :   0.1047
B( 26-N , 27-C ) :   0.9556 B( 26-N , 29-C ) :   1.1542 B( 27-C , 28-C ) :   1.1117
B( 27-C , 77-H ) :   0.9405 B( 27-C , 78-H ) :   0.9387 B( 28-C , 79-H ) :   0.9610
B( 28-C , 80-H ) :   0.9649 B( 28-C , 81-H ) :   0.9618 B( 29-C , 30-C ) :   1.3980
B( 29-C , 37-C ) :   1.1250 B( 30-C , 31-C ) :   1.0908 B( 31-C , 32-N ) :   1.6276
B( 31-C , 35-C ) :   1.1616 B( 32-N , 33-S ) :   1.2381 B( 32-N , 34-N ) :   0.1256
B( 33-S , 34-N ) :   1.2342 B( 34-N , 35-C ) :   1.6118 B( 35-C , 36-C ) :   1.1001
B( 36-C , 37-C ) :   1.3258 B( 36-C , 42-C ) :   1.3866 B( 37-C , 38-N ) :   1.2403
B( 38-N , 39-C ) :   0.9337 B( 38-N , 41-C ) :   1.1220 B( 39-C , 40-C ) :   1.1015
B( 39-C , 82-H ) :   0.9203 B( 39-C , 83-H ) :   0.9476 B( 40-C , 84-H ) :   0.9417
B( 40-C , 85-H ) :   0.9615 B( 40-C , 86-H ) :   0.9620 B( 41-C , 42-C ) :   1.3475
B( 41-C , 45-C ) :   1.2313 B( 42-C , 43-S ) :   1.0312 B( 43-S , 44-C ) :   0.9316
B( 44-C , 45-C ) :   0.9510 B( 44-C , 47-C ) :   0.8952 B( 44-C , 48-C ) :   0.8700
B( 45-C , 46-S ) :   1.6043 B( 47-C , 48-C ) :   1.5522 B( 47-C , 51-C ) :   1.0958
B( 48-C , 49-C ) :   1.0971 B( 49-C , 50-C ) :   1.0940 B( 49-C , 87-H ) :   0.8957
B( 49-C , 88-H ) :   0.9150 B( 50-C , 89-H ) :   0.9757 B( 50-C , 90-H ) :   0.9640
B( 50-C , 91-H ) :   0.9745 B( 51-C , 52-C ) :   1.6851 B( 51-C , 92-H ) :   0.9678
B( 52-C , 53-C ) :   1.0369 B( 52-C , 65-C ) :   0.9270 B( 53-C , 54-C ) :   1.6959
B( 53-C , 59-C ) :   0.9974 B( 54-C , 55-C ) :   1.1381 B( 54-C , 57-C ) :   1.1245
B( 55-C , 56-N ) :   2.9575 B( 57-C , 58-N ) :   3.0084 B( 59-C , 60-C ) :   1.4009
B( 59-C , 64-C ) :   1.3266 B( 60-C , 61-C ) :   1.3694 B( 60-C , 93-H ) :   0.9770
B( 61-C , 62-C ) :   1.3730 B( 61-C , 94-H ) :   0.9859 B( 62-C , 63-C ) :   1.3481
B( 62-C , 95-H ) :   0.9935 B( 63-C , 64-C ) :   1.3886 B( 63-C , 96-H ) :   1.0060
B( 64-C , 65-C ) :   0.9162 B( 65-C , 66-O ) :   2.2943

-----------------------------------------------------------------------------
         ABSORPTION SPECTRUM VIA TRANSITION ELECTRIC DIPOLE MOMENTS
-----------------------------------------------------------------------------
State   Energy  Wavelength   fosc         T2         TX        TY        TZ
        (cm-1)    (nm)                  (au**2)     (au)      (au)      (au)
-----------------------------------------------------------------------------
   0   16330.4    612.4   0.154246290   3.10952   1.04463   1.39166  -0.28555
   1   18289.4    546.8   0.811608191  14.60903   2.35003   2.90248   0.81366
   2   20028.3    499.3   0.037825819   0.62175   0.08462   0.46265   0.63289
   3   22149.9    451.5   0.023843132   0.35438   0.32016   0.21940  -0.45138
   4   22745.8    439.6   0.048773469   0.70592  -0.66424  -0.09944  -0.50479
   5   23776.4    420.6   0.031121582   0.43092   0.04511  -0.04639   0.65324
   6   24207.2    413.1   0.061256210   0.83307  -0.86687  -0.12024  -0.25914
   7   25073.8    398.8   0.424392234   5.57216   0.01284   2.03549  -1.19531
   8   25805.9    387.5   0.156118216   1.99164   1.02541   0.91937   0.30811
   9   26401.9    378.8   0.111788048   1.39391  -0.15814  -1.14448  -0.24306
  10   27521.6    363.4   0.056778008   0.67918   0.53944  -0.36503   0.50491
  11   27729.6    360.6   0.129815961   1.54121   0.91661  -0.49290   0.67682
  12   27861.2    358.9   0.077968616   0.92129  -0.80592   0.32138   0.41047
  13   28669.8    348.8   0.121795744   1.39856   0.01374  -0.81032   0.86125
  14   29154.8    343.0   0.214658345   2.42389   0.04969   1.53352  -0.26410
  15   29745.9    336.2   0.013605372   0.15058  -0.37140  -0.03212  -0.10775
  16   30245.6    330.6   0.121116113   1.31830  -0.84288   0.75121  -0.20863
  17   30452.5    328.4   0.032499487   0.35134  -0.58231  -0.03915  -0.10357
  18   30528.6    327.6   0.049423665   0.53297  -0.42783  -0.35126  -0.47597
  19   31106.3    321.5   0.040748950   0.43126   0.35443   0.11771   0.54017
  20   31262.7    319.9   0.002941994   0.03098  -0.02369  -0.13717   0.10772
  21   31533.4    317.1   0.042732672   0.44613   0.44720   0.20676   0.45099
  22   32049.0    312.0   0.074334061   0.76357  -0.81440  -0.25906   0.18224
  23   32157.2    311.0   0.119982414   1.22833  -1.02257  -0.33030  -0.27127
  24   32284.3    309.7   0.052934432   0.53979   0.14757   0.38600  -0.60747
  25   32637.1    306.4   0.063888743   0.64445  -0.78196  -0.11769  -0.13831
  26   33285.3    300.4   0.079262922   0.78396   0.31819   0.24525   0.78903
  27   33622.8    297.4   0.031199441   0.30548  -0.50662   0.18430  -0.12188
  28   33735.5    296.4   0.045943159   0.44834  -0.20753   0.45254   0.44775
  29   34145.7    292.9   0.056251386   0.54234  -0.30413   0.49460  -0.45301
  30   34498.6    289.9   0.060276461   0.57520   0.03793   0.69466   0.30202
  31   34809.3    287.3   0.039039183   0.36922   0.57901  -0.16166   0.08846
  32   34946.7    286.2   0.064127314   0.60411  -0.71977  -0.11059  -0.27167
  33   35456.0    282.0   0.060676862   0.56339  -0.33852  -0.34218   0.57594
  34   35623.2    280.7   0.086013365   0.79489   0.77753   0.30505  -0.31189
  35   35918.8    278.4   0.107198567   0.98252  -0.39885   0.85660  -0.29947
  36   36247.2    275.9   0.266339596   2.41901  -0.25581  -1.31580  -0.78883
  37   36744.9    272.1   0.008820633   0.07903   0.08538   0.25938   0.06680
  38   37027.8    270.1   0.062881044   0.55907  -0.35080  -0.22326  -0.62142
  39   37077.7    269.7   0.050959404   0.45247  -0.31447   0.27515  -0.52713
  40   37387.3    267.5   0.138173666   1.21668  -1.05195  -0.28366  -0.17208
  41   37617.6    265.8   0.079879447   0.69907  -0.59859   0.22850   0.53716
  42   37811.3    264.5   0.088725812   0.77251   0.65595   0.16128   0.56234
  43   38181.3    261.9   0.366348958   3.15878   1.17074   1.32252  -0.19770
  44   38229.7    261.6   0.107805656   0.92836   0.83534   0.42705   0.21955
  45   38724.4    258.2   0.076557586   0.65085  -0.27500  -0.21976   0.72590
  46   38776.6    257.9   0.167878657   1.42528   0.26428  -0.25415  -1.13616
  47   39122.5    255.6   0.209436039   1.76238  -1.10996  -0.51009  -0.51979
  48   39669.6    252.1   0.060058764   0.49842   0.53785   0.16781   0.42542
  49   39854.0    250.9   0.040009440   0.33050   0.43897  -0.07972   0.36256
  50   40057.4    249.6   0.050176454   0.41238   0.30152   0.40311   0.39870
  51   40229.3    248.6   0.031016399   0.25382  -0.31332   0.11563  -0.37720

FINAL SINGLE POINT ENERGY     -4574.970495999128

DIPOLE MOMENT
-------------
                                X             Y             Z
Electronic contribution:    -30.58358       6.02931      -9.44866
Nuclear contribution   :     33.46801      -6.27176       8.34519
                        -----------------------------------------
Total Dipole Moment    :      2.88443      -0.24245      -1.10348
                        -----------------------------------------
Magnitude (a.u.)       :      3.09780
Magnitude (Debye)      :      7.87399

Rotational constants in cm-1:     0.002193     0.000544     0.000495
Rotational constants in MHz :    65.731288    16.311078    14.840864

                             ****ORCA TERMINATED NORMALLY****
TOTAL RUN TIME: 0 days 1 hours 6 minutes 58 seconds 937 msec
