                         Program Version 4.2.0 -  RELEASE  -
|  1> # ORCA input file
|  2> # Y5.out
|  3> ! CAM-B3LYP def2-SVP def2/J RIJCOSX Grid4 TightSCF
|  4> %maxcore 5000
|  5> %tddft
|  6>     Mode sTDDFT
|  7>     Ethresh 5.0
|  8>     maxcore 5000
|  9> end
| 10> * xyz 0 1
| 11>   C      0.769773   -1.752454   -1.340831
| 12>   O      1.245947   -1.576128   -2.444321
| 13>   C      1.496209   -1.921684   -0.053509
| 14>   C      2.867917   -1.972643    0.160997
| 15>   C      3.324914   -2.136655    1.473161
| 16>   C      2.411071   -2.235286    2.531095
| 17>   C      1.028271   -2.179804    2.314842
| 18>   C      0.563901   -2.031433    1.002718
| 19>   C     -0.806364   -1.898439    0.443342
| 20>   C     -1.948935   -1.585637    1.162817
| 21>   C     -3.120153   -1.073381    0.524290
| 22>   N     -4.050232   -0.606043    0.007013
| 23>   C     -1.993916   -1.621006    2.589645
| 24>   N     -2.041221   -1.675527    3.749987
| 25>   C     -0.681605   -1.903227   -1.002888
| 26>   C     -1.557953   -2.102322   -2.041780
| 27>   C     -2.835940   -2.703158   -2.136981
| 28>   S     -3.475869   -3.833018   -0.930773
| 29>   C     -4.844842   -4.169898   -1.935681
| 30>   C     -4.797169   -3.435119   -3.141696
| 31>   C     -3.670177   -2.604446   -3.267247
| 32>   C     -3.397698   -1.666693   -4.407934
| 33>   C     -3.535158   -0.190626   -4.004158
| 34>   S     -6.121082   -3.821915   -4.243765
| 35>   C     -6.711423   -4.987316   -3.090276
| 36>   C     -5.966277   -5.025892   -1.902045
| 37>   N     -6.482905   -5.989313   -1.049449
| 38>   C     -5.572728   -6.629280   -0.095967
| 39>   C     -4.665290   -7.657093   -0.763333
| 40>   C     -7.560577   -6.592869   -1.710991
| 41>   C     -7.693532   -5.999901   -3.003610
| 42>   C     -8.585497   -6.548663   -3.982709
| 43>   N     -8.743654   -6.145348   -5.236359
| 44>   S     -9.791993   -7.207104   -5.954810
| 45>   N    -10.063457   -8.210403   -4.665210
| 46>   C     -9.349590   -7.739351   -3.651158
| 47>   C     -9.307542   -8.240895   -2.308085
| 48>   C     -8.471163   -7.632264   -1.318166
| 49>   N     -8.771812   -8.202936   -0.081884
| 50>   C     -8.373932   -7.795714    1.261649
| 51>   C     -7.422464   -8.788570    1.925763
| 52>   C     -9.735741   -9.173049   -0.281792
| 53>   C    -10.063822   -9.231532   -1.645675
| 54>   S    -11.281261  -10.422092   -2.011960
| 55>   C    -11.372329  -10.835497   -0.296986
| 56>   C    -10.515894  -10.053999    0.503853
| 57>   S    -10.726292  -10.424145    2.180733
| 58>   C    -11.916186  -11.679722    1.792418
| 59>   C    -12.153050  -11.779388    0.412357
| 60>   C    -13.173217  -12.658982   -0.258050
| 61>   C    -12.579959  -13.592208   -1.323201
| 62>   C    -12.553436  -12.319407    2.900969
| 63>   C    -13.050179  -13.586861    3.062133
| 64>   C    -12.858946  -14.848152    2.356063
| 65>   C    -11.763029  -15.206287    1.593091
| 66>   C    -11.652773  -16.473960    0.941648
| 67>   N    -11.551231  -17.486771    0.380624
| 68>   C    -10.609306  -14.374137    1.457758
| 69>   N     -9.642372  -13.739140    1.348166
| 70>   C    -13.933533  -15.770314    2.802781
| 71>   C    -14.316259  -17.041935    2.359518
| 72>   C    -15.357439  -17.695673    3.030759
| 73>   C    -16.000929  -17.114248    4.133332
| 74>   C    -15.625406  -15.843021    4.578574
| 75>   C    -14.606988  -15.185249    3.898116
| 76>   C    -14.063986  -13.823608    4.147387
| 77>   O    -14.403074  -13.040494    5.010072
| 78>   H      3.552054   -1.880900   -0.685256
| 79>   H      4.396798   -2.186284    1.679802
| 80>   H      2.784689   -2.363119    3.549663
| 81>   H      0.346287   -2.259562    3.159310
| 82>   H     -1.119373   -1.824562   -3.008957
| 83>   H     -4.085920   -1.899780   -5.235255
| 84>   H     -2.380626   -1.851289   -4.795808
| 85>   H     -4.543608    0.020314   -3.616470
| 86>   H     -3.341324    0.466531   -4.865358
| 87>   H     -2.822422    0.069477   -3.208683
| 88>   H     -6.148483   -7.087601    0.706323
| 89>   H     -4.983223   -5.827935    0.374207
| 90>   H     -4.008884   -8.130455   -0.016945
| 91>   H     -4.031531   -7.181607   -1.526793
| 92>   H     -5.261627   -8.445182   -1.248721
| 93>   H     -9.292834   -7.695533    1.862055
| 94>   H     -7.946724   -6.787028    1.197491
| 95>   H     -7.927049   -9.742727    2.136779
| 96>   H     -7.049969   -8.382228    2.878803
| 97>   H     -6.561546   -9.008640    1.279020
| 98>   H    -13.913634  -11.996670   -0.742393
| 99>   H    -13.723396  -13.239238    0.493753
|100>   H    -11.825773  -14.268906   -0.901630
|101>   H    -12.088140  -13.024783   -2.127137
|102>   H    -13.372166  -14.205031   -1.778747
|103>   H    -12.744189  -11.678797    3.773921
|104>   H    -13.833426  -17.523882    1.511666
|105>   H    -15.676314  -18.680149    2.681585
|106>   H    -16.798178  -17.659672    4.643249
|107>   H    -16.108954  -15.361667    5.430615
|108> *
|109>
|110>                          ****END OF INPUT****

CARTESIAN COORDINATES (ANGSTROEM)
---------------------------------
  C      0.769773   -1.752454   -1.340831
  O      1.245947   -1.576128   -2.444321
  C      1.496209   -1.921684   -0.053509
  C      2.867917   -1.972643    0.160997
  C      3.324914   -2.136655    1.473161
  C      2.411071   -2.235286    2.531095
  C      1.028271   -2.179804    2.314842
  C      0.563901   -2.031433    1.002718
  C     -0.806364   -1.898439    0.443342
  C     -1.948935   -1.585637    1.162817
  C     -3.120153   -1.073381    0.524290
  N     -4.050232   -0.606043    0.007013
  C     -1.993916   -1.621006    2.589645
  N     -2.041221   -1.675527    3.749987
  C     -0.681605   -1.903227   -1.002888
  C     -1.557953   -2.102322   -2.041780
  C     -2.835940   -2.703158   -2.136981
  S     -3.475869   -3.833018   -0.930773
  C     -4.844842   -4.169898   -1.935681
  C     -4.797169   -3.435119   -3.141696
  C     -3.670177   -2.604446   -3.267247
  C     -3.397698   -1.666693   -4.407934
  C     -3.535158   -0.190626   -4.004158
  S     -6.121082   -3.821915   -4.243765
  C     -6.711423   -4.987316   -3.090276
  C     -5.966277   -5.025892   -1.902045
  N     -6.482905   -5.989313   -1.049449
  C     -5.572728   -6.629280   -0.095967
  C     -4.665290   -7.657093   -0.763333
  C     -7.560577   -6.592869   -1.710991
  C     -7.693532   -5.999901   -3.003610
  C     -8.585497   -6.548663   -3.982709
  N     -8.743654   -6.145348   -5.236359
  S     -9.791993   -7.207104   -5.954810
  N    -10.063457   -8.210403   -4.665210
  C     -9.349590   -7.739351   -3.651158
  C     -9.307542   -8.240895   -2.308085
  C     -8.471163   -7.632264   -1.318166
  N     -8.771812   -8.202936   -0.081884
  C     -8.373932   -7.795714    1.261649
  C     -7.422464   -8.788570    1.925763
  C     -9.735741   -9.173049   -0.281792
  C    -10.063822   -9.231532   -1.645675
  S    -11.281261  -10.422092   -2.011960
  C    -11.372329  -10.835497   -0.296986
  C    -10.515894  -10.053999    0.503853
  S    -10.726292  -10.424145    2.180733
  C    -11.916186  -11.679722    1.792418
  C    -12.153050  -11.779388    0.412357
  C    -13.173217  -12.658982   -0.258050
  C    -12.579959  -13.592208   -1.323201
  C    -12.553436  -12.319407    2.900969
  C    -13.050179  -13.586861    3.062133
  C    -12.858946  -14.848152    2.356063
  C    -11.763029  -15.206287    1.593091
  C    -11.652773  -16.473960    0.941648
  N    -11.551231  -17.486771    0.380624
  C    -10.609306  -14.374137    1.457758
  N     -9.642372  -13.739140    1.348166
  C    -13.933533  -15.770314    2.802781
  C    -14.316259  -17.041935    2.359518
  C    -15.357439  -17.695673    3.030759
  C    -16.000929  -17.114248    4.133332
  C    -15.625406  -15.843021    4.578574
  C    -14.606988  -15.185249    3.898116
  C    -14.063986  -13.823608    4.147387
  O    -14.403074  -13.040494    5.010072
  H      3.552054   -1.880900   -0.685256
  H      4.396798   -2.186284    1.679802
  H      2.784689   -2.363119    3.549663
  H      0.346287   -2.259562    3.159310
  H     -1.119373   -1.824562   -3.008957
  H     -4.085920   -1.899780   -5.235255
  H     -2.380626   -1.851289   -4.795808
  H     -4.543608    0.020314   -3.616470
  H     -3.341324    0.466531   -4.865358
  H     -2.822422    0.069477   -3.208683
  H     -6.148483   -7.087601    0.706323
  H     -4.983223   -5.827935    0.374207
  H     -4.008884   -8.130455   -0.016945
  H     -4.031531   -7.181607   -1.526793
  H     -5.261627   -8.445182   -1.248721
  H     -9.292834   -7.695533    1.862055
  H     -7.946724   -6.787028    1.197491
  H     -7.927049   -9.742727    2.136779
  H     -7.049969   -8.382228    2.878803
  H     -6.561546   -9.008640    1.279020
  H    -13.913634  -11.996670   -0.742393
  H    -13.723396  -13.239238    0.493753
  H    -11.825773  -14.268906   -0.901630
  H    -12.088140  -13.024783   -2.127137
  H    -13.372166  -14.205031   -1.778747
  H    -12.744189  -11.678797    3.773921
  H    -13.833426  -17.523882    1.511666
  H    -15.676314  -18.680149    2.681585
  H    -16.798178  -17.659672    4.643249
  H    -16.108954  -15.361667    5.430615

 Total Charge           Charge          ....    0
 Multiplicity           Mult            ....    1
 Number of Electrons    NEL             ....  494
 Basis Dimension        Dim             .... 1108

ORBITAL ENERGIES
----------------

  NO   OCC          E(Eh)            E(eV)
   0   2.0000     -89.003393     -2421.9054
   1   2.0000     -88.974076     -2421.1077
   2   2.0000     -88.972651     -2421.0689
   3   2.0000     -88.966561     -2420.9032
   4   2.0000     -88.964977     -2420.8601
   5   2.0000     -19.217574      -522.9368
   6   2.0000     -19.211297      -522.7660
   7   2.0000     -14.487703      -394.2305
   8   2.0000     -14.483129      -394.1060
   9   2.0000     -14.436887      -392.8477
  10   2.0000     -14.436237      -392.8300
  11   2.0000     -14.421771      -392.4363
  12   2.0000     -14.419627      -392.3780
  13   2.0000     -14.416026      -392.2800
  14   2.0000     -14.412333      -392.1795
  15   2.0000     -10.369150      -282.1589
  16   2.0000     -10.362965      -281.9906
  17   2.0000     -10.350637      -281.6551
  18   2.0000     -10.347863      -281.5797
  19   2.0000     -10.343500      -281.4609
  20   2.0000     -10.342796      -281.4418
  21   2.0000     -10.342448      -281.4323
  22   2.0000     -10.342094      -281.4227
  23   2.0000     -10.338914      -281.3362
  24   2.0000     -10.334236      -281.2089
  25   2.0000     -10.327340      -281.0212
  26   2.0000     -10.325949      -280.9834
  27   2.0000     -10.325926      -280.9827
  28   2.0000     -10.325778      -280.9787
  29   2.0000     -10.325362      -280.9674
  30   2.0000     -10.325129      -280.9610
  31   2.0000     -10.325092      -280.9600
  32   2.0000     -10.324383      -280.9407
  33   2.0000     -10.321746      -280.8690
  34   2.0000     -10.320369      -280.8315
  35   2.0000     -10.320182      -280.8264
  36   2.0000     -10.320125      -280.8249
  37   2.0000     -10.316220      -280.7186
  38   2.0000     -10.315666      -280.7035
  39   2.0000     -10.312472      -280.6166
  40   2.0000     -10.312373      -280.6139
  41   2.0000     -10.311895      -280.6009
  42   2.0000     -10.311891      -280.6008
  43   2.0000     -10.310997      -280.5765
  44   2.0000     -10.310628      -280.5665
  45   2.0000     -10.307378      -280.4780
  46   2.0000     -10.307008      -280.4679
  47   2.0000     -10.301819      -280.3268
  48   2.0000     -10.300105      -280.2801
  49   2.0000     -10.299819      -280.2723
  50   2.0000     -10.299582      -280.2659
  51   2.0000     -10.299295      -280.2581
  52   2.0000     -10.297563      -280.2109
  53   2.0000     -10.295883      -280.1652
  54   2.0000     -10.295512      -280.1551
  55   2.0000     -10.295160      -280.1456
  56   2.0000     -10.295042      -280.1423
  57   2.0000     -10.294724      -280.1337
  58   2.0000     -10.294615      -280.1307
  59   2.0000     -10.292440      -280.0715
  60   2.0000     -10.290538      -280.0198
  61   2.0000     -10.288345      -279.9601
  62   2.0000     -10.287747      -279.9438
  63   2.0000     -10.287262      -279.9306
  64   2.0000     -10.283235      -279.8210
  65   2.0000     -10.268130      -279.4100
  66   2.0000     -10.265441      -279.3369
  67   2.0000      -8.095161      -220.2805
  68   2.0000      -8.067774      -219.5353
  69   2.0000      -8.066704      -219.5062
  70   2.0000      -8.060233      -219.3301
  71   2.0000      -8.058383      -219.2798
  72   2.0000      -6.066781      -165.0855
  73   2.0000      -6.059388      -164.8843
  74   2.0000      -6.056322      -164.8009
  75   2.0000      -6.037487      -164.2884
  76   2.0000      -6.036462      -164.2605
  77   2.0000      -6.033411      -164.1775
  78   2.0000      -6.032261      -164.1462
  79   2.0000      -6.030178      -164.0895
  80   2.0000      -6.029247      -164.0642
  81   2.0000      -6.028384      -164.0407
  82   2.0000      -6.028176      -164.0350
  83   2.0000      -6.026204      -163.9813
  84   2.0000      -6.024291      -163.9293
  85   2.0000      -6.021106      -163.8426
  86   2.0000      -6.019306      -163.7936
  87   2.0000      -1.129508       -30.7355
  88   2.0000      -1.123100       -30.5611
  89   2.0000      -1.107970       -30.1494
  90   2.0000      -1.098393       -29.8888
  91   2.0000      -1.093966       -29.7683
  92   2.0000      -1.013701       -27.5842
  93   2.0000      -1.010481       -27.4966
  94   2.0000      -1.006123       -27.3780
  95   2.0000      -1.004330       -27.3292
  96   2.0000      -0.990674       -26.9576
  97   2.0000      -0.989478       -26.9251
  98   2.0000      -0.985328       -26.8121
  99   2.0000      -0.983162       -26.7532
 100   2.0000      -0.971122       -26.4256
 101   2.0000      -0.960093       -26.1254
 102   2.0000      -0.952106       -25.9081
 103   2.0000      -0.945432       -25.7265
 104   2.0000      -0.939077       -25.5536
 105   2.0000      -0.934614       -25.4321
 106   2.0000      -0.906116       -24.6567
 107   2.0000      -0.896965       -24.4077
 108   2.0000      -0.894829       -24.3495
 109   2.0000      -0.893745       -24.3200
 110   2.0000      -0.890570       -24.2336
 111   2.0000      -0.883707       -24.0469
 112   2.0000      -0.874393       -23.7934
 113   2.0000      -0.869610       -23.6633
 114   2.0000      -0.856377       -23.3032
 115   2.0000      -0.852235       -23.1905
 116   2.0000      -0.851177       -23.1617
 117   2.0000      -0.842950       -22.9378
 118   2.0000      -0.828108       -22.5340
 119   2.0000      -0.825045       -22.4506
 120   2.0000      -0.818227       -22.2651
 121   2.0000      -0.804497       -21.8915
 122   2.0000      -0.800250       -21.7759
 123   2.0000      -0.796109       -21.6632
 124   2.0000      -0.781686       -21.2708
 125   2.0000      -0.764216       -20.7954
 126   2.0000      -0.756999       -20.5990
 127   2.0000      -0.750053       -20.4100
 128   2.0000      -0.747584       -20.3428
 129   2.0000      -0.745703       -20.2916
 130   2.0000      -0.725234       -19.7346
 131   2.0000      -0.719449       -19.5772
 132   2.0000      -0.716305       -19.4916
 133   2.0000      -0.715255       -19.4631
 134   2.0000      -0.701883       -19.0992
 135   2.0000      -0.698335       -19.0027
 136   2.0000      -0.694429       -18.8964
 137   2.0000      -0.689796       -18.7703
 138   2.0000      -0.677570       -18.4376
 139   2.0000      -0.673043       -18.3144
 140   2.0000      -0.665887       -18.1197
 141   2.0000      -0.655905       -17.8481
 142   2.0000      -0.653894       -17.7934
 143   2.0000      -0.648318       -17.6416
 144   2.0000      -0.640505       -17.4290
 145   2.0000      -0.633761       -17.2455
 146   2.0000      -0.625284       -17.0148
 147   2.0000      -0.618105       -16.8195
 148   2.0000      -0.611686       -16.6448
 149   2.0000      -0.608109       -16.5475
 150   2.0000      -0.603235       -16.4149
 151   2.0000      -0.598555       -16.2875
 152   2.0000      -0.595880       -16.2147
 153   2.0000      -0.592123       -16.1125
 154   2.0000      -0.585749       -15.9390
 155   2.0000      -0.578573       -15.7438
 156   2.0000      -0.573698       -15.6111
 157   2.0000      -0.569381       -15.4937
 158   2.0000      -0.567301       -15.4371
 159   2.0000      -0.561333       -15.2747
 160   2.0000      -0.553052       -15.0493
 161   2.0000      -0.549992       -14.9660
 162   2.0000      -0.548671       -14.9301
 163   2.0000      -0.544761       -14.8237
 164   2.0000      -0.542195       -14.7539
 165   2.0000      -0.540078       -14.6963
 166   2.0000      -0.535817       -14.5803
 167   2.0000      -0.532388       -14.4870
 168   2.0000      -0.531846       -14.4723
 169   2.0000      -0.528090       -14.3701
 170   2.0000      -0.527645       -14.3579
 171   2.0000      -0.525762       -14.3067
 172   2.0000      -0.525222       -14.2920
 173   2.0000      -0.523271       -14.2389
 174   2.0000      -0.520391       -14.1606
 175   2.0000      -0.518911       -14.1203
 176   2.0000      -0.515324       -14.0227
 177   2.0000      -0.512574       -13.9479
 178   2.0000      -0.507550       -13.8111
 179   2.0000      -0.506541       -13.7837
 180   2.0000      -0.503772       -13.7083
 181   2.0000      -0.499744       -13.5987
 182   2.0000      -0.497053       -13.5255
 183   2.0000      -0.496164       -13.5013
 184   2.0000      -0.488413       -13.2904
 185   2.0000      -0.487150       -13.2560
 186   2.0000      -0.485430       -13.2092
 187   2.0000      -0.483050       -13.1445
 188   2.0000      -0.481769       -13.1096
 189   2.0000      -0.477128       -12.9833
 190   2.0000      -0.473143       -12.8749
 191   2.0000      -0.471155       -12.8208
 192   2.0000      -0.466962       -12.7067
 193   2.0000      -0.465223       -12.6593
 194   2.0000      -0.461466       -12.5571
 195   2.0000      -0.460120       -12.5205
 196   2.0000      -0.459430       -12.5017
 197   2.0000      -0.456160       -12.4127
 198   2.0000      -0.454621       -12.3709
 199   2.0000      -0.453526       -12.3411
 200   2.0000      -0.452163       -12.3040
 201   2.0000      -0.451526       -12.2866
 202   2.0000      -0.450565       -12.2605
 203   2.0000      -0.449958       -12.2440
 204   2.0000      -0.447905       -12.1881
 205   2.0000      -0.446477       -12.1492
 206   2.0000      -0.446017       -12.1367
 207   2.0000      -0.444304       -12.0901
 208   2.0000      -0.443371       -12.0647
 209   2.0000      -0.438949       -11.9444
 210   2.0000      -0.438160       -11.9229
 211   2.0000      -0.435713       -11.8563
 212   2.0000      -0.431757       -11.7487
 213   2.0000      -0.426669       -11.6103
 214   2.0000      -0.424084       -11.5399
 215   2.0000      -0.423911       -11.5352
 216   2.0000      -0.422207       -11.4888
 217   2.0000      -0.420967       -11.4551
 218   2.0000      -0.417947       -11.3729
 219   2.0000      -0.416125       -11.3233
 220   2.0000      -0.415800       -11.3145
 221   2.0000      -0.413354       -11.2479
 222   2.0000      -0.411040       -11.1850
 223   2.0000      -0.405216       -11.0265
 224   2.0000      -0.403469       -10.9790
 225   2.0000      -0.402883       -10.9630
 226   2.0000      -0.399012       -10.8577
 227   2.0000      -0.393642       -10.7115
 228   2.0000      -0.390579       -10.6282
 229   2.0000      -0.387977       -10.5574
 230   2.0000      -0.367975       -10.0131
 231   2.0000      -0.364400        -9.9158
 232   2.0000      -0.360499        -9.8097
 233   2.0000      -0.345125        -9.3913
 234   2.0000      -0.342407        -9.3174
 235   2.0000      -0.338738        -9.2175
 236   2.0000      -0.337668        -9.1884
 237   2.0000      -0.335020        -9.1164
 238   2.0000      -0.334120        -9.0919
 239   2.0000      -0.320556        -8.7228
 240   2.0000      -0.314849        -8.5675
 241   2.0000      -0.311738        -8.4828
 242   2.0000      -0.304655        -8.2901
 243   2.0000      -0.288711        -7.8562
 244   2.0000      -0.277811        -7.5596
 245   2.0000      -0.274958        -7.4820
 246   2.0000      -0.239714        -6.5230
 247   0.0000      -0.094080        -2.5600
 248   0.0000      -0.086062        -2.3419
 249   0.0000      -0.061449        -1.6721
 250   0.0000      -0.055763        -1.5174
 251   0.0000      -0.042163        -1.1473

MULLIKEN ATOMIC CHARGES
-----------------------
   0 C :    0.140583
   1 O :   -0.155889
   2 C :   -0.017036
   3 C :   -0.023253
   4 C :    0.028725
   5 C :    0.029573
   6 C :   -0.034242
   7 C :    0.024006
   8 C :    0.238322
   9 C :   -0.313772
  10 C :   -0.185305
  11 N :    0.140698
  12 C :   -0.155444
  13 N :    0.114577
  14 C :   -0.138982
  15 C :   -0.007798
  16 C :   -0.115363
  17 S :    0.167127
  18 C :   -0.046146
  19 C :   -0.106710
  20 C :   -0.020298
  21 C :    0.054232
  22 C :   -0.001814
  23 S :    0.197722
  24 C :   -0.097918
  25 C :    0.043892
  26 N :   -0.192451
  27 C :    0.101211
  28 C :   -0.011225
  29 C :    0.044093
  30 C :   -0.038730
  31 C :   -0.005248
  32 N :   -0.266690
  33 S :    0.445137
  34 N :   -0.266659
  35 C :    0.002053
  36 C :   -0.050663
  37 C :    0.060778
  38 N :   -0.186850
  39 C :    0.066925
  40 C :   -0.004904
  41 C :    0.054702
  42 C :   -0.102348
  43 S :    0.189901
  44 C :   -0.119770
  45 C :   -0.033698
  46 S :    0.158399
  47 C :   -0.171546
  48 C :    0.004818
  49 C :    0.057056
  50 C :   -0.020357
  51 C :    0.037643
  52 C :   -0.140542
  53 C :    0.237642
  54 C :   -0.335335
  55 C :   -0.159002
  56 N :    0.134594
  57 C :   -0.182352
  58 N :    0.157445
  59 C :    0.019599
  60 C :   -0.034687
  61 C :    0.031434
  62 C :    0.030374
  63 C :   -0.022901
  64 C :   -0.010476
  65 C :    0.137261
  66 O :   -0.149340
  67 H :    0.006768
  68 H :    0.009229
  69 H :    0.008151
  70 H :    0.011098
  71 H :    0.030240
  72 H :    0.012726
  73 H :    0.033004
  74 H :    0.037491
  75 H :    0.026754
  76 H :    0.032049
  77 H :   -0.008690
  78 H :    0.034043
  79 H :    0.036262
  80 H :    0.040412
  81 H :    0.042405
  82 H :    0.039484
  83 H :    0.045327
  84 H :    0.042605
  85 H :    0.035911
  86 H :    0.034265
  87 H :    0.032166
  88 H :    0.015563
  89 H :    0.036496
  90 H :    0.029801
  91 H :    0.028290
  92 H :    0.041605
  93 H :    0.012195
  94 H :    0.010771
  95 H :    0.011119
  96 H :    0.007680
Sum of atomic charges:   -0.0000000

LOEWDIN ATOMIC CHARGES
----------------------
   0 C :    0.087306
   1 O :   -0.151642
   2 C :   -0.046862
   3 C :    0.009020
   4 C :   -0.007635
   5 C :   -0.003609
   6 C :   -0.005565
   7 C :   -0.011244
   8 C :    0.068273
   9 C :   -0.147664
  10 C :   -0.028729
  11 N :   -0.058491
  12 C :   -0.014570
  13 N :   -0.064180
  14 C :   -0.115966
  15 C :    0.049866
  16 C :   -0.186506
  17 S :    0.434928
  18 C :   -0.184753
  19 C :   -0.191254
  20 C :   -0.007833
  21 C :   -0.033069
  22 C :   -0.048759
  23 S :    0.421643
  24 C :   -0.166712
  25 C :   -0.037598
  26 N :    0.022419
  27 C :    0.038715
  28 C :   -0.065539
  29 C :    0.013896
  30 C :   -0.074928
  31 C :   -0.052423
  32 N :   -0.277232
  33 S :    0.574225
  34 N :   -0.277975
  35 C :   -0.050521
  36 C :   -0.078673
  37 C :    0.012128
  38 N :    0.036103
  39 C :    0.036603
  40 C :   -0.070740
  41 C :   -0.034889
  42 C :   -0.172347
  43 S :    0.424278
  44 C :   -0.184150
  45 C :   -0.192196
  46 S :    0.429810
  47 C :   -0.182951
  48 C :   -0.021854
  49 C :   -0.033565
  50 C :   -0.054844
  51 C :    0.045792
  52 C :   -0.102921
  53 C :    0.066629
  54 C :   -0.137778
  55 C :   -0.016217
  56 N :   -0.055785
  57 C :   -0.018269
  58 N :   -0.050087
  59 C :   -0.012503
  60 C :   -0.004782
  61 C :   -0.001118
  62 C :   -0.005635
  63 C :    0.011041
  64 C :   -0.047632
  65 C :    0.087486
  66 O :   -0.144297
  67 H :    0.042570
  68 H :    0.036732
  69 H :    0.037764
  70 H :    0.041078
  71 H :    0.050557
  72 H :    0.031160
  73 H :    0.039942
  74 H :    0.034933
  75 H :    0.030115
  76 H :    0.029456
  77 H :    0.026059
  78 H :    0.028562
  79 H :    0.036818
  80 H :    0.033712
  81 H :    0.033948
  82 H :    0.032970
  83 H :    0.032123
  84 H :    0.030580
  85 H :    0.038272
  86 H :    0.030147
  87 H :    0.041221
  88 H :    0.031705
  89 H :    0.029703
  90 H :    0.020723
  91 H :    0.032691
  92 H :    0.049485
  93 H :    0.041693
  94 H :    0.038793
  95 H :    0.037587
  96 H :    0.043229

  Mayer bond orders larger than 0.100000
B(  0-C ,  1-O ) :   2.2264 B(  0-C ,  2-C ) :   0.9308 B(  0-C , 14-C ) :   0.9507
B(  2-C ,  3-C ) :   1.4020 B(  2-C ,  7-C ) :   1.3314 B(  3-C ,  4-C ) :   1.3492
B(  3-C , 67-H ) :   0.9979 B(  4-C ,  5-C ) :   1.3828 B(  4-C , 68-H ) :   0.9864
B(  5-C ,  6-C ) :   1.3771 B(  5-C , 69-H ) :   0.9819 B(  6-C ,  7-C ) :   1.3820
B(  6-C , 70-H ) :   0.9804 B(  7-C ,  8-C ) :   1.0042 B(  8-C ,  9-C ) :   1.6333
B(  8-C , 14-C ) :   1.0600 B(  9-C , 10-C ) :   1.1517 B(  9-C , 12-C ) :   1.1141
B( 10-C , 11-N ) :   3.0007 B( 12-C , 13-N ) :   2.9755 B( 14-C , 15-C ) :   1.6086
B( 15-C , 16-C ) :   1.2169 B( 15-C , 71-H ) :   0.9145 B( 16-C , 17-S ) :   1.0449
B( 16-C , 20-C ) :   1.4202 B( 17-S , 18-C ) :   1.0809 B( 18-C , 19-C ) :   1.4237
B( 18-C , 25-C ) :   1.2909 B( 19-C , 20-C ) :   1.3811 B( 19-C , 23-S ) :   1.0299
B( 20-C , 21-C ) :   1.0785 B( 21-C , 22-C ) :   1.0970 B( 21-C , 72-H ) :   0.9258
B( 21-C , 73-H ) :   0.9078 B( 22-C , 74-H ) :   0.9687 B( 22-C , 75-H ) :   0.9668
B( 22-C , 76-H ) :   0.9697 B( 23-S , 24-C ) :   1.0318 B( 24-C , 25-C ) :   1.4201
B( 24-C , 30-C ) :   1.3290 B( 25-C , 26-N ) :   1.1365 B( 26-N , 27-C ) :   0.9548
B( 26-N , 29-C ) :   1.1550 B( 27-C , 28-C ) :   1.1032 B( 27-C , 77-H ) :   0.9453
B( 27-C , 78-H ) :   0.9385 B( 28-C , 79-H ) :   0.9645 B( 28-C , 80-H ) :   0.9624
B( 28-C , 81-H ) :   0.9641 B( 29-C , 30-C ) :   1.4117 B( 29-C , 37-C ) :   1.1119
B( 30-C , 31-C ) :   1.0998 B( 31-C , 32-N ) :   1.6478 B( 31-C , 35-C ) :   1.1182
B( 32-N , 33-S ) :   1.1961 B( 32-N , 34-N ) :   0.1328 B( 33-S , 34-N ) :   1.1944
B( 34-N , 35-C ) :   1.6464 B( 35-C , 36-C ) :   1.1003 B( 36-C , 37-C ) :   1.3818
B( 36-C , 42-C ) :   1.3526 B( 37-C , 38-N ) :   1.1760 B( 38-N , 39-C ) :   0.9407
B( 38-N , 41-C ) :   1.1425 B( 39-C , 40-C ) :   1.0932 B( 39-C , 82-H ) :   0.9443
B( 39-C , 83-H ) :   0.9530 B( 40-C , 84-H ) :   0.9535 B( 40-C , 85-H ) :   0.9645
B( 40-C , 86-H ) :   0.9612 B( 41-C , 42-C ) :   1.4203 B( 41-C , 45-C ) :   1.2634
B( 42-C , 43-S ) :   1.0265 B( 43-S , 44-C ) :   1.0396 B( 44-C , 45-C ) :   1.4520
B( 44-C , 48-C ) :   1.3260 B( 45-C , 46-S ) :   1.0685 B( 46-S , 47-C ) :   1.0551
B( 47-C , 48-C ) :   1.4923 B( 47-C , 51-C ) :   1.1019 B( 48-C , 49-C ) :   1.0772
B( 49-C , 50-C ) :   1.0847 B( 49-C , 87-H ) :   0.9222 B( 49-C , 88-H ) :   0.9208
B( 50-C , 89-H ) :   0.9665 B( 50-C , 90-H ) :   0.9635 B( 50-C , 91-H ) :   0.9649
B( 51-C , 52-C ) :   1.6893 B( 51-C , 92-H ) :   0.9181 B( 52-C , 53-C ) :   1.0459
B( 52-C , 65-C ) :   0.9356 B( 53-C , 54-C ) :   1.6545 B( 53-C , 59-C ) :   1.0014
B( 54-C , 55-C ) :   1.1111 B( 54-C , 57-C ) :   1.1558 B( 55-C , 56-N ) :   2.9779
B( 57-C , 58-N ) :   3.0036 B( 59-C , 60-C ) :   1.3759 B( 59-C , 64-C ) :   1.3371
B( 60-C , 61-C ) :   1.3807 B( 60-C , 93-H ) :   0.9826 B( 61-C , 62-C ) :   1.3805
B( 61-C , 94-H ) :   0.9808 B( 62-C , 63-C ) :   1.3510 B( 62-C , 95-H ) :   0.9863
B( 63-C , 64-C ) :   1.3942 B( 63-C , 96-H ) :   0.9999 B( 64-C , 65-C ) :   0.9297
B( 65-C , 66-O ) :   2.2470

-----------------------------------------------------------------------------
         ABSORPTION SPECTRUM VIA TRANSITION ELECTRIC DIPOLE MOMENTS
-----------------------------------------------------------------------------
State   Energy  Wavelength   fosc         T2         TX        TY        TZ
        (cm-1)    (nm)                  (au**2)     (au)      (au)      (au)
-----------------------------------------------------------------------------
   0   16806.0    595.0   1.574573796  30.84432   3.78529   4.05744  -0.23041
   1   19298.2    518.2   0.355426079   6.06327  -0.92944   0.77606  -2.14410
   2   24554.2    407.3   0.269563168   3.61418  -1.52742  -0.97345   0.57755
   3   24737.5    404.2   0.191808098   2.55262  -0.60760  -0.48479   1.39586
   4   25242.5    396.2   0.108275962   1.41213  -0.63827  -0.90720   0.42631
   5   26162.6    382.2   0.045000708   0.56626   0.44350   0.08361   0.60214
   6   26653.1    375.2   0.175939951   2.17316  -0.04733  -0.45554   1.40122
   7   26749.3    373.8   0.111083533   1.36714   0.71296  -0.28151   0.88294
   8   28539.7    350.4   0.071075571   0.81987   0.39511  -0.61556  -0.53371
   9   29441.5    339.7   0.034797921   0.38911  -0.03100   0.01100  -0.62292
  10   29813.8    335.4   0.143411362   1.58359  -1.18089  -0.12151  -0.41752
  11   30512.7    327.7   0.090513697   0.97658  -0.79710  -0.15165   0.56411
  12   30984.0    322.7   0.008764422   0.09312   0.21619  -0.03803   0.21199
  13   31917.8    313.3   0.003938581   0.04062  -0.07780   0.05291  -0.17825
  14   31981.5    312.7   0.189793915   1.95370  -1.39396   0.04410  -0.09288
  15   32479.7    307.9   0.007115847   0.07213  -0.06961  -0.24568   0.08319
  16   32779.0    305.1   0.141802823   1.42418  -0.91040  -0.41936   0.64768
  17   33061.6    302.5   0.076340300   0.76016  -0.02105   0.12280   0.86292
  18   33676.6    296.9   0.180447920   1.76400  -0.63202  -0.02088  -1.16795
  19   33927.0    294.8   0.018242660   0.17702  -0.00184   0.08763   0.41151
  20   34090.8    293.3   0.019253708   0.18593  -0.35034  -0.18422   0.17105
  21   34237.9    292.1   0.064257862   0.61787   0.06874   0.72779  -0.28890
  22   34820.4    287.2   0.023382766   0.22107  -0.29324  -0.12587   0.34531
  23   34920.7    286.4   0.099998761   0.94273  -0.61850  -0.41602   0.62218
  24   35286.2    283.4   0.075000637   0.69974  -0.63776   0.20264  -0.50193
  25   35379.6    282.6   0.252510912   2.34965  -1.18195  -0.83177   0.51069
  26   35738.0    279.8   0.051881229   0.47792  -0.68861  -0.00743  -0.06062
  27   36161.1    276.5   0.490514675   4.46566  -1.85500  -0.64156   0.78297
  28   36505.7    273.9   0.021028372   0.18964   0.37233  -0.20826  -0.08739
  29   36728.7    272.3   0.051603994   0.46254  -0.25294  -0.34455   0.52901
  30   36946.9    270.7   0.028188684   0.25117   0.17602  -0.45901  -0.09746
  31   37708.2    265.2   0.254677904   2.22347  -1.15440   0.38768  -0.86054
  32   38427.5    260.2   0.008824595   0.07560   0.17496  -0.20511  -0.05404
  33   38504.0    259.7   0.692785489   5.92337   1.88339  -0.16867  -1.53225
  34   38883.0    257.2   0.026010519   0.22022  -0.43226   0.00953  -0.18244
  35   39324.4    254.3   0.002895808   0.02424  -0.07425   0.13495  -0.02278
  36   39702.4    251.9   0.009199317   0.07628   0.10589  -0.00486  -0.25504
  37   39831.0    251.1   0.005944274   0.04913  -0.05242  -0.21537  -0.00037

FINAL SINGLE POINT ENERGY     -4575.073884205068

DIPOLE MOMENT
-------------
                                X             Y             Z
Electronic contribution:    -12.76264       5.90971     -12.24773
Nuclear contribution   :     12.53579      -6.95488      12.70518
                        -----------------------------------------
Total Dipole Moment    :     -0.22684      -1.04517       0.45744
                        -----------------------------------------
Magnitude (a.u.)       :      1.16322
Magnitude (Debye)      :      2.95668

Rotational constants in cm-1:     0.002015     0.000338     0.000306
Rotational constants in MHz :    60.402926    10.141614     9.165438

                             ****ORCA TERMINATED NORMALLY****
TOTAL RUN TIME: 0 days 0 hours 58 minutes 44 seconds 989 msec
