                         Program Version 4.2.0 -  RELEASE  -
|  1> # ORCA input file
|  2> # Y6.out
|  3> ! CAM-B3LYP def2-SVP def2/J RIJCOSX Grid4 TightSCF
|  4> %maxcore 5000
|  5> %tddft
|  6>     Mode sTDDFT
|  7>     Ethresh 5.0
|  8>     maxcore 5000
|  9> end
| 10> * xyz 0 1
| 11>    C        1.95345         3.55773         2.60812
| 12>    O        1.74284         4.44788         1.81814
| 13>    C        1.17119         3.21481         3.81942
| 14>    C        0.07405         3.86372         4.35066
| 15>    C       -0.47182         3.35467         5.51877
| 16>    F       -1.53421         3.95349         6.06906
| 17>    C        0.07599         2.22576         6.12965
| 18>    F       -0.46401         1.76586         7.26321
| 19>    C        1.17186         1.56702         5.59173
| 20>    C        1.72047         2.06983         4.42325
| 21>    C        2.83472         1.59404         3.60289
| 22>    C        3.34229         0.32168         3.62394
| 23>    C        4.22489        -0.18794         2.64994
| 24>    N        4.90873        -0.67238         1.86552
| 25>    C        2.97926        -0.65423         4.57530
| 26>    N        2.73476        -1.47700         5.33673
| 27>    C        3.08896         2.60142         2.59829
| 28>    C        4.12881         2.79885         1.73775
| 29>    C        5.44414         2.28007         1.76098
| 30>    S        6.20723         2.03645         0.19092
| 31>    C        7.64112         1.46999         0.94983
| 32>    C        7.54462         1.54631         2.34724
| 33>    C        6.30193         1.98972         2.81750
| 34>    C        6.02519         2.25972         4.26381
| 35>    C        6.26803         1.04061         5.15458
| 36>    S        9.00881         1.03735         3.15917
| 37>    C        9.71593         0.68099         1.62414
| 38>    C        8.87227         0.95348         0.54051
| 39>    N        9.49002         0.61307        -0.63496
| 40>    C        9.07825         1.26061        -1.86225
| 41>    C        9.29361         2.77213        -1.78576
| 42>    C       10.73152         0.09308        -0.31305
| 43>    C       10.91199         0.17167         1.09711
| 44>    C       12.14343        -0.16564         1.70300
| 45>    N       12.48605        -0.08172         2.97843
| 46>    S       14.03639        -0.52094         3.12534
| 47>    N       14.33083        -0.84110         1.56601
| 48>    C       13.22577        -0.61548         0.87437
| 49>    C       12.98555        -0.84213        -0.50057
| 50>    C       11.72076        -0.55510        -1.09318
| 51>    N       11.71195        -1.05365        -2.37896
| 52>    C       10.59408        -1.34161        -3.25215
| 53>    C       10.64143        -0.52532        -4.54429
| 54>    C       12.93680        -1.62032        -2.61616
| 55>    C       13.75029        -1.48618        -1.48070
| 56>    S       15.30812        -2.21651        -1.64460
| 57>    C       14.85204        -2.74954        -3.25239
| 58>    C       13.55580        -2.35066        -3.63234
| 59>    S       13.15073        -2.90408        -5.21172
| 60>    C       14.71522        -3.71008        -5.34631
| 61>    C       15.51125        -3.51676        -4.19981
| 62>    C       16.90438        -4.02077        -4.01322
| 63>    C       17.91415        -3.10321        -4.70872
| 64>    C       15.11728        -4.49475        -6.42663
| 65>    C       14.48650        -4.78793        -7.61556
| 66>    C       15.00083        -5.68042        -8.63275
| 67>    C       16.12705        -6.46106        -8.57038
| 68>    C       16.54717        -7.32690        -9.60234
| 69>    N       16.94774        -8.04919       -10.39912
| 70>    C       17.02043        -6.53361        -7.48077
| 71>    N       17.79446        -6.65392        -6.63976
| 72>    C       14.06845        -5.64022        -9.76144
| 73>    C       14.08755        -6.27910       -10.99086
| 74>    C       13.04245        -6.03282       -11.86903
| 75>    F       13.04429        -6.63774       -13.06215
| 76>    C       11.99603        -5.17148       -11.54041
| 77>    F       11.00931        -4.96035       -12.42011
| 78>    C       11.96832        -4.53019       -10.31237
| 79>    C       13.00850        -4.77615        -9.43956
| 80>    C       13.21948        -4.22859        -8.08264
| 81>    O       12.47435        -3.46196        -7.49705
| 82>    H       -0.34889         4.73575         3.87785
| 83>    H        1.56276         0.70005         6.09915
| 84>    H        3.91347         3.48660         0.92349
| 85>    H        5.00295         2.61930         4.38533
| 86>    H        6.69761         3.06110         4.58694
| 87>    H        5.72299         0.17113         4.79614
| 88>    H        5.94535         1.25652         6.17011
| 89>    H        7.32433         0.78776         5.17625
| 90>    H        8.01790         1.04365        -2.02462
| 91>    H        9.65822         0.87183        -2.69083
| 92>    H       10.34175         2.99434        -1.59535
| 93>    H        8.69467         3.21334        -0.99396
| 94>    H        9.00549         3.22762        -2.72900
| 95>    H        9.66717        -1.18135        -2.70046
| 96>    H       10.64390        -2.40424        -3.51390
| 97>    H        9.69860        -0.62513        -5.07418
| 98>    H       11.43420        -0.89021        -5.19082
| 99>    H       10.82617         0.52899        -4.34836
|100>    H       17.00931        -5.03552        -4.40068
|101>    H       17.11927        -4.04005        -2.94302
|102>    H       17.72432        -3.06000        -5.77882
|103>    H       18.92082        -3.47925        -4.55165
|104>    H       17.85045        -2.09584        -4.30412
|105>    H       16.09054        -4.94550        -6.28896
|106>    H       14.87209        -6.95247       -11.29429
|107>    H       11.16067        -3.86418       -10.05399
|108> *
|109>
|110>                          ****END OF INPUT****

CARTESIAN COORDINATES (ANGSTROEM)
---------------------------------
  C      1.953450    3.557730    2.608120
  O      1.742840    4.447880    1.818140
  C      1.171190    3.214810    3.819420
  C      0.074050    3.863720    4.350660
  C     -0.471820    3.354670    5.518770
  F     -1.534210    3.953490    6.069060
  C      0.075990    2.225760    6.129650
  F     -0.464010    1.765860    7.263210
  C      1.171860    1.567020    5.591730
  C      1.720470    2.069830    4.423250
  C      2.834720    1.594040    3.602890
  C      3.342290    0.321680    3.623940
  C      4.224890   -0.187940    2.649940
  N      4.908730   -0.672380    1.865520
  C      2.979260   -0.654230    4.575300
  N      2.734760   -1.477000    5.336730
  C      3.088960    2.601420    2.598290
  C      4.128810    2.798850    1.737750
  C      5.444140    2.280070    1.760980
  S      6.207230    2.036450    0.190920
  C      7.641120    1.469990    0.949830
  C      7.544620    1.546310    2.347240
  C      6.301930    1.989720    2.817500
  C      6.025190    2.259720    4.263810
  C      6.268030    1.040610    5.154580
  S      9.008810    1.037350    3.159170
  C      9.715930    0.680990    1.624140
  C      8.872270    0.953480    0.540510
  N      9.490020    0.613070   -0.634960
  C      9.078250    1.260610   -1.862250
  C      9.293610    2.772130   -1.785760
  C     10.731520    0.093080   -0.313050
  C     10.911990    0.171670    1.097110
  C     12.143430   -0.165640    1.703000
  N     12.486050   -0.081720    2.978430
  S     14.036390   -0.520940    3.125340
  N     14.330830   -0.841100    1.566010
  C     13.225770   -0.615480    0.874370
  C     12.985550   -0.842130   -0.500570
  C     11.720760   -0.555100   -1.093180
  N     11.711950   -1.053650   -2.378960
  C     10.594080   -1.341610   -3.252150
  C     10.641430   -0.525320   -4.544290
  C     12.936800   -1.620320   -2.616160
  C     13.750290   -1.486180   -1.480700
  S     15.308120   -2.216510   -1.644600
  C     14.852040   -2.749540   -3.252390
  C     13.555800   -2.350660   -3.632340
  S     13.150730   -2.904080   -5.211720
  C     14.715220   -3.710080   -5.346310
  C     15.511250   -3.516760   -4.199810
  C     16.904380   -4.020770   -4.013220
  C     17.914150   -3.103210   -4.708720
  C     15.117280   -4.494750   -6.426630
  C     14.486500   -4.787930   -7.615560
  C     15.000830   -5.680420   -8.632750
  C     16.127050   -6.461060   -8.570380
  C     16.547170   -7.326900   -9.602340
  N     16.947740   -8.049190  -10.399120
  C     17.020430   -6.533610   -7.480770
  N     17.794460   -6.653920   -6.639760
  C     14.068450   -5.640220   -9.761440
  C     14.087550   -6.279100  -10.990860
  C     13.042450   -6.032820  -11.869030
  F     13.044290   -6.637740  -13.062150
  C     11.996030   -5.171480  -11.540410
  F     11.009310   -4.960350  -12.420110
  C     11.968320   -4.530190  -10.312370
  C     13.008500   -4.776150   -9.439560
  C     13.219480   -4.228590   -8.082640
  O     12.474350   -3.461960   -7.497050
  H     -0.348890    4.735750    3.877850
  H      1.562760    0.700050    6.099150
  H      3.913470    3.486600    0.923490
  H      5.002950    2.619300    4.385330
  H      6.697610    3.061100    4.586940
  H      5.722990    0.171130    4.796140
  H      5.945350    1.256520    6.170110
  H      7.324330    0.787760    5.176250
  H      8.017900    1.043650   -2.024620
  H      9.658220    0.871830   -2.690830
  H     10.341750    2.994340   -1.595350
  H      8.694670    3.213340   -0.993960
  H      9.005490    3.227620   -2.729000
  H      9.667170   -1.181350   -2.700460
  H     10.643900   -2.404240   -3.513900
  H      9.698600   -0.625130   -5.074180
  H     11.434200   -0.890210   -5.190820
  H     10.826170    0.528990   -4.348360
  H     17.009310   -5.035520   -4.400680
  H     17.119270   -4.040050   -2.943020
  H     17.724320   -3.060000   -5.778820
  H     18.920820   -3.479250   -4.551650
  H     17.850450   -2.095840   -4.304120
  H     16.090540   -4.945500   -6.288960
  H     14.872090   -6.952470  -11.294290
  H     11.160670   -3.864180  -10.053990

 Total Charge           Charge          ....    0
 Multiplicity           Mult            ....    1
 Number of Electrons    NEL             ....  526
 Basis Dimension        Dim             .... 1144

ORBITAL ENERGIES
----------------

  NO   OCC          E(Eh)            E(eV)
   0   2.0000     -89.010222     -2422.0913
   1   2.0000     -88.975849     -2421.1559
   2   2.0000     -88.969989     -2420.9965
   3   2.0000     -88.969912     -2420.9944
   4   2.0000     -88.967290     -2420.9230
   5   2.0000     -24.805820      -675.0007
   6   2.0000     -24.805432      -674.9901
   7   2.0000     -24.802550      -674.9117
   8   2.0000     -24.800703      -674.8614
   9   2.0000     -19.225210      -523.1446
  10   2.0000     -19.224065      -523.1134
  11   2.0000     -14.489444      -394.2778
  12   2.0000     -14.487189      -394.2165
  13   2.0000     -14.433741      -392.7621
  14   2.0000     -14.433263      -392.7491
  15   2.0000     -14.423254      -392.4767
  16   2.0000     -14.421663      -392.4334
  17   2.0000     -14.421491      -392.4287
  18   2.0000     -14.415110      -392.2551
  19   2.0000     -10.392025      -282.7814
  20   2.0000     -10.391248      -282.7602
  21   2.0000     -10.387103      -282.6474
  22   2.0000     -10.386422      -282.6289
  23   2.0000     -10.375810      -282.3402
  24   2.0000     -10.374437      -282.3028
  25   2.0000     -10.351653      -281.6828
  26   2.0000     -10.350616      -281.6546
  27   2.0000     -10.345103      -281.5046
  28   2.0000     -10.344663      -281.4926
  29   2.0000     -10.343407      -281.4584
  30   2.0000     -10.342259      -281.4272
  31   2.0000     -10.338270      -281.3186
  32   2.0000     -10.337924      -281.3092
  33   2.0000     -10.328713      -281.0586
  34   2.0000     -10.326062      -280.9864
  35   2.0000     -10.325596      -280.9737
  36   2.0000     -10.325385      -280.9680
  37   2.0000     -10.325216      -280.9634
  38   2.0000     -10.325032      -280.9584
  39   2.0000     -10.324108      -280.9333
  40   2.0000     -10.323126      -280.9065
  41   2.0000     -10.322968      -280.9022
  42   2.0000     -10.322866      -280.8995
  43   2.0000     -10.322833      -280.8986
  44   2.0000     -10.321263      -280.8558
  45   2.0000     -10.320856      -280.8448
  46   2.0000     -10.318463      -280.7797
  47   2.0000     -10.316927      -280.7379
  48   2.0000     -10.316690      -280.7314
  49   2.0000     -10.314486      -280.6714
  50   2.0000     -10.314302      -280.6664
  51   2.0000     -10.313803      -280.6529
  52   2.0000     -10.312571      -280.6193
  53   2.0000     -10.312257      -280.6108
  54   2.0000     -10.311962      -280.6028
  55   2.0000     -10.310254      -280.5563
  56   2.0000     -10.310144      -280.5533
  57   2.0000     -10.309734      -280.5421
  58   2.0000     -10.308817      -280.5172
  59   2.0000     -10.308368      -280.5049
  60   2.0000     -10.303812      -280.3810
  61   2.0000     -10.303128      -280.3624
  62   2.0000     -10.297291      -280.2035
  63   2.0000     -10.295756      -280.1618
  64   2.0000     -10.295201      -280.1466
  65   2.0000     -10.290268      -280.0124
  66   2.0000     -10.285236      -279.8755
  67   2.0000     -10.285029      -279.8699
  68   2.0000     -10.283368      -279.8247
  69   2.0000     -10.270174      -279.4657
  70   2.0000     -10.266773      -279.3731
  71   2.0000      -8.102465      -220.4793
  72   2.0000      -8.070533      -219.6104
  73   2.0000      -8.063861      -219.4288
  74   2.0000      -8.062410      -219.3893
  75   2.0000      -8.061545      -219.3658
  76   2.0000      -6.073990      -165.2817
  77   2.0000      -6.066320      -165.0730
  78   2.0000      -6.064055      -165.0113
  79   2.0000      -6.040201      -164.3622
  80   2.0000      -6.036048      -164.2492
  81   2.0000      -6.033747      -164.1866
  82   2.0000      -6.032236      -164.1455
  83   2.0000      -6.032010      -164.1393
  84   2.0000      -6.031430      -164.1235
  85   2.0000      -6.029686      -164.0761
  86   2.0000      -6.027643      -164.0205
  87   2.0000      -6.027431      -164.0147
  88   2.0000      -6.024878      -163.9453
  89   2.0000      -6.023996      -163.9213
  90   2.0000      -6.022452      -163.8793
  91   2.0000      -1.329560       -36.1792
  92   2.0000      -1.325301       -36.0633
  93   2.0000      -1.314306       -35.7641
  94   2.0000      -1.310084       -35.6492
  95   2.0000      -1.140583       -31.0368
  96   2.0000      -1.139683       -31.0124
  97   2.0000      -1.121811       -30.5260
  98   2.0000      -1.113894       -30.3106
  99   2.0000      -1.106842       -30.1187
 100   2.0000      -1.029319       -28.0092
 101   2.0000      -1.023574       -27.8529
 102   2.0000      -1.018423       -27.7127
 103   2.0000      -1.015099       -27.6222
 104   2.0000      -1.008727       -27.4489
 105   2.0000      -1.005802       -27.3693
 106   2.0000      -1.000367       -27.2214
 107   2.0000      -0.996447       -27.1147
 108   2.0000      -0.976235       -26.5647
 109   2.0000      -0.971225       -26.4284
 110   2.0000      -0.965447       -26.2712
 111   2.0000      -0.961364       -26.1601
 112   2.0000      -0.954878       -25.9836
 113   2.0000      -0.948309       -25.8048
 114   2.0000      -0.916042       -24.9268
 115   2.0000      -0.910165       -24.7668
 116   2.0000      -0.905055       -24.6278
 117   2.0000      -0.904309       -24.6075
 118   2.0000      -0.900673       -24.5086
 119   2.0000      -0.894265       -24.3342
 120   2.0000      -0.886070       -24.1112
 121   2.0000      -0.882203       -24.0060
 122   2.0000      -0.880329       -23.9550
 123   2.0000      -0.875547       -23.8249
 124   2.0000      -0.861953       -23.4549
 125   2.0000      -0.850566       -23.1451
 126   2.0000      -0.836732       -22.7686
 127   2.0000      -0.833353       -22.6767
 128   2.0000      -0.828170       -22.5357
 129   2.0000      -0.816987       -22.2314
 130   2.0000      -0.808558       -22.0020
 131   2.0000      -0.802952       -21.8494
 132   2.0000      -0.794910       -21.6306
 133   2.0000      -0.779812       -21.2198
 134   2.0000      -0.775973       -21.1153
 135   2.0000      -0.767713       -20.8905
 136   2.0000      -0.756469       -20.5846
 137   2.0000      -0.752677       -20.4814
 138   2.0000      -0.747707       -20.3461
 139   2.0000      -0.735562       -20.0157
 140   2.0000      -0.727960       -19.8088
 141   2.0000      -0.723374       -19.6840
 142   2.0000      -0.718809       -19.5598
 143   2.0000      -0.713814       -19.4239
 144   2.0000      -0.709976       -19.3194
 145   2.0000      -0.704147       -19.1608
 146   2.0000      -0.700790       -19.0695
 147   2.0000      -0.693417       -18.8688
 148   2.0000      -0.685626       -18.6568
 149   2.0000      -0.674167       -18.3450
 150   2.0000      -0.662622       -18.0309
 151   2.0000      -0.660106       -17.9624
 152   2.0000      -0.659441       -17.9443
 153   2.0000      -0.653014       -17.7694
 154   2.0000      -0.648375       -17.6432
 155   2.0000      -0.645628       -17.5684
 156   2.0000      -0.641773       -17.4635
 157   2.0000      -0.637363       -17.3435
 158   2.0000      -0.630274       -17.1506
 159   2.0000      -0.622220       -16.9315
 160   2.0000      -0.617325       -16.7983
 161   2.0000      -0.614346       -16.7172
 162   2.0000      -0.611312       -16.6346
 163   2.0000      -0.604236       -16.4421
 164   2.0000      -0.599073       -16.3016
 165   2.0000      -0.597639       -16.2626
 166   2.0000      -0.594497       -16.1771
 167   2.0000      -0.593121       -16.1396
 168   2.0000      -0.590392       -16.0654
 169   2.0000      -0.588229       -16.0065
 170   2.0000      -0.583245       -15.8709
 171   2.0000      -0.582012       -15.8374
 172   2.0000      -0.571796       -15.5594
 173   2.0000      -0.564385       -15.3577
 174   2.0000      -0.559605       -15.2276
 175   2.0000      -0.558452       -15.1962
 176   2.0000      -0.558131       -15.1875
 177   2.0000      -0.557830       -15.1793
 178   2.0000      -0.555893       -15.1266
 179   2.0000      -0.554375       -15.0853
 180   2.0000      -0.551956       -15.0195
 181   2.0000      -0.550297       -14.9744
 182   2.0000      -0.548530       -14.9263
 183   2.0000      -0.542447       -14.7607
 184   2.0000      -0.541898       -14.7458
 185   2.0000      -0.537893       -14.6368
 186   2.0000      -0.536882       -14.6093
 187   2.0000      -0.534664       -14.5489
 188   2.0000      -0.533311       -14.5121
 189   2.0000      -0.532658       -14.4944
 190   2.0000      -0.529416       -14.4061
 191   2.0000      -0.524789       -14.2802
 192   2.0000      -0.519592       -14.1388
 193   2.0000      -0.516992       -14.0681
 194   2.0000      -0.515379       -14.0242
 195   2.0000      -0.511046       -13.9063
 196   2.0000      -0.507810       -13.8182
 197   2.0000      -0.506668       -13.7871
 198   2.0000      -0.501013       -13.6333
 199   2.0000      -0.500170       -13.6103
 200   2.0000      -0.499874       -13.6022
 201   2.0000      -0.498252       -13.5581
 202   2.0000      -0.494819       -13.4647
 203   2.0000      -0.493475       -13.4281
 204   2.0000      -0.492779       -13.4092
 205   2.0000      -0.488572       -13.2947
 206   2.0000      -0.485485       -13.2107
 207   2.0000      -0.482108       -13.1188
 208   2.0000      -0.480649       -13.0791
 209   2.0000      -0.478941       -13.0327
 210   2.0000      -0.475593       -12.9415
 211   2.0000      -0.472958       -12.8698
 212   2.0000      -0.465952       -12.6792
 213   2.0000      -0.463594       -12.6150
 214   2.0000      -0.460314       -12.5258
 215   2.0000      -0.460182       -12.5222
 216   2.0000      -0.459297       -12.4981
 217   2.0000      -0.458658       -12.4807
 218   2.0000      -0.458145       -12.4668
 219   2.0000      -0.457051       -12.4370
 220   2.0000      -0.454855       -12.3772
 221   2.0000      -0.454127       -12.3574
 222   2.0000      -0.453443       -12.3388
 223   2.0000      -0.451888       -12.2965
 224   2.0000      -0.449125       -12.2213
 225   2.0000      -0.448639       -12.2081
 226   2.0000      -0.445254       -12.1160
 227   2.0000      -0.445057       -12.1106
 228   2.0000      -0.438561       -11.9339
 229   2.0000      -0.435276       -11.8445
 230   2.0000      -0.433530       -11.7970
 231   2.0000      -0.431352       -11.7377
 232   2.0000      -0.430201       -11.7064
 233   2.0000      -0.428899       -11.6709
 234   2.0000      -0.427918       -11.6442
 235   2.0000      -0.424892       -11.5619
 236   2.0000      -0.422461       -11.4958
 237   2.0000      -0.420258       -11.4358
 238   2.0000      -0.413483       -11.2514
 239   2.0000      -0.411788       -11.2053
 240   2.0000      -0.408090       -11.1047
 241   2.0000      -0.407439       -11.0870
 242   2.0000      -0.405140       -11.0244
 243   2.0000      -0.399247       -10.8641
 244   2.0000      -0.396347       -10.7852
 245   2.0000      -0.394915       -10.7462
 246   2.0000      -0.371306       -10.1037
 247   2.0000      -0.367832       -10.0092
 248   2.0000      -0.365740        -9.9523
 249   2.0000      -0.355450        -9.6723
 250   2.0000      -0.353125        -9.6090
 251   2.0000      -0.349198        -9.5022
 252   2.0000      -0.344293        -9.3687
 253   2.0000      -0.341356        -9.2888
 254   2.0000      -0.338850        -9.2206
 255   2.0000      -0.323779        -8.8105
 256   2.0000      -0.319788        -8.7019
 257   2.0000      -0.316381        -8.6092
 258   2.0000      -0.311078        -8.4649
 259   2.0000      -0.292073        -7.9477
 260   2.0000      -0.280873        -7.6430
 261   2.0000      -0.278127        -7.5682
 262   2.0000      -0.242899        -6.6096
 263   0.0000      -0.099914        -2.7188
 264   0.0000      -0.090540        -2.4637
 265   0.0000      -0.069217        -1.8835
 266   0.0000      -0.065601        -1.7851
 267   0.0000      -0.043858        -1.1934

MULLIKEN ATOMIC CHARGES
-----------------------
   0 C :    0.132460
   1 O :   -0.137824
   2 C :    0.013521
   3 C :   -0.100377
   4 C :    0.233197
   5 F :   -0.167987
   6 C :    0.234798
   7 F :   -0.163964
   8 C :   -0.086441
   9 C :    0.023264
  10 C :    0.257018
  11 C :   -0.352956
  12 C :   -0.200026
  13 N :    0.182344
  14 C :   -0.183328
  15 N :    0.167224
  16 C :   -0.141243
  17 C :    0.048914
  18 C :   -0.173399
  19 S :    0.157907
  20 C :   -0.033105
  21 C :   -0.104329
  22 C :   -0.021391
  23 C :    0.066431
  24 C :   -0.008719
  25 S :    0.188755
  26 C :   -0.083464
  27 C :    0.032940
  28 N :   -0.170401
  29 C :    0.098181
  30 C :    0.005173
  31 C :    0.036152
  32 C :   -0.056163
  33 C :   -0.009050
  34 N :   -0.261629
  35 S :    0.469131
  36 N :   -0.263435
  37 C :   -0.008176
  38 C :   -0.049813
  39 C :    0.059253
  40 N :   -0.163325
  41 C :    0.073560
  42 C :   -0.002284
  43 C :    0.036721
  44 C :   -0.088505
  45 S :    0.191164
  46 C :   -0.087038
  47 C :   -0.025923
  48 S :    0.170970
  49 C :   -0.086804
  50 C :   -0.064421
  51 C :    0.052711
  52 C :    0.029183
  53 C :   -0.032957
  54 C :   -0.102892
  55 C :    0.314984
  56 C :   -0.358251
  57 C :   -0.193987
  58 N :    0.154151
  59 C :   -0.180982
  60 N :    0.143970
  61 C :    0.037395
  62 C :   -0.090519
  63 C :    0.236037
  64 F :   -0.165159
  65 C :    0.234507
  66 F :   -0.170265
  67 C :   -0.108582
  68 C :    0.001059
  69 C :    0.152384
  70 O :   -0.182489
  71 H :    0.012835
  72 H :    0.017214
  73 H :    0.031561
  74 H :    0.010142
  75 H :    0.033886
  76 H :    0.035291
  77 H :    0.023442
  78 H :    0.029961
  79 H :    0.038278
  80 H :   -0.002524
  81 H :    0.031223
  82 H :    0.035598
  83 H :    0.027860
  84 H :    0.042044
  85 H :    0.041590
  86 H :    0.033243
  87 H :    0.038262
  88 H :    0.035954
  89 H :    0.040811
  90 H :    0.013406
  91 H :    0.014810
  92 H :    0.033007
  93 H :    0.016181
  94 H :   -0.011208
  95 H :    0.016020
  96 H :    0.007255
Sum of atomic charges:    0.0000000

LOEWDIN ATOMIC CHARGES
----------------------
   0 C :    0.082240
   1 O :   -0.139104
   2 C :   -0.046926
   3 C :   -0.004238
   4 C :    0.069830
   5 F :   -0.044816
   6 C :    0.074455
   7 F :   -0.042440
   8 C :   -0.020587
   9 C :   -0.013784
  10 C :    0.062231
  11 C :   -0.136707
  12 C :   -0.020308
  13 N :   -0.041995
  14 C :   -0.023437
  15 N :   -0.045792
  16 C :   -0.106019
  17 C :    0.049769
  18 C :   -0.185559
  19 S :    0.435709
  20 C :   -0.190033
  21 C :   -0.186656
  22 C :   -0.023549
  23 C :   -0.029740
  24 C :   -0.050820
  25 S :    0.439912
  26 C :   -0.171201
  27 C :   -0.038188
  28 N :    0.036634
  29 C :    0.037587
  30 C :   -0.058738
  31 C :    0.007530
  32 C :   -0.072235
  33 C :   -0.055906
  34 N :   -0.286578
  35 S :    0.603380
  36 N :   -0.287327
  37 C :   -0.054148
  38 C :   -0.081399
  39 C :    0.017168
  40 N :    0.043400
  41 C :    0.038251
  42 C :   -0.065276
  43 C :   -0.045709
  44 C :   -0.162629
  45 S :    0.423238
  46 C :   -0.196939
  47 C :   -0.191761
  48 S :    0.481541
  49 C :   -0.190962
  50 C :   -0.007364
  51 C :   -0.030845
  52 C :   -0.042032
  53 C :    0.056424
  54 C :   -0.126964
  55 C :    0.078335
  56 C :   -0.147781
  57 C :   -0.021072
  58 N :   -0.052907
  59 C :   -0.017856
  60 N :   -0.057810
  61 C :   -0.014177
  62 C :   -0.017840
  63 C :    0.072299
  64 F :   -0.044234
  65 C :    0.069394
  66 F :   -0.046835
  67 C :   -0.008326
  68 C :   -0.043815
  69 C :    0.082919
  70 O :   -0.172037
  71 H :    0.052618
  72 H :    0.051383
  73 H :    0.046600
  74 H :    0.029519
  75 H :    0.041657
  76 H :    0.028702
  77 H :    0.031239
  78 H :    0.018026
  79 H :    0.028394
  80 H :    0.029015
  81 H :    0.032438
  82 H :    0.025313
  83 H :    0.033459
  84 H :    0.030893
  85 H :    0.034052
  86 H :    0.036539
  87 H :    0.023309
  88 H :    0.025230
  89 H :    0.039166
  90 H :    0.031397
  91 H :    0.023914
  92 H :    0.032629
  93 H :    0.026085
  94 H :    0.047654
  95 H :    0.051669
  96 H :    0.050253

  Mayer bond orders larger than 0.100000
B(  0-C ,  1-O ) :   2.2765 B(  0-C ,  2-C ) :   0.9259 B(  0-C , 16-C ) :   0.9470
B(  2-C ,  3-C ) :   1.3223 B(  2-C ,  9-C ) :   1.3479 B(  3-C ,  4-C ) :   1.3185
B(  3-C ,  8-C ) :   0.1044 B(  3-C , 71-H ) :   1.0201 B(  4-C ,  5-F ) :   1.1326
B(  4-C ,  6-C ) :   1.2896 B(  6-C ,  7-F ) :   1.1443 B(  6-C ,  8-C ) :   1.3358
B(  8-C ,  9-C ) :   1.3187 B(  8-C , 72-H ) :   0.9950 B(  9-C , 10-C ) :   1.0109
B( 10-C , 11-C ) :   1.6527 B( 10-C , 16-C ) :   1.0548 B( 11-C , 12-C ) :   1.1730
B( 11-C , 14-C ) :   1.1250 B( 12-C , 13-N ) :   2.9999 B( 14-C , 15-N ) :   2.9908
B( 16-C , 17-C ) :   1.6546 B( 17-C , 18-C ) :   1.1170 B( 17-C , 73-H ) :   0.9276
B( 18-C , 19-S ) :   1.0482 B( 18-C , 22-C ) :   1.4831 B( 19-S , 20-C ) :   1.0630
B( 20-C , 21-C ) :   1.4467 B( 20-C , 27-C ) :   1.2835 B( 21-C , 22-C ) :   1.3370
B( 21-C , 25-S ) :   1.0407 B( 22-C , 23-C ) :   1.0806 B( 23-C , 24-C ) :   1.0859
B( 23-C , 74-H ) :   0.9175 B( 23-C , 75-H ) :   0.9218 B( 24-C , 76-H ) :   0.9679
B( 24-C , 77-H ) :   0.9632 B( 24-C , 78-H ) :   0.9612 B( 25-S , 26-C ) :   1.0262
B( 26-C , 27-C ) :   1.4250 B( 26-C , 32-C ) :   1.3373 B( 27-C , 28-N ) :   1.1509
B( 27-C , 31-C ) :   0.1012 B( 28-N , 29-C ) :   0.9480 B( 28-N , 31-C ) :   1.1539
B( 29-C , 30-C ) :   1.1121 B( 29-C , 79-H ) :   0.9416 B( 29-C , 80-H ) :   0.9453
B( 30-C , 81-H ) :   0.9655 B( 30-C , 82-H ) :   0.9608 B( 30-C , 83-H ) :   0.9636
B( 31-C , 32-C ) :   1.3891 B( 31-C , 39-C ) :   1.1304 B( 32-C , 33-C ) :   1.1052
B( 33-C , 34-N ) :   1.6364 B( 33-C , 37-C ) :   1.1483 B( 34-N , 35-S ) :   1.2239
B( 34-N , 36-N ) :   0.1293 B( 35-S , 36-N ) :   1.2228 B( 36-N , 37-C ) :   1.6305
B( 37-C , 38-C ) :   1.1115 B( 38-C , 39-C ) :   1.3628 B( 38-C , 44-C ) :   1.3502
B( 39-C , 40-N ) :   1.1929 B( 39-C , 43-C ) :   0.1033 B( 40-N , 41-C ) :   0.9419
B( 40-N , 43-C ) :   1.1404 B( 41-C , 42-C ) :   1.0914 B( 41-C , 84-H ) :   0.9541
B( 41-C , 85-H ) :   0.9453 B( 42-C , 86-H ) :   0.9664 B( 42-C , 87-H ) :   0.9518
B( 42-C , 88-H ) :   0.9595 B( 43-C , 44-C ) :   1.4045 B( 43-C , 47-C ) :   1.2931
B( 44-C , 45-S ) :   1.0267 B( 45-S , 46-C ) :   1.0184 B( 46-C , 47-C ) :   1.3864
B( 46-C , 50-C ) :   1.4364 B( 47-C , 48-S ) :   1.0332 B( 48-S , 49-C ) :   1.0354
B( 49-C , 50-C ) :   1.3500 B( 49-C , 53-C ) :   1.3268 B( 50-C , 51-C ) :   1.0768
B( 51-C , 52-C ) :   1.1022 B( 51-C , 89-H ) :   0.9034 B( 51-C , 90-H ) :   0.9217
B( 52-C , 91-H ) :   0.9707 B( 52-C , 92-H ) :   0.9674 B( 52-C , 93-H ) :   0.9663
B( 53-C , 54-C ) :   1.4577 B( 53-C , 94-H ) :   0.9286 B( 54-C , 55-C ) :   1.1036
B( 54-C , 69-C ) :   0.9851 B( 55-C , 56-C ) :   1.6139 B( 55-C , 61-C ) :   0.9965
B( 56-C , 57-C ) :   1.1450 B( 56-C , 59-C ) :   1.1506 B( 57-C , 58-N ) :   2.9760
B( 59-C , 60-N ) :   2.9608 B( 61-C , 62-C ) :   1.3185 B( 61-C , 68-C ) :   1.3448
B( 62-C , 63-C ) :   1.3293 B( 62-C , 67-C ) :   0.1051 B( 62-C , 95-H ) :   0.9923
B( 63-C , 64-F ) :   1.1462 B( 63-C , 65-C ) :   1.2974 B( 65-C , 66-F ) :   1.1292
B( 65-C , 67-C ) :   1.3106 B( 67-C , 68-C ) :   1.3196 B( 67-C , 96-H ) :   1.0211
B( 68-C , 69-C ) :   0.9667 B( 69-C , 70-O ) :   2.1357

-----------------------------------------------------------------------------
         ABSORPTION SPECTRUM VIA TRANSITION ELECTRIC DIPOLE MOMENTS
-----------------------------------------------------------------------------
State   Energy  Wavelength   fosc         T2         TX        TY        TZ
        (cm-1)    (nm)                  (au**2)     (au)      (au)      (au)
-----------------------------------------------------------------------------
   0   16453.8    607.8   1.856525744  37.14587   4.01804  -2.23309  -4.00181
   1   19363.1    516.4   0.582837795   9.90944   0.61486   1.91974   2.41785
   2   23611.9    423.5   0.072780531   1.01475  -0.45554   0.46767   0.76715
   3   24138.4    414.3   0.057545619   0.78484   0.28154  -0.15801   0.82499
   4   24873.1    402.0   0.301765842   3.99408  -1.83399   0.50153  -0.61566
   5   24998.0    400.0   0.080269608   1.05712   0.94600  -0.25145  -0.31461
   6   26386.4    379.0   0.153429289   1.91427  -1.03534  -0.69700  -0.59711
   7   27134.3    368.5   0.012072924   0.14648   0.30834  -0.17663  -0.14215
   8   28512.7    350.7   0.043763890   0.50530   0.23032  -0.02357  -0.67209
   9   29490.8    339.1   0.057526018   0.64218   0.21300   0.21504   0.74200
  10   30059.6    332.7   0.025722870   0.28172  -0.32851   0.40468   0.10018
  11   30623.5    326.5   0.087501019   0.94066  -0.72610   0.61315   0.19363
  12   30645.4    326.3   0.020356518   0.21868   0.21115  -0.07868   0.40976
  13   31427.0    318.2   0.068783263   0.72054   0.69853  -0.19278   0.44208
  14   32097.3    311.6   0.108073750   1.10848   0.19610  -0.41086  -0.94933
  15   32233.1    310.2   0.091659070   0.93616   0.86792  -0.32678   0.27585
  16   32789.2    305.0   0.071034401   0.71320  -0.61184   0.56804   0.12723
  17   32932.3    303.7   0.004592166   0.04591  -0.06024   0.19457   0.06648
  18   33108.5    302.0   0.046278118   0.46016   0.16058  -0.23624   0.61528
  19   33281.6    300.5   0.279901646   2.76871   1.37457  -0.58408   0.73357
  20   33812.7    295.7   0.031303739   0.30478  -0.29118  -0.16677  -0.43839
  21   33887.8    295.1   0.158658310   1.54133  -0.19278  -0.28835  -1.19206
  22   34252.0    292.0   0.039396580   0.37866   0.55060  -0.16768  -0.21767
  23   34528.8    289.6   0.027448418   0.26170  -0.08158  -0.24801  -0.43993
  24   34933.2    286.3   0.159983453   1.50769  -1.04709   0.62875  -0.12640
  25   35346.7    282.9   0.227614863   2.11996  -0.82255   0.61536   1.03185
  26   36168.7    276.5   0.338707007   3.08295  -1.34227   0.88578  -0.70474
  27   36848.4    271.4   0.242233234   2.16417   1.32768  -0.51743   0.36566
  28   36961.0    270.6   0.076776044   0.68384  -0.20174   0.67717   0.42963
  29   37127.2    269.3   0.185577487   1.64554   1.18815  -0.17525   0.45070
  30   37270.6    268.3   0.343922340   3.03787   1.22200  -1.18646  -0.36998
  31   37690.7    265.3   0.025901871   0.22624   0.31377  -0.06674   0.35119
  32   38067.4    262.7   0.076334502   0.66015  -0.54897   0.55418  -0.22731
  33   38214.1    261.7   0.143914191   1.23981   0.44075  -0.97637  -0.30373
  34   38491.4    259.8   0.062902416   0.53800  -0.36722   0.58369  -0.24991
  35   38708.0    258.3   0.140255953   1.19288   0.73842  -0.60817  -0.52702
  36   39249.2    254.8   0.018406346   0.15439   0.38137   0.00833   0.09420
  37   39380.2    253.9   0.028245586   0.23613   0.22042  -0.01178   0.43290

FINAL SINGLE POINT ENERGY     -4971.621434871399

DIPOLE MOMENT
-------------
                                X             Y             Z
Electronic contribution:    -26.68727     -15.27454      -0.26431
Nuclear contribution   :     25.86585      18.40956       0.59052
                        -----------------------------------------
Total Dipole Moment    :     -0.82142       3.13502       0.32621
                        -----------------------------------------
Magnitude (a.u.)       :      3.25722
Magnitude (Debye)      :      8.27921

Rotational constants in cm-1:     0.001687     0.000271     0.000244
Rotational constants in MHz :    50.562082     8.130185     7.319484

                             ****ORCA TERMINATED NORMALLY****
TOTAL RUN TIME: 0 days 0 hours 59 minutes 58 seconds 807 msec
