                         Program Version 4.2.0 -  RELEASE  -
|  1> # ORCA input file
|  2> # Y6.out: Geometry 184
|  3> ! CAM-B3LYP def2-SVP def2/J RIJCOSX Grid4 TightSCF
|  4> %maxcore 5000
|  5> %tddft
|  6>     Mode sTDDFT
|  7>     Ethresh 5.0
|  8>     maxcore 5000
|  9> end
| 10> * xyz 0 1
| 11>    C        2.66734         3.95000         1.81746
| 12>    O        2.70140         4.19135         0.62820
| 13>    C        1.96722         4.73311         2.86767
| 14>    C        1.23032         5.90147         2.71096
| 15>    C        0.66812         6.46740         3.84933
| 16>    F       -0.04883         7.58522         3.76940
| 17>    C        0.84907         5.86672         5.10953
| 18>    F        0.29260         6.45292         6.16751
| 19>    C        1.58046         4.68872         5.26353
| 20>    C        2.14479         4.10882         4.11927
| 21>    C        2.89282         2.83977         3.91260
| 22>    C        2.92844         1.77783         4.80123
| 23>    C        3.34024         0.47889         4.38339
| 24>    N        3.66087        -0.58030         4.02808
| 25>    C        2.47165         1.87998         6.15023
| 26>    N        2.12545         1.96749         7.25645
| 27>    C        3.35919         2.82347         2.53727
| 28>    C        4.24544         2.07391         1.79145
| 29>    C        5.32957         1.18553         2.03895
| 30>    S        5.82015         0.22939         0.61555
| 31>    C        7.19791        -0.38732         1.44991
| 32>    C        7.26449         0.11928         2.76613
| 33>    C        6.22834         1.01566         3.11454
| 34>    C        6.26119         1.84028         4.37329
| 35>    C        6.37122         1.04582         5.68196
| 36>    S        8.74293        -0.36263         3.60956
| 37>    C        9.27479        -1.19256         2.17212
| 38>    C        8.34048        -1.15385         1.12444
| 39>    N        8.89135        -1.71691        -0.01544
| 40>    C        8.30581        -1.43867        -1.32712
| 41>    C        8.73730        -0.09501        -1.90971
| 42>    C       10.20700        -2.07234         0.28610
| 43>    C       10.46292        -1.75281         1.65568
| 44>    C       11.79040        -1.82349         2.19290
| 45>    N       12.16355        -1.58475         3.44216
| 46>    S       13.81611        -1.69106         3.48056
| 47>    N       14.08581        -2.04072         1.88465
| 48>    C       12.90045        -2.08652         1.29294
| 49>    C       12.62512        -2.39906        -0.07855
| 50>    C       11.28557        -2.50994        -0.55079
| 51>    N       11.29888        -2.92669        -1.88893
| 52>    C       10.30744        -3.85605        -2.46167
| 53>    C        9.80341        -3.48881        -3.85246
| 54>    C       12.63723        -2.98106        -2.28038
| 55>    C       13.46124        -2.65605        -1.18857
| 56>    S       15.15812        -2.59384        -1.57738
| 57>    C       14.75991        -3.01573        -3.24639
| 58>    C       13.37702        -3.21565        -3.46146
| 59>    S       13.03243        -3.60279        -5.11144
| 60>    C       14.75549        -3.44606        -5.53540
| 61>    C       15.54854        -3.12211        -4.40032
| 62>    C       17.01807        -2.80267        -4.40546
| 63>    C       17.27746        -1.29137        -4.49402
| 64>    C       15.31533        -3.57307        -6.82656
| 65>    C       14.79600        -3.86545        -8.07614
| 66>    C       15.54332        -3.93750        -9.33480
| 67>    C       16.88234        -3.65436        -9.55260
| 68>    C       17.49679        -3.74735       -10.84000
| 69>    N       18.02180        -3.81006       -11.87500
| 70>    C       17.78380        -3.23561        -8.52390
| 71>    N       18.53807        -2.89977        -7.70456
| 72>    C       14.58867        -4.36717       -10.39284
| 73>    C       14.74844        -4.64376       -11.75863
| 74>    C       13.62918        -5.06856       -12.47349
| 75>    F       13.72869        -5.36061       -13.76697
| 76>    C       12.36784        -5.21371       -11.86934
| 77>    F       11.34878        -5.63414       -12.61165
| 78>    C       12.19633        -4.92746       -10.52235
| 79>    C       13.31594        -4.51592        -9.81172
| 80>    C       13.38319        -4.19424        -8.36982
| 81>    O       12.43402        -4.21520        -7.60301
| 82>    H        1.08945         6.36137         1.73145
| 83>    H        1.68442         4.26836         6.26290
| 84>    H        4.09880         2.28726         0.72194
| 85>    H        5.39161         2.50450         4.40808
| 86>    H        7.14106         2.50523         4.28836
| 87>    H        5.54105         0.33734         5.79978
| 88>    H        6.36489         1.73607         6.53885
| 89>    H        7.30374         0.46416         5.73327
| 90>    H        7.21423        -1.47311        -1.19484
| 91>    H        8.54970        -2.25110        -2.01308
| 92>    H        9.81456        -0.08831        -2.13564
| 93>    H        8.51679         0.72454        -1.20933
| 94>    H        8.18896         0.10148        -2.84363
| 95>    H        9.47691        -3.92063        -1.74756
| 96>    H       10.76525        -4.85981        -2.48214
| 97>    H        9.00792        -4.18874        -4.14923
| 98>    H       10.59328        -3.55948        -4.61195
| 99>    H        9.39567        -2.46767        -3.88537
|100>    H       17.53954        -3.30814        -5.22917
|101>    H       17.45740        -3.19869        -3.47496
|102>    H       16.88977        -0.88532        -5.44043
|103>    H       18.35657        -1.08116        -4.45267
|104>    H       16.78842        -0.75460        -3.66804
|105>    H       16.38742        -3.39213        -6.80328
|106>    H       15.69397        -4.54853       -12.28959
|107>    H       11.22402        -5.03760       -10.04041
|108> *
|109>
|110>                          ****END OF INPUT****

CARTESIAN COORDINATES (ANGSTROEM)
---------------------------------
  C      2.667340    3.950000    1.817460
  O      2.701400    4.191350    0.628200
  C      1.967220    4.733110    2.867670
  C      1.230320    5.901470    2.710960
  C      0.668120    6.467400    3.849330
  F     -0.048830    7.585220    3.769400
  C      0.849070    5.866720    5.109530
  F      0.292600    6.452920    6.167510
  C      1.580460    4.688720    5.263530
  C      2.144790    4.108820    4.119270
  C      2.892820    2.839770    3.912600
  C      2.928440    1.777830    4.801230
  C      3.340240    0.478890    4.383390
  N      3.660870   -0.580300    4.028080
  C      2.471650    1.879980    6.150230
  N      2.125450    1.967490    7.256450
  C      3.359190    2.823470    2.537270
  C      4.245440    2.073910    1.791450
  C      5.329570    1.185530    2.038950
  S      5.820150    0.229390    0.615550
  C      7.197910   -0.387320    1.449910
  C      7.264490    0.119280    2.766130
  C      6.228340    1.015660    3.114540
  C      6.261190    1.840280    4.373290
  C      6.371220    1.045820    5.681960
  S      8.742930   -0.362630    3.609560
  C      9.274790   -1.192560    2.172120
  C      8.340480   -1.153850    1.124440
  N      8.891350   -1.716910   -0.015440
  C      8.305810   -1.438670   -1.327120
  C      8.737300   -0.095010   -1.909710
  C     10.207000   -2.072340    0.286100
  C     10.462920   -1.752810    1.655680
  C     11.790400   -1.823490    2.192900
  N     12.163550   -1.584750    3.442160
  S     13.816110   -1.691060    3.480560
  N     14.085810   -2.040720    1.884650
  C     12.900450   -2.086520    1.292940
  C     12.625120   -2.399060   -0.078550
  C     11.285570   -2.509940   -0.550790
  N     11.298880   -2.926690   -1.888930
  C     10.307440   -3.856050   -2.461670
  C      9.803410   -3.488810   -3.852460
  C     12.637230   -2.981060   -2.280380
  C     13.461240   -2.656050   -1.188570
  S     15.158120   -2.593840   -1.577380
  C     14.759910   -3.015730   -3.246390
  C     13.377020   -3.215650   -3.461460
  S     13.032430   -3.602790   -5.111440
  C     14.755490   -3.446060   -5.535400
  C     15.548540   -3.122110   -4.400320
  C     17.018070   -2.802670   -4.405460
  C     17.277460   -1.291370   -4.494020
  C     15.315330   -3.573070   -6.826560
  C     14.796000   -3.865450   -8.076140
  C     15.543320   -3.937500   -9.334800
  C     16.882340   -3.654360   -9.552600
  C     17.496790   -3.747350  -10.840000
  N     18.021800   -3.810060  -11.875000
  C     17.783800   -3.235610   -8.523900
  N     18.538070   -2.899770   -7.704560
  C     14.588670   -4.367170  -10.392840
  C     14.748440   -4.643760  -11.758630
  C     13.629180   -5.068560  -12.473490
  F     13.728690   -5.360610  -13.766970
  C     12.367840   -5.213710  -11.869340
  F     11.348780   -5.634140  -12.611650
  C     12.196330   -4.927460  -10.522350
  C     13.315940   -4.515920   -9.811720
  C     13.383190   -4.194240   -8.369820
  O     12.434020   -4.215200   -7.603010
  H      1.089450    6.361370    1.731450
  H      1.684420    4.268360    6.262900
  H      4.098800    2.287260    0.721940
  H      5.391610    2.504500    4.408080
  H      7.141060    2.505230    4.288360
  H      5.541050    0.337340    5.799780
  H      6.364890    1.736070    6.538850
  H      7.303740    0.464160    5.733270
  H      7.214230   -1.473110   -1.194840
  H      8.549700   -2.251100   -2.013080
  H      9.814560   -0.088310   -2.135640
  H      8.516790    0.724540   -1.209330
  H      8.188960    0.101480   -2.843630
  H      9.476910   -3.920630   -1.747560
  H     10.765250   -4.859810   -2.482140
  H      9.007920   -4.188740   -4.149230
  H     10.593280   -3.559480   -4.611950
  H      9.395670   -2.467670   -3.885370
  H     17.539540   -3.308140   -5.229170
  H     17.457400   -3.198690   -3.474960
  H     16.889770   -0.885320   -5.440430
  H     18.356570   -1.081160   -4.452670
  H     16.788420   -0.754600   -3.668040
  H     16.387420   -3.392130   -6.803280
  H     15.693970   -4.548530  -12.289590
  H     11.224020   -5.037600  -10.040410

 Total Charge           Charge          ....    0
 Multiplicity           Mult            ....    1
 Number of Electrons    NEL             ....  526
 Basis Dimension        Dim             .... 1144

ORBITAL ENERGIES
----------------

  NO   OCC          E(Eh)            E(eV)
   0   2.0000     -89.011287     -2422.1203
   1   2.0000     -88.978659     -2421.2324
   2   2.0000     -88.975071     -2421.1348
   3   2.0000     -88.973559     -2421.0936
   4   2.0000     -88.972240     -2421.0577
   5   2.0000     -24.806307      -675.0139
   6   2.0000     -24.805871      -675.0021
   7   2.0000     -24.804849      -674.9743
   8   2.0000     -24.803744      -674.9442
   9   2.0000     -19.226283      -523.1738
  10   2.0000     -19.224015      -523.1121
  11   2.0000     -14.493413      -394.3858
  12   2.0000     -14.489034      -394.2667
  13   2.0000     -14.444587      -393.0572
  14   2.0000     -14.444155      -393.0454
  15   2.0000     -14.429528      -392.6474
  16   2.0000     -14.425744      -392.5445
  17   2.0000     -14.424065      -392.4988
  18   2.0000     -14.422720      -392.4622
  19   2.0000     -10.390890      -282.7505
  20   2.0000     -10.389823      -282.7215
  21   2.0000     -10.389352      -282.7086
  22   2.0000     -10.388979      -282.6985
  23   2.0000     -10.376163      -282.3497
  24   2.0000     -10.375703      -282.3372
  25   2.0000     -10.354518      -281.7608
  26   2.0000     -10.354266      -281.7539
  27   2.0000     -10.353654      -281.7373
  28   2.0000     -10.352749      -281.7126
  29   2.0000     -10.349886      -281.6347
  30   2.0000     -10.349198      -281.6160
  31   2.0000     -10.343163      -281.4518
  32   2.0000     -10.341542      -281.4077
  33   2.0000     -10.334394      -281.2131
  34   2.0000     -10.333993      -281.2022
  35   2.0000     -10.333864      -281.1987
  36   2.0000     -10.333313      -281.1837
  37   2.0000     -10.333265      -281.1824
  38   2.0000     -10.332903      -281.1726
  39   2.0000     -10.331878      -281.1447
  40   2.0000     -10.329919      -281.0914
  41   2.0000     -10.329493      -281.0798
  42   2.0000     -10.329099      -281.0691
  43   2.0000     -10.328496      -281.0527
  44   2.0000     -10.326837      -281.0075
  45   2.0000     -10.325531      -280.9720
  46   2.0000     -10.325159      -280.9619
  47   2.0000     -10.325050      -280.9589
  48   2.0000     -10.323343      -280.9124
  49   2.0000     -10.322698      -280.8949
  50   2.0000     -10.320879      -280.8454
  51   2.0000     -10.319732      -280.8142
  52   2.0000     -10.319251      -280.8011
  53   2.0000     -10.316727      -280.7324
  54   2.0000     -10.316697      -280.7316
  55   2.0000     -10.314754      -280.6787
  56   2.0000     -10.314047      -280.6595
  57   2.0000     -10.313715      -280.6505
  58   2.0000     -10.312826      -280.6263
  59   2.0000     -10.307834      -280.4904
  60   2.0000     -10.306316      -280.4491
  61   2.0000     -10.305912      -280.4381
  62   2.0000     -10.305541      -280.4280
  63   2.0000     -10.304217      -280.3920
  64   2.0000     -10.304030      -280.3869
  65   2.0000     -10.292515      -280.0736
  66   2.0000     -10.291071      -280.0343
  67   2.0000     -10.289478      -279.9909
  68   2.0000     -10.289317      -279.9865
  69   2.0000     -10.270934      -279.4863
  70   2.0000     -10.270049      -279.4622
  71   2.0000      -8.103019      -220.4944
  72   2.0000      -8.073095      -219.6801
  73   2.0000      -8.067321      -219.5230
  74   2.0000      -8.067204      -219.5198
  75   2.0000      -8.065696      -219.4787
  76   2.0000      -6.074663      -165.3000
  77   2.0000      -6.067192      -165.0967
  78   2.0000      -6.064212      -165.0156
  79   2.0000      -6.042771      -164.4321
  80   2.0000      -6.038646      -164.3199
  81   2.0000      -6.037143      -164.2790
  82   2.0000      -6.037117      -164.2783
  83   2.0000      -6.035684      -164.2393
  84   2.0000      -6.034556      -164.2086
  85   2.0000      -6.033161      -164.1707
  86   2.0000      -6.032766      -164.1599
  87   2.0000      -6.031621      -164.1287
  88   2.0000      -6.028834      -164.0529
  89   2.0000      -6.028117      -164.0334
  90   2.0000      -6.026570      -163.9913
  91   2.0000      -1.332564       -36.2609
  92   2.0000      -1.331924       -36.2435
  93   2.0000      -1.315877       -35.8068
  94   2.0000      -1.315813       -35.8051
  95   2.0000      -1.137748       -30.9597
  96   2.0000      -1.136100       -30.9148
  97   2.0000      -1.114646       -30.3311
  98   2.0000      -1.106085       -30.0981
  99   2.0000      -1.098297       -29.8862
 100   2.0000      -1.019758       -27.7490
 101   2.0000      -1.019398       -27.7392
 102   2.0000      -1.013867       -27.5887
 103   2.0000      -1.011960       -27.5368
 104   2.0000      -1.002379       -27.2761
 105   2.0000      -1.000052       -27.2128
 106   2.0000      -0.994990       -27.0750
 107   2.0000      -0.994436       -27.0600
 108   2.0000      -0.979088       -26.6423
 109   2.0000      -0.966602       -26.3026
 110   2.0000      -0.959982       -26.1224
 111   2.0000      -0.956175       -26.0188
 112   2.0000      -0.951064       -25.8798
 113   2.0000      -0.944318       -25.6962
 114   2.0000      -0.911655       -24.8074
 115   2.0000      -0.903580       -24.5877
 116   2.0000      -0.901207       -24.5231
 117   2.0000      -0.900289       -24.4981
 118   2.0000      -0.898941       -24.4614
 119   2.0000      -0.890369       -24.2282
 120   2.0000      -0.881653       -23.9910
 121   2.0000      -0.878889       -23.9158
 122   2.0000      -0.873954       -23.7815
 123   2.0000      -0.873538       -23.7702
 124   2.0000      -0.858397       -23.3582
 125   2.0000      -0.850489       -23.1430
 126   2.0000      -0.834403       -22.7053
 127   2.0000      -0.832068       -22.6417
 128   2.0000      -0.826423       -22.4881
 129   2.0000      -0.814957       -22.1761
 130   2.0000      -0.806098       -21.9350
 131   2.0000      -0.802521       -21.8377
 132   2.0000      -0.791859       -21.5476
 133   2.0000      -0.773440       -21.0464
 134   2.0000      -0.771589       -20.9960
 135   2.0000      -0.765919       -20.8417
 136   2.0000      -0.754745       -20.5377
 137   2.0000      -0.748359       -20.3639
 138   2.0000      -0.746679       -20.3182
 139   2.0000      -0.733270       -19.9533
 140   2.0000      -0.726726       -19.7752
 141   2.0000      -0.721396       -19.6302
 142   2.0000      -0.715487       -19.4694
 143   2.0000      -0.712039       -19.3756
 144   2.0000      -0.708568       -19.2811
 145   2.0000      -0.701657       -19.0930
 146   2.0000      -0.698128       -18.9970
 147   2.0000      -0.689682       -18.7672
 148   2.0000      -0.683436       -18.5972
 149   2.0000      -0.675024       -18.3683
 150   2.0000      -0.663020       -18.0417
 151   2.0000      -0.660442       -17.9715
 152   2.0000      -0.657966       -17.9042
 153   2.0000      -0.652593       -17.7580
 154   2.0000      -0.645490       -17.5647
 155   2.0000      -0.644249       -17.5309
 156   2.0000      -0.641060       -17.4441
 157   2.0000      -0.636957       -17.3325
 158   2.0000      -0.628968       -17.1151
 159   2.0000      -0.621883       -16.9223
 160   2.0000      -0.615682       -16.7536
 161   2.0000      -0.612122       -16.6567
 162   2.0000      -0.609013       -16.5721
 163   2.0000      -0.600804       -16.3487
 164   2.0000      -0.597548       -16.2601
 165   2.0000      -0.595847       -16.2138
 166   2.0000      -0.594213       -16.1694
 167   2.0000      -0.593733       -16.1563
 168   2.0000      -0.592779       -16.1303
 169   2.0000      -0.588188       -16.0054
 170   2.0000      -0.580912       -15.8074
 171   2.0000      -0.577061       -15.7026
 172   2.0000      -0.569650       -15.5010
 173   2.0000      -0.562067       -15.2946
 174   2.0000      -0.560765       -15.2592
 175   2.0000      -0.556630       -15.1467
 176   2.0000      -0.554596       -15.0913
 177   2.0000      -0.554557       -15.0903
 178   2.0000      -0.552682       -15.0392
 179   2.0000      -0.551787       -15.0149
 180   2.0000      -0.550845       -14.9893
 181   2.0000      -0.549208       -14.9447
 182   2.0000      -0.543831       -14.7984
 183   2.0000      -0.539919       -14.6919
 184   2.0000      -0.538627       -14.6568
 185   2.0000      -0.534691       -14.5497
 186   2.0000      -0.534262       -14.5380
 187   2.0000      -0.533571       -14.5192
 188   2.0000      -0.531538       -14.4639
 189   2.0000      -0.530549       -14.4370
 190   2.0000      -0.528340       -14.3769
 191   2.0000      -0.523440       -14.2435
 192   2.0000      -0.520438       -14.1618
 193   2.0000      -0.513287       -13.9672
 194   2.0000      -0.511872       -13.9287
 195   2.0000      -0.509845       -13.8736
 196   2.0000      -0.507188       -13.8013
 197   2.0000      -0.505592       -13.7579
 198   2.0000      -0.499499       -13.5920
 199   2.0000      -0.499085       -13.5808
 200   2.0000      -0.496962       -13.5230
 201   2.0000      -0.496285       -13.5046
 202   2.0000      -0.494934       -13.4678
 203   2.0000      -0.493749       -13.4356
 204   2.0000      -0.490536       -13.3482
 205   2.0000      -0.487376       -13.2622
 206   2.0000      -0.484049       -13.1716
 207   2.0000      -0.482753       -13.1364
 208   2.0000      -0.480145       -13.0654
 209   2.0000      -0.474719       -12.9178
 210   2.0000      -0.472878       -12.8677
 211   2.0000      -0.471385       -12.8270
 212   2.0000      -0.467734       -12.7277
 213   2.0000      -0.461518       -12.5585
 214   2.0000      -0.460037       -12.5182
 215   2.0000      -0.459385       -12.5005
 216   2.0000      -0.458494       -12.4763
 217   2.0000      -0.457619       -12.4525
 218   2.0000      -0.456285       -12.4161
 219   2.0000      -0.455518       -12.3953
 220   2.0000      -0.455190       -12.3864
 221   2.0000      -0.454752       -12.3744
 222   2.0000      -0.452632       -12.3168
 223   2.0000      -0.450704       -12.2643
 224   2.0000      -0.449338       -12.2271
 225   2.0000      -0.448829       -12.2133
 226   2.0000      -0.445839       -12.1319
 227   2.0000      -0.439416       -11.9571
 228   2.0000      -0.435798       -11.8587
 229   2.0000      -0.432022       -11.7559
 230   2.0000      -0.431221       -11.7341
 231   2.0000      -0.430928       -11.7262
 232   2.0000      -0.428629       -11.6636
 233   2.0000      -0.428251       -11.6533
 234   2.0000      -0.424552       -11.5527
 235   2.0000      -0.423797       -11.5321
 236   2.0000      -0.421524       -11.4703
 237   2.0000      -0.420351       -11.4383
 238   2.0000      -0.415782       -11.3140
 239   2.0000      -0.412226       -11.2172
 240   2.0000      -0.410363       -11.1666
 241   2.0000      -0.406938       -11.0733
 242   2.0000      -0.405931       -11.0460
 243   2.0000      -0.401793       -10.9333
 244   2.0000      -0.399992       -10.8843
 245   2.0000      -0.395051       -10.7499
 246   2.0000      -0.375704       -10.2234
 247   2.0000      -0.372056       -10.1242
 248   2.0000      -0.366513        -9.9733
 249   2.0000      -0.353281        -9.6133
 250   2.0000      -0.351202        -9.5567
 251   2.0000      -0.348800        -9.4913
 252   2.0000      -0.344681        -9.3792
 253   2.0000      -0.343747        -9.3538
 254   2.0000      -0.341830        -9.3017
 255   2.0000      -0.322831        -8.7847
 256   2.0000      -0.320718        -8.7272
 257   2.0000      -0.316620        -8.6157
 258   2.0000      -0.311644        -8.4803
 259   2.0000      -0.295962        -8.0535
 260   2.0000      -0.284879        -7.7519
 261   2.0000      -0.282713        -7.6930
 262   2.0000      -0.247823        -6.7436
 263   0.0000      -0.102731        -2.7955
 264   0.0000      -0.092264        -2.5106
 265   0.0000      -0.070576        -1.9205
 266   0.0000      -0.066243        -1.8026
 267   0.0000      -0.050228        -1.3668

MULLIKEN ATOMIC CHARGES
-----------------------
   0 C :    0.131070
   1 O :   -0.151183
   2 C :    0.009638
   3 C :   -0.100626
   4 C :    0.228158
   5 F :   -0.161053
   6 C :    0.229719
   7 F :   -0.159484
   8 C :   -0.097131
   9 C :    0.030619
  10 C :    0.242380
  11 C :   -0.339712
  12 C :   -0.173770
  13 N :    0.150166
  14 C :   -0.153411
  15 N :    0.132560
  16 C :   -0.140462
  17 C :    0.045145
  18 C :   -0.145017
  19 S :    0.142847
  20 C :   -0.036777
  21 C :   -0.118101
  22 C :    0.006169
  23 C :    0.040808
  24 C :   -0.023533
  25 S :    0.187256
  26 C :   -0.096137
  27 C :    0.060575
  28 N :   -0.193917
  29 C :    0.095226
  30 C :   -0.006856
  31 C :    0.056056
  32 C :   -0.024395
  33 C :   -0.010428
  34 N :   -0.263456
  35 S :    0.450152
  36 N :   -0.261747
  37 C :   -0.005464
  38 C :   -0.031905
  39 C :    0.052509
  40 N :   -0.209489
  41 C :    0.074530
  42 C :   -0.009000
  43 C :    0.047552
  44 C :   -0.106992
  45 S :    0.201296
  46 C :   -0.092365
  47 C :   -0.029143
  48 S :    0.167026
  49 C :   -0.083716
  50 C :   -0.057530
  51 C :    0.035161
  52 C :    0.016492
  53 C :   -0.017557
  54 C :   -0.087438
  55 C :    0.277854
  56 C :   -0.331978
  57 C :   -0.162541
  58 N :    0.127859
  59 C :   -0.150084
  60 N :    0.110415
  61 C :    0.044734
  62 C :   -0.092494
  63 C :    0.229722
  64 F :   -0.158386
  65 C :    0.231633
  66 F :   -0.160383
  67 C :   -0.103807
  68 C :   -0.017837
  69 C :    0.138205
  70 O :   -0.171741
  71 H :    0.020444
  72 H :    0.024108
  73 H :    0.038727
  74 H :    0.012044
  75 H :    0.039131
  76 H :    0.040621
  77 H :    0.031014
  78 H :    0.029525
  79 H :    0.036056
  80 H :    0.000343
  81 H :    0.039968
  82 H :    0.037712
  83 H :    0.036524
  84 H :    0.041496
  85 H :    0.040917
  86 H :    0.036840
  87 H :    0.046774
  88 H :    0.032742
  89 H :    0.038212
  90 H :    0.021224
  91 H :    0.018978
  92 H :    0.039646
  93 H :    0.019937
  94 H :   -0.019291
  95 H :    0.023720
  96 H :    0.016103
Sum of atomic charges:   -0.0000000

LOEWDIN ATOMIC CHARGES
----------------------
   0 C :    0.088904
   1 O :   -0.144954
   2 C :   -0.049226
   3 C :   -0.009877
   4 C :    0.065486
   5 F :   -0.038407
   6 C :    0.071610
   7 F :   -0.037873
   8 C :   -0.026755
   9 C :   -0.011619
  10 C :    0.065273
  11 C :   -0.141765
  12 C :   -0.015282
  13 N :   -0.047422
  14 C :   -0.017588
  15 N :   -0.054385
  16 C :   -0.112747
  17 C :    0.043179
  18 C :   -0.176528
  19 S :    0.425894
  20 C :   -0.189159
  21 C :   -0.184388
  22 C :   -0.008129
  23 C :   -0.035448
  24 C :   -0.056843
  25 S :    0.426083
  26 C :   -0.167914
  27 C :   -0.035816
  28 N :    0.032857
  29 C :    0.037752
  30 C :   -0.065549
  31 C :    0.013380
  32 C :   -0.074679
  33 C :   -0.051291
  34 N :   -0.274940
  35 S :    0.579740
  36 N :   -0.274641
  37 C :   -0.053066
  38 C :   -0.074261
  39 C :    0.017058
  40 N :    0.008585
  41 C :    0.043306
  42 C :   -0.071949
  43 C :   -0.039435
  44 C :   -0.161746
  45 S :    0.420775
  46 C :   -0.194997
  47 C :   -0.188204
  48 S :    0.469400
  49 C :   -0.187521
  50 C :   -0.005000
  51 C :   -0.035054
  52 C :   -0.047400
  53 C :    0.054965
  54 C :   -0.123148
  55 C :    0.083016
  56 C :   -0.147066
  57 C :   -0.015390
  58 N :   -0.057107
  59 C :   -0.008814
  60 N :   -0.063293
  61 C :   -0.014121
  62 C :   -0.023125
  63 C :    0.068819
  64 F :   -0.037155
  65 C :    0.065775
  66 F :   -0.037521
  67 C :   -0.012280
  68 C :   -0.046510
  69 C :    0.083869
  70 O :   -0.168152
  71 H :    0.055238
  72 H :    0.053210
  73 H :    0.047301
  74 H :    0.031071
  75 H :    0.045619
  76 H :    0.031833
  77 H :    0.034293
  78 H :    0.019743
  79 H :    0.029966
  80 H :    0.027879
  81 H :    0.032913
  82 H :    0.032221
  83 H :    0.037623
  84 H :    0.029894
  85 H :    0.034552
  86 H :    0.041360
  87 H :    0.021515
  88 H :    0.028628
  89 H :    0.036060
  90 H :    0.035863
  91 H :    0.028126
  92 H :    0.035843
  93 H :    0.023534
  94 H :    0.048607
  95 H :    0.053523
  96 H :    0.053399

  Mayer bond orders larger than 0.100000
B(  0-C ,  1-O ) :   2.2310 B(  0-C ,  2-C ) :   0.9381 B(  0-C , 16-C ) :   0.9529
B(  2-C ,  3-C ) :   1.3182 B(  2-C ,  9-C ) :   1.3572 B(  3-C ,  4-C ) :   1.3262
B(  3-C ,  8-C ) :   0.1039 B(  3-C , 71-H ) :   1.0126 B(  4-C ,  5-F ) :   1.1379
B(  4-C ,  6-C ) :   1.2808 B(  6-C ,  7-F ) :   1.1448 B(  6-C ,  8-C ) :   1.3460
B(  8-C ,  9-C ) :   1.3119 B(  8-C , 72-H ) :   0.9896 B(  9-C , 10-C ) :   1.0125
B( 10-C , 11-C ) :   1.6261 B( 10-C , 16-C ) :   1.0665 B( 11-C , 12-C ) :   1.1750
B( 11-C , 14-C ) :   1.1084 B( 12-C , 13-N ) :   2.9470 B( 14-C , 15-N ) :   2.9821
B( 16-C , 17-C ) :   1.6336 B( 17-C , 18-C ) :   1.1684 B( 17-C , 73-H ) :   0.9020
B( 18-C , 19-S ) :   1.0509 B( 18-C , 22-C ) :   1.4507 B( 19-S , 20-C ) :   1.0823
B( 20-C , 21-C ) :   1.4327 B( 20-C , 27-C ) :   1.2617 B( 21-C , 22-C ) :   1.3442
B( 21-C , 25-S ) :   1.0400 B( 22-C , 23-C ) :   1.0719 B( 23-C , 24-C ) :   1.0885
B( 23-C , 74-H ) :   0.9240 B( 23-C , 75-H ) :   0.9175 B( 24-C , 76-H ) :   0.9691
B( 24-C , 77-H ) :   0.9630 B( 24-C , 78-H ) :   0.9639 B( 25-S , 26-C ) :   1.0333
B( 26-C , 27-C ) :   1.4094 B( 26-C , 32-C ) :   1.3403 B( 27-C , 28-N ) :   1.1457
B( 28-N , 29-C ) :   0.9502 B( 28-N , 31-C ) :   1.1724 B( 29-C , 30-C ) :   1.1066
B( 29-C , 79-H ) :   0.9392 B( 29-C , 80-H ) :   0.9451 B( 30-C , 81-H ) :   0.9638
B( 30-C , 82-H ) :   0.9628 B( 30-C , 83-H ) :   0.9634 B( 31-C , 32-C ) :   1.3748
B( 31-C , 39-C ) :   1.1313 B( 32-C , 33-C ) :   1.1047 B( 33-C , 34-N ) :   1.6436
B( 33-C , 37-C ) :   1.1198 B( 34-N , 35-S ) :   1.1968 B( 34-N , 36-N ) :   0.1322
B( 35-S , 36-N ) :   1.1974 B( 36-N , 37-C ) :   1.6514 B( 37-C , 38-C ) :   1.0915
B( 38-C , 39-C ) :   1.4211 B( 38-C , 44-C ) :   1.3258 B( 39-C , 40-N ) :   1.1440
B( 40-N , 41-C ) :   0.9208 B( 40-N , 43-C ) :   1.1245 B( 41-C , 42-C ) :   1.0977
B( 41-C , 84-H ) :   0.9548 B( 41-C , 85-H ) :   0.9455 B( 42-C , 86-H ) :   0.9597
B( 42-C , 87-H ) :   0.9548 B( 42-C , 88-H ) :   0.9598 B( 43-C , 44-C ) :   1.4332
B( 43-C , 47-C ) :   1.2960 B( 44-C , 45-S ) :   1.0342 B( 45-S , 46-C ) :   1.0262
B( 46-C , 47-C ) :   1.3946 B( 46-C , 50-C ) :   1.4029 B( 47-C , 48-S ) :   1.0448
B( 48-S , 49-C ) :   1.0358 B( 49-C , 50-C ) :   1.3713 B( 49-C , 53-C ) :   1.3078
B( 50-C , 51-C ) :   1.0745 B( 51-C , 52-C ) :   1.0977 B( 51-C , 89-H ) :   0.9067
B( 51-C , 90-H ) :   0.9213 B( 52-C , 91-H ) :   0.9674 B( 52-C , 92-H ) :   0.9678
B( 52-C , 93-H ) :   0.9703 B( 53-C , 54-C ) :   1.4870 B( 53-C , 94-H ) :   0.9203
B( 54-C , 55-C ) :   1.1064 B( 54-C , 69-C ) :   0.9680 B( 55-C , 56-C ) :   1.6195
B( 55-C , 61-C ) :   0.9970 B( 56-C , 57-C ) :   1.1251 B( 56-C , 59-C ) :   1.1384
B( 57-C , 58-N ) :   2.9696 B( 59-C , 60-N ) :   2.9498 B( 61-C , 62-C ) :   1.3053
B( 61-C , 68-C ) :   1.3599 B( 62-C , 63-C ) :   1.3497 B( 62-C , 67-C ) :   0.1041
B( 62-C , 95-H ) :   0.9867 B( 63-C , 64-F ) :   1.1486 B( 63-C , 65-C ) :   1.2804
B( 65-C , 66-F ) :   1.1401 B( 65-C , 67-C ) :   1.3199 B( 67-C , 68-C ) :   1.3165
B( 67-C , 96-H ) :   1.0139 B( 68-C , 69-C ) :   0.9655 B( 69-C , 70-O ) :   2.1810

-----------------------------------------------------------------------------
         ABSORPTION SPECTRUM VIA TRANSITION ELECTRIC DIPOLE MOMENTS
-----------------------------------------------------------------------------
State   Energy  Wavelength   fosc         T2         TX        TY        TZ
        (cm-1)    (nm)                  (au**2)     (au)      (au)      (au)
-----------------------------------------------------------------------------
   0   16944.9    590.1   2.301944449  44.72298  -4.32478   2.30744   4.54917
   1   20290.5    492.8   0.363504430   5.89783   1.05663  -0.58764   2.10619
   2   24351.8    410.6   0.039567871   0.53492   0.27783  -0.56357  -0.37432
   3   24848.1    402.4   0.074417846   0.98596   0.31998   0.43690   0.83228
   4   25495.8    392.2   0.175032294   2.26009   0.83173  -0.39496   1.18841
   5   25754.4    388.3   0.140179626   1.79188  -1.29780   0.32562  -0.03960
   6   26499.5    377.4   0.128352593   1.59457   0.86209  -0.25519   0.88671
   7   26801.7    373.1   0.037530234   0.46099  -0.14222   0.45951  -0.47918
   8   28947.6    345.5   0.103002109   1.17141  -0.65167   0.14021   0.85268
   9   29808.0    335.5   0.053501751   0.59090  -0.01914  -0.36171  -0.67801
  10   30252.1    330.6   0.169316040   1.84254  -0.58749   1.15741  -0.39725
  11   30833.1    324.3   0.051258445   0.54730  -0.50891   0.24035  -0.48015
  12   31247.6    320.0   0.111945342   1.17941   0.77161   0.35804   0.67516
  13   31362.5    318.9   0.060808790   0.63831  -0.67167  -0.10728  -0.41912
  14   32423.9    308.4   0.029131681   0.29579  -0.18081   0.50636   0.08183
  15   32785.4    305.0   0.100355886   1.00772  -0.48686   0.80044  -0.36053
  16   32847.4    304.4   0.007983748   0.08002   0.01924   0.28126   0.02322
  17   33190.5    301.3   0.072627854   0.72039   0.38294  -0.17465   0.73705
  18   33362.7    299.7   0.013572666   0.13393   0.32082  -0.15089   0.09077
  19   33560.4    298.0   0.176904198   1.73535  -0.96906   0.04520  -0.89120
  20   33936.1    294.7   0.044597003   0.43263  -0.16852  -0.15592  -0.61638
  21   34045.6    293.7   0.076957212   0.74415  -0.64455  -0.54576  -0.17568
  22   34355.5    291.1   0.057076998   0.54694   0.09667  -0.60982  -0.40709
  23   34759.1    287.7   0.049681068   0.47054   0.06540   0.06126   0.68008
  24   35076.4    285.1   0.143530970   1.34712  -1.00330   0.57729   0.08511
  25   35831.6    279.1   0.167002205   1.53437  -0.00336   1.02122   0.70105
  26   35921.9    278.4   0.233963074   2.14419   0.89372  -0.83981   0.80011
  27   36414.9    274.6   0.181850727   1.64404   1.20698   0.42755  -0.06661
  28   36495.5    274.0   0.169738774   1.53115   0.50668   1.11873  -0.15124
  29   36829.9    271.5   0.022810083   0.20389   0.10884  -0.25470   0.35662
  30   37074.3    269.7   0.258178177   2.29257   1.50275  -0.18514  -0.00582
  31   37341.1    267.8   0.311733286   2.74835  -0.82776   0.84164  -1.16396
  32   37918.5    263.7   0.190793285   1.65649   1.01686   0.43176  -0.66036
  33   38245.0    261.5   0.118215525   1.01760   0.57265   0.00111  -0.83046
  34   38584.1    259.2   0.048523768   0.41402  -0.47926  -0.27446  -0.33015
  35   38872.1    257.3   0.012370368   0.10477  -0.29959  -0.11818   0.03230
  36   39093.4    255.8   0.004343559   0.03658  -0.04642  -0.04468  -0.18008
  37   39846.2    251.0   0.017684517   0.14611  -0.04494  -0.13385  -0.35521

FINAL SINGLE POINT ENERGY     -4971.629833699295

DIPOLE MOMENT
-------------
                                X             Y             Z
Electronic contribution:    -18.69151       4.98786      -7.27784
Nuclear contribution   :     18.14427      -4.89251       7.16667
                        -----------------------------------------
Total Dipole Moment    :     -0.54724       0.09535      -0.11117
                        -----------------------------------------
Magnitude (a.u.)       :      0.56650
Magnitude (Debye)      :      1.43994

Rotational constants in cm-1:     0.001596     0.000261     0.000235
Rotational constants in MHz :    47.853381     7.822356     7.055460

                             ****ORCA TERMINATED NORMALLY****
TOTAL RUN TIME: 0 days 0 hours 59 minutes 23 seconds 944 msec
