                         Program Version 4.2.0 -  RELEASE  -
|  1> # ORCA input file
|  2> # ZY-4Cl.out
|  3> ! CAM-B3LYP def2-SVP def2/J RIJCOSX Grid4 TightSCF
|  4> %maxcore 5000
|  5> %tddft
|  6>     Mode sTDDFT
|  7>     Ethresh 5.0
|  8>     maxcore 5000
|  9> end
| 10> * xyz 0 1
| 11>    C        3.70479         1.04375        -2.55570
| 12>    O        4.82646         1.47172        -2.76179
| 13>    C        2.61282         0.94039        -3.55852
| 14>    C        2.61823         1.29295        -4.89298
| 15>    C        1.45567         1.09072        -5.63023
| 16>   Cl        1.42649         1.51893        -7.29439
| 17>    C        0.31506         0.54424        -5.03299
| 18>   Cl       -1.10533         0.30038        -5.96884
| 19>    C        0.31613         0.19051        -3.68671
| 20>    C        1.47103         0.39499        -2.95960
| 21>    C        1.75185         0.11847        -1.52520
| 22>    O        0.99254        -0.34896        -0.70571
| 23>    C        3.15011         0.53186        -1.30957
| 24>    C        3.73401         0.41381        -0.07724
| 25>    C        5.03002         0.73145         0.34643
| 26>    S        6.27603         1.35767        -0.73365
| 27>    C        7.39931         1.40914         0.57020
| 28>    C        6.82429         0.96791         1.77478
| 29>    C        5.49466         0.58023         1.66083
| 30>    C        4.67721         0.11979         2.82286
| 31>    C        3.86039         1.27773         3.40285
| 32>    S        7.93301         0.98845         3.13273
| 33>    C        9.16743         1.57664         2.07458
| 34>    C        8.73931         1.76714         0.75319
| 35>    N        9.78599         2.19837        -0.01573
| 36>    C        9.69450         2.15865        -1.45996
| 37>    C        8.88489         3.32654        -2.02426
| 38>    C       10.89670         2.29449         0.79757
| 39>    C       10.53523         1.87394         2.11204
| 40>    C       11.50133         1.68384         3.12911
| 41>    N       11.32342         1.27325         4.37452
| 42>    S       12.77100         1.11457         5.07734
| 43>    N       13.68738         1.56446         3.81870
| 44>    C       12.88682         1.85806         2.80571
| 45>    C       13.22701         2.34718         1.52509
| 46>    C       12.24102         2.67236         0.54644
| 47>    N       12.86758         3.25131        -0.53619
| 48>    C       12.30883         4.20900        -1.46741
| 49>    C       12.55812         5.63857        -0.98885
| 50>    C       14.22388         3.24156        -0.29214
| 51>    C       14.45775         2.68506         0.96343
| 52>    S       16.11811         2.59820         1.38593
| 53>    C       16.56145         3.30431        -0.19206
| 54>    C       15.39338         3.60656        -0.99883
| 55>    S       15.43544         4.25706        -2.53303
| 56>    C       18.87421         3.13261         0.45323
| 57>    C       17.88866         3.48400        -0.49229
| 58>    C       18.35521         4.04674        -1.80169
| 59>    C       19.86457         4.14424        -1.96009
| 60>    C       20.08999         2.99548         0.90853
| 61>    C       19.02305         2.56417         1.88043
| 62>    C       18.69154         1.13174         2.15577
| 63>    O       18.97317         0.17867         1.47229
| 64>    C       17.91443         1.14933         3.41983
| 65>    C       17.21101         0.11865         4.01396
| 66>    C       16.43436         0.40933         5.12823
| 67>   Cl       15.50294        -0.83281         5.85665
| 68>    C       16.38510         1.70681         5.64853
| 69>   Cl       15.39418         2.03852         7.00854
| 70>    C       17.10972         2.73651         5.06233
| 71>    C       17.86326         2.44953         3.93983
| 72>    C       18.60123         3.38577         3.05677
| 73>    O       18.79393         4.56474         3.22312
| 74>    H        3.49761         1.71475        -5.35364
| 75>    H       -0.56339        -0.23117        -3.22629
| 76>    H        3.07838         0.00580         0.68627
| 77>    H        5.35503        -0.25967         3.59009
| 78>    H        4.00811        -0.68882         2.52527
| 79>    H        4.52048         2.08008         3.72372
| 80>    H        3.28865         0.93539         4.26116
| 81>    H        3.17111         1.67238         2.66003
| 82>    H        9.18961         1.22549        -1.73302
| 83>    H       10.70257         2.12160        -1.87470
| 84>    H        7.82921         3.19300        -1.80661
| 85>    H        9.00619         3.36699        -3.10276
| 86>    H        9.19893         4.27717        -1.59843
| 87>    H       11.24088         4.05291        -1.55166
| 88>    H       12.78406         4.05828        -2.44009
| 89>    H       12.14121         5.78502         0.00584
| 90>    H       12.08625         6.33631        -1.67492
| 91>    H       13.62203         5.85692        -0.95815
| 92>    H       17.90481         5.03745        -1.92705
| 93>    H       17.94000         3.42809        -2.60425
| 94>    H       20.29389         4.79900        -1.20651
| 95>    H       20.09367         4.55281        -2.94116
| 96>    H       20.32709         3.16407        -1.87977
| 97>    H       21.14509         3.06444         0.82820
| 98>    H       17.24088        -0.87921         3.60515
| 99>    H       17.06255         3.74001         5.45516
|100> *
|101>
|102>                          ****END OF INPUT****

CARTESIAN COORDINATES (ANGSTROEM)
---------------------------------
  C      3.704790    1.043750   -2.555700
  O      4.826460    1.471720   -2.761790
  C      2.612820    0.940390   -3.558520
  C      2.618230    1.292950   -4.892980
  C      1.455670    1.090720   -5.630230
  Cl     1.426490    1.518930   -7.294390
  C      0.315060    0.544240   -5.032990
  Cl    -1.105330    0.300380   -5.968840
  C      0.316130    0.190510   -3.686710
  C      1.471030    0.394990   -2.959600
  C      1.751850    0.118470   -1.525200
  O      0.992540   -0.348960   -0.705710
  C      3.150110    0.531860   -1.309570
  C      3.734010    0.413810   -0.077240
  C      5.030020    0.731450    0.346430
  S      6.276030    1.357670   -0.733650
  C      7.399310    1.409140    0.570200
  C      6.824290    0.967910    1.774780
  C      5.494660    0.580230    1.660830
  C      4.677210    0.119790    2.822860
  C      3.860390    1.277730    3.402850
  S      7.933010    0.988450    3.132730
  C      9.167430    1.576640    2.074580
  C      8.739310    1.767140    0.753190
  N      9.785990    2.198370   -0.015730
  C      9.694500    2.158650   -1.459960
  C      8.884890    3.326540   -2.024260
  C     10.896700    2.294490    0.797570
  C     10.535230    1.873940    2.112040
  C     11.501330    1.683840    3.129110
  N     11.323420    1.273250    4.374520
  S     12.771000    1.114570    5.077340
  N     13.687380    1.564460    3.818700
  C     12.886820    1.858060    2.805710
  C     13.227010    2.347180    1.525090
  C     12.241020    2.672360    0.546440
  N     12.867580    3.251310   -0.536190
  C     12.308830    4.209000   -1.467410
  C     12.558120    5.638570   -0.988850
  C     14.223880    3.241560   -0.292140
  C     14.457750    2.685060    0.963430
  S     16.118110    2.598200    1.385930
  C     16.561450    3.304310   -0.192060
  C     15.393380    3.606560   -0.998830
  S     15.435440    4.257060   -2.533030
  C     18.874210    3.132610    0.453230
  C     17.888660    3.484000   -0.492290
  C     18.355210    4.046740   -1.801690
  C     19.864570    4.144240   -1.960090
  C     20.089990    2.995480    0.908530
  C     19.023050    2.564170    1.880430
  C     18.691540    1.131740    2.155770
  O     18.973170    0.178670    1.472290
  C     17.914430    1.149330    3.419830
  C     17.211010    0.118650    4.013960
  C     16.434360    0.409330    5.128230
  Cl    15.502940   -0.832810    5.856650
  C     16.385100    1.706810    5.648530
  Cl    15.394180    2.038520    7.008540
  C     17.109720    2.736510    5.062330
  C     17.863260    2.449530    3.939830
  C     18.601230    3.385770    3.056770
  O     18.793930    4.564740    3.223120
  H      3.497610    1.714750   -5.353640
  H     -0.563390   -0.231170   -3.226290
  H      3.078380    0.005800    0.686270
  H      5.355030   -0.259670    3.590090
  H      4.008110   -0.688820    2.525270
  H      4.520480    2.080080    3.723720
  H      3.288650    0.935390    4.261160
  H      3.171110    1.672380    2.660030
  H      9.189610    1.225490   -1.733020
  H     10.702570    2.121600   -1.874700
  H      7.829210    3.193000   -1.806610
  H      9.006190    3.366990   -3.102760
  H      9.198930    4.277170   -1.598430
  H     11.240880    4.052910   -1.551660
  H     12.784060    4.058280   -2.440090
  H     12.141210    5.785020    0.005840
  H     12.086250    6.336310   -1.674920
  H     13.622030    5.856920   -0.958150
  H     17.904810    5.037450   -1.927050
  H     17.940000    3.428090   -2.604250
  H     20.293890    4.799000   -1.206510
  H     20.093670    4.552810   -2.941160
  H     20.327090    3.164070   -1.879770
  H     21.145090    3.064440    0.828200
  H     17.240880   -0.879210    3.605150
  H     17.062550    3.740010    5.455160

 Total Charge           Charge          ....    0
 Multiplicity           Mult            ....    1
 Number of Electrons    NEL             ....  510
 Basis Dimension        Dim             .... 1048

ORBITAL ENERGIES
----------------

  NO   OCC          E(Eh)            E(eV)
   0   2.0000    -101.597176     -2764.5997
   1   2.0000    -101.596302     -2764.5759
   2   2.0000    -101.595326     -2764.5494
   3   2.0000    -101.595083     -2764.5428
   4   2.0000     -89.005500     -2421.9628
   5   2.0000     -88.964848     -2420.8566
   6   2.0000     -88.962980     -2420.8057
   7   2.0000     -88.956149     -2420.6199
   8   2.0000     -88.884755     -2418.6772
   9   2.0000     -19.215309      -522.8751
  10   2.0000     -19.211086      -522.7602
  11   2.0000     -19.210957      -522.7567
  12   2.0000     -19.208042      -522.6774
  13   2.0000     -14.485727      -394.1767
  14   2.0000     -14.481245      -394.0547
  15   2.0000     -14.431536      -392.7021
  16   2.0000     -14.429990      -392.6600
  17   2.0000     -10.365960      -282.0721
  18   2.0000     -10.360789      -281.9314
  19   2.0000     -10.360740      -281.9301
  20   2.0000     -10.359711      -281.9021
  21   2.0000     -10.350330      -281.6468
  22   2.0000     -10.349960      -281.6367
  23   2.0000     -10.347616      -281.5730
  24   2.0000     -10.347210      -281.5619
  25   2.0000     -10.343290      -281.4552
  26   2.0000     -10.339364      -281.3484
  27   2.0000     -10.335013      -281.2300
  28   2.0000     -10.332147      -281.1520
  29   2.0000     -10.324354      -280.9399
  30   2.0000     -10.323598      -280.9194
  31   2.0000     -10.322215      -280.8818
  32   2.0000     -10.321605      -280.8652
  33   2.0000     -10.320231      -280.8278
  34   2.0000     -10.320218      -280.8274
  35   2.0000     -10.319272      -280.8017
  36   2.0000     -10.315686      -280.7041
  37   2.0000     -10.314904      -280.6828
  38   2.0000     -10.314349      -280.6677
  39   2.0000     -10.311539      -280.5913
  40   2.0000     -10.310305      -280.5577
  41   2.0000     -10.309101      -280.5249
  42   2.0000     -10.305974      -280.4398
  43   2.0000     -10.305913      -280.4381
  44   2.0000     -10.305680      -280.4318
  45   2.0000     -10.305319      -280.4220
  46   2.0000     -10.302997      -280.3588
  47   2.0000     -10.302306      -280.3400
  48   2.0000     -10.299111      -280.2531
  49   2.0000     -10.298898      -280.2473
  50   2.0000     -10.294411      -280.1252
  51   2.0000     -10.293915      -280.1117
  52   2.0000     -10.293495      -280.1002
  53   2.0000     -10.291728      -280.0522
  54   2.0000     -10.291300      -280.0405
  55   2.0000     -10.291283      -280.0400
  56   2.0000     -10.285636      -279.8864
  57   2.0000     -10.278200      -279.6840
  58   2.0000     -10.274198      -279.5751
  59   2.0000     -10.272159      -279.5197
  60   2.0000     -10.266996      -279.3792
  61   2.0000     -10.264942      -279.3233
  62   2.0000     -10.257266      -279.1144
  63   2.0000      -9.552099      -259.9258
  64   2.0000      -9.551295      -259.9040
  65   2.0000      -9.550378      -259.8790
  66   2.0000      -9.550061      -259.8704
  67   2.0000      -8.097524      -220.3448
  68   2.0000      -8.057394      -219.2528
  69   2.0000      -8.057197      -219.2475
  70   2.0000      -8.050276      -219.0591
  71   2.0000      -7.980475      -217.1598
  72   2.0000      -7.322330      -199.2507
  73   2.0000      -7.321528      -199.2289
  74   2.0000      -7.320754      -199.2079
  75   2.0000      -7.320445      -199.1994
  76   2.0000      -7.312434      -198.9814
  77   2.0000      -7.311715      -198.9619
  78   2.0000      -7.311612      -198.9591
  79   2.0000      -7.310916      -198.9401
  80   2.0000      -7.310618      -198.9320
  81   2.0000      -7.310327      -198.9241
  82   2.0000      -7.309941      -198.9136
  83   2.0000      -7.309627      -198.9051
  84   2.0000      -6.069022      -165.1465
  85   2.0000      -6.061250      -164.9350
  86   2.0000      -6.059131      -164.8773
  87   2.0000      -6.027167      -164.0076
  88   2.0000      -6.027106      -164.0059
  89   2.0000      -6.023090      -163.8966
  90   2.0000      -6.022592      -163.8830
  91   2.0000      -6.020334      -163.8216
  92   2.0000      -6.019082      -163.7875
  93   2.0000      -6.018096      -163.7607
  94   2.0000      -6.016194      -163.7090
  95   2.0000      -6.010784      -163.5618
  96   2.0000      -5.949999      -161.9077
  97   2.0000      -5.947948      -161.8519
  98   2.0000      -5.940034      -161.6365
  99   2.0000      -1.131290       -30.7840
 100   2.0000      -1.130013       -30.7492
 101   2.0000      -1.123643       -30.5759
 102   2.0000      -1.121747       -30.5243
 103   2.0000      -1.117140       -30.3989
 104   2.0000      -1.109742       -30.1976
 105   2.0000      -1.100585       -29.9484
 106   2.0000      -1.021339       -27.7920
 107   2.0000      -1.021112       -27.7859
 108   2.0000      -1.010389       -27.4941
 109   2.0000      -1.005330       -27.3564
 110   2.0000      -0.983434       -26.7606
 111   2.0000      -0.971608       -26.4388
 112   2.0000      -0.966675       -26.3046
 113   2.0000      -0.962080       -26.1795
 114   2.0000      -0.957853       -26.0645
 115   2.0000      -0.957523       -26.0555
 116   2.0000      -0.956584       -26.0300
 117   2.0000      -0.948718       -25.8159
 118   2.0000      -0.921089       -25.0641
 119   2.0000      -0.909699       -24.7542
 120   2.0000      -0.899437       -24.4749
 121   2.0000      -0.896904       -24.4060
 122   2.0000      -0.884810       -24.0769
 123   2.0000      -0.875185       -23.8150
 124   2.0000      -0.870361       -23.6837
 125   2.0000      -0.863585       -23.4993
 126   2.0000      -0.857253       -23.3270
 127   2.0000      -0.853442       -23.2233
 128   2.0000      -0.850988       -23.1565
 129   2.0000      -0.835688       -22.7402
 130   2.0000      -0.833155       -22.6713
 131   2.0000      -0.824783       -22.4435
 132   2.0000      -0.807277       -21.9671
 133   2.0000      -0.798656       -21.7325
 134   2.0000      -0.788767       -21.4634
 135   2.0000      -0.776202       -21.1215
 136   2.0000      -0.764909       -20.8142
 137   2.0000      -0.749349       -20.3908
 138   2.0000      -0.744823       -20.2677
 139   2.0000      -0.738882       -20.1060
 140   2.0000      -0.731414       -19.9028
 141   2.0000      -0.729850       -19.8602
 142   2.0000      -0.724953       -19.7270
 143   2.0000      -0.722338       -19.6558
 144   2.0000      -0.717179       -19.5154
 145   2.0000      -0.710408       -19.3312
 146   2.0000      -0.704554       -19.1719
 147   2.0000      -0.694897       -18.9091
 148   2.0000      -0.690626       -18.7929
 149   2.0000      -0.672094       -18.2886
 150   2.0000      -0.657774       -17.8989
 151   2.0000      -0.655479       -17.8365
 152   2.0000      -0.653808       -17.7910
 153   2.0000      -0.648428       -17.6446
 154   2.0000      -0.646494       -17.5920
 155   2.0000      -0.637416       -17.3450
 156   2.0000      -0.625127       -17.0106
 157   2.0000      -0.619805       -16.8657
 158   2.0000      -0.619414       -16.8551
 159   2.0000      -0.609100       -16.5745
 160   2.0000      -0.601122       -16.3574
 161   2.0000      -0.592410       -16.1203
 162   2.0000      -0.588129       -16.0038
 163   2.0000      -0.584926       -15.9166
 164   2.0000      -0.577986       -15.7278
 165   2.0000      -0.575086       -15.6489
 166   2.0000      -0.572806       -15.5868
 167   2.0000      -0.566936       -15.4271
 168   2.0000      -0.561546       -15.2804
 169   2.0000      -0.557737       -15.1768
 170   2.0000      -0.553217       -15.0538
 171   2.0000      -0.550743       -14.9865
 172   2.0000      -0.547978       -14.9112
 173   2.0000      -0.546486       -14.8706
 174   2.0000      -0.545640       -14.8476
 175   2.0000      -0.541131       -14.7249
 176   2.0000      -0.540390       -14.7048
 177   2.0000      -0.538622       -14.6566
 178   2.0000      -0.537488       -14.6258
 179   2.0000      -0.536684       -14.6039
 180   2.0000      -0.534308       -14.5393
 181   2.0000      -0.532535       -14.4910
 182   2.0000      -0.530255       -14.4290
 183   2.0000      -0.524503       -14.2725
 184   2.0000      -0.522768       -14.2252
 185   2.0000      -0.520791       -14.1714
 186   2.0000      -0.516082       -14.0433
 187   2.0000      -0.512720       -13.9518
 188   2.0000      -0.511127       -13.9085
 189   2.0000      -0.509289       -13.8585
 190   2.0000      -0.504692       -13.7334
 191   2.0000      -0.502819       -13.6824
 192   2.0000      -0.498471       -13.5641
 193   2.0000      -0.497593       -13.5402
 194   2.0000      -0.493883       -13.4392
 195   2.0000      -0.485398       -13.2083
 196   2.0000      -0.484349       -13.1798
 197   2.0000      -0.483484       -13.1563
 198   2.0000      -0.480999       -13.0886
 199   2.0000      -0.477776       -13.0010
 200   2.0000      -0.477153       -12.9840
 201   2.0000      -0.471928       -12.8418
 202   2.0000      -0.471848       -12.8396
 203   2.0000      -0.467975       -12.7342
 204   2.0000      -0.466769       -12.7014
 205   2.0000      -0.463268       -12.6062
 206   2.0000      -0.460603       -12.5337
 207   2.0000      -0.458222       -12.4689
 208   2.0000      -0.456329       -12.4173
 209   2.0000      -0.454428       -12.3656
 210   2.0000      -0.454261       -12.3611
 211   2.0000      -0.449464       -12.2305
 212   2.0000      -0.446807       -12.1582
 213   2.0000      -0.446131       -12.1398
 214   2.0000      -0.445323       -12.1179
 215   2.0000      -0.439000       -11.9458
 216   2.0000      -0.432048       -11.7566
 217   2.0000      -0.431854       -11.7513
 218   2.0000      -0.428765       -11.6673
 219   2.0000      -0.426751       -11.6125
 220   2.0000      -0.425920       -11.5899
 221   2.0000      -0.423012       -11.5107
 222   2.0000      -0.420075       -11.4308
 223   2.0000      -0.415721       -11.3123
 224   2.0000      -0.408596       -11.1184
 225   2.0000      -0.407377       -11.0853
 226   2.0000      -0.406807       -11.0698
 227   2.0000      -0.405266       -11.0278
 228   2.0000      -0.404605       -11.0099
 229   2.0000      -0.403509       -10.9800
 230   2.0000      -0.400336       -10.8937
 231   2.0000      -0.393411       -10.7053
 232   2.0000      -0.391464       -10.6523
 233   2.0000      -0.378915       -10.3108
 234   2.0000      -0.377705       -10.2779
 235   2.0000      -0.373531       -10.1643
 236   2.0000      -0.369225       -10.0471
 237   2.0000      -0.364919        -9.9300
 238   2.0000      -0.362723        -9.8702
 239   2.0000      -0.347853        -9.4656
 240   2.0000      -0.345581        -9.4037
 241   2.0000      -0.344942        -9.3863
 242   2.0000      -0.337223        -9.1763
 243   2.0000      -0.334632        -9.1058
 244   2.0000      -0.332464        -9.0468
 245   2.0000      -0.322857        -8.7854
 246   2.0000      -0.320974        -8.7341
 247   2.0000      -0.314403        -8.5553
 248   2.0000      -0.313606        -8.5337
 249   2.0000      -0.301692        -8.2094
 250   2.0000      -0.295560        -8.0426
 251   2.0000      -0.278748        -7.5851
 252   2.0000      -0.276147        -7.5144
 253   2.0000      -0.265293        -7.2190
 254   2.0000      -0.244895        -6.6639
 255   0.0000      -0.092292        -2.5114
 256   0.0000      -0.072039        -1.9603
 257   0.0000      -0.045901        -1.2490
 258   0.0000      -0.045237        -1.2310
 259   0.0000      -0.036516        -0.9937

MULLIKEN ATOMIC CHARGES
-----------------------
   0 C :    0.187203
   1 O :   -0.180190
   2 C :   -0.001184
   3 C :   -0.031845
   4 C :    0.059381
   5 Cl:   -0.052074
   6 C :    0.058092
   7 Cl:   -0.050509
   8 C :   -0.029177
   9 C :    0.015017
  10 C :    0.153063
  11 O :   -0.151507
  12 C :   -0.187710
  13 C :   -0.024070
  14 C :   -0.081176
  15 S :    0.172260
  16 C :   -0.030135
  17 C :   -0.091876
  18 C :   -0.059199
  19 C :    0.057955
  20 C :    0.026355
  21 S :    0.185111
  22 C :   -0.093899
  23 C :    0.039150
  24 N :   -0.153916
  25 C :    0.070412
  26 C :   -0.000502
  27 C :    0.038977
  28 C :   -0.048173
  29 C :   -0.018618
  30 N :   -0.257952
  31 S :    0.470398
  32 N :   -0.273519
  33 C :    0.015738
  34 C :   -0.060860
  35 C :    0.066356
  36 N :   -0.168011
  37 C :    0.121758
  38 C :    0.007006
  39 C :    0.078248
  40 C :   -0.033082
  41 S :    0.077260
  42 C :   -0.086856
  43 C :   -0.031170
  44 S :   -0.191706
  45 C :    0.206643
  46 C :   -0.054110
  47 C :    0.052963
  48 C :    0.066750
  49 C :   -0.150948
  50 C :   -0.297005
  51 C :    0.199336
  52 O :   -0.123470
  53 C :   -0.006701
  54 C :   -0.019725
  55 C :    0.077343
  56 Cl:   -0.055836
  57 C :    0.070782
  58 Cl:   -0.056015
  59 C :   -0.015240
  60 C :   -0.009029
  61 C :    0.198017
  62 O :   -0.122546
  63 H :   -0.006507
  64 H :   -0.004007
  65 H :    0.007584
  66 H :    0.014123
  67 H :    0.025915
  68 H :    0.019203
  69 H :    0.025404
  70 H :    0.019174
  71 H :    0.040042
  72 H :    0.045097
  73 H :    0.037528
  74 H :    0.035085
  75 H :    0.037301
  76 H :   -0.019174
  77 H :    0.039767
  78 H :    0.018938
  79 H :    0.023093
  80 H :    0.035605
  81 H :    0.035710
  82 H :    0.037281
  83 H :    0.015918
  84 H :    0.017794
  85 H :    0.015385
  86 H :    0.023041
  87 H :   -0.005405
  88 H :   -0.005928
Sum of atomic charges:   -0.0000000

LOEWDIN ATOMIC CHARGES
----------------------
   0 C :    0.076894
   1 O :   -0.172551
   2 C :   -0.042760
   3 C :   -0.005725
   4 C :   -0.135479
   5 Cl:    0.150721
   6 C :   -0.135034
   7 Cl:    0.152120
   8 C :   -0.003961
   9 C :   -0.043445
  10 C :    0.076824
  11 O :   -0.152738
  12 C :   -0.156295
  13 C :    0.064544
  14 C :   -0.191258
  15 S :    0.486314
  16 C :   -0.199940
  17 C :   -0.195339
  18 C :   -0.019436
  19 C :   -0.029484
  20 C :   -0.044151
  21 S :    0.418451
  22 C :   -0.170550
  23 C :   -0.038597
  24 N :    0.047648
  25 C :    0.037977
  26 C :   -0.064836
  27 C :    0.007337
  28 C :   -0.072544
  29 C :   -0.057105
  30 N :   -0.286464
  31 S :    0.605142
  32 N :   -0.290131
  33 C :   -0.052456
  34 C :   -0.084961
  35 C :    0.027902
  36 N :    0.050357
  37 C :    0.033219
  38 C :   -0.058352
  39 C :   -0.056892
  40 C :   -0.150647
  41 S :    0.436337
  42 C :   -0.136703
  43 C :   -0.165479
  44 S :    0.009129
  45 C :    0.043592
  46 C :   -0.002300
  47 C :   -0.031015
  48 C :   -0.054604
  49 C :    0.072628
  50 C :   -0.133294
  51 C :    0.067893
  52 O :   -0.135091
  53 C :   -0.057191
  54 C :    0.000712
  55 C :   -0.132129
  56 Cl:    0.153961
  57 C :   -0.133285
  58 Cl:    0.154370
  59 C :    0.001256
  60 C :   -0.056893
  61 C :    0.068822
  62 O :   -0.135338
  63 H :    0.042508
  64 H :    0.043915
  65 H :    0.046645
  66 H :    0.030802
  67 H :    0.034896
  68 H :    0.027557
  69 H :    0.028861
  70 H :    0.025730
  71 H :    0.033350
  72 H :    0.032077
  73 H :    0.022418
  74 H :    0.037443
  75 H :    0.026310
  76 H :    0.022403
  77 H :    0.020894
  78 H :    0.026008
  79 H :    0.032244
  80 H :    0.025732
  81 H :    0.036666
  82 H :    0.036360
  83 H :    0.025138
  84 H :    0.030104
  85 H :    0.025285
  86 H :    0.039827
  87 H :    0.043639
  88 H :    0.043491

  Mayer bond orders larger than 0.100000
B(  0-C ,  1-O ) :   2.1454 B(  0-C ,  2-C ) :   0.9384 B(  0-C , 12-C ) :   0.9922
B(  2-C ,  3-C ) :   1.3443 B(  2-C ,  9-C ) :   1.3562 B(  3-C ,  4-C ) :   1.3429
B(  3-C ,  8-C ) :   0.1007 B(  3-C , 63-H ) :   1.0152 B(  4-C ,  5-Cl) :   1.0399
B(  4-C ,  6-C ) :   1.4174 B(  6-C ,  7-Cl) :   1.0418 B(  6-C ,  8-C ) :   1.3434
B(  8-C ,  9-C ) :   1.3485 B(  8-C , 64-H ) :   1.0146 B(  9-C , 10-C ) :   0.9069
B( 10-C , 11-O ) :   2.2470 B( 10-C , 12-C ) :   0.9779 B( 12-C , 13-C ) :   1.5647
B( 13-C , 14-C ) :   1.2260 B( 13-C , 65-H ) :   0.9462 B( 14-C , 15-S ) :   1.0465
B( 14-C , 18-C ) :   1.3946 B( 15-S , 16-C ) :   1.0357 B( 16-C , 17-C ) :   1.4090
B( 16-C , 23-C ) :   1.2769 B( 17-C , 18-C ) :   1.4104 B( 17-C , 21-S ) :   1.0223
B( 18-C , 19-C ) :   1.0746 B( 19-C , 20-C ) :   1.1028 B( 19-C , 66-H ) :   0.9235
B( 19-C , 67-H ) :   0.9132 B( 20-C , 68-H ) :   0.9670 B( 20-C , 69-H ) :   0.9676
B( 20-C , 70-H ) :   0.9708 B( 21-S , 22-C ) :   1.0194 B( 22-C , 23-C ) :   1.4113
B( 22-C , 28-C ) :   1.3602 B( 23-C , 24-N ) :   1.1525 B( 23-C , 27-C ) :   0.1076
B( 24-N , 25-C ) :   0.9394 B( 24-N , 27-C ) :   1.1901 B( 25-C , 26-C ) :   1.0932
B( 25-C , 71-H ) :   0.9459 B( 25-C , 72-H ) :   0.9539 B( 26-C , 73-H ) :   0.9519
B( 26-C , 74-H ) :   0.9658 B( 26-C , 75-H ) :   0.9603 B( 27-C , 28-C ) :   1.3659
B( 27-C , 35-C ) :   1.1340 B( 28-C , 29-C ) :   1.1010 B( 29-C , 30-N ) :   1.6316
B( 29-C , 33-C ) :   1.1507 B( 30-N , 31-S ) :   1.2272 B( 30-N , 32-N ) :   0.1259
B( 31-S , 32-N ) :   1.2154 B( 32-N , 33-C ) :   1.6306 B( 33-C , 34-C ) :   1.1032
B( 34-C , 35-C ) :   1.3480 B( 34-C , 40-C ) :   1.3484 B( 35-C , 36-N ) :   1.2092
B( 36-N , 37-C ) :   0.9397 B( 36-N , 39-C ) :   1.1313 B( 37-C , 38-C ) :   1.1131
B( 37-C , 76-H ) :   0.9423 B( 37-C , 77-H ) :   0.9191 B( 38-C , 78-H ) :   0.9659
B( 38-C , 79-H ) :   0.9640 B( 38-C , 80-H ) :   0.9577 B( 39-C , 40-C ) :   1.3888
B( 39-C , 43-C ) :   1.2220 B( 40-C , 41-S ) :   1.0262 B( 41-S , 42-C ) :   1.0104
B( 42-C , 43-C ) :   1.0889 B( 42-C , 46-C ) :   1.6860 B( 43-C , 44-S ) :   1.5327
B( 45-C , 46-C ) :   1.0383 B( 45-C , 49-C ) :   1.6067 B( 45-C , 50-C ) :   0.8431
B( 46-C , 47-C ) :   1.0739 B( 47-C , 48-C ) :   1.1326 B( 47-C , 81-H ) :   0.8945
B( 47-C , 82-H ) :   0.8950 B( 48-C , 83-H ) :   0.9507 B( 48-C , 84-H ) :   0.9587
B( 48-C , 85-H ) :   0.9519 B( 49-C , 50-C ) :   0.8367 B( 49-C , 86-H ) :   1.0663
B( 50-C , 51-C ) :   0.8920 B( 50-C , 61-C ) :   0.8926 B( 51-C , 52-O ) :   2.3540
B( 51-C , 53-C ) :   0.8983 B( 53-C , 54-C ) :   1.3391 B( 53-C , 60-C ) :   1.3367
B( 54-C , 55-C ) :   1.3613 B( 54-C , 59-C ) :   0.1009 B( 54-C , 87-H ) :   1.0151
B( 55-C , 56-Cl) :   1.0337 B( 55-C , 57-C ) :   1.4030 B( 57-C , 58-Cl) :   1.0326
B( 57-C , 59-C ) :   1.3604 B( 59-C , 60-C ) :   1.3412 B( 59-C , 88-H ) :   1.0144
B( 60-C , 61-C ) :   0.8984 B( 61-C , 62-O ) :   2.3553

-----------------------------------------------------------------------------
         ABSORPTION SPECTRUM VIA TRANSITION ELECTRIC DIPOLE MOMENTS
-----------------------------------------------------------------------------
State   Energy  Wavelength   fosc         T2         TX        TY        TZ
        (cm-1)    (nm)                  (au**2)     (au)      (au)      (au)
-----------------------------------------------------------------------------
   0   16349.4    611.6   0.008061014   0.16232   0.32726   0.18042  -0.15054
   1   18734.5    533.8   1.115388543  19.60016  -4.28427  -1.11330  -0.07565
   2   20871.1    479.1   0.937132139  14.78192   3.48903   0.12485   1.61028
   3   23387.0    427.6   0.200984398   2.82920   0.77690   0.07813   1.48981
   4   25593.0    390.7   0.073873361   0.95026  -0.62578  -0.17005   0.72784
   5   27280.7    366.6   0.014298312   0.17255  -0.32135  -0.05119   0.25819
   6   27612.5    362.2   0.067953443   0.81018  -0.55379  -0.08967   0.70388
   7   27996.3    357.2   0.010308846   0.12122  -0.05745  -0.15398   0.30694
   8   28271.5    353.7   0.159036277   1.85192  -0.13445  -0.47471   1.26826
   9   28522.3    350.6   0.007024316   0.08108  -0.21506   0.09624   0.15989
  10   28744.2    347.9   0.021580411   0.24716   0.45597   0.11388   0.16212
  11   29803.4    335.5   0.169423435   1.87147  -0.31273   0.22155  -1.31324
  12   30252.6    330.6   0.067593563   0.73556  -0.56498  -0.04104  -0.64395
  13   30668.4    326.1   0.113317201   1.21641   0.19852  -0.16149   1.07281
  14   30714.1    325.6   0.002873696   0.03080   0.09124   0.01385   0.14928
  15   31772.5    314.7   0.001388484   0.01439   0.01130  -0.10475  -0.05733
  16   32093.8    311.6   0.000138758   0.00142   0.00739  -0.00917  -0.03584
  17   32502.6    307.7   0.003786327   0.03835   0.01848   0.12458  -0.14996
  18   33019.6    302.9   0.038315173   0.38201   0.54607   0.02911  -0.28804
  19   33159.1    301.6   0.001635809   0.01624   0.09396  -0.07137  -0.04815
  20   33753.6    296.3   0.094783453   0.92446  -0.05054  -0.32820   0.90233
  21   34228.8    292.2   0.031435880   0.30235   0.39642   0.09498  -0.36902
  22   34661.1    288.5   0.000179843   0.00171   0.00413  -0.03879   0.01366
  23   34994.9    285.8   0.242095029   2.27749  -1.09620   0.13141  -1.02887
  24   35078.5    285.1   0.022906933   0.21498   0.33633   0.06444   0.31259
  25   35578.3    281.1   0.000850093   0.00787  -0.08285   0.01866  -0.02556
  26   35651.1    280.5   0.005152018   0.04758   0.14589  -0.13553   0.08901
  27   36369.5    275.0   0.062164803   0.56271  -0.68859   0.00916  -0.29742
  28   36493.1    274.0   0.000662508   0.00598  -0.07331  -0.01157  -0.02164
  29   36697.9    272.5   0.003560256   0.03194  -0.02332  -0.14707  -0.09882
  30   37418.1    267.3   0.261421303   2.30003   1.48907   0.26048   0.12191
  31   37459.6    267.0   0.004154624   0.03651   0.03007  -0.07030   0.17512
  32   37652.2    265.6   0.009457187   0.08269   0.26984   0.09173  -0.03826
  33   37703.2    265.2   0.009897829   0.08642  -0.29120  -0.03878  -0.01113
  34   37983.2    263.3   0.009365392   0.08117   0.27070  -0.01928   0.08672
  35   38209.6    261.7   0.000395073   0.00340   0.03141  -0.04895  -0.00464
  36   38419.8    260.3   0.019049508   0.16323  -0.39070  -0.09158  -0.04690
  37   38873.7    257.2   0.005437683   0.04605   0.03662   0.05996  -0.20277
  38   39150.4    255.4   0.025712476   0.21621   0.02498   0.18328  -0.42661
  39   39325.9    254.3   0.095189820   0.79687  -0.59401   0.22669  -0.62660
  40   39792.3    251.3   0.006650737   0.05502  -0.16242  -0.06650   0.15563
  41   39866.5    250.8   0.023400920   0.19324   0.16732   0.03906  -0.40462

FINAL SINGLE POINT ENERGY     -6116.154144426905

DIPOLE MOMENT
-------------
                                X             Y             Z
Electronic contribution:    -23.76725     -29.24709      17.17123
Nuclear contribution   :     23.72080      29.71955     -17.51870
                        -----------------------------------------
Total Dipole Moment    :     -0.04646       0.47246      -0.34747
                        -----------------------------------------
Magnitude (a.u.)       :      0.58831
Magnitude (Debye)      :      1.49537

Rotational constants in cm-1:     0.001973     0.000363     0.000316
Rotational constants in MHz :    59.163979    10.881261     9.487095

                             ****ORCA TERMINATED NORMALLY****
TOTAL RUN TIME: 0 days 0 hours 50 minutes 8 seconds 761 msec
