                         Program Version 4.2.0 -  RELEASE  -
|  1> # ORCA input file
|  2> # ZY-4Cl.out
|  3> ! CAM-B3LYP def2-SVP def2/J RIJCOSX Grid4 TightSCF
|  4> %maxcore 5000
|  5> %tddft
|  6>     Mode sTDDFT
|  7>     Ethresh 5.0
|  8>     maxcore 5000
|  9> end
| 10> * xyz 0 1
| 11>   C      3.687621    2.616547    0.377078
| 12>   O      4.611661    2.515914   -0.412796
| 13>   C      2.363075    3.267852    0.096792
| 14>   C      1.893147    3.825913   -1.084823
| 15>   C      0.601695    4.368387   -1.092540
| 16>   Cl    -0.012408    5.047534   -2.564449
| 17>   C     -0.193673    4.362348    0.078478
| 18>   Cl    -1.783816    5.053449    0.069419
| 19>   C      0.291916    3.794800    1.262559
| 20>   C      1.567112    3.246662    1.251461
| 21>   C      2.304327    2.548044    2.350077
| 22>   O      1.905414    2.351727    3.482565
| 23>   C      3.610234    2.138529    1.769320
| 24>   C      4.472642    1.376990    2.509574
| 25>   C      5.759574    0.833036    2.281950
| 26>   S      6.780400    1.145207    0.857045
| 27>   C      8.047909    0.169067    1.532384
| 28>   C      7.677126   -0.378655    2.780529
| 29>   C      6.393232   -0.016302    3.215881
| 30>   C      5.758052   -0.582187    4.456655
| 31>   C      5.013671   -1.894975    4.158701
| 32>   S      8.916897   -1.401877    3.507563
| 33>   C      9.936295   -1.086897    2.131017
| 34>   C      9.348536   -0.256583    1.164527
| 35>   N     10.237285   -0.067879    0.114801
| 36>   C     10.101207    1.108711   -0.747071
| 37>   C     10.240161    2.427951    0.010580
| 38>   C     11.396527   -0.800306    0.399513
| 39>   C     11.228473   -1.419879    1.677647
| 40>   C     12.271924   -2.183727    2.289807
| 41>   N     12.231530   -2.803352    3.460922
| 42>   S     13.720193   -3.496814    3.686563
| 43>   N     14.442676   -3.014774    2.275758
| 44>   C     13.544017   -2.304560    1.607821
| 45>   C     13.679928   -1.754002    0.294088
| 46>   C     12.599891   -1.067067   -0.349883
| 47>   N     12.959588   -0.858949   -1.683515
| 48>   C     12.123515   -0.513661   -2.831183
| 49>   C     12.439323    0.861409   -3.421038
| 50>   C     14.234301   -1.368142   -1.870969
| 51>   C     14.701518   -1.908485   -0.662718
| 52>   S     16.250211   -2.696097   -0.794701
| 53>   C     16.248937   -2.336302   -2.523469
| 54>   C     15.115075   -1.614677   -2.953122
| 55>   S     15.158655   -1.309226   -4.660709
| 56>   C     16.693671   -2.203147   -4.800373
| 57>   C     17.139468   -2.687259   -3.550634
| 58>   C     18.409384   -3.450127   -3.297551
| 59>   C     19.566705   -2.532439   -2.878669
| 60>   C     17.367922   -2.472677   -6.016612
| 61>   C     17.133767   -2.130620   -7.321860
| 62>   C     17.989321   -2.687395   -8.402100
| 63>   O     18.945571   -3.427825   -8.275780
| 64>   C     17.424445   -2.162108   -9.686503
| 65>   C     17.820129   -2.418798  -10.992575
| 66>   C     17.109604   -1.800340  -12.029283
| 67>   Cl    17.564284   -2.122544  -13.671174
| 68>   C     16.032027   -0.928367  -11.746397
| 69>   Cl    15.172054   -0.160549  -13.041258
| 70>   C     15.642803   -0.679137  -10.424254
| 71>   C     16.343907   -1.313407   -9.406098
| 72>   C     16.106672   -1.263653   -7.925398
| 73>   O     15.226728   -0.624728   -7.371817
| 74>   H      2.503628    3.838677   -1.988825
| 75>   H     -0.321858    3.779081    2.164268
| 76>   H      4.065147    1.135896    3.497954
| 77>   H      5.068951    0.143996    4.912339
| 78>   H      6.549328   -0.764301    5.201621
| 79>   H      4.188608   -1.723326    3.450752
| 80>   H      4.592520   -2.329208    5.078523
| 81>   H      5.693377   -2.633937    3.707210
| 82>   H      9.122052    1.050074   -1.249654
| 83>   H     10.859560    1.050975   -1.526616
| 84>   H     11.219089    2.491621    0.510196
| 85>   H      9.455173    2.546774    0.771743
| 86>   H     10.151403    3.267809   -0.696116
| 87>   H     11.074335   -0.604467   -2.523573
| 88>   H     12.283731   -1.289118   -3.597963
| 89>   H     11.719135    1.107542   -4.215154
| 90>   H     13.445215    0.881135   -3.865664
| 91>   H     12.398751    1.650899   -2.655283
| 92>   H     18.695088   -4.035731   -4.183403
| 93>   H     18.211241   -4.182444   -2.497468
| 94>   H     19.827933   -1.835662   -3.689296
| 95>   H     20.460868   -3.123754   -2.628748
| 96>   H     19.293384   -1.933362   -1.996347
| 97>   H     18.252984   -3.111644   -5.905385
| 98>   H     18.656443   -3.083841  -11.211689
| 99>   H     14.806504   -0.013623  -10.207748
|100> *
|101>
|102>                          ****END OF INPUT****

CARTESIAN COORDINATES (ANGSTROEM)
---------------------------------
  C      3.687621    2.616547    0.377078
  O      4.611661    2.515914   -0.412796
  C      2.363075    3.267852    0.096792
  C      1.893147    3.825913   -1.084823
  C      0.601695    4.368387   -1.092540
  Cl    -0.012408    5.047534   -2.564449
  C     -0.193673    4.362348    0.078478
  Cl    -1.783816    5.053449    0.069419
  C      0.291916    3.794800    1.262559
  C      1.567112    3.246662    1.251461
  C      2.304327    2.548044    2.350077
  O      1.905414    2.351727    3.482565
  C      3.610234    2.138529    1.769320
  C      4.472642    1.376990    2.509574
  C      5.759574    0.833036    2.281950
  S      6.780400    1.145207    0.857045
  C      8.047909    0.169067    1.532384
  C      7.677126   -0.378655    2.780529
  C      6.393232   -0.016302    3.215881
  C      5.758052   -0.582187    4.456655
  C      5.013671   -1.894975    4.158701
  S      8.916897   -1.401877    3.507563
  C      9.936295   -1.086897    2.131017
  C      9.348536   -0.256583    1.164527
  N     10.237285   -0.067879    0.114801
  C     10.101207    1.108711   -0.747071
  C     10.240161    2.427951    0.010580
  C     11.396527   -0.800306    0.399513
  C     11.228473   -1.419879    1.677647
  C     12.271924   -2.183727    2.289807
  N     12.231530   -2.803352    3.460922
  S     13.720193   -3.496814    3.686563
  N     14.442676   -3.014774    2.275758
  C     13.544017   -2.304560    1.607821
  C     13.679928   -1.754002    0.294088
  C     12.599891   -1.067067   -0.349883
  N     12.959588   -0.858949   -1.683515
  C     12.123515   -0.513661   -2.831183
  C     12.439323    0.861409   -3.421038
  C     14.234301   -1.368142   -1.870969
  C     14.701518   -1.908485   -0.662718
  S     16.250211   -2.696097   -0.794701
  C     16.248937   -2.336302   -2.523469
  C     15.115075   -1.614677   -2.953122
  S     15.158655   -1.309226   -4.660709
  C     16.693671   -2.203147   -4.800373
  C     17.139468   -2.687259   -3.550634
  C     18.409384   -3.450127   -3.297551
  C     19.566705   -2.532439   -2.878669
  C     17.367922   -2.472677   -6.016612
  C     17.133767   -2.130620   -7.321860
  C     17.989321   -2.687395   -8.402100
  O     18.945571   -3.427825   -8.275780
  C     17.424445   -2.162108   -9.686503
  C     17.820129   -2.418798  -10.992575
  C     17.109604   -1.800340  -12.029283
  Cl    17.564284   -2.122544  -13.671174
  C     16.032027   -0.928367  -11.746397
  Cl    15.172054   -0.160549  -13.041258
  C     15.642803   -0.679137  -10.424254
  C     16.343907   -1.313407   -9.406098
  C     16.106672   -1.263653   -7.925398
  O     15.226728   -0.624728   -7.371817
  H      2.503628    3.838677   -1.988825
  H     -0.321858    3.779081    2.164268
  H      4.065147    1.135896    3.497954
  H      5.068951    0.143996    4.912339
  H      6.549328   -0.764301    5.201621
  H      4.188608   -1.723326    3.450752
  H      4.592520   -2.329208    5.078523
  H      5.693377   -2.633937    3.707210
  H      9.122052    1.050074   -1.249654
  H     10.859560    1.050975   -1.526616
  H     11.219089    2.491621    0.510196
  H      9.455173    2.546774    0.771743
  H     10.151403    3.267809   -0.696116
  H     11.074335   -0.604467   -2.523573
  H     12.283731   -1.289118   -3.597963
  H     11.719135    1.107542   -4.215154
  H     13.445215    0.881135   -3.865664
  H     12.398751    1.650899   -2.655283
  H     18.695088   -4.035731   -4.183403
  H     18.211241   -4.182444   -2.497468
  H     19.827933   -1.835662   -3.689296
  H     20.460868   -3.123754   -2.628748
  H     19.293384   -1.933362   -1.996347
  H     18.252984   -3.111644   -5.905385
  H     18.656443   -3.083841  -11.211689
  H     14.806504   -0.013623  -10.207748

 Total Charge           Charge          ....    0
 Multiplicity           Mult            ....    1
 Number of Electrons    NEL             ....  510
 Basis Dimension        Dim             .... 1048

ORBITAL ENERGIES
----------------

  NO   OCC          E(Eh)            E(eV)
   0   2.0000    -101.594351     -2764.5228
   1   2.0000    -101.594069     -2764.5152
   2   2.0000    -101.594002     -2764.5133
   3   2.0000    -101.593993     -2764.5131
   4   2.0000     -89.003655     -2421.9126
   5   2.0000     -88.968903     -2420.9669
   6   2.0000     -88.968784     -2420.9637
   7   2.0000     -88.965017     -2420.8612
   8   2.0000     -88.964142     -2420.8374
   9   2.0000     -19.212949      -522.8109
  10   2.0000     -19.212426      -522.7967
  11   2.0000     -19.208186      -522.6813
  12   2.0000     -19.207769      -522.6700
  13   2.0000     -14.487505      -394.2251
  14   2.0000     -14.484691      -394.1485
  15   2.0000     -14.437097      -392.8534
  16   2.0000     -14.436684      -392.8421
  17   2.0000     -10.365844      -282.0690
  18   2.0000     -10.365516      -282.0600
  19   2.0000     -10.361280      -281.9448
  20   2.0000     -10.360585      -281.9259
  21   2.0000     -10.353020      -281.7200
  22   2.0000     -10.352749      -281.7126
  23   2.0000     -10.352643      -281.7097
  24   2.0000     -10.352304      -281.7005
  25   2.0000     -10.344684      -281.4932
  26   2.0000     -10.343889      -281.4715
  27   2.0000     -10.337899      -281.3085
  28   2.0000     -10.333769      -281.1962
  29   2.0000     -10.325560      -280.9728
  30   2.0000     -10.324904      -280.9549
  31   2.0000     -10.324412      -280.9415
  32   2.0000     -10.324147      -280.9343
  33   2.0000     -10.322624      -280.8929
  34   2.0000     -10.322516      -280.8899
  35   2.0000     -10.316677      -280.7311
  36   2.0000     -10.315640      -280.7028
  37   2.0000     -10.315347      -280.6949
  38   2.0000     -10.314852      -280.6814
  39   2.0000     -10.310168      -280.5539
  40   2.0000     -10.309671      -280.5404
  41   2.0000     -10.308788      -280.5164
  42   2.0000     -10.308752      -280.5154
  43   2.0000     -10.308654      -280.5127
  44   2.0000     -10.307962      -280.4939
  45   2.0000     -10.304991      -280.4131
  46   2.0000     -10.304588      -280.4021
  47   2.0000     -10.304522      -280.4003
  48   2.0000     -10.303991      -280.3858
  49   2.0000     -10.295715      -280.1606
  50   2.0000     -10.295459      -280.1537
  51   2.0000     -10.295418      -280.1526
  52   2.0000     -10.295053      -280.1426
  53   2.0000     -10.294654      -280.1318
  54   2.0000     -10.294306      -280.1223
  55   2.0000     -10.289024      -279.9786
  56   2.0000     -10.288517      -279.9648
  57   2.0000     -10.287508      -279.9373
  58   2.0000     -10.281423      -279.7717
  59   2.0000     -10.276784      -279.6455
  60   2.0000     -10.276362      -279.6340
  61   2.0000     -10.270812      -279.4830
  62   2.0000     -10.270808      -279.4829
  63   2.0000      -9.549082      -259.8437
  64   2.0000      -9.548739      -259.8344
  65   2.0000      -9.548681      -259.8328
  66   2.0000      -9.548662      -259.8323
  67   2.0000      -8.095387      -220.2867
  68   2.0000      -8.061706      -219.3702
  69   2.0000      -8.061494      -219.3644
  70   2.0000      -8.058684      -219.2879
  71   2.0000      -8.057922      -219.2672
  72   2.0000      -7.319540      -199.1748
  73   2.0000      -7.319171      -199.1648
  74   2.0000      -7.319153      -199.1643
  75   2.0000      -7.319134      -199.1638
  76   2.0000      -7.309308      -198.8964
  77   2.0000      -7.308970      -198.8872
  78   2.0000      -7.308924      -198.8859
  79   2.0000      -7.308900      -198.8853
  80   2.0000      -7.308665      -198.8789
  81   2.0000      -7.308337      -198.8700
  82   2.0000      -7.308279      -198.8684
  83   2.0000      -7.308266      -198.8680
  84   2.0000      -6.067004      -165.0916
  85   2.0000      -6.059648      -164.8914
  86   2.0000      -6.056531      -164.8066
  87   2.0000      -6.031446      -164.1240
  88   2.0000      -6.031255      -164.1188
  89   2.0000      -6.028597      -164.0465
  90   2.0000      -6.027886      -164.0271
  91   2.0000      -6.027173      -164.0077
  92   2.0000      -6.026920      -164.0008
  93   2.0000      -6.024672      -163.9397
  94   2.0000      -6.023893      -163.9185
  95   2.0000      -6.023290      -163.9021
  96   2.0000      -6.023090      -163.8966
  97   2.0000      -6.019584      -163.8012
  98   2.0000      -6.018758      -163.7787
  99   2.0000      -1.124157       -30.5899
 100   2.0000      -1.123351       -30.5679
 101   2.0000      -1.117839       -30.4179
 102   2.0000      -1.117114       -30.3982
 103   2.0000      -1.106891       -30.1200
 104   2.0000      -1.098379       -29.8884
 105   2.0000      -1.092443       -29.7269
 106   2.0000      -1.013662       -27.5832
 107   2.0000      -1.013187       -27.5702
 108   2.0000      -1.005342       -27.3567
 109   2.0000      -1.003876       -27.3169
 110   2.0000      -0.971633       -26.4395
 111   2.0000      -0.960667       -26.1411
 112   2.0000      -0.959817       -26.1179
 113   2.0000      -0.957576       -26.0570
 114   2.0000      -0.952114       -25.9083
 115   2.0000      -0.951994       -25.9051
 116   2.0000      -0.948075       -25.7984
 117   2.0000      -0.938796       -25.5459
 118   2.0000      -0.909761       -24.7559
 119   2.0000      -0.901891       -24.5417
 120   2.0000      -0.894357       -24.3367
 121   2.0000      -0.893869       -24.3234
 122   2.0000      -0.892322       -24.2813
 123   2.0000      -0.882448       -24.0126
 124   2.0000      -0.859534       -23.3891
 125   2.0000      -0.857804       -23.3420
 126   2.0000      -0.851484       -23.1701
 127   2.0000      -0.849520       -23.1166
 128   2.0000      -0.849133       -23.1061
 129   2.0000      -0.838669       -22.8214
 130   2.0000      -0.828070       -22.5329
 131   2.0000      -0.822809       -22.3898
 132   2.0000      -0.810660       -22.0592
 133   2.0000      -0.797397       -21.6983
 134   2.0000      -0.795845       -21.6560
 135   2.0000      -0.790668       -21.5152
 136   2.0000      -0.770308       -20.9611
 137   2.0000      -0.749234       -20.3877
 138   2.0000      -0.745715       -20.2919
 139   2.0000      -0.743113       -20.2211
 140   2.0000      -0.727327       -19.7916
 141   2.0000      -0.726102       -19.7582
 142   2.0000      -0.724337       -19.7102
 143   2.0000      -0.720563       -19.6075
 144   2.0000      -0.717532       -19.5250
 145   2.0000      -0.714811       -19.4510
 146   2.0000      -0.701671       -19.0934
 147   2.0000      -0.694216       -18.8906
 148   2.0000      -0.682829       -18.5807
 149   2.0000      -0.670375       -18.2418
 150   2.0000      -0.653750       -17.7894
 151   2.0000      -0.652213       -17.7476
 152   2.0000      -0.650759       -17.7081
 153   2.0000      -0.647510       -17.6197
 154   2.0000      -0.635271       -17.2866
 155   2.0000      -0.630854       -17.1664
 156   2.0000      -0.620111       -16.8741
 157   2.0000      -0.612556       -16.6685
 158   2.0000      -0.608885       -16.5686
 159   2.0000      -0.602401       -16.3922
 160   2.0000      -0.598557       -16.2876
 161   2.0000      -0.590866       -16.0783
 162   2.0000      -0.587989       -16.0000
 163   2.0000      -0.583281       -15.8719
 164   2.0000      -0.582670       -15.8553
 165   2.0000      -0.572460       -15.5774
 166   2.0000      -0.570750       -15.5309
 167   2.0000      -0.566830       -15.4242
 168   2.0000      -0.556150       -15.1336
 169   2.0000      -0.554055       -15.0766
 170   2.0000      -0.550932       -14.9916
 171   2.0000      -0.549271       -14.9464
 172   2.0000      -0.546498       -14.8710
 173   2.0000      -0.542741       -14.7687
 174   2.0000      -0.540587       -14.7101
 175   2.0000      -0.537580       -14.6283
 176   2.0000      -0.535160       -14.5625
 177   2.0000      -0.534242       -14.5375
 178   2.0000      -0.532316       -14.4851
 179   2.0000      -0.531281       -14.4569
 180   2.0000      -0.528659       -14.3855
 181   2.0000      -0.527357       -14.3501
 182   2.0000      -0.525963       -14.3122
 183   2.0000      -0.521620       -14.1940
 184   2.0000      -0.520423       -14.1614
 185   2.0000      -0.515929       -14.0391
 186   2.0000      -0.511402       -13.9159
 187   2.0000      -0.510760       -13.8985
 188   2.0000      -0.509469       -13.8634
 189   2.0000      -0.507742       -13.8164
 190   2.0000      -0.502293       -13.6681
 191   2.0000      -0.499065       -13.5802
 192   2.0000      -0.497537       -13.5387
 193   2.0000      -0.494492       -13.4558
 194   2.0000      -0.493104       -13.4181
 195   2.0000      -0.490535       -13.3481
 196   2.0000      -0.482609       -13.1325
 197   2.0000      -0.481594       -13.1048
 198   2.0000      -0.481148       -13.0927
 199   2.0000      -0.478463       -13.0197
 200   2.0000      -0.476172       -12.9573
 201   2.0000      -0.475276       -12.9329
 202   2.0000      -0.473182       -12.8759
 203   2.0000      -0.470581       -12.8052
 204   2.0000      -0.467880       -12.7317
 205   2.0000      -0.466983       -12.7072
 206   2.0000      -0.465812       -12.6754
 207   2.0000      -0.464507       -12.6399
 208   2.0000      -0.458765       -12.4836
 209   2.0000      -0.458104       -12.4656
 210   2.0000      -0.456854       -12.4316
 211   2.0000      -0.455651       -12.3989
 212   2.0000      -0.453358       -12.3365
 213   2.0000      -0.451146       -12.2763
 214   2.0000      -0.448792       -12.2123
 215   2.0000      -0.446163       -12.1407
 216   2.0000      -0.439395       -11.9565
 217   2.0000      -0.428430       -11.6582
 218   2.0000      -0.425801       -11.5866
 219   2.0000      -0.424670       -11.5559
 220   2.0000      -0.423978       -11.5370
 221   2.0000      -0.423235       -11.5168
 222   2.0000      -0.423224       -11.5165
 223   2.0000      -0.419259       -11.4086
 224   2.0000      -0.412283       -11.2188
 225   2.0000      -0.410955       -11.1826
 226   2.0000      -0.410331       -11.1657
 227   2.0000      -0.405774       -11.0417
 228   2.0000      -0.403560       -10.9814
 229   2.0000      -0.403111       -10.9692
 230   2.0000      -0.402332       -10.9480
 231   2.0000      -0.401103       -10.9146
 232   2.0000      -0.393227       -10.7002
 233   2.0000      -0.392758       -10.6875
 234   2.0000      -0.378254       -10.2928
 235   2.0000      -0.377868       -10.2823
 236   2.0000      -0.373078       -10.1520
 237   2.0000      -0.368911       -10.0386
 238   2.0000      -0.366470        -9.9722
 239   2.0000      -0.347085        -9.4447
 240   2.0000      -0.346826        -9.4376
 241   2.0000      -0.346104        -9.4180
 242   2.0000      -0.335170        -9.1205
 243   2.0000      -0.334670        -9.1068
 244   2.0000      -0.333820        -9.0837
 245   2.0000      -0.322421        -8.7735
 246   2.0000      -0.320772        -8.7287
 247   2.0000      -0.320404        -8.7186
 248   2.0000      -0.318832        -8.6759
 249   2.0000      -0.311776        -8.4839
 250   2.0000      -0.308767        -8.4020
 251   2.0000      -0.287597        -7.8259
 252   2.0000      -0.277628        -7.5546
 253   2.0000      -0.275012        -7.4835
 254   2.0000      -0.239974        -6.5300
 255   0.0000      -0.084106        -2.2886
 256   0.0000      -0.069654        -1.8954
 257   0.0000      -0.044086        -1.1996
 258   0.0000      -0.043588        -1.1861
 259   0.0000      -0.041040        -1.1168

MULLIKEN ATOMIC CHARGES
-----------------------
   0 C :    0.175773
   1 O :   -0.165023
   2 C :   -0.017066
   3 C :   -0.026817
   4 C :    0.049004
   5 Cl:   -0.054251
   6 C :    0.054560
   7 Cl:   -0.053272
   8 C :   -0.027370
   9 C :    0.009330
  10 C :    0.155208
  11 O :   -0.159685
  12 C :   -0.175493
  13 C :   -0.034702
  14 C :   -0.096359
  15 S :    0.203147
  16 C :   -0.059287
  17 C :   -0.097066
  18 C :   -0.045424
  19 C :    0.039737
  20 C :    0.010753
  21 S :    0.190818
  22 C :   -0.093912
  23 C :    0.040941
  24 N :   -0.199235
  25 C :    0.104690
  26 C :   -0.007573
  27 C :    0.068106
  28 C :   -0.055413
  29 C :    0.004994
  30 N :   -0.267667
  31 S :    0.442926
  32 N :   -0.264018
  33 C :   -0.007013
  34 C :   -0.050476
  35 C :    0.056510
  36 N :   -0.194106
  37 C :    0.067454
  38 C :   -0.007500
  39 C :    0.051642
  40 C :   -0.099073
  41 S :    0.189622
  42 C :   -0.097092
  43 C :   -0.051089
  44 S :    0.191912
  45 C :   -0.093410
  46 C :   -0.042965
  47 C :    0.042627
  48 C :    0.010188
  49 C :   -0.032315
  50 C :   -0.178704
  51 C :    0.156226
  52 O :   -0.159963
  53 C :    0.006926
  54 C :   -0.021615
  55 C :    0.050060
  56 Cl:   -0.052883
  57 C :    0.050393
  58 Cl:   -0.053371
  59 C :   -0.024838
  60 C :   -0.015756
  61 C :    0.177279
  62 O :   -0.170683
  63 H :    0.005172
  64 H :    0.006019
  65 H :    0.012389
  66 H :    0.031423
  67 H :    0.020270
  68 H :    0.023897
  69 H :    0.031771
  70 H :    0.024699
  71 H :    0.040265
  72 H :   -0.013760
  73 H :    0.032964
  74 H :    0.042738
  75 H :    0.035051
  76 H :    0.042001
  77 H :    0.043883
  78 H :    0.040532
  79 H :    0.039052
  80 H :    0.040069
  81 H :    0.027048
  82 H :    0.021959
  83 H :    0.023438
  84 H :    0.031070
  85 H :    0.024167
  86 H :    0.014370
  87 H :    0.007036
  88 H :    0.004132
Sum of atomic charges:   -0.0000000

LOEWDIN ATOMIC CHARGES
----------------------
   0 C :    0.079241
   1 O :   -0.166086
   2 C :   -0.043817
   3 C :   -0.008441
   4 C :   -0.128853
   5 Cl:    0.141739
   6 C :   -0.129043
   7 Cl:    0.142371
   8 C :   -0.006276
   9 C :   -0.045907
  10 C :    0.082186
  11 O :   -0.157926
  12 C :   -0.153808
  13 C :    0.058688
  14 C :   -0.189588
  15 S :    0.453445
  16 C :   -0.194143
  17 C :   -0.195110
  18 C :   -0.016339
  19 C :   -0.033189
  20 C :   -0.050072
  21 S :    0.415119
  22 C :   -0.167520
  23 C :   -0.038177
  24 N :    0.025181
  25 C :    0.036847
  26 C :   -0.064457
  27 C :    0.013462
  28 C :   -0.078177
  29 C :   -0.052815
  30 N :   -0.277795
  31 S :    0.572622
  32 N :   -0.278196
  33 C :   -0.051943
  34 C :   -0.080774
  35 C :    0.015081
  36 N :    0.032702
  37 C :    0.036054
  38 C :   -0.068756
  39 C :   -0.038371
  40 C :   -0.168324
  41 S :    0.413172
  42 C :   -0.194695
  43 C :   -0.194196
  44 S :    0.455624
  45 C :   -0.188847
  46 C :   -0.015702
  47 C :   -0.033371
  48 C :   -0.050366
  49 C :    0.059733
  50 C :   -0.154699
  51 C :    0.082295
  52 O :   -0.157147
  53 C :   -0.045449
  54 C :   -0.006256
  55 C :   -0.129005
  56 Cl:    0.142257
  57 C :   -0.129165
  58 Cl:    0.141712
  59 C :   -0.007654
  60 C :   -0.043940
  61 C :    0.079194
  62 O :   -0.168416
  63 H :    0.045993
  64 H :    0.047046
  65 H :    0.048683
  66 H :    0.036313
  67 H :    0.033093
  68 H :    0.028795
  69 H :    0.031265
  70 H :    0.028457
  71 H :    0.031835
  72 H :    0.028080
  73 H :    0.033214
  74 H :    0.029258
  75 H :    0.037585
  76 H :    0.031643
  77 H :    0.034638
  78 H :    0.040076
  79 H :    0.030669
  80 H :    0.027943
  81 H :    0.035401
  82 H :    0.034208
  83 H :    0.028895
  84 H :    0.031347
  85 H :    0.027382
  86 H :    0.049130
  87 H :    0.047284
  88 H :    0.045853

  Mayer bond orders larger than 0.100000
B(  0-C ,  1-O ) :   2.2163 B(  0-C ,  2-C ) :   0.9213 B(  0-C , 12-C ) :   0.9643
B(  2-C ,  3-C ) :   1.3461 B(  2-C ,  9-C ) :   1.3560 B(  3-C ,  4-C ) :   1.3553
B(  3-C , 63-H ) :   1.0060 B(  4-C ,  5-Cl) :   1.0393 B(  4-C ,  6-C ) :   1.4024
B(  6-C ,  7-Cl) :   1.0402 B(  6-C ,  8-C ) :   1.3531 B(  8-C ,  9-C ) :   1.3475
B(  8-C , 64-H ) :   1.0070 B(  9-C , 10-C ) :   0.9094 B( 10-C , 11-O ) :   2.2222
B( 10-C , 12-C ) :   0.9776 B( 12-C , 13-C ) :   1.6109 B( 13-C , 14-C ) :   1.2179
B( 13-C , 65-H ) :   0.9303 B( 14-C , 15-S ) :   1.0472 B( 14-C , 18-C ) :   1.4094
B( 15-S , 16-C ) :   1.0405 B( 16-C , 17-C ) :   1.4266 B( 16-C , 23-C ) :   1.2836
B( 17-C , 18-C ) :   1.3815 B( 17-C , 21-S ) :   1.0260 B( 18-C , 19-C ) :   1.0752
B( 19-C , 20-C ) :   1.0967 B( 19-C , 66-H ) :   0.9154 B( 19-C , 67-H ) :   0.9237
B( 20-C , 68-H ) :   0.9693 B( 20-C , 69-H ) :   0.9691 B( 20-C , 70-H ) :   0.9698
B( 21-S , 22-C ) :   1.0257 B( 22-C , 23-C ) :   1.4297 B( 22-C , 28-C ) :   1.3456
B( 23-C , 24-N ) :   1.1431 B( 24-N , 25-C ) :   0.9425 B( 24-N , 27-C ) :   1.1528
B( 25-C , 26-C ) :   1.1103 B( 25-C , 71-H ) :   0.9404 B( 25-C , 72-H ) :   0.9468
B( 26-C , 73-H ) :   0.9657 B( 26-C , 74-H ) :   0.9613 B( 26-C , 75-H ) :   0.9627
B( 27-C , 28-C ) :   1.4008 B( 27-C , 35-C ) :   1.1112 B( 28-C , 29-C ) :   1.0994
B( 29-C , 30-N ) :   1.6477 B( 29-C , 33-C ) :   1.1184 B( 30-N , 31-S ) :   1.1933
B( 30-N , 32-N ) :   0.1334 B( 31-S , 32-N ) :   1.1944 B( 32-N , 33-C ) :   1.6471
B( 33-C , 34-C ) :   1.1071 B( 34-C , 35-C ) :   1.3805 B( 34-C , 40-C ) :   1.3499
B( 35-C , 36-N ) :   1.1792 B( 36-N , 37-C ) :   0.9366 B( 36-N , 39-C ) :   1.1375
B( 37-C , 38-C ) :   1.0943 B( 37-C , 76-H ) :   0.9531 B( 37-C , 77-H ) :   0.9446
B( 38-C , 78-H ) :   0.9661 B( 38-C , 79-H ) :   0.9531 B( 38-C , 80-H ) :   0.9590
B( 39-C , 40-C ) :   1.4199 B( 39-C , 43-C ) :   1.2732 B( 40-C , 41-S ) :   1.0275
B( 41-S , 42-C ) :   1.0263 B( 42-C , 43-C ) :   1.4244 B( 42-C , 46-C ) :   1.3832
B( 43-C , 44-S ) :   1.0452 B( 44-S , 45-C ) :   1.0465 B( 45-C , 46-C ) :   1.4115
B( 45-C , 49-C ) :   1.2172 B( 46-C , 47-C ) :   1.0700 B( 47-C , 48-C ) :   1.0963
B( 47-C , 81-H ) :   0.9176 B( 47-C , 82-H ) :   0.9242 B( 48-C , 83-H ) :   0.9691
B( 48-C , 84-H ) :   0.9690 B( 48-C , 85-H ) :   0.9707 B( 49-C , 50-C ) :   1.6085
B( 49-C , 86-H ) :   0.9325 B( 50-C , 51-C ) :   0.9772 B( 50-C , 61-C ) :   0.9672
B( 51-C , 52-O ) :   2.2238 B( 51-C , 53-C ) :   0.9090 B( 53-C , 54-C ) :   1.3490
B( 53-C , 60-C ) :   1.3568 B( 54-C , 55-C ) :   1.3543 B( 54-C , 87-H ) :   1.0067
B( 55-C , 56-Cl) :   1.0404 B( 55-C , 57-C ) :   1.4022 B( 57-C , 58-Cl) :   1.0408
B( 57-C , 59-C ) :   1.3559 B( 59-C , 60-C ) :   1.3422 B( 59-C , 88-H ) :   1.0077
B( 60-C , 61-C ) :   0.9273 B( 61-C , 62-O ) :   2.2023

-----------------------------------------------------------------------------
         ABSORPTION SPECTRUM VIA TRANSITION ELECTRIC DIPOLE MOMENTS
-----------------------------------------------------------------------------
State   Energy  Wavelength   fosc         T2         TX        TY        TZ
        (cm-1)    (nm)                  (au**2)     (au)      (au)      (au)
-----------------------------------------------------------------------------
   0   19057.6    524.7   2.114920301  36.53442   4.82788  -1.53992  -3.29463
   1   23354.1    428.2   0.944136844  13.30908   1.72158  -1.32655   2.93010
   2   26419.3    378.5   0.077031110   0.95989  -0.59491   0.66347  -0.40717
   3   26497.2    377.4   0.142831923   1.77460   0.37217  -0.55418   1.15281
   4   27814.9    359.5   0.048320763   0.57192  -0.56469  -0.08699   0.49545
   5   28403.3    352.1   0.019923909   0.23093   0.28722  -0.18655   0.33709
   6   28495.8    350.9   0.013101506   0.15136  -0.22140  -0.08774   0.30764
   7   28882.8    346.2   0.369550919   4.21221   1.02395  -0.78390   1.59663
   8   29085.8    343.8   0.062526673   0.70772   0.21687   0.01901  -0.81260
   9   29241.5    342.0   0.039415794   0.44376  -0.53834   0.22111  -0.32413
  10   30919.1    323.4   0.000019103   0.00020  -0.00691   0.00795  -0.00962
  11   30996.4    322.6   0.000093364   0.00099   0.01297   0.02093  -0.01963
  12   31661.4    315.8   0.103876777   1.08010   0.55696  -0.30907  -0.82120
  13   31935.3    313.1   0.073142365   0.75400  -0.53139   0.50807  -0.46205
  14   32591.4    306.8   0.007419645   0.07495   0.05130   0.23150   0.13684
  15   34389.0    290.8   0.115762834   1.10822  -0.33832   0.57274  -0.81592
  16   35275.0    283.5   0.009356195   0.08732  -0.21635   0.14346   0.14118
  17   35949.2    278.2   0.048196790   0.44137   0.08139   0.07785  -0.65474
  18   36184.5    276.4   0.182986762   1.66484   0.38908  -0.44504   1.14691
  19   36385.2    274.8   0.040658064   0.36787  -0.51630   0.17402   0.26651
  20   36443.1    274.4   0.248569667   2.24547   1.33656  -0.43274  -0.52137
  21   36492.5    274.0   0.007108638   0.06413   0.23821   0.03857   0.07680
  22   36558.4    273.5   0.000145169   0.00131  -0.00922  -0.01453  -0.03180
  23   37228.6    268.6   0.012314968   0.10890  -0.12123   0.21376  -0.22025
  24   37317.5    268.0   0.015285470   0.13485  -0.20509  -0.11364   0.28261
  25   37538.6    266.4   0.009996038   0.08766  -0.26680   0.09603  -0.08520
  26   37941.7    263.6   0.005001744   0.04340  -0.04961   0.06925  -0.19011
  27   38332.5    260.9   0.000801361   0.00688  -0.06651  -0.03198   0.03790
  28   38551.3    259.4   0.002067070   0.01765   0.10534  -0.07286   0.03531
  29   38739.1    258.1   0.001031625   0.00877  -0.04963   0.05850  -0.05368
  30   38932.7    256.9   0.063590276   0.53771  -0.35093   0.33651  -0.54893
  31   39642.7    252.3   0.000363935   0.00302  -0.01147   0.05241   0.01199
  32   40253.3    248.4   0.000731115   0.00598   0.06979  -0.01101  -0.03142

FINAL SINGLE POINT ENERGY     -6116.268927633009

DIPOLE MOMENT
-------------
                                X             Y             Z
Electronic contribution:    -28.99747      13.47694     -47.00808
Nuclear contribution   :     29.32584     -13.36528      47.32191
                        -----------------------------------------
Total Dipole Moment    :      0.32837       0.11166       0.31384
                        -----------------------------------------
Magnitude (a.u.)       :      0.46775
Magnitude (Debye)      :      1.18893

Rotational constants in cm-1:     0.001068     0.000307     0.000242
Rotational constants in MHz :    32.003002     9.198713     7.240563

                             ****ORCA TERMINATED NORMALLY****
TOTAL RUN TIME: 0 days 0 hours 47 minutes 32 seconds 187 msec
